<event>
 6    0  0.4189111E+002  0.1107030E+03  0.7546771E-02  0.1259274E+00
          1   -1    0    0  505    0 -0.00000000000E+00  0.00000000000E+00  0.23253087813E+04  0.23253087813E+04  0.00000000000E+00 0.  1.
         21   -1    0    0  503  502  0.00000000000E+00 -0.00000000000E+00 -0.36371978553E+03  0.36371978553E+03  0.00000000000E+00 0. -1.
         21    1    1    2  503  501  0.62641760649E+02  0.22991714086E+01 -0.12866336120E+02  0.63990772550E+02  0.00000000000E+00 0.  1.
         21    1    1    2  504  502  0.23391150866E+02 -0.73212673119E+02 -0.31835541887E+03  0.32750177735E+03  0.00000000000E+00 0. -1.
         21    1    1    2  505  504 -0.46854299036E+02  0.90445140012E+02  0.14364363558E+04  0.14400434205E+04  0.00000000000E+00 0.  1.
          1    1    1    2  501    0 -0.39178612479E+02 -0.19531638302E+02  0.85637439498E+03  0.85749259644E+03  0.00000000000E+00 0.  1.
<scales pt_clust_3="61.99069" pt_clust_4="110.70296" pt_clust_5="14000.00000" pt_clust_6="43.77726"></scales>
<clustering>
<clus scale="   43.777">  1  6  2 -1</clus>
<clus scale="   61.991">  2  3  1 -1</clus>
<clus scale="  110.703">  2  4  1 -1</clus>
<clus scale="   61.991">  2  3  1 -1</clus>
</clustering>
</event>
<event>
 6    0  0.4189111E+002  0.2541551E+03  0.7546771E-02  0.1110707E+00
         21   -1    0    0  504  502  0.00000000000E+00  0.00000000000E+00  0.56289116493E+03  0.56289116493E+03  0.00000000000E+00 0.  1.
         -2   -1    0    0    0  501 -0.00000000000E+00 -0.00000000000E+00 -0.73807621382E+03  0.73807621382E+03  0.00000000000E+00 0. -1.
         21    1    1    2  503  501 -0.11284952757E+02 -0.40277218025E+02 -0.18515513938E+02  0.45743072776E+02  0.00000000000E+00 0. -1.
         21    1    1    2  504  503 -0.16215060182E+03  0.16145499886E+03  0.50345768605E+03  0.55301914612E+03  0.00000000000E+00 0.  1.
         21    1    1    2  505  502  0.14727092875E+03 -0.60232380844E+02 -0.34149475256E+03  0.37674305858E+03  0.00000000000E+00 0.  1.
         -2    1    1    2    0  505  0.26164625834E+02 -0.60945399992E+02 -0.31863246844E+03  0.32546210128E+03  0.00000000000E+00 0. -1.
<scales pt_clust_3="41.82827" pt_clust_4="228.11097" pt_clust_5="79.53383" pt_clust_6="79.53383"></scales>
<clustering>
<clus scale="   41.828">  2  3  1 -1</clus>
<clus scale="   79.534">  5  6 -1 -1</clus>
<clus scale="  228.111">  1  4  2 -1</clus>
<clus scale="  228.111">  1  3  2 -1</clus>
</clustering>
</event>
<event>
 6    0  0.4189111E+002  0.2221630E+03  0.7546771E-02  0.1132281E+00
         21   -1    0    0  503  502  0.00000000000E+00  0.00000000000E+00  0.68941576968E+02  0.68941576968E+02  0.00000000000E+00 0.  1.
          2   -1    0    0  505    0 -0.00000000000E+00 -0.00000000000E+00 -0.12203874175E+04  0.12203874175E+04  0.00000000000E+00 0.  1.
         21    1    1    2  503  501 -0.11932935911E+03 -0.16861008429E+03 -0.42921986760E+03  0.47633869380E+03  0.00000000000E+00 0.  1.
         21    1    1    2  504  502  0.19583386172E+03  0.54263729928E+02 -0.33510169547E+03  0.39190381484E+03  0.00000000000E+00 0.  1.
         21    1    1    2  505  504 -0.35777222217E+02  0.11896184555E+03 -0.27693830460E+03  0.30352389508E+03  0.00000000000E+00 0.  1.
          2    1    1    2  501    0 -0.40727280400E+02 -0.46154911955E+01 -0.11018597286E+03  0.11756259075E+03  0.00000000000E+00 0.  1.
<scales pt_clust_3="34.89011" pt_clust_4="207.89791" pt_clust_5="124.22532" pt_clust_6="34.89011"></scales>
<clustering>
<clus scale="   34.890">  3  6 -1 -1</clus>
<clus scale="  124.225">  2  5  1 -1</clus>
<clus scale="  207.898">  1  4  2 -1</clus>
<clus scale="  207.898">  1  3  2 -1</clus>
</clustering>
</event>
<event>
 6    0  0.4189111E+002  0.1042623E+03  0.7546771E-02  0.1271580E+00
         21   -1    0    0  505  502  0.00000000000E+00  0.00000000000E+00  0.14354946027E+03  0.14354946027E+03  0.00000000000E+00 0. -1.
          2   -1    0    0  503    0 -0.00000000000E+00 -0.00000000000E+00 -0.28618560038E+04  0.28618560038E+04  0.00000000000E+00 0.  1.
         21    1    1    2  503  502 -0.45270344387E+02 -0.93689692062E+02  0.11430494460E+03  0.15457290461E+03  0.00000000000E+00 0. -1.
         21    1    1    2  504  501 -0.54479553198E+02  0.21614428098E+02 -0.21581297294E+03  0.22363015116E+03  0.00000000000E+00 0.  1.
         21    1    1    2  505  504  0.14532736058E+03  0.59512237661E+02 -0.12843239578E+04  0.12938893990E+04  0.00000000000E+00 0.  1.
          2    1    1    2  501    0 -0.45577462997E+02  0.12563026303E+02 -0.13324745573E+04  0.13333130093E+04  0.00000000000E+00 0.  1.
<scales pt_clust_3="104.26235" pt_clust_4="65.36869" pt_clust_5="14000.00000" pt_clust_6="47.27721"></scales>
<clustering>
<clus scale="   47.277">  2  6  1 -1</clus>
<clus scale="   65.369">  2  4  1 -1</clus>
<clus scale="  104.262">  1  3  2 -1</clus>
<clus scale="  104.262">  1  3  2 -1</clus>
</clustering>
</event>
<event>
 6    0  0.4189111E+002  0.1156621E+03  0.7546771E-02  0.1250430E+00
          1   -1    0    0  505    0 -0.00000000000E+00  0.00000000000E+00  0.17825403402E+04  0.17825403402E+04  0.00000000000E+00 0.  1.
         21   -1    0    0  504  502  0.00000000000E+00 -0.00000000000E+00 -0.16417408284E+03  0.16417408284E+03  0.00000000000E+00 0. -1.
         21    1    1    2  503  502 -0.87272942540E+02 -0.79654132027E+02 -0.10234868389E+03  0.15632210446E+03  0.00000000000E+00 0. -1.
         21    1    1    2  504  501  0.10301311740E+03  0.43226373869E+02  0.67063236561E+02  0.13029850135E+03  0.00000000000E+00 0.  1.
         21    1    1    2  505  503  0.35348725326E+01 -0.51039670383E+02  0.40217732250E+03  0.40541847764E+03  0.00000000000E+00 0.  1.
          1    1    1    2  501    0 -0.19275047396E+02  0.87467428541E+02  0.12514743822E+04  0.12546753396E+04  0.00000000000E+00 0.  1.
<scales pt_clust_3="115.66215" pt_clust_4="14000.00000" pt_clust_5="51.16193" pt_clust_6="44.10843"></scales>
<clustering>
<clus scale="   51.162">  1  5  2 -1</clus>
<clus scale="   44.108">  1  6  2 -1</clus>
<clus scale="  115.662">  2  3  1 -1</clus>
<clus scale="  115.662">  2  3  1 -1</clus>
</clustering>
</event>
<event>
 6    0  0.4189111E+002  0.7893446E+02  0.7546771E-02  0.1332103E+00
          2   -1    0    0  503    0 -0.00000000000E+00  0.00000000000E+00  0.75063978055E+03  0.75063978055E+03  0.00000000000E+00 0.  1.
         21   -1    0    0  505  502  0.00000000000E+00 -0.00000000000E+00 -0.95078248003E+03  0.95078248003E+03  0.00000000000E+00 0. -1.
         21    1    1    2  503  504  0.26365394909E+02  0.71542687648E+02  0.20919190575E+03  0.22265386508E+03  0.00000000000E+00 0. -1.
         21    1    1    2  504  502 -0.55189428387E+02  0.80612872858E+02 -0.48308810101E+03  0.49286754977E+03  0.00000000000E+00 0. -1.
         21    1    1    2  505  501 -0.20176935932E+02 -0.56938037308E+02 -0.44861761091E+03  0.45266633369E+03  0.00000000000E+00 0. -1.
          2    1    1    2  501    0  0.49000969410E+02 -0.95217523198E+02  0.52237110669E+03  0.53323451204E+03  0.00000000000E+00 0.  1.
<scales pt_clust_3="75.43334" pt_clust_4="14000.00000" pt_clust_5="60.40736" pt_clust_6="78.93446"></scales>
<clustering>
<clus scale="   60.407">  2  5  1 -1</clus>
<clus scale="   75.433">  1  3  2 -1</clus>
<clus scale="   78.934">  1  6  2 -1</clus>
<clus scale="   60.407">  2  3  1 -1</clus>
</clustering>
</event>
<event>
 6    0  0.4189111E+002  0.1634428E+03  0.7546771E-02  0.1184864E+00
          2   -1    0    0  504    0 -0.00000000000E+00  0.00000000000E+00  0.25769966010E+04  0.25769966010E+04  0.00000000000E+00 0. -1.
         21   -1    0    0  505  502  0.00000000000E+00 -0.00000000000E+00 -0.96341294561E+02  0.96341294561E+02  0.00000000000E+00 0. -1.
         21    1    1    2  503  502  0.41103052267E+02 -0.23309218139E+02  0.33766422878E+02  0.58077120021E+02  0.00000000000E+00 0.  1.
         21    1    1    2  504  503  0.73033260128E+02 -0.32136230163E+01  0.17750671165E+03  0.19197087576E+03  0.00000000000E+00 0.  1.
         21    1    1    2  505  501  0.53784369141E+02  0.26131567912E+02 -0.61843292354E+02  0.86024473347E+02  0.00000000000E+00 0. -1.
          2    1    1    2  501    0 -0.16792068154E+03  0.39127324417E+00  0.23312254642E+04  0.23372654264E+04  0.00000000000E+00 0. -1.
<scales pt_clust_3="47.25231" pt_clust_4="76.74173" pt_clust_5="163.44280" pt_clust_6="14000.00000"></scales>
<clustering>
<clus scale="   47.252">  2  3  1 -1</clus>
<clus scale="   76.742">  2  4  1 -1</clus>
<clus scale="  163.443">  2  5  1 -1</clus>
<clus scale="   47.252">  2  3  1 -1</clus>
</clustering>
</event>
<event>
 6    0  0.4189111E+002  0.6246192E+02  0.7546771E-02  0.1387781E+00
         21   -1    0    0  503  502  0.00000000000E+00  0.00000000000E+00  0.13833508256E+04  0.13833508256E+04  0.00000000000E+00 0. -1.
          1   -1    0    0  504    0 -0.00000000000E+00 -0.00000000000E+00 -0.26364885945E+03  0.26364885945E+03  0.00000000000E+00 0. -1.
         21    1    1    2  503  501  0.11201357887E+02  0.56672414714E+02  0.97731346103E+03  0.97901932265E+03  0.00000000000E+00 0. -1.
         21    1    1    2  504  505  0.94415305240E+00 -0.37140070798E+02 -0.13152994282E+02  0.39411642219E+02  0.00000000000E+00 0. -1.
         21    1    1    2  505  502 -0.73451011029E+01 -0.95274807336E+02  0.37989355874E+03  0.39172739934E+03  0.00000000000E+00 0. -1.
          1    1    1    2  501    0 -0.48004098362E+01  0.75742463419E+02 -0.22435205937E+03  0.23684132081E+03  0.00000000000E+00 0. -1.
<scales pt_clust_3="14000.00000" pt_clust_4="37.15207" pt_clust_5="62.46192" pt_clust_6="39.85130"></scales>
<clustering>
<clus scale="   37.152">  2  4  1 -1</clus>
<clus scale="   39.851">  2  6  1 -1</clus>
<clus scale="   62.462">  2  5  1 -1</clus>
<clus scale="   62.462">  1  3  2 -1</clus>
</clustering>
</event>
<event>
 6    0  0.4189111E+002  0.9948154E+02  0.7546771E-02  0.1281390E+00
         21   -1    0    0  503  502  0.00000000000E+00  0.00000000000E+00  0.60632987437E+03  0.60632987437E+03  0.00000000000E+00 0.  1.
         -4   -1    0    0    0  501 -0.00000000000E+00 -0.00000000000E+00 -0.85515994689E+03  0.85515994689E+03  0.00000000000E+00 0. -1.
         21    1    1    2  503  501 -0.39874809694E+02  0.20349336429E+02 -0.15002353575E+03  0.15656039480E+03  0.00000000000E+00 0. -1.
         21    1    1    2  504  502 -0.54135846688E+01  0.42251166783E+02  0.45396950739E+03  0.45596357490E+03  0.00000000000E+00 0.  1.
         21    1    1    2  505  504  0.10454983857E+03 -0.25016719633E+02  0.12653776503E+03  0.16603707714E+03  0.00000000000E+00 0.  1.
         -4    1    1    2    0  505 -0.59261444211E+02 -0.37583783579E+02 -0.67931380920E+03  0.68292877442E+03  0.00000000000E+00 0. -1.
<scales pt_clust_3="45.29233" pt_clust_4="42.59657" pt_clust_5="99.48154" pt_clust_6="14000.00000"></scales>
<clustering>
<clus scale="   42.597">  1  4  2 -1</clus>
<clus scale="   45.292">  2  3  1 -1</clus>
<clus scale="   99.482">  1  5  2 -1</clus>
<clus scale="   42.597">  1  3  2 -1</clus>
</clustering>
</event>
<event>
 6    0  0.4189111E+002  0.1012729E+03  0.7546771E-02  0.1277642E+00
          2   -1    0    0  504    0 -0.00000000000E+00  0.00000000000E+00  0.20567643536E+04  0.20567643536E+04  0.00000000000E+00 0.  1.
         21   -1    0    0  503  502  0.00000000000E+00 -0.00000000000E+00 -0.26617093489E+03  0.26617093489E+03  0.00000000000E+00 0. -1.
         21    1    1    2  503  505  0.35859151275E+02 -0.84736373001E+02 -0.13712666655E+03  0.16513586624E+03  0.00000000000E+00 0. -1.
         21    1    1    2  504  502 -0.35765710512E+02 -0.91490959579E+01  0.50404572417E+02  0.62478099570E+02  0.00000000000E+00 0. -1.
         21    1    1    2  505  501 -0.93624313544E+01  0.13261012785E+03 -0.68189733930E+02  0.14940863744E+03  0.00000000000E+00 0. -1.
          2    1    1    2  501    0  0.92689905920E+01 -0.38724658890E+02  0.19455052468E+04  0.19459126853E+04  0.00000000000E+00 0.  1.
<scales pt_clust_3="14000.00000" pt_clust_4="36.91737" pt_clust_5="101.27286" pt_clust_6="54.03076"></scales>
<clustering>
<clus scale="   36.917">  1  4  2 -1</clus>
<clus scale="   54.031">  1  6  2 -1</clus>
<clus scale="  101.273">  1  5  2 -1</clus>
<clus scale="  101.273">  2  3  1 -1</clus>
</clustering>
</event>
<event>
 6    0  0.4189111E+002  0.1719469E+03  0.7546771E-02  0.1175833E+00
          1   -1    0    0  503    0 -0.00000000000E+00  0.00000000000E+00  0.27247543853E+04  0.27247543853E+04  0.00000000000E+00 0. -1.
         21   -1    0    0  504  502  0.00000000000E+00 -0.00000000000E+00 -0.21414520706E+03  0.21414520706E+03  0.00000000000E+00 0.  1.
         21    1    1    2  503  505 -0.47428406685E+02  0.13681519465E+02  0.18643242759E+03  0.19285665089E+03  0.00000000000E+00 0. -1.
         21    1    1    2  504  501  0.55425734261E+02  0.17053410171E+03  0.98700341330E+03  0.10031598226E+04  0.00000000000E+00 0. -1.
         21    1    1    2  505  502  0.59486300984E+02 -0.16250281685E+03 -0.16496082845E+03  0.23907710140E+03  0.00000000000E+00 0.  1.
          1    1    1    2  501    0 -0.67483628560E+02 -0.21712804321E+02  0.15021341658E+04  0.15038060174E+04  0.00000000000E+00 0. -1.
<scales pt_clust_3="49.36231" pt_clust_4="14000.00000" pt_clust_5="171.94694" pt_clust_6="96.56484"></scales>
<clustering>
<clus scale="   49.362">  1  3  2 -1</clus>
<clus scale="   96.565">  1  6  2 -1</clus>
<clus scale="  171.947">  2  5  1 -1</clus>
<clus scale="  171.947">  2  3  1 -1</clus>
</clustering>
</event>
<event>
 6    0  0.4189111E+002  0.1833679E+03  0.7546771E-02  0.1164583E+00
          1   -1    0    0  505    0 -0.00000000000E+00  0.00000000000E+00  0.10231429928E+04  0.10231429928E+04  0.00000000000E+00 0.  1.
         21   -1    0    0  504  502  0.00000000000E+00 -0.00000000000E+00 -0.21624856895E+03  0.21624856895E+03  0.00000000000E+00 0. -1.
         21    1    1    2  503  501 -0.67932322462E+02 -0.69066081656E+02 -0.65304811921E+02  0.11683168462E+03  0.00000000000E+00 0.  1.
         21    1    1    2  504  503 -0.84825297873E+02 -0.90154624073E+00 -0.10102907205E+03  0.13192049630E+03  0.00000000000E+00 0. -1.
         21    1    1    2  505  502  0.29767306040E+02  0.28533379282E+02  0.10571736217E+03  0.11347425658E+03  0.00000000000E+00 0. -1.
          1    1    1    2  501    0  0.12299031429E+03  0.41434248614E+02  0.86751094569E+03  0.87716512428E+03  0.00000000000E+00 0.  1.
<scales pt_clust_3="72.58537" pt_clust_4="72.58537" pt_clust_5="41.23404" pt_clust_6="166.26325"></scales>
<clustering>
<clus scale="   41.234">  1  5  2 -1</clus>
<clus scale="   72.585">  3  4 -1 -1</clus>
<clus scale="  166.263">  1  6  2 -1</clus>
<clus scale="  183.368">  2  3  1 -1</clus>
</clustering>
</event>
<event>
 6    0  0.4189111E+002  0.1208674E+03  0.7546771E-02  0.1241673E+00
         21   -1    0    0  505  502  0.00000000000E+00  0.00000000000E+00  0.21970376327E+03  0.21970376327E+03  0.00000000000E+00 0.  1.
          3   -1    0    0  503    0 -0.00000000000E+00 -0.00000000000E+00 -0.26924187002E+04  0.26924187002E+04  0.00000000000E+00 0.  1.
         21    1    1    2  503  502  0.30088619279E+02  0.15732129134E+03 -0.33720105599E+03  0.37330934341E+03  0.00000000000E+00 0.  1.
         21    1    1    2  504  501  0.23252530907E+02 -0.83837441910E+02 -0.30731491494E+02  0.92270371349E+02  0.00000000000E+00 0.  1.
         21    1    1    2  505  504  0.22166613953E+02 -0.44088000314E+02  0.16658004154E+03  0.17373549087E+03  0.00000000000E+00 0.  1.
          3    1    1    2  501    0 -0.75507764138E+02 -0.29395849118E+02 -0.22713624310E+04  0.22728072579E+04  0.00000000000E+00 0.  1.
<scales pt_clust_3="120.86741" pt_clust_4="14000.00000" pt_clust_5="49.34684" pt_clust_6="80.96320"></scales>
<clustering>
<clus scale="   49.347">  1  5  2 -1</clus>
<clus scale="   80.963">  2  6  1 -1</clus>
<clus scale="  120.867">  2  3  1 -1</clus>
<clus scale="   49.347">  1  3  2 -1</clus>
</clustering>
</event>
<event>
 6    0  0.4189111E+002  0.1182653E+03  0.7546771E-02  0.1245986E+00
         21   -1    0    0  503  502  0.00000000000E+00  0.00000000000E+00  0.84335608028E+02  0.84335608028E+02  0.00000000000E+00 0.  1.
          1   -1    0    0  504    0 -0.00000000000E+00 -0.00000000000E+00 -0.90897871470E+03  0.90897871470E+03  0.00000000000E+00 0.  1.
         21    1    1    2  503  501 -0.29425954098E+02  0.10596476724E+03 -0.76431577522E+02  0.13392611662E+03  0.00000000000E+00 0.  1.
         21    1    1    2  504  505  0.29017202457E+02 -0.32755496956E+02 -0.21723832371E+03  0.22160191765E+03  0.00000000000E+00 0. -1.
         21    1    1    2  505  502  0.61597823462E+02 -0.10971415585E+03 -0.26854321875E+02  0.12865707308E+03  0.00000000000E+00 0.  1.
          1    1    1    2  501    0 -0.61189071822E+02  0.36504885570E+02 -0.50411888357E+03  0.50912921538E+03  0.00000000000E+00 0.  1.
<scales pt_clust_3="118.26530" pt_clust_4="43.75981" pt_clust_5="14000.00000" pt_clust_6="41.76533"></scales>
<clustering>
<clus scale="   43.760">  2  4  1 -1</clus>
<clus scale="   41.765">  2  6  1 -1</clus>
<clus scale="  118.265">  2  3  1 -1</clus>
<clus scale="  118.265">  1  3  2 -1</clus>
</clustering>
</event>
<event>
 6    0  0.4189111E+002  0.1112213E+03  0.7546771E-02  0.1258325E+00
         21   -1    0    0  504  502  0.00000000000E+00  0.00000000000E+00  0.46152279455E+02  0.46152279455E+02  0.00000000000E+00 0. -1.
          2   -1    0    0  505    0 -0.00000000000E+00 -0.00000000000E+00 -0.13648998979E+04  0.13648998979E+04  0.00000000000E+00 0. -1.
         21    1    1    2  503  501  0.79309076710E+01 -0.14900604754E+03 -0.30252885221E+03  0.33732685621E+03  0.00000000000E+00 0. -1.
         21    1    1    2  504  503  0.49101464659E+01  0.39183380922E+02  0.85385638867E+01  0.40402400326E+02  0.00000000000E+00 0. -1.
         21    1    1    2  505  502  0.22558548237E+02  0.28298981996E+02 -0.48005940775E+03  0.48142159844E+03  0.00000000000E+00 0. -1.
          2    1    1    2  501    0 -0.35399602374E+02  0.81523684623E+02 -0.54469792233E+03  0.55190132234E+03  0.00000000000E+00 0. -1.
<scales pt_clust_3="111.22128" pt_clust_4="40.04779" pt_clust_5="36.19006" pt_clust_6="14000.00000"></scales>
<clustering>
<clus scale="   36.190">  2  5  1 -1</clus>
<clus scale="   40.048">  1  4  2 -1</clus>
<clus scale="  111.221">  1  3  2 -1</clus>
<clus scale="   40.048">  1  3  2 -1</clus>
</clustering>
</event>
<event>
 6    0  0.4189111E+002  0.3512196E+03  0.7546771E-02  0.1062116E+00
         21   -1    0    0  503  502  0.00000000000E+00  0.00000000000E+00  0.10242732448E+04  0.10242732448E+04  0.00000000000E+00 0.  1.
          3   -1    0    0  504    0 -0.00000000000E+00 -0.00000000000E+00 -0.19687413017E+03  0.19687413017E+03  0.00000000000E+00 0.  1.
         21    1    1    2  503  505  0.53547198803E+02  0.89720316255E+01  0.40267988121E+03  0.40632362296E+03  0.00000000000E+00 0.  1.
         21    1    1    2  504  502 -0.44171342733E+02  0.31158290801E+03  0.31163256659E+03  0.44288810397E+03  0.00000000000E+00 0.  1.
         21    1    1    2  505  501 -0.62494767804E+02 -0.24835156918E+03  0.11840213712E+03  0.28214032677E+03  0.00000000000E+00 0.  1.
          3    1    1    2  501    0  0.53118911733E+02 -0.72203370459E+02 -0.53154703132E+01  0.89795321226E+02  0.00000000000E+00 0.  1.
<scales pt_clust_3="54.29364" pt_clust_4="317.25555" pt_clust_5="91.16871" pt_clust_6="91.16871"></scales>
<clustering>
<clus scale="   54.294">  1  3  2 -1</clus>
<clus scale="   91.169">  5  6 -1 -1</clus>
<clus scale="  317.256">  1  4  2 -1</clus>
<clus scale="   54.294">  1  3  2 -1</clus>
</clustering>
</event>
<event>
 6    0  0.4189111E+002  0.9414203E+02  0.7546771E-02  0.1293120E+00
         21   -1    0    0  504  502  0.00000000000E+00  0.00000000000E+00  0.18724204192E+03  0.18724204192E+03  0.00000000000E+00 0. -1.
          2   -1    0    0  505    0 -0.00000000000E+00 -0.00000000000E+00 -0.49512311838E+03  0.49512311838E+03  0.00000000000E+00 0.  1.
         21    1    1    2  503  502 -0.71762362154E+02  0.46843316590E+02 -0.88131339705E+02  0.12292788931E+03  0.00000000000E+00 0.  1.
         21    1    1    2  504  501  0.45495667291E+02 -0.85200358184E+02  0.14775569813E+03  0.17652394485E+03  0.00000000000E+00 0. -1.
         21    1    1    2  505  503  0.37246295579E+02 -0.56609529112E+01 -0.52280337629E+02  0.64440411426E+02  0.00000000000E+00 0. -1.
          2    1    1    2  501    0 -0.10979600716E+02  0.44017994505E+02 -0.31522509725E+03  0.31847291472E+03  0.00000000000E+00 0.  1.
<scales pt_clust_3="14000.00000" pt_clust_4="94.14203" pt_clust_5="37.67404" pt_clust_6="43.01409"></scales>
<clustering>
<clus scale="   37.674">  2  5  1 -1</clus>
<clus scale="   43.014">  2  6  1 -1</clus>
<clus scale="   94.142">  1  4  2 -1</clus>
<clus scale="   94.142">  1  3  2 -1</clus>
</clustering>
</event>
<event>
 6    0  0.4189111E+002  0.7287344E+02  0.7546771E-02  0.1350586E+00
         21   -1    0    0  504  502  0.00000000000E+00  0.00000000000E+00  0.45881570290E+02  0.45881570290E+02  0.00000000000E+00 0. -1.
          2   -1    0    0  502    0 -0.00000000000E+00 -0.00000000000E+00 -0.77736474580E+03  0.77736474580E+03  0.00000000000E+00 0. -1.
         21    1    1    2  503  501 -0.78846187067E+02 -0.17160851362E+02 -0.30514593592E+03  0.31563469113E+03  0.00000000000E+00 0. -1.
         21    1    1    2  504  505  0.42667941862E+02  0.40334087574E+02 -0.17320070557E+02  0.61215820891E+02  0.00000000000E+00 0. -1.
         21    1    1    2  505  503  0.39255032829E+02 -0.65536748773E+02 -0.66583704164E+02  0.10133811081E+03  0.00000000000E+00 0. -1.
          2    1    1    2  501    0 -0.30767876242E+01  0.42363512561E+02 -0.34243346487E+03  0.34505769326E+03  0.00000000000E+00 0. -1.
<scales pt_clust_3="72.87344" pt_clust_4="61.21996" pt_clust_5="14000.00000" pt_clust_6="42.47510"></scales>
<clustering>
<clus scale="   42.475">  2  6  1 -1</clus>
<clus scale="   61.220">  1  4  2 -1</clus>
<clus scale="   72.873">  2  3  1 -1</clus>
<clus scale="   61.220">  1  3  2 -1</clus>
</clustering>
</event>
<event>
 6    0  0.4189111E+002  0.4007950E+03  0.7546771E-02  0.1043505E+00
         21   -1    0    0  505  502  0.00000000000E+00  0.00000000000E+00  0.31859574661E+03  0.31859574661E+03  0.00000000000E+00 0. -1.
          2   -1    0    0  504    0 -0.00000000000E+00 -0.00000000000E+00 -0.28989594737E+04  0.28989594737E+04  0.00000000000E+00 0. -1.
         21    1    1    2  503  501 -0.32756606064E+02 -0.42106737133E+02  0.12190802043E+02  0.54722830768E+02  0.00000000000E+00 0. -1.
         21    1    1    2  504  502 -0.36699727472E+03  0.11088690730E+01 -0.11264285277E+04  0.11847064857E+04  0.00000000000E+00 0. -1.
         21    1    1    2  505  503 -0.30734096902E+02 -0.17274967834E+02  0.22722309779E+03  0.22994204791E+03  0.00000000000E+00 0. -1.
          2    1    1    2  501    0  0.43048797768E+03  0.58272835894E+02 -0.16933490993E+04  0.17481838560E+04  0.00000000000E+00 0. -1.
<scales pt_clust_3="65.62631" pt_clust_4="14000.00000" pt_clust_5="35.25634" pt_clust_6="400.79505"></scales>
<clustering>
<clus scale="   35.256">  1  5  2 -1</clus>
<clus scale="   65.626">  1  3  2 -1</clus>
<clus scale="  400.795">  2  6  1 -1</clus>
<clus scale="   35.256">  1  3  2 -1</clus>
</clustering>
</event>
<event>
 6    0  0.4189111E+002  0.8909440E+02  0.7546771E-02  0.1305060E+00
         21   -1    0    0  501  502  0.00000000000E+00  0.00000000000E+00  0.50537030201E+03  0.50537030201E+03  0.00000000000E+00 0.  1.
          2   -1    0    0  504    0 -0.00000000000E+00 -0.00000000000E+00 -0.14511092674E+03  0.14511092674E+03  0.00000000000E+00 0.  1.
         21    1    1    2  503  505  0.19333378340E+02 -0.48215654998E+02  0.45701437693E+02  0.69189235522E+02  0.00000000000E+00 0. -1.
         21    1    1    2  504  503 -0.64550675788E+01  0.10555876954E+03 -0.13756838475E+02  0.10664695181E+03  0.00000000000E+00 0.  1.
         21    1    1    2  505  502 -0.45386332750E+02  0.18476969478E+02  0.37612039202E+03  0.37929917861E+03  0.00000000000E+00 0.  1.
          2    1    1    2  501    0  0.32508021989E+02 -0.75820084023E+02 -0.47805615977E+02  0.95345862804E+02  0.00000000000E+00 0.  1.
<scales pt_clust_3="39.91617" pt_clust_4="14000.00000" pt_clust_5="49.00324" pt_clust_6="89.09440"></scales>
<clustering>
<clus scale="   49.003">  1  5  2 -1</clus>
<clus scale="   39.916">  1  3  2 -1</clus>
<clus scale="   89.094">  2  6  1 -1</clus>
<clus scale="   49.003">  1  3  2 -1</clus>
</clustering>
</event>
<event>
 6    0  0.4189111E+002  0.1794054E+03  0.7546771E-02  0.1168380E+00
         -2   -1    0    0    0  501 -0.00000000000E+00  0.00000000000E+00  0.40551137338E+03  0.40551137338E+03  0.00000000000E+00 0.  1.
         21   -1    0    0  503  502  0.00000000000E+00 -0.00000000000E+00 -0.54069933352E+03  0.54069933352E+03  0.00000000000E+00 0. -1.
         21    1    1    2  503  504  0.36709830373E+02 -0.13804260531E+02 -0.22110222939E+03  0.22455370203E+03  0.00000000000E+00 0. -1.
         21    1    1    2  504  505 -0.28636234581E+02 -0.16600373941E+03 -0.25647099998E+03  0.30684629582E+03  0.00000000000E+00 0. -1.
         21    1    1    2  505  501  0.32067427449E+02 -0.12105731387E+02  0.27824685547E+02  0.44148406102E+02  0.00000000000E+00 0.  1.
         -2    1    1    2    0  502 -0.40141023241E+02  0.19191373132E+03  0.31456058369E+03  0.37066230295E+03  0.00000000000E+00 0.  1.
<scales pt_clust_3="39.37958" pt_clust_4="179.40545" pt_clust_5="34.27636" pt_clust_6="14000.00000"></scales>
<clustering>
<clus scale="   34.276">  1  5  2 -1</clus>
<clus scale="   39.380">  2  3  1 -1</clus>
<clus scale="  179.405">  2  4  1 -1</clus>
<clus scale="   39.380">  2  3  1 -1</clus>
</clustering>
</event>
<event>
 6    0  0.4189111E+002  0.9963662E+02  0.7546771E-02  0.1281062E+00
          1   -1    0    0  504    0 -0.00000000000E+00  0.00000000000E+00  0.32381550433E+04  0.32381550433E+04  0.00000000000E+00 0. -1.
         21   -1    0    0  503  502  0.00000000000E+00 -0.00000000000E+00 -0.11770774056E+03  0.11770774056E+03  0.00000000000E+00 0.  1.
         21    1    1    2  503  505  0.55901124476E+02 -0.14921728521E+01 -0.49581997942E+02  0.74736449055E+02  0.00000000000E+00 0.  1.
         21    1    1    2  504  502  0.43266511905E+02 -0.18604866966E+02  0.27893246196E+03  0.28288062935E+03  0.00000000000E+00 0. -1.
         21    1    1    2  505  501 -0.13654178819E+03  0.58840675218E+02  0.50328929551E+02  0.15696778693E+03  0.00000000000E+00 0.  1.
          1    1    1    2  501    0  0.37374151814E+02 -0.38743635400E+02  0.28407679092E+04  0.28412779186E+04  0.00000000000E+00 0. -1.
<scales pt_clust_3="56.10714" pt_clust_4="47.09705" pt_clust_5="14000.00000" pt_clust_6="99.63662"></scales>
<clustering>
<clus scale="   47.097">  1  4  2 -1</clus>
<clus scale="   56.107">  2  3  1 -1</clus>
<clus scale="   99.637">  1  6  2 -1</clus>
<clus scale="   56.107">  2  3  1 -1</clus>
</clustering>
</event>
<event>
 6    0  0.4189111E+002  0.9415687E+02  0.7546771E-02  0.1293086E+00
         21   -1    0    0  504  502  0.00000000000E+00  0.00000000000E+00  0.23160067425E+03  0.23160067425E+03  0.00000000000E+00 0.  1.
         -1   -1    0    0    0  501 -0.00000000000E+00 -0.00000000000E+00 -0.65926942053E+03  0.65926942053E+03  0.00000000000E+00 0. -1.
         21    1    1    2  503  502  0.75632334365E+02  0.75900022825E+02  0.64455800782E+02  0.12504244768E+03  0.00000000000E+00 0.  1.
         21    1    1    2  504  505 -0.47486097872E+02  0.16662039066E+02  0.12197354036E+03  0.13194732882E+03  0.00000000000E+00 0.  1.
         21    1    1    2  505  501 -0.29814804352E+01 -0.45547103914E+02 -0.51725797613E+02  0.68985404538E+02  0.00000000000E+00 0. -1.
         -1    1    1    2    0  503 -0.25164756057E+02 -0.47014957977E+02 -0.56237228981E+03  0.56489491374E+03  0.00000000000E+00 0. -1.
<scales pt_clust_3="94.15687" pt_clust_4="50.22367" pt_clust_5="45.64458" pt_clust_6="14000.00000"></scales>
<clustering>
<clus scale="   45.645">  2  5  1 -1</clus>
<clus scale="   50.224">  1  4  2 -1</clus>
<clus scale="   94.157">  1  3  2 -1</clus>
<clus scale="   50.224">  1  3  2 -1</clus>
</clustering>
</event>
<event>
 6    0  0.4189111E+002  0.7709005E+02  0.7546771E-02  0.1337518E+00
          1   -1    0    0  505    0 -0.00000000000E+00  0.00000000000E+00  0.23567821047E+04  0.23567821047E+04  0.00000000000E+00 0. -1.
         21   -1    0    0  504  502  0.00000000000E+00 -0.00000000000E+00 -0.20415590909E+03  0.20415590909E+03  0.00000000000E+00 0.  1.
         21    1    1    2  503  501 -0.97854686215E+01  0.38552295210E+02  0.88050289224E+03  0.88140080446E+03  0.00000000000E+00 0. -1.
         21    1    1    2  504  503  0.32394508512E+02 -0.12135685693E+03  0.17966191950E+03  0.21921518246E+03  0.00000000000E+00 0.  1.
         21    1    1    2  505  502 -0.50786144124E+02  0.56140756665E+02 -0.17583151231E+03  0.19143598856E+03  0.00000000000E+00 0.  1.
          1    1    1    2  501    0  0.28177104234E+02  0.26663805051E+02  0.12682928962E+04  0.12688860383E+04  0.00000000000E+00 0. -1.
<scales pt_clust_3="61.53255" pt_clust_4="14000.00000" pt_clust_5="77.09005" pt_clust_6="38.79314"></scales>
<clustering>
<clus scale="   38.793">  1  6  2 -1</clus>
<clus scale="   61.533">  1  3  2 -1</clus>
<clus scale="   77.090">  2  5  1 -1</clus>
<clus scale="   77.090">  2  3  1 -1</clus>
</clustering>
</event>
<event>
 6    0  0.4189111E+002  0.1600441E+03  0.7546771E-02  0.1188647E+00
          2   -1    0    0  505    0 -0.00000000000E+00  0.00000000000E+00  0.14235480135E+04  0.14235480135E+04  0.00000000000E+00 0. -1.
         21   -1    0    0  504  502  0.00000000000E+00 -0.00000000000E+00 -0.32548366304E+02  0.32548366304E+02  0.00000000000E+00 0.  1.
         21    1    1    2  503  501  0.34963332404E+02 -0.83897037347E+02  0.18456431457E+03  0.20573073106E+03  0.00000000000E+00 0.  1.
         21    1    1    2  504  503  0.43098938545E+01 -0.63378012302E+02  0.50312809444E+02  0.81035340577E+02  0.00000000000E+00 0.  1.
         21    1    1    2  505  502 -0.33143453905E+02  0.16338075368E+02  0.14026022044E+03  0.14504602953E+03  0.00000000000E+00 0. -1.
          2    1    1    2  501    0 -0.61297723538E+01  0.13093697428E+03  0.10158623027E+04  0.10242842786E+04  0.00000000000E+00 0. -1.
<scales pt_clust_3="52.61117" pt_clust_4="52.61117" pt_clust_5="36.95161" pt_clust_6="147.57685"></scales>
<clustering>
<clus scale="   36.952">  1  5  2 -1</clus>
<clus scale="   52.611">  3  4 -1 -1</clus>
<clus scale="  147.577">  1  6  2 -1</clus>
<clus scale="  160.044">  2  3  1 -1</clus>
</clustering>
</event>
<event>
 6    0  0.4189111E+002  0.8668340E+02  0.7546771E-02  0.1311088E+00
         21   -1    0    0  504  502  0.00000000000E+00  0.00000000000E+00  0.11924837923E+04  0.11924837923E+04  0.00000000000E+00 0. -1.
          2   -1    0    0  505    0 -0.00000000000E+00 -0.00000000000E+00 -0.27739103812E+03  0.27739103812E+03  0.00000000000E+00 0. -1.
         21    1    1    2  503  502 -0.28906550070E+02 -0.33408591485E+02  0.97419221959E+03  0.97519341842E+03  0.00000000000E+00 0. -1.
         21    1    1    2  504  501  0.44882144658E+02 -0.52918188895E+02  0.18743807133E+03  0.19986938787E+03  0.00000000000E+00 0. -1.
         21    1    1    2  505  503 -0.19364620661E+02 -0.34380253203E+02 -0.78829230966E+02  0.88153491130E+02  0.00000000000E+00 0.  1.
          2    1    1    2  501    0  0.33890260730E+01  0.12070703358E+03 -0.16770830575E+03  0.20665853302E+03  0.00000000000E+00 0. -1.
<scales pt_clust_3="44.27814" pt_clust_4="86.68340" pt_clust_5="39.45872" pt_clust_6="14000.00000"></scales>
<clustering>
<clus scale="   39.459">  2  5  1 -1</clus>
<clus scale="   44.278">  1  3  2 -1</clus>
<clus scale="   86.683">  1  4  2 -1</clus>
<clus scale="   44.278">  1  3  2 -1</clus>
</clustering>
</event>
<event>
 6    0  0.4189111E+002  0.8168596E+02  0.7546771E-02  0.1324334E+00
         -2   -1    0    0    0  501 -0.00000000000E+00  0.00000000000E+00  0.18273008157E+04  0.18273008157E+04  0.00000000000E+00 0.  1.
         21   -1    0    0  504  502  0.00000000000E+00 -0.00000000000E+00 -0.35898740679E+02  0.35898740679E+02  0.00000000000E+00 0. -1.
         21    1    1    2  503  502 -0.66473213217E+02 -0.31147399606E+02  0.62365892739E+02  0.96324208561E+02  0.00000000000E+00 0.  1.
         21    1    1    2  504  505  0.72117080356E+02  0.70961821895E+02  0.13768423748E+03  0.17086076992E+03  0.00000000000E+00 0. -1.
         21    1    1    2  505  501  0.36260970860E+02 -0.24334178658E+02  0.24103891508E+03  0.24496279073E+03  0.00000000000E+00 0.  1.
         -2    1    1    2    0  503 -0.41904837998E+02 -0.15480243631E+02  0.13503130297E+04  0.13510517872E+04  0.00000000000E+00 0.  1.
<scales pt_clust_3="81.68596" pt_clust_4="14000.00000" pt_clust_5="43.66933" pt_clust_6="37.85674"></scales>
<clustering>
<clus scale="   43.669">  1  5  2 -1</clus>
<clus scale="   37.857">  1  6  2 -1</clus>
<clus scale="   81.686">  2  3  1 -1</clus>
<clus scale="   81.686">  2  3  1 -1</clus>
</clustering>
</event>
<event>
 6    0  0.4189111E+002  0.3133344E+03  0.7546771E-02  0.1078759E+00
          1   -1    0    0  504    0 -0.00000000000E+00  0.00000000000E+00  0.24457929869E+04  0.24457929869E+04  0.00000000000E+00 0.  1.
         21   -1    0    0  503  502  0.00000000000E+00 -0.00000000000E+00 -0.39958522459E+03  0.39958522459E+03  0.00000000000E+00 0. -1.
         21    1    1    2  503  505 -0.99464756294E+02 -0.25475535140E+03 -0.25853876135E+03  0.37634534398E+03  0.00000000000E+00 0. -1.
         21    1    1    2  504  502  0.18082898678E+02  0.12203290339E+03  0.35592260207E+03  0.37669605705E+03  0.00000000000E+00 0.  1.
         21    1    1    2  505  501  0.13253515958E+02 -0.39314277230E+02 -0.61132447281E+02  0.73881284436E+02  0.00000000000E+00 0. -1.
          1    1    1    2  501    0  0.68128341659E+02  0.17203672524E+03  0.20099563689E+04  0.20184555260E+04  0.00000000000E+00 0.  1.
<scales pt_clust_3="31.65431" pt_clust_4="123.36540" pt_clust_5="31.65431" pt_clust_6="302.61100"></scales>
<clustering>
<clus scale="   31.654">  3  5 -1 -1</clus>
<clus scale="  123.365">  1  4  2 -1</clus>
<clus scale="  302.611">  1  6  2 -1</clus>
<clus scale="  313.334">  2  3  1 -1</clus>
</clustering>
</event>
<event>
 6    0  0.4189111E+002  0.8335988E+02  0.7546771E-02  0.1319778E+00
         21   -1    0    0  503  502  0.00000000000E+00  0.00000000000E+00  0.28162328393E+03  0.28162328393E+03  0.00000000000E+00 0. -1.
          2   -1    0    0  505    0 -0.00000000000E+00 -0.00000000000E+00 -0.63001489090E+03  0.63001489090E+03  0.00000000000E+00 0.  1.
         21    1    1    2  503  504  0.44336908387E+02  0.70816808999E+02  0.24052062413E+03  0.25461923045E+03  0.00000000000E+00 0. -1.
         21    1    1    2  504  501 -0.14295279071E+03  0.50691498856E+01 -0.35809901499E+03  0.38561133436E+03  0.00000000000E+00 0.  1.
         21    1    1    2  505  502  0.54215746940E+02 -0.37104574994E+02 -0.54051705657E+02  0.85074576615E+02  0.00000000000E+00 0.  1.
          2    1    1    2  501    0  0.44400135380E+02 -0.38781383890E+02 -0.17676151046E+03  0.18633303341E+03  0.00000000000E+00 0.  1.
<scales pt_clust_3="83.35988" pt_clust_4="14000.00000" pt_clust_5="74.78563" pt_clust_6="58.95225"></scales>
<clustering>
<clus scale="   58.952">  2  6  1 -1</clus>
<clus scale="   74.786">  2  5  1 -1</clus>
<clus scale="   83.360">  1  3  2 -1</clus>
<clus scale="   83.360">  1  3  2 -1</clus>
</clustering>
</event>
<event>
 6    0  0.4189111E+002  0.1272856E+03  0.7546771E-02  0.1231540E+00
         -4   -1    0    0    0  501 -0.00000000000E+00  0.00000000000E+00  0.19882367355E+03  0.19882367355E+03  0.00000000000E+00 0. -1.
         21   -1    0    0  503  502  0.00000000000E+00 -0.00000000000E+00 -0.58419100975E+03  0.58419100975E+03  0.00000000000E+00 0. -1.
         21    1    1    2  503  504  0.46669281419E+02 -0.48515334754E+01 -0.87224579029E+02  0.99043860951E+02  0.00000000000E+00 0. -1.
         21    1    1    2  504  501 -0.25322962345E+02 -0.36993526588E+02 -0.10166045736E+02  0.45968705847E+02  0.00000000000E+00 0.  1.
         21    1    1    2  505  502 -0.35162154092E+02  0.13483463975E+03 -0.43873628263E+03  0.46033279576E+03  0.00000000000E+00 0. -1.
         -4    1    1    2    0  505  0.13815835019E+02 -0.92989579686E+02  0.15075957119E+03  0.17766932075E+03  0.00000000000E+00 0. -1.
<scales pt_clust_3="46.24093" pt_clust_4="44.83050" pt_clust_5="127.28563" pt_clust_6="14000.00000"></scales>
<clustering>
<clus scale="   44.830">  1  4  2 -1</clus>
<clus scale="   46.241">  2  3  1 -1</clus>
<clus scale="  127.286">  2  5  1 -1</clus>
<clus scale="   46.241">  2  3  1 -1</clus>
</clustering>
</event>
<event>
 6    0  0.4189111E+002  0.7054690E+02  0.7546771E-02  0.1358243E+00
          2   -1    0    0  505    0 -0.00000000000E+00  0.00000000000E+00  0.47414851423E+03  0.47414851423E+03  0.00000000000E+00 0. -1.
         21   -1    0    0  501  502  0.00000000000E+00 -0.00000000000E+00 -0.19159319439E+03  0.19159319439E+03  0.00000000000E+00 0. -1.
         21    1    1    2  503  502  0.34097231955E+02 -0.28659076325E+02 -0.12881151565E+03  0.13629515929E+03  0.00000000000E+00 0. -1.
         21    1    1    2  504  503  0.35483138005E+02  0.61306648852E+02 -0.21889794274E+02  0.74139877054E+02  0.00000000000E+00 0. -1.
         21    1    1    2  505  504  0.55416066557E+01 -0.59603673918E+02  0.20060764031E+03  0.20934835251E+03  0.00000000000E+00 0.  1.
          2    1    1    2  501    0 -0.75121976615E+02  0.26956101391E+02  0.23264898945E+03  0.24595831977E+03  0.00000000000E+00 0. -1.
<scales pt_clust_3="44.54171" pt_clust_4="70.54690" pt_clust_5="62.24986" pt_clust_6="14000.00000"></scales>
<clustering>
<clus scale="   44.542">  2  3  1 -1</clus>
<clus scale="   62.250">  1  5  2 -1</clus>
<clus scale="   70.547">  2  4  1 -1</clus>
<clus scale="   44.542">  2  3  1 -1</clus>
</clustering>
</event>
<event>
 6    0  0.4189111E+002  0.1278848E+03  0.7546771E-02  0.1230628E+00
          1   -1    0    0  503    0 -0.00000000000E+00  0.00000000000E+00  0.27396395390E+03  0.27396395390E+03  0.00000000000E+00 0. -1.
         21   -1    0    0  504  502  0.00000000000E+00 -0.00000000000E+00 -0.98993492520E+03  0.98993492520E+03  0.00000000000E+00 0.  1.
         21    1    1    2  503  505  0.31050103590E+02 -0.53992703739E+01  0.62319776258E+01  0.32126291392E+02  0.00000000000E+00 0.  1.
         21    1    1    2  504  501 -0.12114208920E+03  0.16205456610E+03 -0.56085445825E+03  0.59623385639E+03  0.00000000000E+00 0.  1.
         21    1    1    2  505  502  0.29121292355E+02 -0.75292337637E+02 -0.38314056745E+03  0.39155290856E+03  0.00000000000E+00 0.  1.
          1    1    1    2  501    0  0.60970693253E+02 -0.81362958087E+02  0.22179207677E+03  0.24398582275E+03  0.00000000000E+00 0. -1.
<scales pt_clust_3="31.51604" pt_clust_4="14000.00000" pt_clust_5="80.99712" pt_clust_6="127.88484"></scales>
<clustering>
<clus scale="   31.516">  1  3  2 -1</clus>
<clus scale="   80.997">  2  5  1 -1</clus>
<clus scale="  127.885">  1  6  2 -1</clus>
<clus scale="   80.997">  2  3  1 -1</clus>
</clustering>
</event>
<event>
 6    0  0.4189111E+002  0.8125103E+02  0.7546771E-02  0.1325538E+00
         21   -1    0    0  505  502  0.00000000000E+00  0.00000000000E+00  0.17182492221E+02  0.17182492221E+02  0.00000000000E+00 0. -1.
          1   -1    0    0  503    0 -0.00000000000E+00 -0.00000000000E+00 -0.23192543269E+04  0.23192543269E+04  0.00000000000E+00 0. -1.
         21    1    1    2  503  502  0.34179672410E+02  0.46294096645E+01 -0.31916589835E+03  0.32102422356E+03  0.00000000000E+00 0. -1.
         21    1    1    2  504  501  0.46148246051E+02 -0.31886295778E+02 -0.64725402706E+02  0.85649134424E+02  0.00000000000E+00 0. -1.
         21    1    1    2  505  504  0.37097474142E+02  0.29907956363E+02 -0.14359587488E+03  0.15129601357E+03  0.00000000000E+00 0. -1.
          1    1    1    2  501    0 -0.11742539260E+03 -0.26510702489E+01 -0.17745846587E+04  0.17784674476E+04  0.00000000000E+00 0. -1.
<scales pt_clust_3="34.49176" pt_clust_4="14000.00000" pt_clust_5="49.84617" pt_clust_6="81.25103"></scales>
<clustering>
<clus scale="   34.492">  2  3  1 -1</clus>
<clus scale="   49.846">  1  5  2 -1</clus>
<clus scale="   81.251">  2  6  1 -1</clus>
<clus scale="   49.846">  1  3  2 -1</clus>
</clustering>
</event>
<event>
 6    0  0.4189111E+002  0.7594990E+02  0.7546771E-02  0.1340954E+00
          1   -1    0    0  505    0 -0.00000000000E+00  0.00000000000E+00  0.34114373618E+04  0.34114373618E+04  0.00000000000E+00 0.  1.
         21   -1    0    0  504  502  0.00000000000E+00 -0.00000000000E+00 -0.19734330907E+02  0.19734330907E+02  0.00000000000E+00 0.  1.
         21    1    1    2  503  502 -0.72902888105E+02 -0.41601526562E+02  0.16118225981E+03  0.18172847599E+03  0.00000000000E+00 0.  1.
         21    1    1    2  504  501  0.70042314801E+02  0.98586537031E+01  0.16346674449E+03  0.17811371500E+03  0.00000000000E+00 0.  1.
         21    1    1    2  505  503 -0.65424447437E+02 -0.25594925120E+02  0.16286378816E+04  0.16301523879E+04  0.00000000000E+00 0.  1.
          1    1    1    2  501    0  0.68285020742E+02  0.57337797978E+02  0.14384161450E+04  0.14411771138E+04  0.00000000000E+00 0.  1.
<scales pt_clust_3="75.94990" pt_clust_4="14000.00000" pt_clust_5="70.25282" pt_clust_6="39.77169"></scales>
<clustering>
<clus scale="   70.253">  1  5  2 -1</clus>
<clus scale="   39.772">  1  6  2 -1</clus>
<clus scale="   75.950">  1  3  2 -1</clus>
<clus scale="   75.950">  2  3  1 -1</clus>
</clustering>
</event>
<event>
 6    0  0.4189111E+002  0.6552267E+02  0.7546771E-02  0.1376016E+00
          1   -1    0    0  505    0 -0.00000000000E+00  0.00000000000E+00  0.36525917583E+04  0.36525917583E+04  0.00000000000E+00 0. -1.
         21   -1    0    0  504  502  0.00000000000E+00 -0.00000000000E+00 -0.13310273517E+03  0.13310273517E+03  0.00000000000E+00 0.  1.
         21    1    1    2  503  502 -0.11783577787E+02 -0.11169211973E+03  0.76668291652E+02  0.13598532737E+03  0.00000000000E+00 0.  1.
         21    1    1    2  504  501  0.39309244729E+01  0.48677740091E+02 -0.96024224941E+02  0.10772941253E+03  0.00000000000E+00 0.  1.
         21    1    1    2  505  503 -0.58835128256E+02  0.18668715296E+02  0.21006733609E+04  0.21015800395E+04  0.00000000000E+00 0.  1.
          1    1    1    2  501    0  0.66687781571E+02  0.44345664341E+02  0.14381715955E+04  0.14403997141E+04  0.00000000000E+00 0. -1.
<scales pt_clust_3="14000.00000" pt_clust_4="48.83620" pt_clust_5="61.88915" pt_clust_6="65.52267"></scales>
<clustering>
<clus scale="   48.836">  2  4  1 -1</clus>
<clus scale="   61.889">  1  5  2 -1</clus>
<clus scale="   65.523">  1  6  2 -1</clus>
<clus scale="   48.836">  2  3  1 -1</clus>
</clustering>
</event>
<event>
 6    0  0.4189111E+002  0.1054152E+03  0.7546771E-02  0.1269304E+00
         21   -1    0    0  504  502  0.00000000000E+00  0.00000000000E+00  0.57121618052E+02  0.57121618052E+02  0.00000000000E+00 0. -1.
          1   -1    0    0  505    0 -0.00000000000E+00 -0.00000000000E+00 -0.10422313761E+04  0.10422313761E+04  0.00000000000E+00 0. -1.
         21    1    1    2  503  502 -0.96459851691E+02  0.54296379773E+02 -0.29762319291E+02  0.11462284019E+03  0.00000000000E+00 0. -1.
         21    1    1    2  504  501 -0.11675356361E+02 -0.40351993856E+02 -0.37826379169E+02  0.56528155068E+02  0.00000000000E+00 0. -1.
         21    1    1    2  505  503  0.27920344737E+02  0.13701295593E+02 -0.71940340346E+02  0.78375274929E+02  0.00000000000E+00 0. -1.
          1    1    1    2  501    0  0.80214863315E+02 -0.27645681510E+02 -0.84558071925E+03  0.84982672397E+03  0.00000000000E+00 0. -1.
<scales pt_clust_3="105.41519" pt_clust_4="41.00185" pt_clust_5="31.10098" pt_clust_6="14000.00000"></scales>
<clustering>
<clus scale="   31.101">  2  5  1 -1</clus>
<clus scale="   41.002">  1  4  2 -1</clus>
<clus scale="  105.415">  1  3  2 -1</clus>
<clus scale="   41.002">  1  3  2 -1</clus>
</clustering>
</event>
<event>
 6    0  0.4189111E+002  0.1056658E+03  0.7546771E-02  0.1268813E+00
         21   -1    0    0  505  502  0.00000000000E+00  0.00000000000E+00  0.72869657770E+03  0.72869657770E+03  0.00000000000E+00 0. -1.
          2   -1    0    0  504    0 -0.00000000000E+00 -0.00000000000E+00 -0.16495812977E+04  0.16495812977E+04  0.00000000000E+00 0. -1.
         21    1    1    2  503  501 -0.72818336492E+02  0.41468450417E+02  0.70756235708E+02  0.10967491692E+03  0.00000000000E+00 0.  1.
         21    1    1    2  504  502  0.76866282556E+02  0.26488586480E+02 -0.14152100510E+03  0.16321233253E+03  0.00000000000E+00 0. -1.
         21    1    1    2  505  503 -0.13359496838E+01  0.39083496764E+02  0.62508389056E+03  0.62630597531E+03  0.00000000000E+00 0. -1.
          2    1    1    2  501    0 -0.27119963802E+01 -0.10704053366E+03 -0.14752038412E+04  0.14790846506E+04  0.00000000000E+00 0. -1.
<scales pt_clust_3="105.66582" pt_clust_4="82.60399" pt_clust_5="39.10632" pt_clust_6="14000.00000"></scales>
<clustering>
<clus scale="   39.106">  1  5  2 -1</clus>
<clus scale="   82.604">  1  4  2 -1</clus>
<clus scale="  105.666">  1  3  2 -1</clus>
<clus scale="   39.106">  1  3  2 -1</clus>
</clustering>
</event>
<event>
 6    0  0.4189111E+002  0.9568323E+02  0.7546771E-02  0.1289645E+00
         21   -1    0    0  501  502  0.00000000000E+00  0.00000000000E+00  0.27282845210E+03  0.27282845210E+03  0.00000000000E+00 0.  1.
          1   -1    0    0  505    0 -0.00000000000E+00 -0.00000000000E+00 -0.15553180049E+04  0.15553180049E+04  0.00000000000E+00 0. -1.
         21    1    1    2  503  502 -0.23101906675E+02  0.20034282892E+02  0.22340730380E+03  0.22549034120E+03  0.00000000000E+00 0.  1.
         21    1    1    2  504  503  0.43048790512E+02 -0.40930816532E+02  0.19733003384E+02  0.62593302590E+02  0.00000000000E+00 0.  1.
         21    1    1    2  505  504 -0.75400915776E+02 -0.58734637658E+02 -0.44850860224E+03  0.45857935196E+03  0.00000000000E+00 0. -1.
          1    1    1    2  501    0  0.55454031939E+02  0.79631171298E+02 -0.10771212577E+04  0.10814834612E+04  0.00000000000E+00 0. -1.
<scales pt_clust_3="30.57892" pt_clust_4="33.43224" pt_clust_5="95.68323" pt_clust_6="14000.00000"></scales>
<clustering>
<clus scale="   30.579">  1  3  2 -1</clus>
<clus scale="   33.432">  1  4  2 -1</clus>
<clus scale="   95.683">  1  5  2 -1</clus>
<clus scale="   30.579">  1  3  2 -1</clus>
</clustering>
</event>
<event>
 6    0  0.4189111E+002  0.1222306E+03  0.7546771E-02  0.1239462E+00
         21   -1    0    0  504  502  0.00000000000E+00  0.00000000000E+00  0.16074860568E+03  0.16074860568E+03  0.00000000000E+00 0. -1.
          1   -1    0    0  505    0 -0.00000000000E+00 -0.00000000000E+00 -0.87982790981E+03  0.87982790981E+03  0.00000000000E+00 0. -1.
         21    1    1    2  503  502  0.15413513966E+02  0.84662025253E+02 -0.85226456767E+02  0.12111475495E+03  0.00000000000E+00 0. -1.
         21    1    1    2  504  501  0.68856121404E+02  0.22939202662E+02  0.11823159151E+03  0.13873024798E+03  0.00000000000E+00 0. -1.
         21    1    1    2  505  503 -0.56568764618E+01  0.40901269978E+02 -0.13425204748E+03  0.14045827277E+03  0.00000000000E+00 0. -1.
          1    1    1    2  501    0 -0.78612758908E+02 -0.14850249789E+03 -0.61783239140E+03  0.64027323980E+03  0.00000000000E+00 0. -1.
<scales pt_clust_3="122.23058" pt_clust_4="72.68320" pt_clust_5="41.29061" pt_clust_6="14000.00000"></scales>
<clustering>
<clus scale="   41.291">  2  5  1 -1</clus>
<clus scale="   72.683">  1  4  2 -1</clus>
<clus scale="  122.231">  1  3  2 -1</clus>
<clus scale="   72.683">  1  3  2 -1</clus>
</clustering>
</event>
<event>
 6    0  0.4189111E+002  0.4352782E+03  0.7546771E-02  0.1032205E+00
         21   -1    0    0  504  502  0.00000000000E+00  0.00000000000E+00  0.81582385307E+03  0.81582385307E+03  0.00000000000E+00 0.  1.
          2   -1    0    0  505    0 -0.00000000000E+00 -0.00000000000E+00 -0.40892002266E+03  0.40892002266E+03  0.00000000000E+00 0. -1.
         21    1    1    2  503  501 -0.42068453136E+02  0.16786346688E+03  0.92707284894E+01  0.17330275436E+03  0.00000000000E+00 0.  1.
         21    1    1    2  504  503  0.10418681199E+03 -0.34024161939E+03  0.35055456421E+03  0.49950751130E+03  0.00000000000E+00 0.  1.
         21    1    1    2  505  502  0.13586065607E+02 -0.68062555692E+02  0.23015308476E+03  0.24039038061E+03  0.00000000000E+00 0.  1.
          2    1    1    2  501    0 -0.75704424461E+02  0.24044070820E+03 -0.18307454705E+03  0.31154322946E+03  0.00000000000E+00 0. -1.
<scales pt_clust_3="126.92448" pt_clust_4="406.42590" pt_clust_5="69.40528" pt_clust_6="126.92448"></scales>
<clustering>
<clus scale="   69.405">  1  5  2 -1</clus>
<clus scale="  126.924">  3  6 -1 -1</clus>
<clus scale="  406.426">  1  4  2 -1</clus>
<clus scale="   69.405">  1  3  2 -1</clus>
</clustering>
</event>
<event>
 6    0  0.4189111E+002  0.3493497E+03  0.7546771E-02  0.1062882E+00
         21   -1    0    0  504  502  0.00000000000E+00  0.00000000000E+00  0.17123727855E+03  0.17123727855E+03  0.00000000000E+00 0.  1.
          1   -1    0    0  505    0 -0.00000000000E+00 -0.00000000000E+00 -0.12599089939E+04  0.12599089939E+04  0.00000000000E+00 0.  1.
         21    1    1    2  503  502  0.23698784105E+01 -0.31874276834E+02  0.14203941835E+02  0.34976246383E+02  0.00000000000E+00 0.  1.
         21    1    1    2  504  501 -0.49693259661E+02 -0.56122074060E+01 -0.16740287822E+03  0.17471302345E+03  0.00000000000E+00 0.  1.
         21    1    1    2  505  503  0.28549490135E+03 -0.14868762726E+03 -0.10645220070E+03  0.33903896565E+03  0.00000000000E+00 0.  1.
          1    1    1    2  501    0 -0.23817152010E+03  0.18617411150E+03 -0.82902057831E+03  0.88241803701E+03  0.00000000000E+00 0.  1.
<scales pt_clust_3="31.96226" pt_clust_4="39.27438" pt_clust_5="335.92793" pt_clust_6="39.27438"></scales>
<clustering>
<clus scale="   31.962">  1  3  2 -1</clus>
<clus scale="   39.274">  4  6 -1 -1</clus>
<clus scale="  335.928">  1  5  2 -1</clus>
<clus scale="   31.962">  1  3  2 -1</clus>
</clustering>
</event>
<event>
 6    0  0.4189111E+002  0.1198793E+03  0.7546771E-02  0.1243296E+00
          1   -1    0    0  503    0 -0.00000000000E+00  0.00000000000E+00  0.76023219916E+03  0.76023219916E+03  0.00000000000E+00 0.  1.
         21   -1    0    0  505  502  0.00000000000E+00 -0.00000000000E+00 -0.46001413279E+03  0.46001413279E+03  0.00000000000E+00 0. -1.
         21    1    1    2  503  502 -0.71751602028E+02  0.78817254912E+01 -0.37974401810E+03  0.38654357228E+03  0.00000000000E+00 0. -1.
         21    1    1    2  504  501  0.76583173878E+02  0.39898264835E+02  0.28274770403E+03  0.29564018365E+03  0.00000000000E+00 0.  1.
         21    1    1    2  505  504 -0.62819420193E+02 -0.44335214075E+02 -0.46967006124E+02  0.90098781483E+02  0.00000000000E+00 0.  1.
          1    1    1    2  501    0  0.57987848342E+02 -0.34447762513E+01  0.44418138657E+03  0.44796379454E+03  0.00000000000E+00 0.  1.
<scales pt_clust_3="71.55535" pt_clust_4="119.87934" pt_clust_5="14000.00000" pt_clust_6="58.09008"></scales>
<clustering>
<clus scale="   58.090">  1  6  2 -1</clus>
<clus scale="   71.555">  2  3  1 -1</clus>
<clus scale="  119.879">  1  4  2 -1</clus>
<clus scale="   71.555">  2  3  1 -1</clus>
</clustering>
</event>
<event>
 6    0  0.4189111E+002  0.1220227E+03  0.7546771E-02  0.1239797E+00
         -4   -1    0    0    0  501 -0.00000000000E+00  0.00000000000E+00  0.53065411283E+03  0.53065411283E+03  0.00000000000E+00 0.  1.
         21   -1    0    0  505  502  0.00000000000E+00 -0.00000000000E+00 -0.28914019917E+03  0.28914019917E+03  0.00000000000E+00 0.  1.
         21    1    1    2  503  504  0.40479734605E+02 -0.15636364925E+03 -0.68964669934E+01  0.16166558377E+03  0.00000000000E+00 0.  1.
         21    1    1    2  504  501 -0.40502848254E+02  0.15955091861E+02  0.95701457761E+02  0.10513712328E+03  0.00000000000E+00 0. -1.
         21    1    1    2  505  503 -0.74417273714E+01  0.40623381349E+02 -0.19079306142E+03  0.19521175862E+03  0.00000000000E+00 0.  1.
         -4    1    1    2    0  502  0.74648410199E+01  0.99785176039E+02  0.34350198432E+03  0.35777984633E+03  0.00000000000E+00 0.  1.
<scales pt_clust_3="122.02274" pt_clust_4="44.63575" pt_clust_5="41.29938" pt_clust_6="14000.00000"></scales>
<clustering>
<clus scale="   41.299">  2  5  1 -1</clus>
<clus scale="   44.636">  1  4  2 -1</clus>
<clus scale="  122.023">  2  3  1 -1</clus>
<clus scale="   41.299">  2  3  1 -1</clus>
</clustering>
</event>
<event>
 6    0  0.4189111E+002  0.1076866E+03  0.7546771E-02  0.1264915E+00
         21   -1    0    0  503  502  0.00000000000E+00  0.00000000000E+00  0.21727949120E+03  0.21727949120E+03  0.00000000000E+00 0. -1.
          1   -1    0    0  504    0 -0.00000000000E+00 -0.00000000000E+00 -0.92621878537E+03  0.92621878537E+03  0.00000000000E+00 0. -1.
         21    1    1    2  503  501 -0.34538684824E+02 -0.15347199411E+02 -0.43249517881E+03  0.43414345206E+03  0.00000000000E+00 0. -1.
         21    1    1    2  504  505  0.96235458995E+02  0.20962110883E+02 -0.37263378180E+02  0.10530542728E+03  0.00000000000E+00 0.  1.
         21    1    1    2  505  502 -0.35062724978E+02  0.55832170844E+02  0.17369031089E+03  0.18578199611E+03  0.00000000000E+00 0. -1.
          1    1    1    2  501    0 -0.26634049193E+02 -0.61447082316E+02 -0.41287104807E+03  0.41826740111E+03  0.00000000000E+00 0. -1.
<scales pt_clust_3="36.18984" pt_clust_4="96.31027" pt_clust_5="65.92895" pt_clust_6="36.18984"></scales>
<clustering>
<clus scale="   36.190">  3  6 -1 -1</clus>
<clus scale="   65.929">  1  5  2 -1</clus>
<clus scale="   96.310">  1  4  2 -1</clus>
<clus scale="   65.929">  1  3  2 -1</clus>
</clustering>
</event>
<event>
 6    0  0.4189111E+002  0.8656982E+02  0.7546771E-02  0.1311378E+00
         21   -1    0    0  503  502  0.00000000000E+00  0.00000000000E+00  0.17969013427E+03  0.17969013427E+03  0.00000000000E+00 0. -1.
          1   -1    0    0  504    0 -0.00000000000E+00 -0.00000000000E+00 -0.15677313581E+04  0.15677313581E+04  0.00000000000E+00 0. -1.
         21    1    1    2  503  505 -0.98084552526E+02  0.25207146382E+02  0.14507027565E+03  0.17692191653E+03  0.00000000000E+00 0. -1.
         21    1    1    2  504  502  0.27275356985E+02 -0.43676252821E+02 -0.41827998336E+02  0.66341100413E+02  0.00000000000E+00 0. -1.
         21    1    1    2  505  501  0.25697531415E+02 -0.71928881385E+02 -0.34114370341E+03  0.34958997908E+03  0.00000000000E+00 0.  1.
          1    1    1    2  501    0  0.45111664126E+02  0.90397987824E+02 -0.11501397977E+04  0.11545684963E+04  0.00000000000E+00 0. -1.
<scales pt_clust_3="73.79332" pt_clust_4="51.49330" pt_clust_5="14000.00000" pt_clust_6="86.56982"></scales>
<clustering>
<clus scale="   51.493">  1  4  2 -1</clus>
<clus scale="   73.793">  1  3  2 -1</clus>
<clus scale="   86.570">  2  6  1 -1</clus>
<clus scale="   51.493">  1  3  2 -1</clus>
</clustering>
</event>
<event>
 6    0  0.4189111E+002  0.8354881E+02  0.7546771E-02  0.1319272E+00
         -2   -1    0    0    0  501 -0.00000000000E+00  0.00000000000E+00  0.12264135288E+04  0.12264135288E+04  0.00000000000E+00 0.  1.
         21   -1    0    0  503  502  0.00000000000E+00 -0.00000000000E+00 -0.70795439548E+03  0.70795439548E+03  0.00000000000E+00 0. -1.
         21    1    1    2  503  501  0.59559027596E+02  0.31076972778E+02  0.49022970872E+03  0.49481130072E+03  0.00000000000E+00 0.  1.
         21    1    1    2  504  505  0.78317416123E+01  0.34577267357E+02 -0.15095718612E+03  0.15506448864E+03  0.00000000000E+00 0. -1.
         21    1    1    2  505  502  0.30270025181E+02  0.46560701938E+00 -0.54748031770E+03  0.54831668722E+03  0.00000000000E+00 0. -1.
         -2    1    1    2    0  504 -0.97660794390E+02 -0.66119847154E+02  0.72666692839E+03  0.73617544768E+03  0.00000000000E+00 0.  1.
<scales pt_clust_3="83.54881" pt_clust_4="50.77948" pt_clust_5="30.27361" pt_clust_6="14000.00000"></scales>
<clustering>
<clus scale="   30.274">  2  5  1 -1</clus>
<clus scale="   50.779">  2  4  1 -1</clus>
<clus scale="   83.549">  1  3  2 -1</clus>
<clus scale="   30.274">  2  3  1 -1</clus>
</clustering>
</event>
<event>
 6    0  0.4189111E+002  0.6542452E+02  0.7546771E-02  0.1376382E+00
          4   -1    0    0  504    0 -0.00000000000E+00  0.00000000000E+00  0.95543837515E+03  0.95543837515E+03  0.00000000000E+00 0. -1.
         21   -1    0    0  505  502  0.00000000000E+00 -0.00000000000E+00 -0.16538793210E+03  0.16538793210E+03  0.00000000000E+00 0. -1.
         21    1    1    2  503  502  0.59412166599E+02 -0.23812811332E+01 -0.80785427922E+02  0.10030833168E+03  0.00000000000E+00 0. -1.
         21    1    1    2  504  503  0.15038424613E+02 -0.55692302156E+02  0.84619804320E+02  0.10241239191E+03  0.00000000000E+00 0.  1.
         21    1    1    2  505  501 -0.12266667095E+02 -0.44898458649E+02 -0.52871358264E+02  0.70439500533E+02  0.00000000000E+00 0. -1.
          4    1    1    2  501    0 -0.62183924117E+02  0.10297204194E+03  0.83908742491E+03  0.84766608312E+03  0.00000000000E+00 0. -1.
<scales pt_clust_3="14000.00000" pt_clust_4="61.16350" pt_clust_5="46.54399" pt_clust_6="65.42452"></scales>
<clustering>
<clus scale="   46.544">  2  5  1 -1</clus>
<clus scale="   61.164">  1  4  2 -1</clus>
<clus scale="   65.425">  1  6  2 -1</clus>
<clus scale="   46.544">  2  3  1 -1</clus>
</clustering>
</event>
<event>
 6    0  0.4189111E+002  0.1024883E+03  0.7546771E-02  0.1275149E+00
          2   -1    0    0  503    0 -0.00000000000E+00  0.00000000000E+00  0.10184031592E+04  0.10184031592E+04  0.00000000000E+00 0.  1.
         21   -1    0    0  505  502  0.00000000000E+00 -0.00000000000E+00 -0.18513351915E+03  0.18513351915E+03  0.00000000000E+00 0.  1.
         21    1    1    2  503  502 -0.90815551708E+01 -0.72513722163E+02 -0.10781941142E+03  0.13025260084E+03  0.00000000000E+00 0.  1.
         21    1    1    2  504  501  0.39459831307E+02  0.87155460073E+02  0.16642786358E+03  0.19196714897E+03  0.00000000000E+00 0.  1.
         21    1    1    2  505  504  0.72769287554E+02  0.26660730308E+02 -0.19098877008E+02  0.79818111069E+02  0.00000000000E+00 0. -1.
          2    1    1    2  501    0 -0.10314756369E+03 -0.41302468219E+02  0.79376006485E+03  0.80149881743E+03  0.00000000000E+00 0.  1.
<scales pt_clust_3="73.08019" pt_clust_4="14000.00000" pt_clust_5="71.51395" pt_clust_6="102.48832"></scales>
<clustering>
<clus scale="   73.080">  2  3  1 -1</clus>
<clus scale="   71.514">  2  5  1 -1</clus>
<clus scale="  102.488">  1  6  2 -1</clus>
<clus scale="   73.080">  2  3  1 -1</clus>
</clustering>
</event>
<event>
 6    0  0.4189111E+002  0.7569615E+02  0.7546771E-02  0.1341729E+00
         21   -1    0    0  503  502  0.00000000000E+00  0.00000000000E+00  0.34908109297E+02  0.34908109297E+02  0.00000000000E+00 0. -1.
          1   -1    0    0  504    0 -0.00000000000E+00 -0.00000000000E+00 -0.13139360236E+04  0.13139360236E+04  0.00000000000E+00 0. -1.
         21    1    1    2  503  501 -0.23197861886E+02  0.71924160684E+02 -0.65999727697E+02  0.10033538629E+03  0.00000000000E+00 0. -1.
         21    1    1    2  504  505  0.23919689718E+02 -0.48148058400E+02 -0.38529978255E+03  0.38903253015E+03  0.00000000000E+00 0.  1.
         21    1    1    2  505  502  0.57979725149E+02  0.76822897783E+01 -0.44678315349E+02  0.73599035096E+02  0.00000000000E+00 0. -1.
          1    1    1    2  501    0 -0.58701552981E+02 -0.31458392062E+02 -0.78305008871E+03  0.78587718136E+03  0.00000000000E+00 0. -1.
<scales pt_clust_3="14000.00000" pt_clust_4="53.76232" pt_clust_5="59.68437" pt_clust_6="75.69615"></scales>
<clustering>
<clus scale="   53.762">  2  4  1 -1</clus>
<clus scale="   59.684">  1  5  2 -1</clus>
<clus scale="   75.696">  2  6  1 -1</clus>
<clus scale="   59.684">  1  3  2 -1</clus>
</clustering>
</event>
<event>
 6    0  0.4189111E+002  0.2052890E+03  0.7546771E-02  0.1145352E+00
         21   -1    0    0  505  502  0.00000000000E+00  0.00000000000E+00  0.39133550077E+03  0.39133550077E+03  0.00000000000E+00 0. -1.
         -3   -1    0    0    0  501 -0.00000000000E+00 -0.00000000000E+00 -0.28442740358E+03  0.28442740358E+03  0.00000000000E+00 0. -1.
         21    1    1    2  503  502 -0.15111185043E+01  0.36775742325E+02  0.88562319483E+01  0.37857252238E+02  0.00000000000E+00 0. -1.
         21    1    1    2  504  501 -0.20749060940E+03  0.17647155955E+02 -0.22492090508E+02  0.20945087548E+03  0.00000000000E+00 0. -1.
         21    1    1    2  505  504  0.15000127832E+03 -0.16334620130E+03  0.18500846288E+03  0.28880875387E+03  0.00000000000E+00 0. -1.
         -3    1    1    2    0  503  0.59000449591E+02  0.10892330302E+03 -0.64464507136E+02  0.13964602276E+03  0.00000000000E+00 0. -1.
<scales pt_clust_3="33.96188" pt_clust_4="205.28905" pt_clust_5="14000.00000" pt_clust_6="168.56789"></scales>
<clustering>
<clus scale="   33.962">  3  6 -1 -1</clus>
<clus scale="  168.568">  2  3  1 -1</clus>
<clus scale="  205.289">  2  4  1 -1</clus>
<clus scale="  205.289">  1  3  2 -1</clus>
</clustering>
</event>
<event>
 6    0  0.4189111E+002  0.1816840E+03  0.7546771E-02  0.1166183E+00
         21   -1    0    0  503  502  0.00000000000E+00  0.00000000000E+00  0.56417902215E+03  0.56417902215E+03  0.00000000000E+00 0. -1.
          2   -1    0    0  504    0 -0.00000000000E+00 -0.00000000000E+00 -0.10073730163E+04  0.10073730163E+04  0.00000000000E+00 0. -1.
         21    1    1    2  503  505 -0.19040866674E+03  0.80479293527E+02  0.46008333006E+03  0.50438977751E+03  0.00000000000E+00 0. -1.
         21    1    1    2  504  502  0.36879510340E+02 -0.12453602902E+02 -0.38174331065E+03  0.38372274592E+03  0.00000000000E+00 0.  1.
         21    1    1    2  505  501  0.64023360495E+02 -0.12130805378E+03  0.13990891106E+02  0.13787813328E+03  0.00000000000E+00 0. -1.
          2    1    1    2  501    0  0.89505795901E+02  0.53282363158E+02 -0.53552490471E+03  0.54556138178E+03  0.00000000000E+00 0. -1.
<scales pt_clust_3="181.68397" pt_clust_4="38.92545" pt_clust_5="14000.00000" pt_clust_6="128.64508"></scales>
<clustering>
<clus scale="   38.925">  2  4  1 -1</clus>
<clus scale="  128.645">  2  6  1 -1</clus>
<clus scale="  181.684">  1  3  2 -1</clus>
<clus scale="  181.684">  1  3  2 -1</clus>
</clustering>
</event>
<event>
 6    0  0.4189111E+002  0.8721330E+02  0.7546771E-02  0.1309744E+00
          1   -1    0    0  503    0 -0.00000000000E+00  0.00000000000E+00  0.22790315230E+04  0.22790315230E+04  0.00000000000E+00 0.  1.
         21   -1    0    0  505  502  0.00000000000E+00 -0.00000000000E+00 -0.62456708528E+02  0.62456708528E+02  0.00000000000E+00 0. -1.
         21    1    1    2  503  504  0.11617183107E+03 -0.77703527172E+02  0.32914470978E+03  0.35758911119E+03  0.00000000000E+00 0.  1.
         21    1    1    2  504  502  0.14900228335E+00  0.31125963943E+02  0.25360225296E+02  0.40149581070E+02  0.00000000000E+00 0.  1.
         21    1    1    2  505  501 -0.62431420339E+02 -0.17951633929E+02 -0.13456185126E+02  0.66340126050E+02  0.00000000000E+00 0. -1.
          1    1    1    2  501    0 -0.53889413013E+02  0.64529197158E+02  0.18755260645E+04  0.18774094132E+04  0.00000000000E+00 0.  1.
<scales pt_clust_3="87.21330" pt_clust_4="31.12632" pt_clust_5="62.49316" pt_clust_6="14000.00000"></scales>
<clustering>
<clus scale="   31.126">  2  4  1 -1</clus>
<clus scale="   62.493">  2  5  1 -1</clus>
<clus scale="   87.213">  2  3  1 -1</clus>
<clus scale="   31.126">  2  3  1 -1</clus>
</clustering>
</event>
<event>
 6    0  0.4189111E+002  0.2120593E+03  0.7546771E-02  0.1139946E+00
         21   -1    0    0  504  502  0.00000000000E+00  0.00000000000E+00  0.14546481019E+04  0.14546481019E+04  0.00000000000E+00 0. -1.
          4   -1    0    0  505    0 -0.00000000000E+00 -0.00000000000E+00 -0.80290759533E+02  0.80290759533E+02  0.00000000000E+00 0.  1.
         21    1    1    2  503  501 -0.31721954774E+02 -0.15208816223E+02  0.11110685005E+03  0.11654322217E+03  0.00000000000E+00 0.  1.
         21    1    1    2  504  503 -0.11207129284E+03 -0.12909170776E+03  0.11642407496E+04  0.11767247625E+04  0.00000000000E+00 0. -1.
         21    1    1    2  505  502 -0.40514579582E+01  0.31295092803E+02  0.15185861329E+01  0.31592772100E+02  0.00000000000E+00 0. -1.
          4    1    1    2  501    0  0.14784470557E+03  0.11300543118E+03  0.97491156594E+02  0.21007810466E+03  0.00000000000E+00 0.  1.
<scales pt_clust_3="30.53691" pt_clust_4="30.53691" pt_clust_5="31.55625" pt_clust_6="201.09132"></scales>
<clustering>
<clus scale="   30.537">  3  4 -1 -1</clus>
<clus scale="   31.556">  2  5  1 -1</clus>
<clus scale="  201.091">  2  6  1 -1</clus>
<clus scale="  212.059">  1  3  2 -1</clus>
</clustering>
</event>
<event>
 6    0  0.4189111E+002  0.1211804E+03  0.7546771E-02  0.1241162E+00
         21   -1    0    0  505  502  0.00000000000E+00  0.00000000000E+00  0.30074130133E+03  0.30074130133E+03  0.00000000000E+00 0.  1.
         -3   -1    0    0    0  501 -0.00000000000E+00 -0.00000000000E+00 -0.57695796740E+03  0.57695796740E+03  0.00000000000E+00 0. -1.
         21    1    1    2  503  501  0.16609855205E+02 -0.46828986683E+02 -0.40796061049E+02  0.64289656095E+02  0.00000000000E+00 0. -1.
         21    1    1    2  504  502  0.64706712412E+02  0.54009590099E+02 -0.15710513784E+02  0.85736892276E+02  0.00000000000E+00 0. -1.
         21    1    1    2  505  503 -0.15874568371E+03  0.29864822791E+02  0.22376002213E+03  0.27597218563E+03  0.00000000000E+00 0.  1.
         -3    1    1    2    0  504  0.77429116090E+02 -0.37045426207E+02 -0.44347011337E+03  0.45170053473E+03  0.00000000000E+00 0. -1.
<scales pt_clust_3="49.68744" pt_clust_4="82.73894" pt_clust_5="14000.00000" pt_clust_6="121.18041"></scales>
<clustering>
<clus scale="   49.687">  2  3  1 -1</clus>
<clus scale="   82.739">  1  4  2 -1</clus>
<clus scale="  121.180">  2  6  1 -1</clus>
<clus scale="   82.739">  1  3  2 -1</clus>
</clustering>
</event>
<event>
 6    0  0.4189111E+002  0.1707710E+03  0.7546771E-02  0.1177046E+00
          4   -1    0    0  504    0 -0.00000000000E+00  0.00000000000E+00  0.18532792191E+03  0.18532792191E+03  0.00000000000E+00 0.  1.
         21   -1    0    0  505  502  0.00000000000E+00 -0.00000000000E+00 -0.13705975687E+04  0.13705975687E+04  0.00000000000E+00 0.  1.
         21    1    1    2  503  501 -0.45388138381E+02  0.43120528187E+02  0.41813130166E+02  0.75284798672E+02  0.00000000000E+00 0.  1.
         21    1    1    2  504  502 -0.14004206146E+02  0.41406302192E+02 -0.48714101324E+02  0.65449700677E+02  0.00000000000E+00 0. -1.
         21    1    1    2  505  503  0.11475998692E+03 -0.12144645903E+03 -0.12815575393E+04  0.12924042803E+04  0.00000000000E+00 0.  1.
          4    1    1    2  501    0 -0.55367642396E+02  0.36919628648E+02  0.10318886370E+03  0.12278671099E+03  0.00000000000E+00 0.  1.
<scales pt_clust_3="39.38180" pt_clust_4="43.71041" pt_clust_5="165.87391" pt_clust_6="39.38180"></scales>
<clustering>
<clus scale="   39.382">  3  6 -1 -1</clus>
<clus scale="   43.710">  1  4  2 -1</clus>
<clus scale="  165.874">  2  5  1 -1</clus>
<clus scale="  165.874">  2  3  1 -1</clus>
</clustering>
</event>
<event>
 6    0  0.4189111E+002  0.7604693E+02  0.7546771E-02  0.1340659E+00
          2   -1    0    0  502    0 -0.00000000000E+00  0.00000000000E+00  0.65621946532E+03  0.65621946532E+03  0.00000000000E+00 0.  1.
         21   -1    0    0  505  502  0.00000000000E+00 -0.00000000000E+00 -0.30253309389E+03  0.30253309389E+03  0.00000000000E+00 0.  1.
         21    1    1    2  503  504 -0.93909694783E+02 -0.38315567874E+02 -0.10248776574E+03  0.14419034517E+03  0.00000000000E+00 0.  1.
         21    1    1    2  504  501  0.31594836416E+02  0.96588171498E+02  0.19316252338E+03  0.21826421832E+03  0.00000000000E+00 0.  1.
         21    1    1    2  505  503  0.32040491519E+02  0.51189343658E-01 -0.16255763820E+03  0.16568518779E+03  0.00000000000E+00 0.  1.
          2    1    1    2  501    0  0.30274366848E+02 -0.58323792968E+02  0.42556925198E+03  0.43061280792E+03  0.00000000000E+00 0.  1.
<scales pt_clust_3="14000.00000" pt_clust_4="76.04693" pt_clust_5="32.04053" pt_clust_6="65.98318"></scales>
<clustering>
<clus scale="   32.041">  2  5  1 -1</clus>
<clus scale="   65.983">  1  6  2 -1</clus>
<clus scale="   76.047">  1  4  2 -1</clus>
<clus scale="   32.041">  2  3  1 -1</clus>
</clustering>
</event>
<event>
 6    0  0.4189111E+002  0.2145731E+03  0.7546771E-02  0.1137995E+00
          2   -1    0    0  503    0 -0.00000000000E+00  0.00000000000E+00  0.17583568197E+04  0.17583568197E+04  0.00000000000E+00 0.  1.
         21   -1    0    0  505  502  0.00000000000E+00 -0.00000000000E+00 -0.58742244689E+02  0.58742244689E+02  0.00000000000E+00 0.  1.
         21    1    1    2  503  502  0.72927345927E+02 -0.65088950552E+02  0.17906085343E+03  0.20400431000E+03  0.00000000000E+00 0.  1.
         21    1    1    2  504  501 -0.19444699986E+02 -0.10346348614E+03  0.66788111222E+03  0.67612718432E+03  0.00000000000E+00 0.  1.
         21    1    1    2  505  504 -0.51099173741E+02  0.26224731441E+03  0.44833222249E+03  0.52190665946E+03  0.00000000000E+00 0.  1.
          2    1    1    2  501    0 -0.23834721996E+01 -0.93694877723E+02  0.40434038687E+03  0.41506091060E+03  0.00000000000E+00 0.  1.
<scales pt_clust_3="97.74952" pt_clust_4="38.72734" pt_clust_5="210.61102" pt_clust_6="38.72734"></scales>
<clustering>
<clus scale="   38.727">  4  6 -1 -1</clus>
<clus scale="   97.750">  2  3  1 -1</clus>
<clus scale="  210.611">  2  5  1 -1</clus>
<clus scale="   97.750">  2  3  1 -1</clus>
</clustering>
</event>
<event>
 6    0  0.4189111E+002  0.1110901E+03  0.7546771E-02  0.1258564E+00
          2   -1    0    0  503    0 -0.00000000000E+00  0.00000000000E+00  0.14259414364E+04  0.14259414364E+04  0.00000000000E+00 0.  1.
         21   -1    0    0  504  502  0.00000000000E+00 -0.00000000000E+00 -0.22752794491E+03  0.22752794491E+03  0.00000000000E+00 0.  1.
         21    1    1    2  503  505 -0.43648073797E+02  0.82540772780E+01  0.25532220083E+03  0.25915769403E+03  0.00000000000E+00 0. -1.
         21    1    1    2  504  501  0.13803963567E+03  0.70194014948E+02  0.30073986448E+03  0.33827002060E+03  0.00000000000E+00 0. -1.
         21    1    1    2  505  502 -0.41673573887E+02 -0.16634953497E+02 -0.20243983812E+03  0.20735307207E+03  0.00000000000E+00 0.  1.
          2    1    1    2  501    0 -0.52717987984E+02 -0.61813138729E+02  0.84479126425E+03  0.84868859456E+03  0.00000000000E+00 0.  1.
<scales pt_clust_3="44.42166" pt_clust_4="14000.00000" pt_clust_5="44.94983" pt_clust_6="111.09007"></scales>
<clustering>
<clus scale="   44.422">  1  3  2 -1</clus>
<clus scale="   44.950">  2  5  1 -1</clus>
<clus scale="  111.090">  1  6  2 -1</clus>
<clus scale="   44.950">  2  3  1 -1</clus>
</clustering>
</event>
<event>
 6    0  0.4189111E+002  0.1060391E+03  0.7546771E-02  0.1268086E+00
         -4   -1    0    0    0  501 -0.00000000000E+00  0.00000000000E+00  0.14316501122E+03  0.14316501122E+03  0.00000000000E+00 0. -1.
         21   -1    0    0  504  502  0.00000000000E+00 -0.00000000000E+00 -0.34209636333E+04  0.34209636333E+04  0.00000000000E+00 0.  1.
         21    1    1    2  503  505 -0.45205088941E+02 -0.19195744620E+02 -0.17189468809E+04  0.17196483234E+04  0.00000000000E+00 0.  1.
         21    1    1    2  504  501 -0.31353020209E+02  0.32156745682E+02 -0.13135393395E+02  0.46793233793E+02  0.00000000000E+00 0. -1.
         21    1    1    2  505  502 -0.54172134485E+02  0.15282232038E+02 -0.16355843425E+04  0.16365525681E+04  0.00000000000E+00 0.  1.
         -4    1    1    2    0  503  0.13073024364E+03 -0.28243233100E+02  0.89867994722E+02  0.16113451924E+03  0.00000000000E+00 0. -1.
<scales pt_clust_3="33.85432" pt_clust_4="44.91178" pt_clust_5="33.85432" pt_clust_6="99.65316"></scales>
<clustering>
<clus scale="   33.854">  3  5 -1 -1</clus>
<clus scale="   44.912">  1  4  2 -1</clus>
<clus scale="   99.653">  1  6  2 -1</clus>
<clus scale="  106.039">  2  3  1 -1</clus>
</clustering>
</event>
<event>
 6    0  0.4189111E+002  0.1453674E+03  0.7546771E-02  0.1206284E+00
          2   -1    0    0  505    0 -0.00000000000E+00  0.00000000000E+00  0.16806963270E+04  0.16806963270E+04  0.00000000000E+00 0.  1.
         21   -1    0    0  504  502  0.00000000000E+00 -0.00000000000E+00 -0.15738395845E+03  0.15738395845E+03  0.00000000000E+00 0. -1.
         21    1    1    2  503  502 -0.14489478029E+03 -0.37242076485E+02 -0.57273209962E+02  0.16019266586E+03  0.00000000000E+00 0. -1.
         21    1    1    2  504  501  0.31675697499E+02 -0.50019370347E+02 -0.46792959075E+01  0.59390092037E+02  0.00000000000E+00 0. -1.
         21    1    1    2  505  503 -0.22073589862E+02 -0.69095137926E+02  0.13216827964E+03  0.15076417213E+03  0.00000000000E+00 0.  1.
          2    1    1    2  501    0  0.13529267265E+03  0.15635658476E+03  0.14530965948E+04  0.14677333554E+04  0.00000000000E+00 0.  1.
<scales pt_clust_3="14000.00000" pt_clust_4="59.20547" pt_clust_5="75.42984" pt_clust_6="145.36736"></scales>
<clustering>
<clus scale="   59.205">  2  4  1 -1</clus>
<clus scale="   75.430">  1  5  2 -1</clus>
<clus scale="  145.367">  1  6  2 -1</clus>
<clus scale="   59.205">  2  3  1 -1</clus>
</clustering>
</event>
<event>
 6    0  0.4189111E+002  0.8894517E+02  0.7546771E-02  0.1305426E+00
         21   -1    0    0  505  502  0.00000000000E+00  0.00000000000E+00  0.34506838815E+03  0.34506838815E+03  0.00000000000E+00 0. -1.
          1   -1    0    0  503    0 -0.00000000000E+00 -0.00000000000E+00 -0.50211623460E+03  0.50211623460E+03  0.00000000000E+00 0. -1.
         21    1    1    2  503  504 -0.48527865739E+02  0.68624668317E+01 -0.71592149415E+02  0.86761068816E+02  0.00000000000E+00 0. -1.
         21    1    1    2  504  502  0.50571887499E+02 -0.49418927250E+02  0.29292780716E+03  0.30134107981E+03  0.00000000000E+00 0. -1.
         21    1    1    2  505  501 -0.47056922069E+02 -0.41850829297E+02  0.57314314462E+01  0.63235236489E+02  0.00000000000E+00 0. -1.
          1    1    1    2  501    0  0.45012900309E+02  0.84407289715E+02 -0.38411493565E+03  0.39584723763E+03  0.00000000000E+00 0. -1.
<scales pt_clust_3="49.01068" pt_clust_4="88.94517" pt_clust_5="65.17958" pt_clust_6="14000.00000"></scales>
<clustering>
<clus scale="   49.011">  2  3  1 -1</clus>
<clus scale="   65.180">  1  5  2 -1</clus>
<clus scale="   88.945">  1  4  2 -1</clus>
<clus scale="   65.180">  1  3  2 -1</clus>
</clustering>
</event>
<event>
 6    0  0.4189111E+002  0.2224753E+03  0.7546771E-02  0.1132051E+00
          1   -1    0    0  503    0 -0.00000000000E+00  0.00000000000E+00  0.63654040781E+03  0.63654040781E+03  0.00000000000E+00 0. -1.
         21   -1    0    0  504  502  0.00000000000E+00 -0.00000000000E+00 -0.15758521608E+04  0.15758521608E+04  0.00000000000E+00 0. -1.
         21    1    1    2  503  502  0.37793017340E+02 -0.19209104788E+01  0.22465169601E+03  0.22781656344E+03  0.00000000000E+00 0. -1.
         21    1    1    2  504  505  0.82311219796E+02  0.51374353598E+02 -0.49001522950E+03  0.49952916457E+03  0.00000000000E+00 0. -1.
         21    1    1    2  505  501 -0.30297981100E+03 -0.22577381553E+02 -0.10354107838E+04  0.10790653341E+04  0.00000000000E+00 0. -1.
          1    1    1    2  501    0  0.18287557387E+03 -0.26876061566E+02  0.36146256432E+03  0.40598150649E+03  0.00000000000E+00 0. -1.
<scales pt_clust_3="37.84180" pt_clust_4="97.38838" pt_clust_5="14000.00000" pt_clust_6="222.47533"></scales>
<clustering>
<clus scale="   37.842">  1  3  2 -1</clus>
<clus scale="   97.388">  2  4  1 -1</clus>
<clus scale="  222.475">  1  6  2 -1</clus>
<clus scale="   97.388">  2  3  1 -1</clus>
</clustering>
</event>
<event>
 6    0  0.4189111E+002  0.8127068E+02  0.7546771E-02  0.1325484E+00
          2   -1    0    0  502    0 -0.00000000000E+00  0.00000000000E+00  0.41373374905E+03  0.41373374905E+03  0.00000000000E+00 0. -1.
         21   -1    0    0  503  502  0.00000000000E+00 -0.00000000000E+00 -0.10266268605E+03  0.10266268605E+03  0.00000000000E+00 0. -1.
         21    1    1    2  503  505  0.78015568122E+02  0.19965700963E+02 -0.26515332889E+02  0.84782786947E+02  0.00000000000E+00 0. -1.
         21    1    1    2  504  501  0.60003626060E+02 -0.18374994949E+02  0.21914246156E+02  0.66470367565E+02  0.00000000000E+00 0. -1.
         21    1    1    2  505  504 -0.85260620149E+02 -0.27802877546E+00  0.60436140501E+02  0.10450826631E+03  0.00000000000E+00 0. -1.
          2    1    1    2  501    0 -0.52758574032E+02 -0.13126772388E+01  0.25523600923E+03  0.26063501427E+03  0.00000000000E+00 0. -1.
<scales pt_clust_3="14000.00000" pt_clust_4="48.78462" pt_clust_5="81.27068" pt_clust_6="52.77490"></scales>
<clustering>
<clus scale="   52.775">  1  6  2 -1</clus>
<clus scale="   48.785">  1  4  2 -1</clus>
<clus scale="   81.271">  1  5  2 -1</clus>
<clus scale="   81.271">  2  3  1 -1</clus>
</clustering>
</event>
<event>
 6    0  0.4189111E+002  0.2274018E+03  0.7546771E-02  0.1128482E+00
         21   -1    0    0  501  502  0.00000000000E+00  0.00000000000E+00  0.10366146240E+04  0.10366146240E+04  0.00000000000E+00 0. -1.
          1   -1    0    0  504    0 -0.00000000000E+00 -0.00000000000E+00 -0.57685913052E+03  0.57685913052E+03  0.00000000000E+00 0. -1.
         21    1    1    2  503  505 -0.24672880045E+03  0.36371188756E+02  0.20255033844E+03  0.32128586017E+03  0.00000000000E+00 0. -1.
         21    1    1    2  504  503  0.12042769460E+03 -0.58179389815E+01 -0.44966756751E+02  0.12868056285E+03  0.00000000000E+00 0.  1.
         21    1    1    2  505  502  0.14934114932E+02 -0.12337911877E+03  0.71512492789E+03  0.72584371405E+03  0.00000000000E+00 0. -1.
          1    1    1    2  501    0  0.11136699091E+03  0.92825868996E+02 -0.41295301605E+03  0.43766361750E+03  0.00000000000E+00 0. -1.
<scales pt_clust_3="14000.00000" pt_clust_4="120.56815" pt_clust_5="124.50789" pt_clust_6="227.40182"></scales>
<clustering>
<clus scale="  120.568">  2  4  1 -1</clus>
<clus scale="  124.508">  1  5  2 -1</clus>
<clus scale="  227.402">  2  6  1 -1</clus>
<clus scale="  124.508">  1  3  2 -1</clus>
</clustering>
</event>
<event>
 6    0  0.4189111E+002  0.1150254E+03  0.7546771E-02  0.1251537E+00
         21   -1    0    0  505  502  0.00000000000E+00  0.00000000000E+00  0.22009244063E+03  0.22009244063E+03  0.00000000000E+00 0.  1.
          2   -1    0    0  504    0 -0.00000000000E+00 -0.00000000000E+00 -0.75939579041E+02  0.75939579041E+02  0.00000000000E+00 0.  1.
         21    1    1    2  503  501 -0.48901541628E+02  0.24843032188E+02  0.96719278710E+01  0.55696348271E+02  0.00000000000E+00 0. -1.
         21    1    1    2  504  502 -0.27736430792E+02 -0.22073433014E+02  0.20149479266E+02  0.40774349202E+02  0.00000000000E+00 0.  1.
         21    1    1    2  505  503  0.10006525520E+03 -0.48340721651E+02  0.66749235479E+02  0.12963541609E+03  0.00000000000E+00 0.  1.
          2    1    1    2  501    0 -0.23427282781E+02  0.45571122477E+02  0.47582218970E+02  0.69925906104E+02  0.00000000000E+00 0.  1.
<scales pt_clust_3="44.90302" pt_clust_4="35.44779" pt_clust_5="104.48702" pt_clust_6="44.90302"></scales>
<clustering>
<clus scale="   35.448">  1  4  2 -1</clus>
<clus scale="   44.903">  3  6 -1 -1</clus>
<clus scale="  104.487">  1  5  2 -1</clus>
<clus scale="   35.448">  1  3  2 -1</clus>
</clustering>
</event>
<event>
 6    0  0.4189111E+002  0.1183371E+03  0.7546771E-02  0.1245866E+00
          1   -1    0    0  504    0 -0.00000000000E+00  0.00000000000E+00  0.10935786387E+04  0.10935786387E+04  0.00000000000E+00 0.  1.
         21   -1    0    0  501  502  0.00000000000E+00 -0.00000000000E+00 -0.45450158925E+03  0.45450158925E+03  0.00000000000E+00 0. -1.
         21    1    1    2  503  502 -0.29062189389E+02 -0.11533183994E+03 -0.42948713975E+03  0.44565148644E+03  0.00000000000E+00 0. -1.
         21    1    1    2  504  505 -0.20864053684E+02 -0.25002584346E+02  0.20272077426E+02  0.38358768010E+02  0.00000000000E+00 0.  1.
         21    1    1    2  505  503 -0.66580017461E+01  0.94621098753E+02  0.37303162369E+03  0.38490268067E+03  0.00000000000E+00 0.  1.
          1    1    1    2  501    0  0.56584244820E+02  0.45713325531E+02  0.67526048807E+03  0.67916729283E+03  0.00000000000E+00 0.  1.
<scales pt_clust_3="14000.00000" pt_clust_4="32.56437" pt_clust_5="118.33714" pt_clust_6="52.57223"></scales>
<clustering>
<clus scale="   32.564">  1  4  2 -1</clus>
<clus scale="   52.572">  1  6  2 -1</clus>
<clus scale="  118.337">  1  5  2 -1</clus>
<clus scale="  118.337">  2  3  1 -1</clus>
</clustering>
</event>
<event>
 6    0  0.4189111E+002  0.7294165E+02  0.7546771E-02  0.1350366E+00
         21   -1    0    0  503  502  0.00000000000E+00  0.00000000000E+00  0.75676848000E+03  0.75676848000E+03  0.00000000000E+00 0. -1.
         -3   -1    0    0    0  501 -0.00000000000E+00 -0.00000000000E+00 -0.10389140950E+03  0.10389140950E+03  0.00000000000E+00 0.  1.
         21    1    1    2  503  501 -0.16211019303E+02 -0.36568261196E+02  0.33235990759E+02  0.52006403024E+02  0.00000000000E+00 0.  1.
         21    1    1    2  504  505  0.10757484951E+03 -0.18906461568E+02  0.22614578899E+02  0.11154022465E+03  0.00000000000E+00 0.  1.
         21    1    1    2  505  502 -0.70678859643E+02 -0.10899446579E+02  0.61983338419E+03  0.62394528870E+03  0.00000000000E+00 0. -1.
         -3    1    1    2    0  504 -0.20684970564E+02  0.66374169344E+02 -0.22806883349E+02  0.73167973126E+02  0.00000000000E+00 0.  1.
<scales pt_clust_3="40.00044" pt_clust_4="72.94165" pt_clust_5="14000.00000" pt_clust_6="55.87096"></scales>
<clustering>
<clus scale="   40.000">  2  3  1 -1</clus>
<clus scale="   55.871">  2  6  1 -1</clus>
<clus scale="   72.942">  2  4  1 -1</clus>
<clus scale="   72.942">  1  3  2 -1</clus>
</clustering>
</event>
<event>
 6    0  0.4189111E+002  0.9205652E+02  0.7546771E-02  0.1297947E+00
         21   -1    0    0  504  502  0.00000000000E+00  0.00000000000E+00  0.17080517854E+03  0.17080517854E+03  0.00000000000E+00 0. -1.
         -2   -1    0    0    0  501 -0.00000000000E+00 -0.00000000000E+00 -0.29806852444E+03  0.29806852444E+03  0.00000000000E+00 0. -1.
         21    1    1    2  503  502  0.25336062561E+02 -0.75468646550E+02 -0.26466846147E+02  0.83892351398E+02  0.00000000000E+00 0. -1.
         21    1    1    2  504  505 -0.40650439914E+02  0.56472863617E+01  0.93238170640E+02  0.10187102911E+03  0.00000000000E+00 0. -1.
         21    1    1    2  505  501 -0.59063060938E+02  0.10645185175E+03 -0.98347468967E+02  0.15650133086E+03  0.00000000000E+00 0.  1.
         -2    1    1    2    0  503  0.74377438291E+02 -0.36630491560E+02 -0.95687201431E+02  0.12660899161E+03  0.00000000000E+00 0. -1.
<scales pt_clust_3="73.85590" pt_clust_4="41.04083" pt_clust_5="92.05652" pt_clust_6="14000.00000"></scales>
<clustering>
<clus scale="   41.041">  1  4  2 -1</clus>
<clus scale="   73.856">  1  3  2 -1</clus>
<clus scale="   92.057">  1  5  2 -1</clus>
<clus scale="   41.041">  1  3  2 -1</clus>
</clustering>
</event>
<event>
 6    0  0.4189111E+002  0.6107375E+02  0.7546771E-02  0.1393380E+00
         21   -1    0    0  504  502  0.00000000000E+00  0.00000000000E+00  0.22168173724E+03  0.22168173724E+03  0.00000000000E+00 0. -1.
          2   -1    0    0  503    0 -0.00000000000E+00 -0.00000000000E+00 -0.10429719863E+04  0.10429719863E+04  0.00000000000E+00 0.  1.
         21    1    1    2  503  502 -0.73785439340E+02 -0.17389173892E+02 -0.35024300918E+03  0.35835295437E+03  0.00000000000E+00 0.  1.
         21    1    1    2  504  505 -0.18628974259E+02  0.28621712307E+02  0.17748133618E+03  0.18073700725E+03  0.00000000000E+00 0. -1.
         21    1    1    2  505  501  0.61149999712E+02 -0.64549090394E+02 -0.16392912509E+02  0.90413688764E+02  0.00000000000E+00 0. -1.
          2    1    1    2  501    0  0.31264413887E+02  0.53316551979E+02 -0.63213566359E+03  0.63515007319E+03  0.00000000000E+00 0.  1.
<scales pt_clust_3="14000.00000" pt_clust_4="34.15027" pt_clust_5="59.95336" pt_clust_6="61.07375"></scales>
<clustering>
<clus scale="   34.150">  1  4  2 -1</clus>
<clus scale="   59.953">  1  5  2 -1</clus>
<clus scale="   61.074">  2  6  1 -1</clus>
<clus scale="   34.150">  1  3  2 -1</clus>
</clustering>
</event>
<event>
 6    0  0.4189111E+002  0.1535324E+03  0.7546771E-02  0.1196198E+00
          3   -1    0    0  503    0 -0.00000000000E+00  0.00000000000E+00  0.70622559592E+03  0.70622559592E+03  0.00000000000E+00 0. -1.
         21   -1    0    0  505  502  0.00000000000E+00 -0.00000000000E+00 -0.65399271044E+02  0.65399271044E+02  0.00000000000E+00 0. -1.
         21    1    1    2  503  504 -0.41764304519E+02 -0.14612382385E+03  0.36477833198E+03  0.39517041958E+03  0.00000000000E+00 0. -1.
         21    1    1    2  504  502 -0.20758784232E+02 -0.22415262869E+02 -0.19423252167E+01  0.30612803850E+02  0.00000000000E+00 0. -1.
         21    1    1    2  505  501  0.24887659851E+02  0.16422503512E+03  0.20725262294E+03  0.26559914813E+03  0.00000000000E+00 0. -1.
          3    1    1    2  501    0  0.37635428900E+02  0.43140515987E+01  0.70737695175E+02  0.80242495402E+02  0.00000000000E+00 0. -1.
<scales pt_clust_3="14000.00000" pt_clust_4="30.55112" pt_clust_5="153.53240" pt_clust_6="35.69161"></scales>
<clustering>
<clus scale="   30.551">  2  4  1 -1</clus>
<clus scale="   35.692">  1  6  2 -1</clus>
<clus scale="  153.532">  2  5  1 -1</clus>
<clus scale="   30.551">  2  3  1 -1</clus>
</clustering>
</event>
<event>
 6    0  0.4189111E+002  0.1051761E+03  0.7546771E-02  0.1269773E+00
         21   -1    0    0  503  502  0.00000000000E+00  0.00000000000E+00  0.21203646671E+03  0.21203646671E+03  0.00000000000E+00 0. -1.
          2   -1    0    0  504    0 -0.00000000000E+00 -0.00000000000E+00 -0.25043432949E+04  0.25043432949E+04  0.00000000000E+00 0.  1.
         21    1    1    2  503  501  0.15986531318E+01 -0.34705120488E+02 -0.45187628941E+02  0.56999323586E+02  0.00000000000E+00 0.  1.
         21    1    1    2  504  505 -0.49493350296E+02  0.31734560997E+02  0.37353151721E+02  0.69655811162E+02  0.00000000000E+00 0. -1.
         21    1    1    2  505  502 -0.52099587191E+02  0.38784186710E+02  0.14450262101E+03  0.15842849366E+03  0.00000000000E+00 0. -1.
          2    1    1    2  501    0  0.99994284355E+02 -0.35813627219E+02 -0.24289749720E+04  0.24312961332E+04  0.00000000000E+00 0.  1.
<scales pt_clust_3="34.74192" pt_clust_4="14000.00000" pt_clust_5="52.62866" pt_clust_6="105.17606"></scales>
<clustering>
<clus scale="   34.742">  1  3  2 -1</clus>
<clus scale="   52.629">  1  5  2 -1</clus>
<clus scale="  105.176">  2  6  1 -1</clus>
<clus scale="   34.742">  1  3  2 -1</clus>
</clustering>
</event>
<event>
 6    0  0.4189111E+002  0.8872962E+02  0.7546771E-02  0.1305958E+00
         21   -1    0    0  505  502  0.00000000000E+00  0.00000000000E+00  0.55974018021E+02  0.55974018021E+02  0.00000000000E+00 0.  1.
         -3   -1    0    0    0  501 -0.00000000000E+00 -0.00000000000E+00 -0.14261644264E+04  0.14261644264E+04  0.00000000000E+00 0.  1.
         21    1    1    2  503  501 -0.10747969175E+02 -0.90527796118E+02 -0.81685221118E+03  0.82192355826E+03  0.00000000000E+00 0.  1.
         21    1    1    2  504  502  0.32816605354E+02  0.68498414213E+02 -0.26707086931E+02  0.80512302346E+02  0.00000000000E+00 0.  1.
         21    1    1    2  505  503  0.28197615910E+02 -0.61544793280E+02 -0.30805155774E+02  0.74376237772E+02  0.00000000000E+00 0.  1.
         -3    1    1    2    0  504 -0.50266252089E+02  0.83574175185E+02 -0.49582595453E+03  0.50532634608E+03  0.00000000000E+00 0.  1.
<scales pt_clust_3="14000.00000" pt_clust_4="58.55199" pt_clust_5="67.69688" pt_clust_6="88.72962"></scales>
<clustering>
<clus scale="   67.697">  1  5  2 -1</clus>
<clus scale="   58.552">  1  4  2 -1</clus>
<clus scale="   88.730">  1  6  2 -1</clus>
<clus scale="   67.697">  1  3  2 -1</clus>
</clustering>
</event>
<event>
 6    0  0.4189111E+002  0.3150636E+03  0.7546771E-02  0.1077944E+00
         21   -1    0    0  505  502  0.00000000000E+00  0.00000000000E+00  0.51910156229E+03  0.51910156229E+03  0.00000000000E+00 0. -1.
          2   -1    0    0  504    0 -0.00000000000E+00 -0.00000000000E+00 -0.32613990471E+03  0.32613990471E+03  0.00000000000E+00 0. -1.
         21    1    1    2  503  501 -0.39511495394E+02 -0.38704163587E+02 -0.58521255249E+01  0.55618503399E+02  0.00000000000E+00 0. -1.
         21    1    1    2  504  502  0.15677802837E+03  0.24484843026E+03  0.23914106670E+03  0.37645524802E+03  0.00000000000E+00 0. -1.
         21    1    1    2  505  503 -0.53973951331E+02  0.49104226760E+02  0.93091153807E+02  0.11828091742E+03  0.00000000000E+00 0.  1.
          2    1    1    2  501    0 -0.63292581640E+02 -0.25524849344E+03 -0.13341843740E+03  0.29488679816E+03  0.00000000000E+00 0. -1.
<scales pt_clust_3="36.91953" pt_clust_4="304.60510" pt_clust_5="72.96857" pt_clust_6="36.91953"></scales>
<clustering>
<clus scale="   36.920">  3  6 -1 -1</clus>
<clus scale="   72.969">  1  5  2 -1</clus>
<clus scale="  304.605">  1  4  2 -1</clus>
<clus scale="   72.969">  1  3  2 -1</clus>
</clustering>
</event>
<event>
 6    0  0.4189111E+002  0.1342248E+03  0.7546771E-02  0.1221318E+00
          2   -1    0    0  504    0 -0.00000000000E+00  0.00000000000E+00  0.32129224678E+04  0.32129224678E+04  0.00000000000E+00 0.  1.
         21   -1    0    0  501  502  0.00000000000E+00 -0.00000000000E+00 -0.97379923570E+01  0.97379923570E+01  0.00000000000E+00 0.  1.
         21    1    1    2  503  502 -0.46133503234E+02 -0.58466177810E+02  0.25436459543E+03  0.26504328227E+03  0.00000000000E+00 0.  1.
         21    1    1    2  504  505  0.33980432363E+02  0.24251736544E+02  0.12017195119E+04  0.12024444277E+04  0.00000000000E+00 0.  1.
         21    1    1    2  505  503 -0.61638213127E+01 -0.61930480706E+02  0.43534897034E+03  0.43977505967E+03  0.00000000000E+00 0.  1.
          2    1    1    2  501    0  0.18316892183E+02  0.96144921972E+02  0.13117513977E+04  0.13153976904E+04  0.00000000000E+00 0.  1.
<scales pt_clust_3="55.98381" pt_clust_4="41.74705" pt_clust_5="55.98381" pt_clust_6="119.09062"></scales>
<clustering>
<clus scale="   41.747">  1  4  2 -1</clus>
<clus scale="   55.984">  3  5 -1 -1</clus>
<clus scale="  119.091">  1  6  2 -1</clus>
<clus scale="  134.225">  2  3  1 -1</clus>
</clustering>
</event>
<event>
 6    0  0.4189111E+002  0.1304429E+03  0.7546771E-02  0.1226800E+00
         21   -1    0    0  503  502  0.00000000000E+00  0.00000000000E+00  0.21725794357E+03  0.21725794357E+03  0.00000000000E+00 0. -1.
          2   -1    0    0  505    0 -0.00000000000E+00 -0.00000000000E+00 -0.20290383836E+04  0.20290383836E+04  0.00000000000E+00 0.  1.
         21    1    1    2  503  504  0.22004763324E+01 -0.59518140728E+02  0.67459392359E+02  0.89989003714E+02  0.00000000000E+00 0. -1.
         21    1    1    2  504  501  0.46345060663E+02 -0.52293385329E+02  0.12261475312E+03  0.14112703667E+03  0.00000000000E+00 0. -1.
         21    1    1    2  505  502 -0.10577183344E+03  0.47376983475E+02 -0.62659921743E+03  0.63722746222E+03  0.00000000000E+00 0.  1.
          2    1    1    2  501    0  0.57226296447E+02  0.64434542582E+02 -0.13752553681E+04  0.13779528246E+04  0.00000000000E+00 0.  1.
<scales pt_clust_3="45.49186" pt_clust_4="45.49186" pt_clust_5="120.77825" pt_clust_6="86.17807"></scales>
<clustering>
<clus scale="   45.492">  3  4 -1 -1</clus>
<clus scale="   86.178">  2  6  1 -1</clus>
<clus scale="  120.778">  2  5  1 -1</clus>
<clus scale="  130.443">  1  3  2 -1</clus>
</clustering>
</event>
<event>
 6    0  0.4189111E+002  0.1078389E+03  0.7546771E-02  0.1264625E+00
          1   -1    0    0  504    0 -0.00000000000E+00  0.00000000000E+00  0.76161939660E+03  0.76161939660E+03  0.00000000000E+00 0. -1.
         21   -1    0    0  503  502  0.00000000000E+00 -0.00000000000E+00 -0.10790172310E+03  0.10790172310E+03  0.00000000000E+00 0. -1.
         21    1    1    2  503  501 -0.10584604526E+03 -0.25066790706E+02 -0.47388346860E+02  0.11864815511E+03  0.00000000000E+00 0. -1.
         21    1    1    2  504  505  0.13380501695E+02 -0.26888324225E+02  0.44366823693E+03  0.44468362266E+03  0.00000000000E+00 0. -1.
         21    1    1    2  505  502  0.13012586866E+02 -0.41262152591E+02  0.65399667424E+02  0.78415618039E+02  0.00000000000E+00 0. -1.
          1    1    1    2  501    0  0.79452956694E+02  0.93217267521E+02  0.19203811601E+03  0.22777372388E+03  0.00000000000E+00 0. -1.
<scales pt_clust_3="107.83887" pt_clust_4="30.03364" pt_clust_5="49.99695" pt_clust_6="14000.00000"></scales>
<clustering>
<clus scale="   30.034">  1  4  2 -1</clus>
<clus scale="   49.997">  1  5  2 -1</clus>
<clus scale="  107.839">  2  3  1 -1</clus>
<clus scale="  107.839">  2  3  1 -1</clus>
</clustering>
</event>
<event>
 6    0  0.4189111E+002  0.1684071E+03  0.7546771E-02  0.1179519E+00
         -1   -1    0    0    0  501 -0.00000000000E+00  0.00000000000E+00  0.19537100832E+03  0.19537100832E+03  0.00000000000E+00 0. -1.
         21   -1    0    0  503  502  0.00000000000E+00 -0.00000000000E+00 -0.19810302400E+04  0.19810302400E+04  0.00000000000E+00 0. -1.
         21    1    1    2  503  504  0.29222983268E+01 -0.43167133431E+02 -0.10407267092E+03  0.11270786161E+03  0.00000000000E+00 0. -1.
         21    1    1    2  504  501 -0.50436103507E+02  0.40224551337E+02 -0.34711565455E+02  0.73257817628E+02  0.00000000000E+00 0. -1.
         21    1    1    2  505  502 -0.13591629410E+03  0.13823100208E+03 -0.17352001670E+04  0.17459956095E+04  0.00000000000E+00 0. -1.
         -1    1    1    2    0  505  0.18343009928E+03 -0.13528841999E+03  0.88325171645E+02  0.24443995960E+03  0.00000000000E+00 0. -1.
<scales pt_clust_3="43.26594" pt_clust_4="63.67700" pt_clust_5="168.40714" pt_clust_6="14000.00000"></scales>
<clustering>
<clus scale="   43.266">  2  3  1 -1</clus>
<clus scale="   63.677">  1  4  2 -1</clus>
<clus scale="  168.407">  2  5  1 -1</clus>
<clus scale="   43.266">  2  3  1 -1</clus>
</clustering>
</event>
<event>
 6    0  0.4189111E+002  0.6433979E+02  0.7546771E-02  0.1380472E+00
         21   -1    0    0  505  502  0.00000000000E+00  0.00000000000E+00  0.52084010578E+03  0.52084010578E+03  0.00000000000E+00 0.  1.
          2   -1    0    0  504    0 -0.00000000000E+00 -0.00000000000E+00 -0.30589689459E+03  0.30589689459E+03  0.00000000000E+00 0.  1.
         21    1    1    2  503  502  0.37624338413E+02  0.48851479910E+01  0.23599791907E+03  0.23902818520E+03  0.00000000000E+00 0.  1.
         21    1    1    2  504  503 -0.62488532381E+01 -0.54183441218E+02 -0.67525287791E+02  0.86801831549E+02  0.00000000000E+00 0.  1.
         21    1    1    2  505  501 -0.84236403907E+02 -0.57080255436E+01  0.26041935028E+03  0.27376375088E+03  0.00000000000E+00 0.  1.
          2    1    1    2  501    0  0.52860918732E+02  0.55006318771E+02 -0.21394877037E+03  0.22714323274E+03  0.00000000000E+00 0.  1.
<scales pt_clust_3="37.94016" pt_clust_4="14000.00000" pt_clust_5="48.78052" pt_clust_6="64.33979"></scales>
<clustering>
<clus scale="   37.940">  1  3  2 -1</clus>
<clus scale="   48.781">  1  5  2 -1</clus>
<clus scale="   64.340">  2  6  1 -1</clus>
<clus scale="   37.940">  1  3  2 -1</clus>
</clustering>
</event>
<event>
 6    0  0.1349866E+003  0.1035046E+03  0.7546771E-02  0.1273094E+00
          2   -1    0    0  503    0 -0.00000000000E+00  0.00000000000E+00  0.17019641849E+04  0.17019641849E+04  0.00000000000E+00 0.  1.
         21   -1    0    0  504  502  0.00000000000E+00 -0.00000000000E+00 -0.46374741445E+03  0.46374741445E+03  0.00000000000E+00 0. -1.
         21    1    1    2  503  505 -0.39924131920E+02 -0.56134878778E+02  0.11330577790E+03  0.13260188623E+03  0.00000000000E+00 0. -1.
         21    1    1    2  504  501  0.10884961488E+00 -0.38853633485E+02 -0.44152436174E+03  0.44323061570E+03  0.00000000000E+00 0. -1.
         21    1    1    2  505  502 -0.31459574909E+02  0.10378566647E+02  0.18397267063E+02  0.37892993211E+02  0.00000000000E+00 0. -1.
          2    1    1    2  501    0  0.71274857214E+02  0.84609945616E+02  0.15480380872E+04  0.15519861042E+04  0.00000000000E+00 0.  1.
<scales pt_clust_3="14000.00000" pt_clust_4="41.94104" pt_clust_5="33.12732" pt_clust_6="103.50458"></scales>
<clustering>
<clus scale="   33.127">  2  5  1 -1</clus>
<clus scale="   41.941">  2  4  1 -1</clus>
<clus scale="  103.505">  1  6  2 -1</clus>
<clus scale="   33.127">  2  3  1 -1</clus>
</clustering>
</event>
<event>
 6    0  0.4851969E+002  0.2407233E+03  0.7546771E-02  0.1119312E+00
         21   -1    0    0  503  502  0.00000000000E+00  0.00000000000E+00  0.11891179976E+04  0.11891179976E+04  0.00000000000E+00 0.  1.
          1   -1    0    0  504    0 -0.00000000000E+00 -0.00000000000E+00 -0.57078087797E+03  0.57078087797E+03  0.00000000000E+00 0.  1.
         21    1    1    2  503  505 -0.29010575447E+02 -0.47976611893E+02  0.94715093294E+02  0.11006506110E+03  0.00000000000E+00 0. -1.
         21    1    1    2  504  502  0.88682507848E+01  0.35977553750E+02  0.23228166056E+01  0.37127156137E+02  0.00000000000E+00 0.  1.
         21    1    1    2  505  501 -0.12971957460E+03 -0.13741712220E+03  0.10376267332E+04  0.10546942074E+04  0.00000000000E+00 0.  1.
          1    1    1    2  501    0  0.14986189927E+03  0.14941618034E+03 -0.51632752356E+03  0.55801245092E+03  0.00000000000E+00 0.  1.
<scales pt_clust_3="55.57533" pt_clust_4="37.05442" pt_clust_5="240.72333" pt_clust_6="14000.00000"></scales>
<clustering>
<clus scale="   37.054">  2  4  1 -1</clus>
<clus scale="   55.575">  1  3  2 -1</clus>
<clus scale="  240.723">  1  5  2 -1</clus>
<clus scale="   55.575">  1  3  2 -1</clus>
</clustering>
</event>
<event>
 6    0  0.4189111E+002  0.1062873E+03  0.7546771E-02  0.1267604E+00
          3   -1    0    0  503    0 -0.00000000000E+00  0.00000000000E+00  0.97069982258E+03  0.97069982258E+03  0.00000000000E+00 0. -1.
         21   -1    0    0  505  502  0.00000000000E+00 -0.00000000000E+00 -0.13611607529E+03  0.13611607529E+03  0.00000000000E+00 0.  1.
         21    1    1    2  503  502  0.14498130579E+03 -0.43864636571E+02  0.61146286490E+03  0.62994485515E+03  0.00000000000E+00 0. -1.
         21    1    1    2  504  501 -0.69092482481E+02  0.85838492413E+01  0.10640599712E+02  0.70432066315E+02  0.00000000000E+00 0.  1.
         21    1    1    2  505  504 -0.43470220887E+02 -0.54852206276E+01 -0.89686060568E+02  0.99816517718E+02  0.00000000000E+00 0.  1.
          3    1    1    2  501    0 -0.32418602426E+02  0.40766007958E+02  0.30216634324E+03  0.30662245870E+03  0.00000000000E+00 0. -1.
<scales pt_clust_3="14000.00000" pt_clust_4="106.28733" pt_clust_5="43.81493" pt_clust_6="53.34911"></scales>
<clustering>
<clus scale="   43.815">  2  5  1 -1</clus>
<clus scale="   53.349">  1  6  2 -1</clus>
<clus scale="  106.287">  2  4  1 -1</clus>
<clus scale="   43.815">  2  3  1 -1</clus>
</clustering>
</event>
<event>
 6    0  0.4189111E+002  0.1389878E+03  0.7546771E-02  0.1214698E+00
          2   -1    0    0  504    0 -0.00000000000E+00  0.00000000000E+00  0.25212432344E+04  0.25212432344E+04  0.00000000000E+00 0.  1.
         21   -1    0    0  503  502  0.00000000000E+00 -0.00000000000E+00 -0.47961033661E+03  0.47961033661E+03  0.00000000000E+00 0.  1.
         21    1    1    2  503  501  0.74755674330E+02  0.13418052540E+03 -0.43300309095E+03  0.45943933333E+03  0.00000000000E+00 0.  1.
         21    1    1    2  504  505 -0.17629079258E+02  0.26227348193E+02  0.12696930171E+03  0.13084288977E+03  0.00000000000E+00 0. -1.
         21    1    1    2  505  502  0.27518387431E+02 -0.40260474770E+02 -0.87760541075E+01  0.49549839568E+02  0.00000000000E+00 0. -1.
          2    1    1    2  501    0 -0.84644982502E+02 -0.12014739882E+03  0.23564427411E+04  0.23610215083E+04  0.00000000000E+00 0.  1.
<scales pt_clust_3="14000.00000" pt_clust_4="31.60155" pt_clust_5="48.49717" pt_clust_6="138.98776"></scales>
<clustering>
<clus scale="   31.602">  1  4  2 -1</clus>
<clus scale="   48.497">  2  5  1 -1</clus>
<clus scale="  138.988">  1  6  2 -1</clus>
<clus scale="   48.497">  2  3  1 -1</clus>
</clustering>
</event>
<event>
 6    0  0.4189111E+002  0.1030362E+03  0.7546771E-02  0.1274038E+00
          4   -1    0    0  502    0 -0.00000000000E+00  0.00000000000E+00  0.53914884796E+02  0.53914884796E+02  0.00000000000E+00 0. -1.
         21   -1    0    0  504  502  0.00000000000E+00 -0.00000000000E+00 -0.26730163054E+04  0.26730163054E+04  0.00000000000E+00 0. -1.
         21    1    1    2  503  501 -0.66785467473E+01 -0.16730335900E+03 -0.42995863225E+03  0.46141027553E+03  0.00000000000E+00 0. -1.
         21    1    1    2  504  505 -0.21233515874E+01  0.36419707723E+02 -0.19948874287E+04  0.19952209795E+04  0.00000000000E+00 0. -1.
         21    1    1    2  505  503  0.18308685541E+02  0.37171668873E+02 -0.16725825330E+03  0.17231443419E+03  0.00000000000E+00 0. -1.
          4    1    1    2  501    0 -0.95067872064E+01  0.93711982403E+02 -0.26997106304E+02  0.97985500957E+02  0.00000000000E+00 0. -1.
<scales pt_clust_3="14000.00000" pt_clust_4="36.48155" pt_clust_5="49.58844" pt_clust_6="103.03618"></scales>
<clustering>
<clus scale="   36.482">  2  4  1 -1</clus>
<clus scale="   49.588">  2  5  1 -1</clus>
<clus scale="  103.036">  1  6  2 -1</clus>
<clus scale="   36.482">  2  3  1 -1</clus>
</clustering>
</event>
<event>
 6    0  0.4189111E+002  0.8520226E+02  0.7546771E-02  0.1314904E+00
         -2   -1    0    0    0  501 -0.00000000000E+00  0.00000000000E+00  0.49168832489E+02  0.49168832489E+02  0.00000000000E+00 0.  1.
         21   -1    0    0  504  502  0.00000000000E+00 -0.00000000000E+00 -0.97396299615E+03  0.97396299615E+03  0.00000000000E+00 0. -1.
         21    1    1    2  503  502 -0.75959139089E+02 -0.42773463396E+02 -0.35320893486E+03  0.36380752005E+03  0.00000000000E+00 0. -1.
         21    1    1    2  504  505  0.37993536900E+02 -0.49046305394E+02 -0.51379008132E+03  0.51752226675E+03  0.00000000000E+00 0. -1.
         21    1    1    2  505  501  0.87306625386E+01  0.45897495582E+02 -0.71734375176E+02  0.85607389582E+02  0.00000000000E+00 0. -1.
         -2    1    1    2    0  503  0.29234939651E+02  0.45922273208E+02  0.13939227698E+02  0.56194652253E+02  0.00000000000E+00 0.  1.
<scales pt_clust_3="85.20226" pt_clust_4="60.69340" pt_clust_5="46.72049" pt_clust_6="14000.00000"></scales>
<clustering>
<clus scale="   46.720">  1  5  2 -1</clus>
<clus scale="   60.693">  2  4  1 -1</clus>
<clus scale="   85.202">  2  3  1 -1</clus>
<clus scale="   60.693">  2  3  1 -1</clus>
</clustering>
</event>
<event>
 6    0  0.4189111E+002  0.1262029E+03  0.7546771E-02  0.1233201E+00
          3   -1    0    0  505    0 -0.00000000000E+00  0.00000000000E+00  0.31891880185E+04  0.31891880185E+04  0.00000000000E+00 0.  1.
         21   -1    0    0  503  502  0.00000000000E+00 -0.00000000000E+00 -0.51318342326E+02  0.51318342326E+02  0.00000000000E+00 0. -1.
         21    1    1    2  503  504 -0.13353605686E+03 -0.83486768234E+01  0.78926570430E+02  0.15534150253E+03  0.00000000000E+00 0. -1.
         21    1    1    2  504  501  0.15739741106E+02  0.11586824076E+03  0.32874121392E+03  0.34891829186E+03  0.00000000000E+00 0. -1.
         21    1    1    2  505  502  0.52710737125E+02 -0.89290879939E+02  0.11714403399E+04  0.11760203029E+04  0.00000000000E+00 0. -1.
          3    1    1    2  501    0  0.65085578631E+02 -0.18228683994E+02  0.15587615520E+04  0.15602262635E+04  0.00000000000E+00 0.  1.
<scales pt_clust_3="14000.00000" pt_clust_4="115.83773" pt_clust_5="126.20294" pt_clust_6="67.59007"></scales>
<clustering>
<clus scale="   67.590">  1  6  2 -1</clus>
<clus scale="  115.838">  1  4  2 -1</clus>
<clus scale="  126.203">  1  5  2 -1</clus>
<clus scale="  126.203">  2  3  1 -1</clus>
</clustering>
</event>
<event>
 6    0  0.4189111E+002  0.9965717E+02  0.7546771E-02  0.1281019E+00
         21   -1    0    0  505  502  0.00000000000E+00  0.00000000000E+00  0.14700941836E+03  0.14700941836E+03  0.00000000000E+00 0.  1.
          2   -1    0    0  504    0 -0.00000000000E+00 -0.00000000000E+00 -0.11576843644E+04  0.11576843644E+04  0.00000000000E+00 0. -1.
         21    1    1    2  503  502 -0.38734983336E+01 -0.30641418681E+02  0.96510867468E+02  0.10133236436E+03  0.00000000000E+00 0.  1.
         21    1    1    2  504  503 -0.60083074955E+02 -0.50520569727E+02 -0.78495696332E+02  0.11101296413E+03  0.00000000000E+00 0.  1.
         21    1    1    2  505  501 -0.26193901273E+02  0.31000268190E+02  0.15225909994E+02  0.43347034811E+02  0.00000000000E+00 0.  1.
          2    1    1    2  501    0  0.90150474562E+02  0.50161720218E+02 -0.10439160272E+04  0.10490014195E+04  0.00000000000E+00 0. -1.
<scales pt_clust_3="30.88528" pt_clust_4="99.65717" pt_clust_5="31.10501" pt_clust_6="14000.00000"></scales>
<clustering>
<clus scale="   30.885">  1  3  2 -1</clus>
<clus scale="   31.105">  1  5  2 -1</clus>
<clus scale="   99.657">  1  4  2 -1</clus>
<clus scale="   30.885">  1  3  2 -1</clus>
</clustering>
</event>
<event>
 6    0  0.4189111E+002  0.1148066E+03  0.7546771E-02  0.1251919E+00
         21   -1    0    0  503  502  0.00000000000E+00  0.00000000000E+00  0.47010138468E+03  0.47010138468E+03  0.00000000000E+00 0. -1.
         -2   -1    0    0    0  501 -0.00000000000E+00 -0.00000000000E+00 -0.14406405927E+03  0.14406405927E+03  0.00000000000E+00 0. -1.
         21    1    1    2  503  504 -0.12644642120E+03  0.66930619550E+02  0.96849296986E+02  0.17276629183E+03  0.00000000000E+00 0. -1.
         21    1    1    2  504  501  0.10656936956E+03  0.48881688943E+02  0.48704808503E+02  0.12695908165E+03  0.00000000000E+00 0. -1.
         21    1    1    2  505  502  0.30935325705E+02 -0.65657841732E+01  0.20036887107E+03  0.20284917647E+03  0.00000000000E+00 0. -1.
         -2    1    1    2    0  505 -0.11058274066E+02 -0.10924652432E+03 -0.19885651156E+02  0.11159089400E+03  0.00000000000E+00 0. -1.
<scales pt_clust_3="14000.00000" pt_clust_4="114.80655" pt_clust_5="31.62442" pt_clust_6="110.51881"></scales>
<clustering>
<clus scale="   31.624">  1  5  2 -1</clus>
<clus scale="  110.519">  2  6  1 -1</clus>
<clus scale="  114.807">  2  4  1 -1</clus>
<clus scale="   31.624">  1  3  2 -1</clus>
</clustering>
</event>
<event>
 6    0  0.4189111E+002  0.1305977E+03  0.7546771E-02  0.1226571E+00
         -2   -1    0    0    0  501 -0.00000000000E+00  0.00000000000E+00  0.37800825347E+03  0.37800825347E+03  0.00000000000E+00 0.  1.
         21   -1    0    0  504  502  0.00000000000E+00 -0.00000000000E+00 -0.82660378338E+02  0.82660378338E+02  0.00000000000E+00 0.  1.
         21    1    1    2  503  501  0.11310827311E+03 -0.78447639821E+02  0.17576667466E+03  0.22325195982E+03  0.00000000000E+00 0.  1.
         21    1    1    2  504  503 -0.39044865431E+02 -0.58633018182E+01 -0.27055633559E+02  0.47863212721E+02  0.00000000000E+00 0.  1.
         21    1    1    2  505  502 -0.36107831749E+02  0.30930358996E+02  0.31319859510E+02  0.56933261113E+02  0.00000000000E+00 0.  1.
         -2    1    1    2    0  505 -0.37955575929E+02  0.53380582643E+02  0.11531697452E+03  0.13262019816E+03  0.00000000000E+00 0.  1.
<scales pt_clust_3="123.37480" pt_clust_4="39.48265" pt_clust_5="36.49074" pt_clust_6="36.49074"></scales>
<clustering>
<clus scale="   36.491">  5  6 -1 -1</clus>
<clus scale="   39.483">  2  4  1 -1</clus>
<clus scale="  123.375">  2  3  1 -1</clus>
<clus scale="   39.483">  2  3  1 -1</clus>
</clustering>
</event>
<event>
 6    0  0.8718481E+002  0.1061350E+03  0.7546771E-02  0.1267899E+00
          2   -1    0    0  504    0 -0.00000000000E+00  0.00000000000E+00  0.13660503645E+04  0.13660503645E+04  0.00000000000E+00 0.  1.
         21   -1    0    0  505  502  0.00000000000E+00 -0.00000000000E+00 -0.73327456003E+03  0.73327456003E+03  0.00000000000E+00 0.  1.
         21    1    1    2  503  502  0.38205779547E+02  0.10126210162E+03 -0.67784659021E+03  0.68643258567E+03  0.00000000000E+00 0.  1.
         21    1    1    2  504  503  0.80343193861E+02 -0.79931926292E+01  0.66421464386E+02  0.10455013563E+03  0.00000000000E+00 0.  1.
         21    1    1    2  505  501 -0.26573232017E+02 -0.29860677523E+02 -0.16104895473E+02  0.43094830086E+02  0.00000000000E+00 0. -1.
          2    1    1    2  501    0 -0.91975741391E+02 -0.63408231467E+02  0.12603058257E+04  0.12652473731E+04  0.00000000000E+00 0.  1.
<scales pt_clust_3="73.37845" pt_clust_4="106.13500" pt_clust_5="39.97245" pt_clust_6="14000.00000"></scales>
<clustering>
<clus scale="   39.972">  2  5  1 -1</clus>
<clus scale="   73.378">  2  3  1 -1</clus>
<clus scale="  106.135">  2  4  1 -1</clus>
<clus scale="   39.972">  2  3  1 -1</clus>
</clustering>
</event>
<event>
 6    0  0.4189111E+002  0.1552586E+03  0.7546771E-02  0.1194156E+00
          1   -1    0    0  504    0 -0.00000000000E+00  0.00000000000E+00  0.26463075107E+04  0.26463075107E+04  0.00000000000E+00 0.  1.
         21   -1    0    0  503  502  0.00000000000E+00 -0.00000000000E+00 -0.51605095641E+02  0.51605095641E+02  0.00000000000E+00 0. -1.
         21    1    1    2  503  505 -0.60976745918E+02  0.76196189707E+02  0.12967731022E+03  0.16229672718E+03  0.00000000000E+00 0. -1.
         21    1    1    2  504  502 -0.56675191789E+01  0.57425317579E+02 -0.71345490954E+01  0.58143698399E+02  0.00000000000E+00 0. -1.
         21    1    1    2  505  501  0.47272036927E+02 -0.31817582091E+02  0.72053856089E+03  0.72278822745E+03  0.00000000000E+00 0. -1.
          1    1    1    2  501    0  0.19372228170E+02 -0.10180392520E+03  0.17516210930E+04  0.17546839533E+04  0.00000000000E+00 0.  1.
<scales pt_clust_3="141.79682" pt_clust_4="57.70431" pt_clust_5="46.89171" pt_clust_6="46.89171"></scales>
<clustering>
<clus scale="   46.892">  5  6 -1 -1</clus>
<clus scale="   57.704">  2  4  1 -1</clus>
<clus scale="  141.797">  2  3  1 -1</clus>
<clus scale="   57.704">  2  3  1 -1</clus>
</clustering>
</event>
<event>
 6    0  0.4189111E+002  0.1329487E+03  0.7546771E-02  0.1223145E+00
         -1   -1    0    0    0  501 -0.00000000000E+00  0.00000000000E+00  0.30210184956E+03  0.30210184956E+03  0.00000000000E+00 0.  1.
         21   -1    0    0  501  502  0.00000000000E+00 -0.00000000000E+00 -0.29024804769E+03  0.29024804769E+03  0.00000000000E+00 0.  1.
         21    1    1    2  503  504 -0.72394245487E+01  0.93897275902E+02 -0.37487764877E+01  0.94250522623E+02  0.00000000000E+00 0.  1.
         21    1    1    2  504  502 -0.89031458256E+02  0.21859121644E+02 -0.20715351932E+03  0.22653256350E+03  0.00000000000E+00 0.  1.
         21    1    1    2  505  503  0.37780132331E+02 -0.74050909864E+02  0.11018822622E+03  0.13803014471E+03  0.00000000000E+00 0.  1.
         -1    1    1    2    0  505  0.58490750473E+02 -0.41705487681E+02  0.11256787146E+03  0.13353666642E+03  0.00000000000E+00 0.  1.
<scales pt_clust_3="127.33703" pt_clust_4="91.67563" pt_clust_5="35.52710" pt_clust_6="35.52710"></scales>
<clustering>
<clus scale="   35.527">  5  6 -1 -1</clus>
<clus scale="   91.676">  2  4  1 -1</clus>
<clus scale="  127.337">  2  3  1 -1</clus>
<clus scale="   91.676">  2  3  1 -1</clus>
</clustering>
</event>
<event>
 6    0  0.4189111E+002  0.2066431E+03  0.7546771E-02  0.1144252E+00
          2   -1    0    0  504    0 -0.00000000000E+00  0.00000000000E+00  0.21598318396E+04  0.21598318396E+04  0.00000000000E+00 0.  1.
         21   -1    0    0  505  502  0.00000000000E+00 -0.00000000000E+00 -0.82942204733E+02  0.82942204733E+02  0.00000000000E+00 0. -1.
         21    1    1    2  503  501  0.16852662770E+02  0.51013019432E+02  0.36143748687E+03  0.36540853480E+03  0.00000000000E+00 0. -1.
         21    1    1    2  504  502 -0.34267917772E+02  0.11231638263E+02  0.23369340244E+01  0.36137254283E+02  0.00000000000E+00 0. -1.
         21    1    1    2  505  503 -0.72721174422E+02 -0.18104778646E+03  0.96350858408E+02  0.21760091477E+03  0.00000000000E+00 0. -1.
          2    1    1    2  501    0  0.90136429425E+02  0.11880312877E+03  0.16167643556E+04  0.16236273405E+04  0.00000000000E+00 0.  1.
<scales pt_clust_3="31.17089" pt_clust_4="36.06161" pt_clust_5="200.01096" pt_clust_6="31.17089"></scales>
<clustering>
<clus scale="   31.171">  3  6 -1 -1</clus>
<clus scale="   36.062">  2  4  1 -1</clus>
<clus scale="  200.011">  2  5  1 -1</clus>
<clus scale="   36.062">  2  3  1 -1</clus>
</clustering>
</event>
<event>
 6    0  0.4189111E+002  0.1593519E+03  0.7546771E-02  0.1189430E+00
         -4   -1    0    0    0  501 -0.00000000000E+00  0.00000000000E+00  0.52391684525E+03  0.52391684525E+03  0.00000000000E+00 0.  1.
         21   -1    0    0  504  502  0.00000000000E+00 -0.00000000000E+00 -0.10612806584E+03  0.10612806584E+03  0.00000000000E+00 0.  1.
         21    1    1    2  503  502  0.28493510551E+02 -0.68062313620E+02  0.16845360274E+03  0.18390479861E+03  0.00000000000E+00 0. -1.
         21    1    1    2  504  505 -0.13176972328E+02  0.30958343674E+02 -0.27022327355E+02  0.43153885323E+02  0.00000000000E+00 0.  1.
         21    1    1    2  505  501  0.18870787425E+02  0.12078043972E+03  0.11097851343E+02  0.12274845637E+03  0.00000000000E+00 0.  1.
         -4    1    1    2    0  503 -0.34187325647E+02 -0.83676469772E+02  0.26525965268E+03  0.28023777078E+03  0.00000000000E+00 0.  1.
<scales pt_clust_3="58.31529" pt_clust_4="33.64598" pt_clust_5="145.35809" pt_clust_6="58.31529"></scales>
<clustering>
<clus scale="   33.646">  2  4  1 -1</clus>
<clus scale="   58.315">  3  6 -1 -1</clus>
<clus scale="  145.358">  2  5  1 -1</clus>
<clus scale="   33.646">  2  3  1 -1</clus>
</clustering>
</event>
<event>
 6    0  0.4189111E+002  0.1571750E+03  0.7546771E-02  0.1191924E+00
         21   -1    0    0  501  502  0.00000000000E+00  0.00000000000E+00  0.60929609493E+02  0.60929609493E+02  0.00000000000E+00 0. -1.
          2   -1    0    0  503    0 -0.00000000000E+00 -0.00000000000E+00 -0.15625236410E+04  0.15625236410E+04  0.00000000000E+00 0. -1.
         21    1    1    2  503  504  0.73787100757E+02 -0.60549679849E+02 -0.48631613827E+03  0.49559478035E+03  0.00000000000E+00 0.  1.
         21    1    1    2  504  505  0.49822580854E+02 -0.28703844467E+02 -0.12084617617E+03  0.13382824271E+03  0.00000000000E+00 0.  1.
         21    1    1    2  505  502 -0.51673470059E+02 -0.33672419115E+02  0.22837869518E+02  0.65768895392E+02  0.00000000000E+00 0. -1.
          2    1    1    2  501    0 -0.71936211553E+02  0.12292594343E+03 -0.91726958657E+03  0.92826133204E+03  0.00000000000E+00 0. -1.
<scales pt_clust_3="50.78697" pt_clust_4="50.78697" pt_clust_5="61.67641" pt_clust_6="142.90644"></scales>
<clustering>
<clus scale="   50.787">  3  4 -1 -1</clus>
<clus scale="   61.676">  1  5  2 -1</clus>
<clus scale="  142.906">  2  6  1 -1</clus>
<clus scale="   61.676">  1  3  2 -1</clus>
</clustering>
</event>
<event>
 6    0  0.4189111E+002  0.1386847E+03  0.7546771E-02  0.1215110E+00
         -4   -1    0    0    0  501 -0.00000000000E+00  0.00000000000E+00  0.13010523957E+03  0.13010523957E+03  0.00000000000E+00 0. -1.
         21   -1    0    0  505  502  0.00000000000E+00 -0.00000000000E+00 -0.19757906392E+04  0.19757906392E+04  0.00000000000E+00 0. -1.
         21    1    1    2  503  502 -0.26198832241E+02 -0.69243374370E+02 -0.15765741429E+04  0.15783114558E+04  0.00000000000E+00 0. -1.
         21    1    1    2  504  503 -0.11306863940E+03  0.42668509592E+02 -0.24796834218E+03  0.27585035373E+03  0.00000000000E+00 0.  1.
         21    1    1    2  505  501 -0.43109618025E+02 -0.28917947074E+02 -0.31674055564E+02  0.60810629212E+02  0.00000000000E+00 0.  1.
         -4    1    1    2    0  504  0.18237708967E+03  0.55492811852E+02  0.10531140976E+02  0.19092343998E+03  0.00000000000E+00 0. -1.
<scales pt_clust_3="74.35233" pt_clust_4="138.68465" pt_clust_5="51.91037" pt_clust_6="14000.00000"></scales>
<clustering>
<clus scale="   51.910">  1  5  2 -1</clus>
<clus scale="   74.352">  2  3  1 -1</clus>
<clus scale="  138.685">  2  4  1 -1</clus>
<clus scale="   74.352">  2  3  1 -1</clus>
</clustering>
</event>
<event>
 6    0  0.4189111E+002  0.1482721E+03  0.7546771E-02  0.1202613E+00
          4   -1    0    0  505    0 -0.00000000000E+00  0.00000000000E+00  0.74611025578E+02  0.74611025578E+02  0.00000000000E+00 0.  1.
         21   -1    0    0  503  502  0.00000000000E+00 -0.00000000000E+00 -0.20861806020E+04  0.20861806020E+04  0.00000000000E+00 0.  1.
         21    1    1    2  503  501 -0.15997280936E+03 -0.66311542846E+02 -0.12093331535E+04  0.12216690209E+04  0.00000000000E+00 0.  1.
         21    1    1    2  504  502  0.11713881733E+02  0.10451963675E+03 -0.74733349383E+03  0.75469790015E+03  0.00000000000E+00 0.  1.
         21    1    1    2  505  504  0.19544130956E+02 -0.36460077016E+02 -0.34960957255E+02  0.54162522126E+02  0.00000000000E+00 0. -1.
          4    1    1    2  501    0  0.12871479667E+03 -0.17480168892E+01 -0.19941971831E+02  0.13026218440E+03  0.00000000000E+00 0.  1.
<scales pt_clust_3="14000.00000" pt_clust_4="103.25359" pt_clust_5="41.36799" pt_clust_6="148.27205"></scales>
<clustering>
<clus scale="   41.368">  1  5  2 -1</clus>
<clus scale="  103.254">  2  4  1 -1</clus>
<clus scale="  148.272">  1  6  2 -1</clus>
<clus scale="  103.254">  2  3  1 -1</clus>
</clustering>
</event>
<event>
 6    0  0.4189111E+002  0.7854723E+02  0.7546771E-02  0.1333225E+00
          2   -1    0    0  504    0 -0.00000000000E+00  0.00000000000E+00  0.24163643671E+04  0.24163643671E+04  0.00000000000E+00 0.  1.
         21   -1    0    0  505  502  0.00000000000E+00 -0.00000000000E+00 -0.24512045569E+02  0.24512045569E+02  0.00000000000E+00 0. -1.
         21    1    1    2  503  501  0.87605549978E+02 -0.71402612387E+02  0.18325189526E+03  0.21530054008E+03  0.00000000000E+00 0. -1.
         21    1    1    2  504  502 -0.74605395490E+01  0.57387327719E+02  0.63575891765E+03  0.63838731692E+03  0.00000000000E+00 0. -1.
         21    1    1    2  505  503 -0.23087125586E+02  0.19619857810E+02  0.27910339121E+02  0.41193946378E+02  0.00000000000E+00 0. -1.
          2    1    1    2  501    0 -0.57057884843E+02 -0.56045731421E+01  0.15449311695E+04  0.15459946092E+04  0.00000000000E+00 0.  1.
<scales pt_clust_3="78.54723" pt_clust_4="14000.00000" pt_clust_5="30.29776" pt_clust_6="57.96269"></scales>
<clustering>
<clus scale="   30.298">  2  5  1 -1</clus>
<clus scale="   57.963">  1  6  2 -1</clus>
<clus scale="   78.547">  2  3  1 -1</clus>
<clus scale="   30.298">  2  3  1 -1</clus>
</clustering>
</event>
<event>
 6    0  0.4189111E+002  0.1061176E+03  0.7546771E-02  0.1267933E+00
          2   -1    0    0  505    0 -0.00000000000E+00  0.00000000000E+00  0.13796935262E+04  0.13796935262E+04  0.00000000000E+00 0.  1.
         21   -1    0    0  504  502  0.00000000000E+00 -0.00000000000E+00 -0.15995529263E+03  0.15995529263E+03  0.00000000000E+00 0. -1.
         21    1    1    2  503  501 -0.22802323207E+02  0.84968135802E+02  0.68853929088E+03  0.69413679137E+03  0.00000000000E+00 0.  1.
         21    1    1    2  504  503 -0.88956163550E+02 -0.11237514859E+03 -0.95947542188E+02  0.17247406734E+03  0.00000000000E+00 0. -1.
         21    1    1    2  505  502  0.44771847323E+02  0.14094429863E+02  0.50557402188E+01  0.47209445825E+02  0.00000000000E+00 0. -1.
          2    1    1    2  501    0  0.66986639434E+02  0.13312582921E+02  0.62209074470E+03  0.62582851435E+03  0.00000000000E+00 0.  1.
<scales pt_clust_3="106.11762" pt_clust_4="14000.00000" pt_clust_5="46.93795" pt_clust_6="68.92461"></scales>
<clustering>
<clus scale="   46.938">  2  5  1 -1</clus>
<clus scale="   68.925">  1  6  2 -1</clus>
<clus scale="  106.118">  1  3  2 -1</clus>
<clus scale="   46.938">  2  3  1 -1</clus>
</clustering>
</event>
<event>
 6    0  0.4189111E+002  0.2284628E+03  0.7546771E-02  0.1127726E+00
         21   -1    0    0  504  502  0.00000000000E+00  0.00000000000E+00  0.18823048933E+04  0.18823048933E+04  0.00000000000E+00 0.  1.
          1   -1    0    0  505    0 -0.00000000000E+00 -0.00000000000E+00 -0.12099716365E+04  0.12099716365E+04  0.00000000000E+00 0.  1.
         21    1    1    2  503  502 -0.40324314818E+02  0.30367474161E+02  0.16840348998E+04  0.16847913157E+04  0.00000000000E+00 0.  1.
         21    1    1    2  504  501 -0.18386961341E+02  0.20289841728E+03  0.11723911214E+03  0.23505500951E+03  0.00000000000E+00 0.  1.
         21    1    1    2  505  503  0.87244327848E+01 -0.10421185966E+03 -0.14484963196E+03  0.17865509593E+03  0.00000000000E+00 0.  1.
          1    1    1    2  501    0  0.49986843374E+02 -0.12905403178E+03 -0.98409112322E+03  0.99377510858E+03  0.00000000000E+00 0.  1.
<scales pt_clust_3="50.48003" pt_clust_4="14000.00000" pt_clust_5="101.75514" pt_clust_6="228.46275"></scales>
<clustering>
<clus scale="   50.480">  1  3  2 -1</clus>
<clus scale="  101.755">  2  5  1 -1</clus>
<clus scale="  228.463">  2  6  1 -1</clus>
<clus scale="   50.480">  1  3  2 -1</clus>
</clustering>
</event>
<event>
 6    0  0.4189111E+002  0.8268096E+02  0.7546771E-02  0.1321611E+00
          2   -1    0    0  505    0 -0.00000000000E+00  0.00000000000E+00  0.34009342060E+04  0.34009342060E+04  0.00000000000E+00 0.  1.
         21   -1    0    0  503  502  0.00000000000E+00 -0.00000000000E+00 -0.50366202770E+02  0.50366202770E+02  0.00000000000E+00 0. -1.
         21    1    1    2  503  501 -0.36244196717E+02  0.78066807081E+01 -0.22200420735E+02  0.43213941502E+02  0.00000000000E+00 0. -1.
         21    1    1    2  504  502 -0.35489535192E+02 -0.58621227148E+02  0.67004986507E+02  0.95841658987E+02  0.00000000000E+00 0. -1.
         21    1    1    2  505  504 -0.27092298255E+02  0.65433848289E+02  0.53327448200E+03  0.53795655427E+03  0.00000000000E+00 0. -1.
          2    1    1    2  501    0  0.98826030164E+02 -0.14619301849E+02  0.27724889554E+04  0.27742882540E+04  0.00000000000E+00 0.  1.
<scales pt_clust_3="37.07541" pt_clust_4="82.68096" pt_clust_5="73.72602" pt_clust_6="14000.00000"></scales>
<clustering>
<clus scale="   37.075">  2  3  1 -1</clus>
<clus scale="   73.726">  1  5  2 -1</clus>
<clus scale="   82.681">  2  4  1 -1</clus>
<clus scale="   37.075">  2  3  1 -1</clus>
</clustering>
</event>
<event>
 6    0  0.4189111E+002  0.5248766E+03  0.7546771E-02  0.1007482E+00
         21   -1    0    0  501  502  0.00000000000E+00  0.00000000000E+00  0.51583559820E+03  0.51583559820E+03  0.00000000000E+00 0. -1.
         -4   -1    0    0    0  501 -0.00000000000E+00 -0.00000000000E+00 -0.10932247107E+04  0.10932247107E+04  0.00000000000E+00 0.  1.
         21    1    1    2  503  502 -0.20131660283E+03 -0.13089676153E+03 -0.81529378351E+02  0.25359293422E+03  0.00000000000E+00 0. -1.
         21    1    1    2  504  503  0.22154654713E+02 -0.40457595676E+03  0.20468043259E+03  0.45394560577E+03  0.00000000000E+00 0. -1.
         21    1    1    2  505  504  0.94790748408E+02  0.35510161121E+03 -0.43162460796E+03  0.56690584973E+03  0.00000000000E+00 0.  1.
         -4    1    1    2    0  505  0.84371199706E+02  0.18037110708E+03 -0.26891555877E+03  0.33461591916E+03  0.00000000000E+00 0.  1.
<scales pt_clust_3="240.12983" pt_clust_4="521.86250" pt_clust_5="41.34402" pt_clust_6="41.34402"></scales>
<clustering>
<clus scale="   41.344">  5  6 -1 -1</clus>
<clus scale="  240.130">  1  3  2 -1</clus>
<clus scale="  521.863">  1  4  2 -1</clus>
<clus scale="  240.130">  1  3  2 -1</clus>
</clustering>
</event>
<event>
 6    0  0.4189111E+002  0.7491305E+02  0.7546771E-02  0.1344140E+00
         21   -1    0    0  504  502  0.00000000000E+00  0.00000000000E+00  0.25193044663E+03  0.25193044663E+03  0.00000000000E+00 0. -1.
          2   -1    0    0  505    0 -0.00000000000E+00 -0.00000000000E+00 -0.10410180279E+04  0.10410180279E+04  0.00000000000E+00 0. -1.
         21    1    1    2  503  501 -0.55886297865E+02  0.41785825704E+02 -0.44466524001E+02  0.82744215964E+02  0.00000000000E+00 0.  1.
         21    1    1    2  504  503  0.20180600868E+02 -0.74130847028E+02  0.22089007973E+03  0.23386976388E+03  0.00000000000E+00 0. -1.
         21    1    1    2  505  502  0.16196275499E+02  0.85141938650E+02 -0.50314428841E+03  0.51055425179E+03  0.00000000000E+00 0.  1.
          2    1    1    2  501    0  0.19509421498E+02 -0.52796917326E+02 -0.46236684863E+03  0.46578024295E+03  0.00000000000E+00 0. -1.
<scales pt_clust_3="74.91305" pt_clust_4="14000.00000" pt_clust_5="51.12290" pt_clust_6="56.28616"></scales>
<clustering>
<clus scale="   56.286">  2  6  1 -1</clus>
<clus scale="   51.123">  2  5  1 -1</clus>
<clus scale="   74.913">  2  3  1 -1</clus>
<clus scale="   74.913">  1  3  2 -1</clus>
</clustering>
</event>
<event>
 6    0  0.4189111E+002  0.1369946E+03  0.7546771E-02  0.1217431E+00
          2   -1    0    0  505    0 -0.00000000000E+00  0.00000000000E+00  0.98498974176E+03  0.98498974176E+03  0.00000000000E+00 0. -1.
         21   -1    0    0  503  502  0.00000000000E+00 -0.00000000000E+00 -0.24026765014E+03  0.24026765014E+03  0.00000000000E+00 0.  1.
         21    1    1    2  503  501  0.40773104998E+02 -0.55627040192E+02 -0.31238715783E+02  0.75714404544E+02  0.00000000000E+00 0.  1.
         21    1    1    2  504  502  0.92700439379E+02  0.11575875224E+02 -0.14098821964E+03  0.16913027649E+03  0.00000000000E+00 0.  1.
         21    1    1    2  505  504  0.68198611071E+02  0.85963662324E+02  0.53823348405E+03  0.54930509295E+03  0.00000000000E+00 0.  1.
          2    1    1    2  501    0 -0.20167215545E+03 -0.41912497356E+02  0.37871554299E+03  0.43110761791E+03  0.00000000000E+00 0. -1.
<scales pt_clust_3="68.96966" pt_clust_4="14000.00000" pt_clust_5="109.20788" pt_clust_6="136.99456"></scales>
<clustering>
<clus scale="   68.970">  2  3  1 -1</clus>
<clus scale="  109.208">  1  5  2 -1</clus>
<clus scale="  136.995">  1  6  2 -1</clus>
<clus scale="   68.970">  2  3  1 -1</clus>
</clustering>
</event>
<event>
 6    0  0.4189111E+002  0.1166737E+03  0.7546771E-02  0.1248688E+00
         21   -1    0    0  504  502  0.00000000000E+00  0.00000000000E+00  0.13552792537E+04  0.13552792537E+04  0.00000000000E+00 0.  1.
          2   -1    0    0  505    0 -0.00000000000E+00 -0.00000000000E+00 -0.38124087999E+04  0.38124087999E+04  0.00000000000E+00 0.  1.
         21    1    1    2  503  501 -0.77812052295E+01 -0.76455281204E+02 -0.34784172430E+02  0.84355769397E+02  0.00000000000E+00 0.  1.
         21    1    1    2  504  503 -0.30241659085E+02  0.11614661650E+02  0.13265342693E+04  0.13269297744E+04  0.00000000000E+00 0.  1.
         21    1    1    2  505  502 -0.10295771418E+02 -0.43249449921E+02 -0.17489077174E+03  0.18045304062E+03  0.00000000000E+00 0. -1.
          2    1    1    2  501    0  0.48318635732E+02  0.10809006948E+03 -0.35739888714E+04  0.35759494692E+04  0.00000000000E+00 0.  1.
<scales pt_clust_3="116.67368" pt_clust_4="32.39534" pt_clust_5="44.15053" pt_clust_6="14000.00000"></scales>
<clustering>
<clus scale="   32.395">  1  4  2 -1</clus>
<clus scale="   44.151">  1  5  2 -1</clus>
<clus scale="  116.674">  1  3  2 -1</clus>
<clus scale="   32.395">  1  3  2 -1</clus>
</clustering>
</event>
<event>
 6    0  0.4189111E+002  0.1945250E+03  0.7546771E-02  0.1154442E+00
         -3   -1    0    0    0  501 -0.00000000000E+00  0.00000000000E+00  0.48714998517E+04  0.48714998517E+04  0.00000000000E+00 0.  1.
         21   -1    0    0  503  502  0.00000000000E+00 -0.00000000000E+00 -0.32448244689E+02  0.32448244689E+02  0.00000000000E+00 0. -1.
         21    1    1    2  503  501  0.14102695395E+02 -0.44121274971E+02 -0.15973299670E+01  0.46347862794E+02  0.00000000000E+00 0. -1.
         21    1    1    2  504  505  0.64972600050E+02  0.47987683120E+02  0.13124147031E+04  0.13148979464E+04  0.00000000000E+00 0. -1.
         21    1    1    2  505  502 -0.19180011729E+03 -0.13978872562E+02  0.16724543174E+04  0.16834744244E+04  0.00000000000E+00 0.  1.
         -3    1    1    2    0  504  0.11272482185E+03  0.10112464414E+02  0.18557799164E+04  0.18592278627E+04  0.00000000000E+00 0.  1.
<scales pt_clust_3="46.32033" pt_clust_4="43.61565" pt_clust_5="187.54861" pt_clust_6="43.61565"></scales>
<clustering>
<clus scale="   43.616">  4  6 -1 -1</clus>
<clus scale="   46.320">  2  3  1 -1</clus>
<clus scale="  187.549">  2  5  1 -1</clus>
<clus scale="   46.320">  2  3  1 -1</clus>
</clustering>
</event>
<event>
 6    0  0.4189111E+002  0.8673329E+02  0.7546771E-02  0.1310961E+00
          2   -1    0    0  504    0 -0.00000000000E+00  0.00000000000E+00  0.15337986426E+03  0.15337986426E+03  0.00000000000E+00 0. -1.
         21   -1    0    0  503  502  0.00000000000E+00 -0.00000000000E+00 -0.35424780842E+03  0.35424780842E+03  0.00000000000E+00 0. -1.
         21    1    1    2  503  501 -0.20934870799E+02 -0.37324712016E+02 -0.86873617218E+02  0.96842285758E+02  0.00000000000E+00 0. -1.
         21    1    1    2  504  505 -0.51321773092E+02 -0.48465507090E+02 -0.57224174442E+01  0.70820730244E+02  0.00000000000E+00 0. -1.
         21    1    1    2  505  502  0.37805731037E+02 -0.53038689703E+02 -0.17159090194E+03  0.18353695413E+03  0.00000000000E+00 0. -1.
          2    1    1    2  501    0  0.34450912854E+02  0.13882890881E+03  0.63318992438E+02  0.15642770254E+03  0.00000000000E+00 0. -1.
<scales pt_clust_3="42.79489" pt_clust_4="76.56969" pt_clust_5="86.73329" pt_clust_6="14000.00000"></scales>
<clustering>
<clus scale="   42.795">  2  3  1 -1</clus>
<clus scale="   76.570">  1  4  2 -1</clus>
<clus scale="   86.733">  2  5  1 -1</clus>
<clus scale="   42.795">  2  3  1 -1</clus>
</clustering>
</event>
<event>
 6    0  0.4189111E+002  0.1956726E+03  0.7546771E-02  0.1153442E+00
          1   -1    0    0  504    0 -0.00000000000E+00  0.00000000000E+00  0.25277044628E+04  0.25277044628E+04  0.00000000000E+00 0. -1.
         21   -1    0    0  505  502  0.00000000000E+00 -0.00000000000E+00 -0.24826823168E+02  0.24826823168E+02  0.00000000000E+00 0. -1.
         21    1    1    2  503  501  0.23386552904E+02  0.48942080951E+02  0.83106179527E+03  0.83283009414E+03  0.00000000000E+00 0. -1.
         21    1    1    2  504  502 -0.10698748551E+03 -0.17624027193E+03  0.73469363421E+03  0.76307384417E+03  0.00000000000E+00 0. -1.
         21    1    1    2  505  503  0.76405439781E+01  0.29676671787E+02  0.36983854282E+02  0.48030076391E+02  0.00000000000E+00 0. -1.
          1    1    1    2  501    0  0.75960388626E+02  0.97621519191E+02  0.90013835583E+03  0.90859727123E+03  0.00000000000E+00 0. -1.
<scales pt_clust_3="42.23116" pt_clust_4="184.72455" pt_clust_5="30.64446" pt_clust_6="42.23116"></scales>
<clustering>
<clus scale="   30.644">  2  5  1 -1</clus>
<clus scale="   42.231">  3  6 -1 -1</clus>
<clus scale="  184.725">  2  4  1 -1</clus>
<clus scale="   30.644">  2  3  1 -1</clus>
</clustering>
</event>
<event>
 6    0  0.4189111E+002  0.1086414E+03  0.7546771E-02  0.1263107E+00
          1   -1    0    0  505    0 -0.00000000000E+00  0.00000000000E+00  0.14593049369E+04  0.14593049369E+04  0.00000000000E+00 0. -1.
         21   -1    0    0  503  502  0.00000000000E+00 -0.00000000000E+00 -0.63614941254E+02  0.63614941254E+02  0.00000000000E+00 0. -1.
         21    1    1    2  503  501 -0.47800559797E+02 -0.62595438823E+02  0.13731305671E+03  0.15829705626E+03  0.00000000000E+00 0. -1.
         21    1    1    2  504  502 -0.36202924665E+02  0.13969466518E+03  0.67907727774E+02  0.15948890471E+03  0.00000000000E+00 0. -1.
         21    1    1    2  505  504  0.68276911845E+02  0.82784938543E+01  0.21326089927E+03  0.22407695399E+03  0.00000000000E+00 0.  1.
          1    1    1    2  501    0  0.15726572617E+02 -0.85377720213E+02  0.97720831185E+03  0.98105696315E+03  0.00000000000E+00 0. -1.
<scales pt_clust_3="73.27417" pt_clust_4="14000.00000" pt_clust_5="68.77696" pt_clust_6="108.64139"></scales>
<clustering>
<clus scale="   68.777">  1  5  2 -1</clus>
<clus scale="   73.274">  2  3  1 -1</clus>
<clus scale="  108.641">  1  6  2 -1</clus>
<clus scale="   73.274">  2  3  1 -1</clus>
</clustering>
</event>
<event>
 6    0  0.4189111E+002  0.1624022E+03  0.7546771E-02  0.1186011E+00
         21   -1    0    0  505  502  0.00000000000E+00  0.00000000000E+00  0.11926230257E+04  0.11926230257E+04  0.00000000000E+00 0.  1.
         -4   -1    0    0    0  501 -0.00000000000E+00 -0.00000000000E+00 -0.46932065397E+02  0.46932065397E+02  0.00000000000E+00 0. -1.
         21    1    1    2  503  501  0.29460083296E+02 -0.25784258546E+02  0.53316510192E+02  0.66146615602E+02  0.00000000000E+00 0.  1.
         21    1    1    2  504  502 -0.12969988404E+03 -0.63792001272E+02  0.26284092918E+03  0.29996138651E+03  0.00000000000E+00 0. -1.
         21    1    1    2  505  503  0.10954901052E+03  0.13922864772E+03  0.78909547895E+03  0.80873807685E+03  0.00000000000E+00 0.  1.
         -4    1    1    2    0  504 -0.93092097780E+01 -0.49652387906E+02  0.40438041980E+02  0.64709012129E+02  0.00000000000E+00 0. -1.
<scales pt_clust_3="39.15003" pt_clust_4="14000.00000" pt_clust_5="162.40221" pt_clust_6="57.37723"></scales>
<clustering>
<clus scale="   39.150">  2  3  1 -1</clus>
<clus scale="   57.377">  2  6  1 -1</clus>
<clus scale="  162.402">  1  5  2 -1</clus>
<clus scale="  162.402">  1  3  2 -1</clus>
</clustering>
</event>
<event>
 6    0  0.4189111E+002  0.9100004E+02  0.7546771E-02  0.1300448E+00
          3   -1    0    0  503    0 -0.00000000000E+00  0.00000000000E+00  0.15472982248E+03  0.15472982248E+03  0.00000000000E+00 0.  1.
         21   -1    0    0  505  502  0.00000000000E+00 -0.00000000000E+00 -0.46874586647E+03  0.46874586647E+03  0.00000000000E+00 0.  1.
         21    1    1    2  503  502  0.24347015560E+01 -0.33844198932E+02  0.32491671665E+01  0.34086869323E+02  0.00000000000E+00 0.  1.
         21    1    1    2  504  501  0.30880169547E+02 -0.46266719895E+02 -0.28931500627E+03  0.29461392889E+03  0.00000000000E+00 0.  1.
         21    1    1    2  505  504  0.53072719689E+02  0.27407396716E+01 -0.12990857911E+03  0.14035834195E+03  0.00000000000E+00 0.  1.
          3    1    1    2  501    0 -0.86387590792E+02  0.77370179155E+02  0.10195837423E+03  0.15441654879E+03  0.00000000000E+00 0.  1.
<scales pt_clust_3="33.93166" pt_clust_4="91.00004" pt_clust_5="53.18574" pt_clust_6="14000.00000"></scales>
<clustering>
<clus scale="   33.932">  1  3  2 -1</clus>
<clus scale="   53.186">  2  5  1 -1</clus>
<clus scale="   91.000">  2  4  1 -1</clus>
<clus scale="   53.186">  2  3  1 -1</clus>
</clustering>
</event>
<event>
 6    0  0.4189111E+002  0.9361724E+02  0.7546771E-02  0.1294321E+00
         -1   -1    0    0    0  501 -0.00000000000E+00  0.00000000000E+00  0.24141916368E+04  0.24141916368E+04  0.00000000000E+00 0.  1.
         21   -1    0    0  504  502  0.00000000000E+00 -0.00000000000E+00 -0.14285792991E+03  0.14285792991E+03  0.00000000000E+00 0. -1.
         21    1    1    2  503  502  0.65250853186E+02 -0.69078672984E+02 -0.83493659092E+02  0.12649398409E+03  0.00000000000E+00 0. -1.
         21    1    1    2  504  501 -0.86370978225E+02  0.39020637504E+02  0.29271165699E+02  0.99193533923E+02  0.00000000000E+00 0. -1.
         21    1    1    2  505  503  0.58779397595E+02  0.24565457274E+02  0.37061722064E+03  0.37605266056E+03  0.00000000000E+00 0. -1.
         -1    1    1    2    0  505 -0.37659272556E+02  0.54925782061E+01  0.19549389796E+04  0.19553093881E+04  0.00000000000E+00 0.  1.
<scales pt_clust_3="93.61724" pt_clust_4="14000.00000" pt_clust_5="40.44097" pt_clust_6="38.05771"></scales>
<clustering>
<clus scale="   38.058">  1  6  2 -1</clus>
<clus scale="   40.441">  1  5  2 -1</clus>
<clus scale="   93.617">  2  3  1 -1</clus>
<clus scale="   93.617">  2  3  1 -1</clus>
</clustering>
</event>
<event>
 6    0  0.4189111E+002  0.8524705E+02  0.7546771E-02  0.1314788E+00
          1   -1    0    0  503    0 -0.00000000000E+00  0.00000000000E+00  0.68880476097E+03  0.68880476097E+03  0.00000000000E+00 0.  1.
         21   -1    0    0  504  502  0.00000000000E+00 -0.00000000000E+00 -0.18218094186E+03  0.18218094186E+03  0.00000000000E+00 0.  1.
         21    1    1    2  503  502  0.92024015825E+02  0.23553851660E+00  0.56217654308E+03  0.56965861756E+03  0.00000000000E+00 0.  1.
         21    1    1    2  504  505  0.38337831395E+02  0.10222756990E+02 -0.12514754628E+03  0.13128671836E+03  0.00000000000E+00 0.  1.
         21    1    1    2  505  501 -0.65871182319E+02 -0.47790246019E+01 -0.10690952302E+02  0.66904022281E+02  0.00000000000E+00 0.  1.
          1    1    1    2  501    0 -0.64490664901E+02 -0.56792709047E+01  0.80285774610E+02  0.10313634462E+03  0.00000000000E+00 0.  1.
<scales pt_clust_3="85.24705" pt_clust_4="39.67737" pt_clust_5="38.39421" pt_clust_6="14000.00000"></scales>
<clustering>
<clus scale="   39.677">  2  4  1 -1</clus>
<clus scale="   38.394">  2  5  1 -1</clus>
<clus scale="   85.247">  1  3  2 -1</clus>
<clus scale="   39.677">  2  3  1 -1</clus>
</clustering>
</event>
<event>
 6    0  0.4189111E+002  0.8387866E+02  0.7546771E-02  0.1318391E+00
          2   -1    0    0  505    0 -0.00000000000E+00  0.00000000000E+00  0.12052526272E+04  0.12052526272E+04  0.00000000000E+00 0.  1.
         21   -1    0    0  503  502  0.00000000000E+00 -0.00000000000E+00 -0.11732564865E+04  0.11732564865E+04  0.00000000000E+00 0.  1.
         21    1    1    2  503  504  0.51905942468E+02  0.63743524118E+02 -0.76310591137E+03  0.76752074610E+03  0.00000000000E+00 0.  1.
         21    1    1    2  504  501 -0.47468332437E+01 -0.10336154009E+03 -0.39999577860E+03  0.41316190929E+03  0.00000000000E+00 0. -1.
         21    1    1    2  505  502 -0.12773657231E+01  0.34502687710E+02  0.48035001764E+03  0.48158925089E+03  0.00000000000E+00 0.  1.
          2    1    1    2  501    0 -0.45881743501E+02  0.51153282663E+01  0.71474781301E+03  0.71623720734E+03  0.00000000000E+00 0.  1.
<scales pt_clust_3="83.87866" pt_clust_4="14000.00000" pt_clust_5="34.52633" pt_clust_6="61.31151"></scales>
<clustering>
<clus scale="   34.526">  1  5  2 -1</clus>
<clus scale="   61.312">  1  6  2 -1</clus>
<clus scale="   83.879">  2  3  1 -1</clus>
<clus scale="   83.879">  2  3  1 -1</clus>
</clustering>
</event>
<event>
 6    0  0.4189111E+002  0.8432388E+02  0.7546771E-02  0.1317210E+00
         21   -1    0    0  503  502  0.00000000000E+00  0.00000000000E+00  0.29682245510E+03  0.29682245510E+03  0.00000000000E+00 0. -1.
          2   -1    0    0  502    0 -0.00000000000E+00 -0.00000000000E+00 -0.35342070176E+04  0.35342070176E+04  0.00000000000E+00 0.  1.
         21    1    1    2  503  504 -0.60345519726E+02 -0.28974533335E+02  0.12899594719E+03  0.14533086295E+03  0.00000000000E+00 0. -1.
         21    1    1    2  504  505  0.12780839738E+03  0.78297057998E+02  0.12095163445E+03  0.19259987957E+03  0.00000000000E+00 0. -1.
         21    1    1    2  505  501 -0.17661845851E+02 -0.91312562670E+02 -0.87018750157E+03  0.87514353839E+03  0.00000000000E+00 0. -1.
          2    1    1    2  501    0 -0.49801031808E+02  0.41990038007E+02 -0.26171446426E+04  0.26179551918E+04  0.00000000000E+00 0.  1.
<scales pt_clust_3="67.18122" pt_clust_4="84.32388" pt_clust_5="14000.00000" pt_clust_6="65.14066"></scales>
<clustering>
<clus scale="   65.141">  2  6  1 -1</clus>
<clus scale="   67.181">  1  3  2 -1</clus>
<clus scale="   84.324">  1  4  2 -1</clus>
<clus scale="   67.181">  1  3  2 -1</clus>
</clustering>
</event>
<event>
 6    0  0.4189111E+002  0.1129907E+03  0.7546771E-02  0.1255130E+00
         21   -1    0    0  505  502  0.00000000000E+00  0.00000000000E+00  0.74162118123E+03  0.74162118123E+03  0.00000000000E+00 0. -1.
          2   -1    0    0  503    0 -0.00000000000E+00 -0.00000000000E+00 -0.58474890921E+03  0.58474890921E+03  0.00000000000E+00 0.  1.
         21    1    1    2  503  504 -0.14251727513E+02  0.33326958267E+02 -0.82042838120E+02  0.89692949395E+02  0.00000000000E+00 0. -1.
         21    1    1    2  504  502 -0.14459494896E+02 -0.50663545708E+02 -0.21144499066E+02  0.56771134365E+02  0.00000000000E+00 0. -1.
         21    1    1    2  505  501  0.10919098283E+03  0.30255911828E+02  0.71185538963E+03  0.72081633353E+03  0.00000000000E+00 0. -1.
          2    1    1    2  501    0 -0.80479760417E+02 -0.12919324386E+02 -0.45179578043E+03  0.45908967315E+03  0.00000000000E+00 0.  1.
<scales pt_clust_3="36.24635" pt_clust_4="50.52091" pt_clust_5="112.99069" pt_clust_6="14000.00000"></scales>
<clustering>
<clus scale="   36.246">  2  3  1 -1</clus>
<clus scale="   50.521">  2  4  1 -1</clus>
<clus scale="  112.991">  1  5  2 -1</clus>
<clus scale="  112.991">  1  3  2 -1</clus>
</clustering>
</event>
<event>
 6    0  0.4189111E+002  0.1802541E+03  0.7546771E-02  0.1167557E+00
         -2   -1    0    0    0  501 -0.00000000000E+00  0.00000000000E+00  0.33532076498E+03  0.33532076498E+03  0.00000000000E+00 0.  1.
         21   -1    0    0  504  502  0.00000000000E+00 -0.00000000000E+00 -0.14445605427E+03  0.14445605427E+03  0.00000000000E+00 0.  1.
         21    1    1    2  503  501  0.28231452969E+02  0.33943782063E+02  0.30546760710E+02  0.53687054932E+02  0.00000000000E+00 0. -1.
         21    1    1    2  504  503  0.15522365827E+03 -0.53933757373E+02 -0.13302905048E+02  0.16486419124E+03  0.00000000000E+00 0.  1.
         21    1    1    2  505  502 -0.76372957886E+02  0.33449928074E+02  0.50412206898E+02  0.97432627947E+02  0.00000000000E+00 0.  1.
         -2    1    1    2    0  505 -0.10708215335E+03 -0.13459952763E+02  0.12320864815E+03  0.16379294513E+03  0.00000000000E+00 0.  1.
<scales pt_clust_3="44.14969" pt_clust_4="168.67820" pt_clust_5="59.21164" pt_clust_6="59.21164"></scales>
<clustering>
<clus scale="   44.150">  1  3  2 -1</clus>
<clus scale="   59.212">  5  6 -1 -1</clus>
<clus scale="  168.678">  2  4  1 -1</clus>
<clus scale="  168.678">  2  3  1 -1</clus>
</clustering>
</event>
<event>
 6    0  0.4189111E+002  0.1380871E+03  0.7546771E-02  0.1215926E+00
         21   -1    0    0  504  502  0.00000000000E+00  0.00000000000E+00  0.92744871626E+02  0.92744871626E+02  0.00000000000E+00 0.  1.
          2   -1    0    0  503    0 -0.00000000000E+00 -0.00000000000E+00 -0.12042185152E+04  0.12042185152E+04  0.00000000000E+00 0.  1.
         21    1    1    2  503  505 -0.33527914012E+02 -0.58112930663E+01  0.11132557988E+02  0.35802597565E+02  0.00000000000E+00 0.  1.
         21    1    1    2  504  501 -0.77054349989E+01 -0.32430366735E+02 -0.51347647473E+02  0.61218325002E+02  0.00000000000E+00 0.  1.
         21    1    1    2  505  502 -0.36095366895E+02 -0.68339776504E+02  0.35732625009E+02  0.85147055463E+02  0.00000000000E+00 0.  1.
          2    1    1    2  501    0  0.77328715906E+02  0.10658143631E+03 -0.11069911791E+04  0.11147954088E+04  0.00000000000E+00 0.  1.
<scales pt_clust_3="30.31058" pt_clust_4="33.33320" pt_clust_5="30.31058" pt_clust_6="130.31258"></scales>
<clustering>
<clus scale="   30.311">  3  5 -1 -1</clus>
<clus scale="   33.333">  1  4  2 -1</clus>
<clus scale="  130.313">  2  6  1 -1</clus>
<clus scale="   33.333">  1  3  2 -1</clus>
</clustering>
</event>
<event>
 6    0  0.4189111E+002  0.9077318E+02  0.7546771E-02  0.1300990E+00
         21   -1    0    0  504  502  0.00000000000E+00  0.00000000000E+00  0.50297539117E+03  0.50297539117E+03  0.00000000000E+00 0.  1.
          1   -1    0    0  505    0 -0.00000000000E+00 -0.00000000000E+00 -0.35947706977E+03  0.35947706977E+03  0.00000000000E+00 0. -1.
         21    1    1    2  503  502 -0.54485599167E+02  0.72690564618E+02  0.38342443456E+03  0.39403920581E+03  0.00000000000E+00 0.  1.
         21    1    1    2  504  501  0.35992546030E+02 -0.52428482279E+02  0.58101330669E+02  0.86139269496E+02  0.00000000000E+00 0.  1.
         21    1    1    2  505  503 -0.75533711069E+02 -0.18578973053E+02 -0.89665368649E+01  0.78300182189E+02  0.00000000000E+00 0. -1.
          1    1    1    2  501    0  0.94026764206E+02 -0.16831092864E+01 -0.28906090696E+03  0.30397380344E+03  0.00000000000E+00 0. -1.
<scales pt_clust_3="33.60160" pt_clust_4="63.59410" pt_clust_5="14000.00000" pt_clust_6="90.77318"></scales>
<clustering>
<clus scale="   63.594">  1  4  2 -1</clus>
<clus scale="   33.602">  1  3  2 -1</clus>
<clus scale="   90.773">  2  6  1 -1</clus>
<clus scale="   63.594">  1  3  2 -1</clus>
</clustering>
</event>
<event>
 6    0  0.4189111E+002  0.1258033E+03  0.7546771E-02  0.1233819E+00
         21   -1    0    0  505  502  0.00000000000E+00  0.00000000000E+00  0.13815403082E+03  0.13815403082E+03  0.00000000000E+00 0. -1.
          2   -1    0    0  503    0 -0.00000000000E+00 -0.00000000000E+00 -0.45809937613E+03  0.45809937613E+03  0.00000000000E+00 0.  1.
         21    1    1    2  503  504  0.15283198059E+02 -0.26861027916E+02 -0.97545582501E+02  0.10232414978E+03  0.00000000000E+00 0.  1.
         21    1    1    2  504  502 -0.89010042867E+01 -0.11139937254E+03 -0.10138203787E+02  0.11221332922E+03  0.00000000000E+00 0. -1.
         21    1    1    2  505  501  0.46858351639E+02  0.13409598174E+03  0.19951199629E+02  0.14344158324E+03  0.00000000000E+00 0. -1.
          2    1    1    2  501    0 -0.53240545412E+02  0.41644187139E+01 -0.23221275865E+03  0.23827434469E+03  0.00000000000E+00 0.  1.
<scales pt_clust_3="30.90455" pt_clust_4="125.80330" pt_clust_5="14000.00000" pt_clust_6="45.25607"></scales>
<clustering>
<clus scale="   30.905">  2  3  1 -1</clus>
<clus scale="   45.256">  2  6  1 -1</clus>
<clus scale="  125.803">  1  4  2 -1</clus>
<clus scale="  125.803">  1  3  2 -1</clus>
</clustering>
</event>
<event>
 6    0  0.4189111E+002  0.1368974E+03  0.7546771E-02  0.1217566E+00
          1   -1    0    0  503    0 -0.00000000000E+00  0.00000000000E+00  0.31700868656E+03  0.31700868656E+03  0.00000000000E+00 0. -1.
         21   -1    0    0  504  502  0.00000000000E+00 -0.00000000000E+00 -0.59726509396E+03  0.59726509396E+03  0.00000000000E+00 0. -1.
         21    1    1    2  503  502  0.12508934823E+02  0.13012870118E+03  0.16086940128E+03  0.20728945122E+03  0.00000000000E+00 0. -1.
         21    1    1    2  504  505 -0.38292986492E+02 -0.45847089056E+01 -0.53801962630E+03  0.53940012111E+03  0.00000000000E+00 0. -1.
         21    1    1    2  505  501  0.39461014005E+02 -0.87075121832E+02  0.72945579699E+02  0.12025101274E+03  0.00000000000E+00 0. -1.
          1    1    1    2  501    0 -0.13676962336E+02 -0.38468870439E+02  0.23948237922E+02  0.47333195446E+02  0.00000000000E+00 0. -1.
<scales pt_clust_3="128.33919" pt_clust_4="38.56647" pt_clust_5="31.13567" pt_clust_6="31.13567"></scales>
<clustering>
<clus scale="   31.136">  5  6 -1 -1</clus>
<clus scale="   38.566">  2  4  1 -1</clus>
<clus scale="  128.339">  1  3  2 -1</clus>
<clus scale="   38.566">  2  3  1 -1</clus>
</clustering>
</event>
<event>
 6    0  0.4189111E+002  0.1013951E+03  0.7546771E-02  0.1277389E+00
         21   -1    0    0  501  502  0.00000000000E+00  0.00000000000E+00  0.39624517422E+03  0.39624517422E+03  0.00000000000E+00 0. -1.
          2   -1    0    0  504    0 -0.00000000000E+00 -0.00000000000E+00 -0.13308135346E+04  0.13308135346E+04  0.00000000000E+00 0.  1.
         21    1    1    2  503  505  0.86496423880E+02 -0.11162169216E+03 -0.42991091898E+02  0.14761188125E+03  0.00000000000E+00 0. -1.
         21    1    1    2  504  503 -0.20342253929E+02  0.26849999418E+02 -0.60822911869E+02  0.69528097715E+02  0.00000000000E+00 0.  1.
         21    1    1    2  505  502 -0.95786215286E+02  0.29184728352E+02  0.33132891173E+03  0.34612944856E+03  0.00000000000E+00 0. -1.
          2    1    1    2  501    0  0.29632045335E+02  0.55586964385E+02 -0.11620832683E+04  0.11637892813E+04  0.00000000000E+00 0.  1.
<scales pt_clust_3="101.39508" pt_clust_4="33.68575" pt_clust_5="14000.00000" pt_clust_6="81.00044"></scales>
<clustering>
<clus scale="   33.686">  2  4  1 -1</clus>
<clus scale="   81.000">  2  6  1 -1</clus>
<clus scale="  101.395">  2  3  1 -1</clus>
<clus scale="  101.395">  1  3  2 -1</clus>
</clustering>
</event>
<event>
 6    0  0.4189111E+002  0.1579871E+03  0.7546771E-02  0.1190988E+00
         21   -1    0    0  501  502  0.00000000000E+00  0.00000000000E+00  0.22647770819E+03  0.22647770819E+03  0.00000000000E+00 0. -1.
          4   -1    0    0  504    0 -0.00000000000E+00 -0.00000000000E+00 -0.67686291805E+03  0.67686291805E+03  0.00000000000E+00 0.  1.
         21    1    1    2  503  502 -0.34933316281E+02  0.13756045186E+02  0.14186106941E+03  0.14674511365E+03  0.00000000000E+00 0. -1.
         21    1    1    2  504  505  0.13546492487E+03 -0.26565656382E+02 -0.24368737557E+03  0.28007144978E+03  0.00000000000E+00 0.  1.
         21    1    1    2  505  503  0.81803736155E+02 -0.42712214763E+01  0.97460309770E+00  0.81920964551E+02  0.00000000000E+00 0.  1.
          4    1    1    2  501    0 -0.18233534474E+03  0.17080832672E+02 -0.34953350680E+03  0.39460309827E+03  0.00000000000E+00 0.  1.
<scales pt_clust_3="37.54418" pt_clust_4="157.98708" pt_clust_5="64.23923" pt_clust_6="14000.00000"></scales>
<clustering>
<clus scale="   37.544">  1  3  2 -1</clus>
<clus scale="   64.239">  1  5  2 -1</clus>
<clus scale="  157.987">  2  4  1 -1</clus>
<clus scale="   37.544">  1  3  2 -1</clus>
</clustering>
</event>
<event>
 6    0  0.4189111E+002  0.7620778E+02  0.7546771E-02  0.1340171E+00
          1   -1    0    0  503    0 -0.00000000000E+00  0.00000000000E+00  0.80200878681E+03  0.80200878681E+03  0.00000000000E+00 0.  1.
         21   -1    0    0  504  502  0.00000000000E+00 -0.00000000000E+00 -0.17805506594E+03  0.17805506594E+03  0.00000000000E+00 0.  1.
         21    1    1    2  503  505 -0.59370428076E+02  0.45739189603E+02  0.23216021770E+03  0.24395755344E+03  0.00000000000E+00 0.  1.
         21    1    1    2  504  501  0.66954768662E+02  0.57297097774E+01 -0.13737896465E+03  0.15293381100E+03  0.00000000000E+00 0.  1.
         21    1    1    2  505  502 -0.70961458072E+01  0.44855841744E+02  0.11131719115E+00  0.45413810845E+02  0.00000000000E+00 0.  1.
          1    1    1    2  501    0 -0.48819477798E+00 -0.96324741125E+02  0.52906115062E+03  0.53775867746E+03  0.00000000000E+00 0.  1.
<scales pt_clust_3="76.20778" pt_clust_4="75.92180" pt_clust_5="45.41367" pt_clust_6="14000.00000"></scales>
<clustering>
<clus scale="   45.414">  2  5  1 -1</clus>
<clus scale="   76.208">  1  3  2 -1</clus>
<clus scale="   75.922">  2  4  1 -1</clus>
<clus scale="   45.414">  2  3  1 -1</clus>
</clustering>
</event>
<event>
 6    0  0.4189111E+002  0.1076587E+03  0.7546771E-02  0.1264968E+00
          2   -1    0    0  505    0 -0.00000000000E+00  0.00000000000E+00  0.24604659680E+04  0.24604659680E+04  0.00000000000E+00 0. -1.
         21   -1    0    0  501  502  0.00000000000E+00 -0.00000000000E+00 -0.17979691937E+02  0.17979691937E+02  0.00000000000E+00 0.  1.
         21    1    1    2  503  502 -0.75438118433E+02 -0.23989440852E+02  0.15399519126E+03  0.17314999832E+03  0.00000000000E+00 0.  1.
         21    1    1    2  504  503 -0.54912874868E+02  0.84848179619E+02  0.53176400700E+03  0.54128328679E+03  0.00000000000E+00 0.  1.
         21    1    1    2  505  504  0.94606278338E+02 -0.61081334708E+02  0.97738250038E+03  0.98384847889E+03  0.00000000000E+00 0.  1.
          2    1    1    2  501    0  0.35744714963E+02  0.22259594070E+00  0.77934457741E+03  0.78016389594E+03  0.00000000000E+00 0. -1.
<scales pt_clust_3="75.84588" pt_clust_4="14000.00000" pt_clust_5="107.65871" pt_clust_6="35.74541"></scales>
<clustering>
<clus scale="   35.745">  1  6  2 -1</clus>
<clus scale="   75.846">  2  3  1 -1</clus>
<clus scale="  107.659">  1  5  2 -1</clus>
<clus scale="   75.846">  2  3  1 -1</clus>
</clustering>
</event>
<event>
 6    0  0.4189111E+002  0.6578702E+02  0.7546771E-02  0.1375035E+00
          2   -1    0    0  503    0 -0.00000000000E+00  0.00000000000E+00  0.10496478719E+04  0.10496478719E+04  0.00000000000E+00 0. -1.
         21   -1    0    0  504  502  0.00000000000E+00 -0.00000000000E+00 -0.41037485705E+03  0.41037485705E+03  0.00000000000E+00 0.  1.
         21    1    1    2  503  502 -0.22103362397E+02  0.21891748920E+02  0.10382456831E+03  0.10838518480E+03  0.00000000000E+00 0. -1.
         21    1    1    2  504  505  0.61304268357E+02  0.15831135890E+02 -0.34306272128E+03  0.34885651623E+03  0.00000000000E+00 0.  1.
         21    1    1    2  505  501 -0.11773428431E+03 -0.32536552098E+01 -0.23025037886E+01  0.11780173810E+03  0.00000000000E+00 0.  1.
          2    1    1    2  501    0  0.78533378354E+02 -0.34469229600E+02  0.88081367164E+03  0.88497928984E+03  0.00000000000E+00 0. -1.
<scales pt_clust_3="31.10960" pt_clust_4="14000.00000" pt_clust_5="65.78702" pt_clust_6="59.51700"></scales>
<clustering>
<clus scale="   31.110">  1  3  2 -1</clus>
<clus scale="   59.517">  1  6  2 -1</clus>
<clus scale="   65.787">  1  5  2 -1</clus>
<clus scale="   65.787">  2  3  1 -1</clus>
</clustering>
</event>
<event>
 6    0  0.4189111E+002  0.1127276E+03  0.7546771E-02  0.1255601E+00
         -2   -1    0    0    0  501 -0.00000000000E+00  0.00000000000E+00  0.11925185319E+03  0.11925185319E+03  0.00000000000E+00 0. -1.
         21   -1    0    0  504  502  0.00000000000E+00 -0.00000000000E+00 -0.17299779300E+04  0.17299779300E+04  0.00000000000E+00 0. -1.
         21    1    1    2  503  501 -0.27714910359E+02  0.17432315885E+02 -0.68812409517E+01  0.33456738788E+02  0.00000000000E+00 0.  1.
         21    1    1    2  504  503 -0.53782334601E+02 -0.67023719021E+02 -0.10156255111E+04  0.10192545792E+04  0.00000000000E+00 0. -1.
         21    1    1    2  505  502  0.61541628501E+02 -0.48750813733E+02 -0.66534243198E+03  0.66995862983E+03  0.00000000000E+00 0. -1.
         -2    1    1    2    0  505  0.19955616458E+02  0.98342216869E+02  0.77123107268E+02  0.12655983534E+03  0.00000000000E+00 0. -1.
<scales pt_clust_3="32.74144" pt_clust_4="112.72763" pt_clust_5="77.80229" pt_clust_6="14000.00000"></scales>
<clustering>
<clus scale="   32.741">  1  3  2 -1</clus>
<clus scale="   77.802">  2  5  1 -1</clus>
<clus scale="  112.728">  2  4  1 -1</clus>
<clus scale="   77.802">  2  3  1 -1</clus>
</clustering>
</event>
<event>
 6    0  0.4189111E+002  0.7018764E+02  0.7546771E-02  0.1359456E+00
         -1   -1    0    0    0  501 -0.00000000000E+00  0.00000000000E+00  0.15743671297E+03  0.15743671297E+03  0.00000000000E+00 0.  1.
         21   -1    0    0  503  502  0.00000000000E+00 -0.00000000000E+00 -0.10404055949E+04  0.10404055949E+04  0.00000000000E+00 0. -1.
         21    1    1    2  503  501 -0.67999546368E+02 -0.23286223027E+01 -0.80273681690E+03  0.80561514261E+03  0.00000000000E+00 0. -1.
         21    1    1    2  504  505  0.33150189752E+02  0.54251714051E+02 -0.82393753235E+01  0.64109834377E+02  0.00000000000E+00 0. -1.
         21    1    1    2  505  502  0.88408734072E+02 -0.40322325395E+02 -0.18138104586E+03  0.20576947778E+03  0.00000000000E+00 0. -1.
         -1    1    1    2    0  504 -0.53559377457E+02 -0.11600766354E+02  0.10938835617E+03  0.12234785311E+03  0.00000000000E+00 0.  1.
<scales pt_clust_3="70.18764" pt_clust_4="46.54261" pt_clust_5="14000.00000" pt_clust_6="54.80132"></scales>
<clustering>
<clus scale="   54.801">  1  6  2 -1</clus>
<clus scale="   46.543">  1  4  2 -1</clus>
<clus scale="   70.188">  2  3  1 -1</clus>
<clus scale="   70.188">  2  3  1 -1</clus>
</clustering>
</event>
<event>
 6    0  0.4189111E+002  0.1652375E+03  0.7546771E-02  0.1182907E+00
         21   -1    0    0  503  502  0.00000000000E+00  0.00000000000E+00  0.50882672634E+02  0.50882672634E+02  0.00000000000E+00 0. -1.
          2   -1    0    0  504    0 -0.00000000000E+00 -0.00000000000E+00 -0.96317617420E+03  0.96317617420E+03  0.00000000000E+00 0.  1.
         21    1    1    2  503  501  0.28284404420E+02 -0.64904411880E+02 -0.26453802235E+03  0.27384841698E+03  0.00000000000E+00 0. -1.
         21    1    1    2  504  505 -0.75576931386E+02  0.79730670969E+02 -0.10867032937E+03  0.15452537959E+03  0.00000000000E+00 0. -1.
         21    1    1    2  505  502 -0.51360745678E+01  0.45940917919E+02 -0.60264688091E+01  0.46618296060E+02  0.00000000000E+00 0. -1.
          2    1    1    2  501    0  0.52428601534E+02 -0.60767177008E+02 -0.53305868104E+03  0.53906675420E+03  0.00000000000E+00 0.  1.
<scales pt_clust_3="45.65295" pt_clust_4="45.84804" pt_clust_5="45.84804" pt_clust_6="157.06869"></scales>
<clustering>
<clus scale="   45.653">  3  6 -1 -1</clus>
<clus scale="   45.848">  4  5 -1 -1</clus>
<clus scale="  157.069">  2  3  1 -1</clus>
<clus scale="  165.237">  1  3  2 -1</clus>
</clustering>
</event>
<event>
 6    0  0.4189111E+002  0.6226274E+02  0.7546771E-02  0.1388574E+00
         21   -1    0    0  501  502  0.00000000000E+00  0.00000000000E+00  0.13824475758E+03  0.13824475758E+03  0.00000000000E+00 0.  1.
          2   -1    0    0  503    0 -0.00000000000E+00 -0.00000000000E+00 -0.15132888555E+04  0.15132888555E+04  0.00000000000E+00 0. -1.
         21    1    1    2  503  504 -0.16532832353E+02 -0.56472891204E+02 -0.19517195984E+03  0.20384949324E+03  0.00000000000E+00 0. -1.
         21    1    1    2  504  505  0.91131660296E+01  0.65840895315E+02 -0.67234464072E+03  0.67562222373E+03  0.00000000000E+00 0. -1.
         21    1    1    2  505  502  0.25962631101E+02  0.56522227281E+02  0.12299855205E+03  0.13783128889E+03  0.00000000000E+00 0.  1.
          2    1    1    2  501    0 -0.18542964778E+02 -0.65890231392E+02 -0.63052604940E+03  0.63423060720E+03  0.00000000000E+00 0. -1.
<scales pt_clust_3="58.84320" pt_clust_4="36.87506" pt_clust_5="62.26274" pt_clust_6="14000.00000"></scales>
<clustering>
<clus scale="   58.843">  2  3  1 -1</clus>
<clus scale="   36.875">  2  4  1 -1</clus>
<clus scale="   62.263">  1  5  2 -1</clus>
<clus scale="   62.263">  1  3  2 -1</clus>
</clustering>
</event>
<event>
 6    0  0.4189111E+002  0.7055949E+02  0.7546771E-02  0.1358201E+00
         21   -1    0    0  501  502  0.00000000000E+00  0.00000000000E+00  0.41758250494E+03  0.41758250494E+03  0.00000000000E+00 0. -1.
          2   -1    0    0  505    0 -0.00000000000E+00 -0.00000000000E+00 -0.56409949296E+03  0.56409949296E+03  0.00000000000E+00 0. -1.
         21    1    1    2  503  504  0.48487506472E+02  0.15241879382E+02 -0.25685770625E+02  0.56948327311E+02  0.00000000000E+00 0. -1.
         21    1    1    2  504  502  0.10699748767E+02  0.29709974634E+02  0.38532773179E+03  0.38661948748E+03  0.00000000000E+00 0. -1.
         21    1    1    2  505  503  0.14064888719E+02  0.54629772952E+02 -0.20370244762E+03  0.21136915658E+03  0.00000000000E+00 0. -1.
          2    1    1    2  501    0 -0.73252143958E+02 -0.99581626969E+02 -0.30245650156E+03  0.32674502653E+03  0.00000000000E+00 0. -1.
<scales pt_clust_3="14000.00000" pt_clust_4="31.57795" pt_clust_5="60.22516" pt_clust_6="70.55949"></scales>
<clustering>
<clus scale="   31.578">  1  4  2 -1</clus>
<clus scale="   60.225">  2  5  1 -1</clus>
<clus scale="   70.559">  2  6  1 -1</clus>
<clus scale="   31.578">  1  3  2 -1</clus>
</clustering>
</event>
<event>
 6    0  0.4189111E+002  0.1622185E+03  0.7546771E-02  0.1186215E+00
         21   -1    0    0  504  502  0.00000000000E+00  0.00000000000E+00  0.78809214837E+03  0.78809214837E+03  0.00000000000E+00 0.  1.
          4   -1    0    0  505    0 -0.00000000000E+00 -0.00000000000E+00 -0.14408882632E+04  0.14408882632E+04  0.00000000000E+00 0. -1.
         21    1    1    2  503  501  0.91166944501E+02 -0.10197693715E+03  0.60588450841E+02  0.14960503954E+03  0.00000000000E+00 0. -1.
         21    1    1    2  504  503 -0.61943098825E+02  0.15842281407E+03  0.66289657322E+03  0.68437314551E+03  0.00000000000E+00 0.  1.
         21    1    1    2  505  502  0.66064168650E+01  0.62558696113E+02 -0.15304918967E+03  0.16547292727E+03  0.00000000000E+00 0. -1.
          4    1    1    2  501    0 -0.35830262541E+02 -0.11900457303E+03 -0.12232319493E+04  0.12295292993E+04  0.00000000000E+00 0. -1.
<scales pt_clust_3="14000.00000" pt_clust_4="162.21849" pt_clust_5="62.90656" pt_clust_6="66.09540"></scales>
<clustering>
<clus scale="   62.907">  2  5  1 -1</clus>
<clus scale="   66.095">  2  6  1 -1</clus>
<clus scale="  162.218">  1  4  2 -1</clus>
<clus scale="  162.218">  1  3  2 -1</clus>
</clustering>
</event>
<event>
 6    0  0.4189111E+002  0.9709410E+02  0.7546771E-02  0.1286528E+00
          2   -1    0    0  504    0 -0.00000000000E+00  0.00000000000E+00  0.40745737219E+03  0.40745737219E+03  0.00000000000E+00 0. -1.
         21   -1    0    0  503  502  0.00000000000E+00 -0.00000000000E+00 -0.68247802344E+03  0.68247802344E+03  0.00000000000E+00 0. -1.
         21    1    1    2  503  501  0.26650701320E+02 -0.90251953820E+02 -0.52857920626E+03  0.53689072662E+03  0.00000000000E+00 0. -1.
         21    1    1    2  504  505 -0.25294952347E+02 -0.17773410910E+02  0.10425443986E+02  0.32625429222E+02  0.00000000000E+00 0. -1.
         21    1    1    2  505  502 -0.54293295566E+02  0.10357499856E+03 -0.11164894412E+03  0.16168187590E+03  0.00000000000E+00 0. -1.
          2    1    1    2  501    0  0.52937546593E+02  0.44503661662E+01  0.35478205514E+03  0.35873736388E+03  0.00000000000E+00 0. -1.
<scales pt_clust_3="14000.00000" pt_clust_4="30.91486" pt_clust_5="97.09410" pt_clust_6="31.89021"></scales>
<clustering>
<clus scale="   30.915">  1  4  2 -1</clus>
<clus scale="   31.890">  1  6  2 -1</clus>
<clus scale="   97.094">  1  5  2 -1</clus>
<clus scale="   97.094">  2  3  1 -1</clus>
</clustering>
</event>
<event>
 6    0  0.4189111E+002  0.1025754E+03  0.7546771E-02  0.1274972E+00
         21   -1    0    0  503  502  0.00000000000E+00  0.00000000000E+00  0.84546283530E+02  0.84546283530E+02  0.00000000000E+00 0.  1.
          2   -1    0    0  502    0 -0.00000000000E+00 -0.00000000000E+00 -0.22466152452E+04  0.22466152452E+04  0.00000000000E+00 0.  1.
         21    1    1    2  503  505 -0.42490333387E+01 -0.59828280279E+02  0.55057465991E+02  0.81417454927E+02  0.00000000000E+00 0.  1.
         21    1    1    2  504  501  0.77398760489E+02  0.14516450370E+03 -0.65818132823E+03  0.67842903984E+03  0.00000000000E+00 0.  1.
         21    1    1    2  505  504 -0.57929047265E+02 -0.36064386964E+02 -0.19866184028E+03  0.21005461506E+03  0.00000000000E+00 0.  1.
          2    1    1    2  501    0 -0.15220679885E+02 -0.49271836458E+02 -0.13602832591E+04  0.13612604189E+04  0.00000000000E+00 0.  1.
<scales pt_clust_3="60.72651" pt_clust_4="14000.00000" pt_clust_5="102.57541" pt_clust_6="51.56921"></scales>
<clustering>
<clus scale="   51.569">  2  6  1 -1</clus>
<clus scale="   60.727">  1  3  2 -1</clus>
<clus scale="  102.575">  1  5  2 -1</clus>
<clus scale="   60.727">  1  3  2 -1</clus>
</clustering>
</event>
<event>
 6    0  0.4189111E+002  0.1863613E+03  0.7546771E-02  0.1161785E+00
          2   -1    0    0  504    0 -0.00000000000E+00  0.00000000000E+00  0.34781517536E+04  0.34781517536E+04  0.00000000000E+00 0. -1.
         21   -1    0    0  503  502  0.00000000000E+00 -0.00000000000E+00 -0.12563938516E+03  0.12563938516E+03  0.00000000000E+00 0.  1.
         21    1    1    2  503  505 -0.64968670552E+02  0.11326983349E+03 -0.33434756811E+02  0.13479193706E+03  0.00000000000E+00 0.  1.
         21    1    1    2  504  502  0.18546539578E+03  0.17230347572E+02  0.18508977532E+03  0.26258812394E+03  0.00000000000E+00 0.  1.
         21    1    1    2  505  501 -0.10082362008E+03 -0.85989772413E+02  0.18837798919E+04  0.18884348876E+04  0.00000000000E+00 0.  1.
          2    1    1    2  501    0 -0.19673105146E+02 -0.44510408649E+02  0.13170774580E+04  0.13179761902E+04  0.00000000000E+00 0. -1.
<scales pt_clust_3="130.57941" pt_clust_4="175.20295" pt_clust_5="38.49188" pt_clust_6="38.49188"></scales>
<clustering>
<clus scale="   38.492">  5  6 -1 -1</clus>
<clus scale="  130.579">  2  3  1 -1</clus>
<clus scale="  175.203">  2  4  1 -1</clus>
<clus scale="  130.579">  2  3  1 -1</clus>
</clustering>
</event>
<event>
 6    0  0.4189111E+002  0.3010522E+03  0.7546771E-02  0.1084716E+00
         21   -1    0    0  504  502  0.00000000000E+00  0.00000000000E+00  0.30634416433E+03  0.30634416433E+03  0.00000000000E+00 0. -1.
          2   -1    0    0  505    0 -0.00000000000E+00 -0.00000000000E+00 -0.12096751226E+04  0.12096751226E+04  0.00000000000E+00 0. -1.
         21    1    1    2  503  502  0.15271067813E+03  0.24990528512E+03  0.14001691457E+03  0.32461968380E+03  0.00000000000E+00 0. -1.
         21    1    1    2  504  501  0.40619007347E+02  0.21157763844E+02 -0.32245317944E+03  0.32568943437E+03  0.00000000000E+00 0.  1.
         21    1    1    2  505  503 -0.23422805693E+03 -0.25110284820E+03 -0.34392691736E+03  0.48600529577E+03  0.00000000000E+00 0. -1.
          2    1    1    2  501    0  0.40898371454E+02 -0.19960200764E+02 -0.37696777599E+03  0.37970487294E+03  0.00000000000E+00 0. -1.
<scales pt_clust_3="14000.00000" pt_clust_4="41.64006" pt_clust_5="301.05217" pt_clust_6="91.60489"></scales>
<clustering>
<clus scale="   41.640">  4  6 -1 -1</clus>
<clus scale="   91.605">  2  4  1 -1</clus>
<clus scale="  301.052">  2  5  1 -1</clus>
<clus scale="  301.052">  1  3  2 -1</clus>
</clustering>
</event>
<event>
 6    0  0.4189111E+002  0.1517143E+03  0.7546771E-02  0.1198382E+00
         21   -1    0    0  503  502  0.00000000000E+00  0.00000000000E+00  0.96322508682E+03  0.96322508682E+03  0.00000000000E+00 0.  1.
         -4   -1    0    0    0  501 -0.00000000000E+00 -0.00000000000E+00 -0.55225562187E+03  0.55225562187E+03  0.00000000000E+00 0. -1.
         21    1    1    2  503  501  0.16055223297E+02  0.43294661171E+02 -0.20722134623E+02  0.50612298351E+02  0.00000000000E+00 0.  1.
         21    1    1    2  504  502  0.10268752480E+03  0.95497426922E+02  0.62708678981E+03  0.64257476472E+03  0.00000000000E+00 0.  1.
         21    1    1    2  505  504 -0.10301793910E+03 -0.18890184041E+03  0.27488937916E+03  0.34908562254E+03  0.00000000000E+00 0.  1.
         -4    1    1    2    0  505 -0.15724809000E+02  0.50109752317E+02 -0.47028456940E+03  0.47320802308E+03  0.00000000000E+00 0. -1.
<scales pt_clust_3="46.17573" pt_clust_4="14000.00000" pt_clust_5="151.71430" pt_clust_6="89.65255"></scales>
<clustering>
<clus scale="   46.176">  2  3  1 -1</clus>
<clus scale="   89.653">  2  6  1 -1</clus>
<clus scale="  151.714">  2  5  1 -1</clus>
<clus scale="  151.714">  1  3  2 -1</clus>
</clustering>
</event>
<event>
 6    0  0.4189111E+002  0.7193883E+02  0.7546771E-02  0.1353621E+00
         21   -1    0    0  501  502  0.00000000000E+00  0.00000000000E+00  0.17944005300E+03  0.17944005300E+03  0.00000000000E+00 0. -1.
          2   -1    0    0  504    0 -0.00000000000E+00 -0.00000000000E+00 -0.25671496062E+04  0.25671496062E+04  0.00000000000E+00 0. -1.
         21    1    1    2  503  505 -0.40411759652E+02 -0.76396839160E+02 -0.16234985794E+03  0.18392135201E+03  0.00000000000E+00 0.  1.
         21    1    1    2  504  503 -0.27627185971E+02 -0.13830486324E+02 -0.67757476991E+03  0.67827878677E+03  0.00000000000E+00 0.  1.
         21    1    1    2  505  502 -0.12920258166E+02  0.70913605249E+02  0.15952398541E+03  0.17505306168E+03  0.00000000000E+00 0. -1.
          2    1    1    2  501    0  0.80959203790E+02  0.19313720236E+02 -0.17073089108E+04  0.17093364588E+04  0.00000000000E+00 0. -1.
<scales pt_clust_3="71.93883" pt_clust_4="30.89569" pt_clust_5="14000.00000" pt_clust_6="56.38985"></scales>
<clustering>
<clus scale="   30.896">  2  4  1 -1</clus>
<clus scale="   56.390">  2  6  1 -1</clus>
<clus scale="   71.939">  2  3  1 -1</clus>
<clus scale="   71.939">  1  3  2 -1</clus>
</clustering>
</event>
<event>
 6    0  0.4189111E+002  0.1611301E+03  0.7546771E-02  0.1187427E+00
          1   -1    0    0  503    0 -0.00000000000E+00  0.00000000000E+00  0.15581084957E+04  0.15581084957E+04  0.00000000000E+00 0.  1.
         21   -1    0    0  505  502  0.00000000000E+00 -0.00000000000E+00 -0.64433706877E+02  0.64433706877E+02  0.00000000000E+00 0.  1.
         21    1    1    2  503  504  0.12798032207E+02 -0.53344954455E+02  0.52995808164E+03  0.53278986673E+03  0.00000000000E+00 0.  1.
         21    1    1    2  504  502 -0.12412149590E+03 -0.11082352729E+03  0.17092526262E+03  0.23854443056E+03  0.00000000000E+00 0.  1.
         21    1    1    2  505  501  0.64950314130E+02  0.14981165993E+03  0.20814468815E+03  0.26454921652E+03  0.00000000000E+00 0.  1.
          1    1    1    2  501    0  0.46373149561E+02  0.14356821816E+02  0.58464675645E+03  0.58665868881E+03  0.00000000000E+00 0.  1.
<scales pt_clust_3="59.36935" pt_clust_4="161.13015" pt_clust_5="14000.00000" pt_clust_6="48.54469"></scales>
<clustering>
<clus scale="   48.545">  1  6  2 -1</clus>
<clus scale="   59.369">  1  3  2 -1</clus>
<clus scale="  161.130">  2  4  1 -1</clus>
<clus scale="  161.130">  2  3  1 -1</clus>
</clustering>
</event>
<event>
 6    0  0.4189111E+002  0.1197393E+03  0.7546771E-02  0.1243528E+00
         -1   -1    0    0    0  501 -0.00000000000E+00  0.00000000000E+00  0.82110354477E+03  0.82110354477E+03  0.00000000000E+00 0. -1.
         21   -1    0    0  503  502  0.00000000000E+00 -0.00000000000E+00 -0.48771937646E+03  0.48771937646E+03  0.00000000000E+00 0. -1.
         21    1    1    2  503  505  0.41904613073E+02 -0.20772777241E+01 -0.35006642850E+03  0.35257171758E+03  0.00000000000E+00 0. -1.
         21    1    1    2  504  502  0.77274905989E+02 -0.31195436641E+02 -0.11245263889E+03  0.13996486115E+03  0.00000000000E+00 0.  1.
         21    1    1    2  505  501 -0.38341570994E+01  0.59116846941E+02  0.19231914107E+03  0.20123656322E+03  0.00000000000E+00 0. -1.
         -1    1    1    2    0  504 -0.11534536196E+03 -0.25844132576E+02  0.60358409462E+03  0.61504977928E+03  0.00000000000E+00 0. -1.
<scales pt_clust_3="41.95607" pt_clust_4="119.73926" pt_clust_5="59.10035" pt_clust_6="14000.00000"></scales>
<clustering>
<clus scale="   41.956">  2  3  1 -1</clus>
<clus scale="   59.100">  1  5  2 -1</clus>
<clus scale="  119.739">  2  4  1 -1</clus>
<clus scale="   41.956">  2  3  1 -1</clus>
</clustering>
</event>
<event>
 6    0  0.4189111E+002  0.9709438E+02  0.7546771E-02  0.1286527E+00
         -1   -1    0    0    0  501 -0.00000000000E+00  0.00000000000E+00  0.65091606487E+03  0.65091606487E+03  0.00000000000E+00 0. -1.
         21   -1    0    0  503  502  0.00000000000E+00 -0.00000000000E+00 -0.19921140904E+03  0.19921140904E+03  0.00000000000E+00 0.  1.
         21    1    1    2  503  504 -0.12714169724E+03  0.90971701860E+02 -0.41317399211E+02  0.16170339883E+03  0.00000000000E+00 0.  1.
         21    1    1    2  504  501  0.49603317106E+02  0.23052062576E+02  0.31303962522E+03  0.31778246272E+03  0.00000000000E+00 0. -1.
         21    1    1    2  505  502  0.51747531998E+02 -0.61852014992E+02 -0.74378843345E+02  0.10970729768E+03  0.00000000000E+00 0. -1.
         -1    1    1    2    0  505  0.25790848139E+02 -0.52171749444E+02  0.25436127317E+03  0.26093431468E+03  0.00000000000E+00 0. -1.
<scales pt_clust_3="97.09438" pt_clust_4="54.69814" pt_clust_5="14000.00000" pt_clust_6="72.58918"></scales>
<clustering>
<clus scale="   54.698">  1  4  2 -1</clus>
<clus scale="   72.589">  1  6  2 -1</clus>
<clus scale="   97.094">  1  3  2 -1</clus>
<clus scale="   97.094">  2  3  1 -1</clus>
</clustering>
</event>
<event>
 6    0  0.4189111E+002  0.1092086E+03  0.7546771E-02  0.1262042E+00
         21   -1    0    0  505  502  0.00000000000E+00  0.00000000000E+00  0.22755342915E+03  0.22755342915E+03  0.00000000000E+00 0.  1.
          2   -1    0    0  504    0 -0.00000000000E+00 -0.00000000000E+00 -0.14327972150E+04  0.14327972150E+04  0.00000000000E+00 0. -1.
         21    1    1    2  503  501 -0.36935666984E+02 -0.15062425061E+01 -0.36473195084E+03  0.36660047494E+03  0.00000000000E+00 0. -1.
         21    1    1    2  504  502 -0.10932758319E+02  0.91672658858E+02 -0.15098971238E+02  0.93548813563E+02  0.00000000000E+00 0. -1.
         21    1    1    2  505  503  0.99960171873E+02 -0.13737863504E+03  0.14735492657E+03  0.22489641996E+03  0.00000000000E+00 0.  1.
          2    1    1    2  501    0 -0.52091746570E+02  0.47212218689E+02 -0.97276779039E+03  0.97530493573E+03  0.00000000000E+00 0. -1.
<scales pt_clust_3="30.67613" pt_clust_4="92.32227" pt_clust_5="100.68203" pt_clust_6="30.67613"></scales>
<clustering>
<clus scale="   30.676">  3  6 -1 -1</clus>
<clus scale="   92.322">  1  4  2 -1</clus>
<clus scale="  100.682">  1  5  2 -1</clus>
<clus scale="   92.322">  1  3  2 -1</clus>
</clustering>
</event>
<event>
 6    0  0.4189111E+002  0.1937064E+03  0.7546771E-02  0.1155160E+00
         21   -1    0    0  503  502  0.00000000000E+00  0.00000000000E+00  0.41930297759E+03  0.41930297759E+03  0.00000000000E+00 0. -1.
         -1   -1    0    0    0  501 -0.00000000000E+00 -0.00000000000E+00 -0.19524849693E+04  0.19524849693E+04  0.00000000000E+00 0. -1.
         21    1    1    2  503  501  0.20283156534E+02 -0.24562771207E+02 -0.76911546935E+02  0.83247355635E+02  0.00000000000E+00 0.  1.
         21    1    1    2  504  505  0.56824859787E+02  0.65423524859E+02  0.21010210068E+03  0.22727119265E+03  0.00000000000E+00 0. -1.
         21    1    1    2  505  502  0.51532360798E+02  0.91237950049E+02  0.17861945162E+03  0.20708659116E+03  0.00000000000E+00 0. -1.
         -1    1    1    2    0  504 -0.12864037712E+03 -0.13209870370E+03 -0.18449919971E+04  0.18541828075E+04  0.00000000000E+00 0. -1.
<scales pt_clust_3="31.85492" pt_clust_4="32.52052" pt_clust_5="32.52052" pt_clust_6="190.37866"></scales>
<clustering>
<clus scale="   31.855">  2  3  1 -1</clus>
<clus scale="   32.521">  4  5 -1 -1</clus>
<clus scale="  190.379">  2  6  1 -1</clus>
<clus scale="  193.706">  1  3  2 -1</clus>
</clustering>
</event>
<event>
 6    0  0.4189111E+002  0.1765227E+03  0.7546771E-02  0.1171211E+00
          2   -1    0    0  503    0 -0.00000000000E+00  0.00000000000E+00  0.36260138069E+04  0.36260138069E+04  0.00000000000E+00 0.  1.
         21   -1    0    0  505  502  0.00000000000E+00 -0.00000000000E+00 -0.45999777662E+03  0.45999777662E+03  0.00000000000E+00 0.  1.
         21    1    1    2  503  502 -0.45656851355E+02 -0.66494881062E+02 -0.32921469689E+03  0.33895196405E+03  0.00000000000E+00 0.  1.
         21    1    1    2  504  501  0.51787781018E+02  0.69804906789E+02  0.19784121541E+04  0.19803205172E+04  0.00000000000E+00 0. -1.
         21    1    1    2  505  504 -0.93458793421E+02 -0.23579964358E+02 -0.10494926494E+03  0.14249529465E+03  0.00000000000E+00 0.  1.
          2    1    1    2  501    0  0.87327863758E+02  0.20269938630E+02  0.16217678380E+04  0.16242438076E+04  0.00000000000E+00 0.  1.
<scales pt_clust_3="80.66051" pt_clust_4="63.21214" pt_clust_5="164.43508" pt_clust_6="63.21214"></scales>
<clustering>
<clus scale="   63.212">  4  6 -1 -1</clus>
<clus scale="   80.661">  2  3  1 -1</clus>
<clus scale="  164.435">  2  5  1 -1</clus>
<clus scale="   80.661">  2  3  1 -1</clus>
</clustering>
</event>
<event>
 6    0  0.4189111E+002  0.1357290E+03  0.7546771E-02  0.1219194E+00
          2   -1    0    0  504    0 -0.00000000000E+00  0.00000000000E+00  0.30217302832E+04  0.30217302832E+04  0.00000000000E+00 0. -1.
         21   -1    0    0  505  502  0.00000000000E+00 -0.00000000000E+00 -0.15495028797E+03  0.15495028797E+03  0.00000000000E+00 0. -1.
         21    1    1    2  503  502  0.10132304886E+03 -0.92663125458E+02 -0.64972205292E+02  0.15190195032E+03  0.00000000000E+00 0. -1.
         21    1    1    2  504  503  0.88506533296E+02 -0.51299914229E+01  0.43412974471E+03  0.44308956035E+03  0.00000000000E+00 0. -1.
         21    1    1    2  505  501 -0.64266038321E+02  0.12139757853E+03  0.76553191451E+02  0.15725103140E+03  0.00000000000E+00 0. -1.
          2    1    1    2  501    0 -0.12556354384E+03 -0.23604461649E+02  0.24210692644E+04  0.24244380292E+04  0.00000000000E+00 0. -1.
<scales pt_clust_3="135.72896" pt_clust_4="88.65508" pt_clust_5="14000.00000" pt_clust_6="51.16754"></scales>
<clustering>
<clus scale="   88.655">  1  4  2 -1</clus>
<clus scale="   51.168">  1  6  2 -1</clus>
<clus scale="  135.729">  2  3  1 -1</clus>
<clus scale="  135.729">  2  3  1 -1</clus>
</clustering>
</event>
<event>
 6    0  0.4189111E+002  0.9024566E+02  0.7546771E-02  0.1302258E+00
         -1   -1    0    0    0  501 -0.00000000000E+00  0.00000000000E+00  0.17407915412E+03  0.17407915412E+03  0.00000000000E+00 0. -1.
         21   -1    0    0  505  502  0.00000000000E+00 -0.00000000000E+00 -0.19389231204E+04  0.19389231204E+04  0.00000000000E+00 0. -1.
         21    1    1    2  503  502  0.32727387853E+02  0.28428663504E+02 -0.17399496337E+04  0.17404895859E+04  0.00000000000E+00 0. -1.
         21    1    1    2  504  503  0.23605764504E+02 -0.10120686700E+03 -0.15712015872E+03  0.18837942118E+03  0.00000000000E+00 0. -1.
         21    1    1    2  505  501 -0.34240599513E+02 -0.50546590623E+01  0.81740925720E+02  0.88766813454E+02  0.00000000000E+00 0. -1.
         -1    1    1    2    0  504 -0.22092552843E+02  0.77832862561E+02  0.50484900387E+02  0.95366454022E+02  0.00000000000E+00 0. -1.
<scales pt_clust_3="43.26195" pt_clust_4="90.24566" pt_clust_5="34.61168" pt_clust_6="14000.00000"></scales>
<clustering>
<clus scale="   34.612">  1  5  2 -1</clus>
<clus scale="   43.262">  2  3  1 -1</clus>
<clus scale="   90.246">  2  4  1 -1</clus>
<clus scale="   43.262">  2  3  1 -1</clus>
</clustering>
</event>
<event>
 6    0  0.4189111E+002  0.1075435E+03  0.7546771E-02  0.1265188E+00
         21   -1    0    0  503  502  0.00000000000E+00  0.00000000000E+00  0.13922644247E+04  0.13922644247E+04  0.00000000000E+00 0. -1.
         -2   -1    0    0    0  501 -0.00000000000E+00 -0.00000000000E+00 -0.46432272255E+02  0.46432272255E+02  0.00000000000E+00 0. -1.
         21    1    1    2  503  505 -0.77514090038E+02  0.99889187793E+02  0.72599871395E+03  0.73692633055E+03  0.00000000000E+00 0. -1.
         21    1    1    2  504  502  0.34595912010E+02 -0.83875576836E+01  0.49149946849E+03  0.49278692736E+03  0.00000000000E+00 0. -1.
         21    1    1    2  505  501 -0.29750694228E+02  0.87960855523E+01  0.59952817464E+02  0.67504186906E+02  0.00000000000E+00 0. -1.
         -2    1    1    2    0  504  0.72668872255E+02 -0.10029771566E+03  0.68381152525E+02  0.14147925213E+03  0.00000000000E+00 0. -1.
<scales pt_clust_3="14000.00000" pt_clust_4="35.13055" pt_clust_5="31.02378" pt_clust_6="107.54352"></scales>
<clustering>
<clus scale="   31.024">  2  5  1 -1</clus>
<clus scale="   35.131">  1  4  2 -1</clus>
<clus scale="  107.544">  2  6  1 -1</clus>
<clus scale="   35.131">  1  3  2 -1</clus>
</clustering>
</event>
<event>
 6    0  0.4189111E+002  0.8638528E+02  0.7546771E-02  0.1311849E+00
         -3   -1    0    0    0  501 -0.00000000000E+00  0.00000000000E+00  0.79146601782E+02  0.79146601782E+02  0.00000000000E+00 0. -1.
         21   -1    0    0  504  502  0.00000000000E+00 -0.00000000000E+00 -0.55480133053E+03  0.55480133053E+03  0.00000000000E+00 0.  1.
         21    1    1    2  503  502  0.80069597039E+02  0.30230897635E+02 -0.11067397412E+03  0.13990631183E+03  0.00000000000E+00 0. -1.
         21    1    1    2  504  501 -0.86545105599E+02 -0.12397763759E+02 -0.26795691632E+03  0.28185930684E+03  0.00000000000E+00 0.  1.
         21    1    1    2  505  503  0.45983843216E+02 -0.92974740238E+02 -0.56429694594E+02  0.11808101707E+03  0.00000000000E+00 0.  1.
         -3    1    1    2    0  505 -0.39508334656E+02  0.75141606362E+02 -0.40594143715E+02  0.94101296579E+02  0.00000000000E+00 0. -1.
<scales pt_clust_3="86.38528" pt_clust_4="14000.00000" pt_clust_5="53.80586" pt_clust_6="84.89505"></scales>
<clustering>
<clus scale="   84.895">  1  6  2 -1</clus>
<clus scale="   53.806">  1  5  2 -1</clus>
<clus scale="   86.385">  1  3  2 -1</clus>
<clus scale="   86.385">  2  3  1 -1</clus>
</clustering>
</event>
<event>
 6    0  0.4189111E+002  0.7981712E+02  0.7546771E-02  0.1329571E+00
          1   -1    0    0  505    0 -0.00000000000E+00  0.00000000000E+00  0.93728843349E+03  0.93728843349E+03  0.00000000000E+00 0.  1.
         21   -1    0    0  504  502  0.00000000000E+00 -0.00000000000E+00 -0.13677469724E+03  0.13677469724E+03  0.00000000000E+00 0. -1.
         21    1    1    2  503  502 -0.42416840087E+02 -0.50768677553E+02 -0.21510989990E+02  0.69565577937E+02  0.00000000000E+00 0. -1.
         21    1    1    2  504  501  0.45385419291E+02  0.84562795429E+02 -0.58723587174E+02  0.11251294301E+03  0.00000000000E+00 0.  1.
         21    1    1    2  505  503 -0.28380873073E+02 -0.67930827072E+02  0.76718248131E+03  0.77070683846E+03  0.00000000000E+00 0.  1.
          1    1    1    2  501    0  0.25412293868E+02  0.34136709196E+02  0.11356583210E+03  0.12127777132E+03  0.00000000000E+00 0.  1.
<scales pt_clust_3="14000.00000" pt_clust_4="79.81712" pt_clust_5="36.20104" pt_clust_6="42.55702"></scales>
<clustering>
<clus scale="   42.557">  1  6  2 -1</clus>
<clus scale="   36.201">  1  5  2 -1</clus>
<clus scale="   79.817">  1  4  2 -1</clus>
<clus scale="   79.817">  2  3  1 -1</clus>
</clustering>
</event>
<event>
 6    0  0.4189111E+002  0.1318874E+03  0.7546771E-02  0.1224682E+00
         -1   -1    0    0    0  501 -0.00000000000E+00  0.00000000000E+00  0.36644845867E+03  0.36644845867E+03  0.00000000000E+00 0. -1.
         21   -1    0    0  504  502  0.00000000000E+00 -0.00000000000E+00 -0.93466875138E+03  0.93466875138E+03  0.00000000000E+00 0.  1.
         21    1    1    2  503  502  0.48467373438E+02 -0.86353714297E+02 -0.78584044417E+03  0.79205508265E+03  0.00000000000E+00 0.  1.
         21    1    1    2  504  501  0.33280297342E+02 -0.60108694417E+01 -0.13147348509E+03  0.13575340152E+03  0.00000000000E+00 0.  1.
         21    1    1    2  505  503 -0.55812398976E+02  0.29108314509E+02  0.14516000094E+03  0.15822055405E+03  0.00000000000E+00 0. -1.
         -1    1    1    2    0  505 -0.25935271805E+02  0.63256269229E+02  0.20393363562E+03  0.21508817182E+03  0.00000000000E+00 0. -1.
<scales pt_clust_3="122.94363" pt_clust_4="33.81876" pt_clust_5="45.75543" pt_clust_6="45.75543"></scales>
<clustering>
<clus scale="   33.819">  2  4  1 -1</clus>
<clus scale="   45.755">  5  6 -1 -1</clus>
<clus scale="  122.944">  2  3  1 -1</clus>
<clus scale="   33.819">  2  3  1 -1</clus>
</clustering>
</event>
<event>
 6    0  0.4189111E+002  0.2274673E+03  0.7546771E-02  0.1128435E+00
         -1   -1    0    0    0  501 -0.00000000000E+00  0.00000000000E+00  0.10450368082E+04  0.10450368082E+04  0.00000000000E+00 0.  1.
         21   -1    0    0  503  502  0.00000000000E+00 -0.00000000000E+00 -0.50297298630E+02  0.50297298630E+02  0.00000000000E+00 0.  1.
         21    1    1    2  503  505  0.10434854974E+03 -0.98068976839E+02  0.21867819640E+03  0.26139299461E+03  0.00000000000E+00 0.  1.
         21    1    1    2  504  502 -0.41629748017E+02  0.46487983983E+02  0.12226894828E+03  0.13727295542E+03  0.00000000000E+00 0.  1.
         21    1    1    2  505  501  0.82479880368E+02  0.11371846525E+02  0.15949214527E+03  0.17991663058E+03  0.00000000000E+00 0. -1.
         -1    1    1    2    0  504 -0.14519868209E+03  0.40209146330E+02  0.49430021962E+03  0.51675152621E+03  0.00000000000E+00 0.  1.
<scales pt_clust_3="73.61365" pt_clust_4="46.27142" pt_clust_5="73.61365" pt_clust_6="218.15243"></scales>
<clustering>
<clus scale="   46.271">  4  6 -1 -1</clus>
<clus scale="   73.614">  3  5 -1 -1</clus>
<clus scale="  218.152">  1  4  2 -1</clus>
<clus scale="  227.467">  2  3  1 -1</clus>
</clustering>
</event>
<event>
 6    0  0.4189111E+002  0.1351981E+03  0.7546771E-02  0.1219940E+00
          2   -1    0    0  504    0 -0.00000000000E+00  0.00000000000E+00  0.15134934391E+04  0.15134934391E+04  0.00000000000E+00 0.  1.
         21   -1    0    0  505  502  0.00000000000E+00 -0.00000000000E+00 -0.12255149106E+03  0.12255149106E+03  0.00000000000E+00 0.  1.
         21    1    1    2  503  502  0.32983942743E+02 -0.31000865691E+02 -0.79005405294E+02  0.91054095010E+02  0.00000000000E+00 0.  1.
         21    1    1    2  504  503 -0.15507553585E+02 -0.41755236831E+02  0.16747449462E+03  0.17329653883E+03  0.00000000000E+00 0.  1.
         21    1    1    2  505  501  0.90626107846E+02  0.99529293892E+02  0.10946240872E+03  0.17349694721E+03  0.00000000000E+00 0.  1.
          2    1    1    2  501    0 -0.10810249700E+03 -0.26773191371E+02  0.11930104500E+04  0.11981973491E+04  0.00000000000E+00 0.  1.
<scales pt_clust_3="45.34377" pt_clust_4="44.54194" pt_clust_5="135.19814" pt_clust_6="14000.00000"></scales>
<clustering>
<clus scale="   44.542">  1  4  2 -1</clus>
<clus scale="   45.344">  2  3  1 -1</clus>
<clus scale="  135.198">  2  5  1 -1</clus>
<clus scale="   45.344">  2  3  1 -1</clus>
</clustering>
</event>
<event>
 6    0  0.4189111E+002  0.2346939E+03  0.7546771E-02  0.1123379E+00
         21   -1    0    0  505  502  0.00000000000E+00  0.00000000000E+00  0.12772821301E+03  0.12772821301E+03  0.00000000000E+00 0. -1.
          1   -1    0    0  503    0 -0.00000000000E+00 -0.00000000000E+00 -0.15132417594E+04  0.15132417594E+04  0.00000000000E+00 0. -1.
         21    1    1    2  503  502  0.45504242753E+02  0.21092801442E+03 -0.47715194604E+02  0.22099321975E+03  0.00000000000E+00 0. -1.
         21    1    1    2  504  501 -0.21674614770E+02 -0.73646003876E+02 -0.30319182696E+03  0.31275998265E+03  0.00000000000E+00 0.  1.
         21    1    1    2  505  504 -0.29268359316E+02  0.13547006581E+02  0.22542235771E+02  0.39348578601E+02  0.00000000000E+00 0. -1.
          1    1    1    2  501    0  0.54387313332E+01 -0.15082901713E+03 -0.10571487606E+04  0.10678681914E+04  0.00000000000E+00 0. -1.
<scales pt_clust_3="223.88888" pt_clust_4="50.26540" pt_clust_5="32.25148" pt_clust_6="50.26540"></scales>
<clustering>
<clus scale="   32.251">  1  5  2 -1</clus>
<clus scale="   50.265">  4  6 -1 -1</clus>
<clus scale="  223.889">  1  3  2 -1</clus>
<clus scale="   32.251">  1  3  2 -1</clus>
</clustering>
</event>
<event>
 6    0  0.4189111E+002  0.1292742E+03  0.7546771E-02  0.1228537E+00
         21   -1    0    0  503  502  0.00000000000E+00  0.00000000000E+00  0.28228062181E+02  0.28228062181E+02  0.00000000000E+00 0. -1.
          1   -1    0    0  504    0 -0.00000000000E+00 -0.00000000000E+00 -0.24343697947E+04  0.24343697947E+04  0.00000000000E+00 0. -1.
         21    1    1    2  503  505 -0.24358627094E+02  0.18681497667E+02 -0.41629102808E+02  0.51723527235E+02  0.00000000000E+00 0. -1.
         21    1    1    2  504  502 -0.44078283959E+02 -0.41314778777E+02 -0.20436587883E+03  0.21310846650E+03  0.00000000000E+00 0. -1.
         21    1    1    2  505  501 -0.47102084327E+02 -0.52090644779E+02 -0.57894636497E+02  0.91015551180E+02  0.00000000000E+00 0. -1.
          1    1    1    2  501    0  0.11553899538E+03  0.74723925889E+02 -0.21022521143E+04  0.21067503119E+04  0.00000000000E+00 0. -1.
<scales pt_clust_3="30.69757" pt_clust_4="61.62112" pt_clust_5="129.27419" pt_clust_6="14000.00000"></scales>
<clustering>
<clus scale="   30.698">  1  3  2 -1</clus>
<clus scale="   61.621">  1  4  2 -1</clus>
<clus scale="  129.274">  1  5  2 -1</clus>
<clus scale="   30.698">  1  3  2 -1</clus>
</clustering>
</event>
<event>
 6    0  0.4189111E+002  0.2676039E+03  0.7546771E-02  0.1102659E+00
         21   -1    0    0  503  502  0.00000000000E+00  0.00000000000E+00  0.32463901888E+04  0.32463901888E+04  0.00000000000E+00 0.  1.
          2   -1    0    0  504    0 -0.00000000000E+00 -0.00000000000E+00 -0.11468121645E+04  0.11468121645E+04  0.00000000000E+00 0.  1.
         21    1    1    2  503  501  0.28267799021E+03 -0.18083785055E+03 -0.27154518317E+03  0.43167807547E+03  0.00000000000E+00 0.  1.
         21    1    1    2  504  505  0.30407671795E+01  0.44357611919E+02 -0.50811506042E+02  0.67517798738E+02  0.00000000000E+00 0.  1.
         21    1    1    2  505  502 -0.98552706117E+02  0.19238745652E+01  0.31391297705E+04  0.31406770056E+04  0.00000000000E+00 0.  1.
          2    1    1    2  501    0 -0.18716605127E+03  0.13455636406E+03 -0.71719505699E+03  0.75332947349E+03  0.00000000000E+00 0.  1.
<scales pt_clust_3="14000.00000" pt_clust_4="44.46171" pt_clust_5="98.56994" pt_clust_6="267.60392"></scales>
<clustering>
<clus scale="   44.462">  2  4  1 -1</clus>
<clus scale="   98.570">  1  5  2 -1</clus>
<clus scale="  267.604">  2  6  1 -1</clus>
<clus scale="   98.570">  1  3  2 -1</clus>
</clustering>
</event>
<event>
 6    0  0.4189111E+002  0.1927512E+03  0.7546771E-02  0.1156003E+00
          2   -1    0    0  504    0 -0.00000000000E+00  0.00000000000E+00  0.94562411451E+02  0.94562411451E+02  0.00000000000E+00 0. -1.
         21   -1    0    0  503  502  0.00000000000E+00 -0.00000000000E+00 -0.19348858143E+04  0.19348858143E+04  0.00000000000E+00 0.  1.
         21    1    1    2  503  501  0.17890923284E+03 -0.97100545724E+02 -0.49852716116E+03  0.53848524584E+03  0.00000000000E+00 0.  1.
         21    1    1    2  504  505 -0.57678802562E+01  0.97327973055E+02 -0.32559724903E+02  0.10279172373E+03  0.00000000000E+00 0. -1.
         21    1    1    2  505  502 -0.90777373498E+01 -0.39785152586E+02 -0.11662880745E+04  0.11670017723E+04  0.00000000000E+00 0.  1.
          2    1    1    2  501    0 -0.16406361523E+03  0.39557725254E+02 -0.14294844225E+03  0.22116948391E+03  0.00000000000E+00 0. -1.
<scales pt_clust_3="14000.00000" pt_clust_4="94.05281" pt_clust_5="40.80764" pt_clust_6="192.75117"></scales>
<clustering>
<clus scale="   40.808">  2  5  1 -1</clus>
<clus scale="   94.053">  1  4  2 -1</clus>
<clus scale="  192.751">  1  6  2 -1</clus>
<clus scale="   40.808">  2  3  1 -1</clus>
</clustering>
</event>
<event>
 6    0  0.4189111E+002  0.1276743E+03  0.7546771E-02  0.1230948E+00
          1   -1    0    0  504    0 -0.00000000000E+00  0.00000000000E+00  0.79917154213E+03  0.79917154213E+03  0.00000000000E+00 0.  1.
         21   -1    0    0  503  502  0.00000000000E+00 -0.00000000000E+00 -0.33216474550E+03  0.33216474550E+03  0.00000000000E+00 0.  1.
         21    1    1    2  503  501 -0.51691557581E+01 -0.64729544161E+02  0.19602061354E+03  0.20649628324E+03  0.00000000000E+00 0.  1.
         21    1    1    2  504  505  0.10975632925E+02  0.82372686219E+02 -0.18675975443E+03  0.20441362437E+03  0.00000000000E+00 0.  1.
         21    1    1    2  505  502  0.36942810813E+02  0.30257937012E+02 -0.12517822250E+03  0.13397724214E+03  0.00000000000E+00 0.  1.
          1    1    1    2  501    0 -0.42749287980E+02 -0.47901079071E+02  0.58292416001E+03  0.58644913788E+03  0.00000000000E+00 0.  1.
<scales pt_clust_3="118.65696" pt_clust_4="35.72682" pt_clust_5="35.72682" pt_clust_6="64.20292"></scales>
<clustering>
<clus scale="   35.727">  4  5 -1 -1</clus>
<clus scale="   64.203">  1  6  2 -1</clus>
<clus scale="  118.657">  1  3  2 -1</clus>
<clus scale="  127.674">  2  3  1 -1</clus>
</clustering>
</event>
<event>
 6    0  0.4189111E+002  0.5674904E+02  0.7546771E-02  0.1412004E+00
          1   -1    0    0  505    0 -0.00000000000E+00  0.00000000000E+00  0.13622600637E+04  0.13622600637E+04  0.00000000000E+00 0.  1.
         21   -1    0    0  504  502  0.00000000000E+00 -0.00000000000E+00 -0.46171015530E+03  0.46171015530E+03  0.00000000000E+00 0.  1.
         21    1    1    2  503  501  0.26265318772E+02  0.66329757847E+02 -0.16448837373E+03  0.17929285775E+03  0.00000000000E+00 0.  1.
         21    1    1    2  504  503 -0.33317847168E+02 -0.10656578003E+02 -0.27999240811E+03  0.28216908086E+03  0.00000000000E+00 0. -1.
         21    1    1    2  505  502 -0.54230254613E+01  0.51306972294E+02  0.97252090220E+02  0.11008988902E+03  0.00000000000E+00 0.  1.
          1    1    1    2  501    0  0.12475553857E+02 -0.10698015214E+03  0.12477786000E+04  0.12524183914E+04  0.00000000000E+00 0.  1.
<scales pt_clust_3="56.74904" pt_clust_4="34.98059" pt_clust_5="51.35506" pt_clust_6="14000.00000"></scales>
<clustering>
<clus scale="   34.981">  2  4  1 -1</clus>
<clus scale="   51.355">  1  5  2 -1</clus>
<clus scale="   56.749">  2  3  1 -1</clus>
<clus scale="   34.981">  2  3  1 -1</clus>
</clustering>
</event>
<event>
 6    0  0.4189111E+002  0.8794693E+02  0.7546771E-02  0.1307901E+00
         -1   -1    0    0    0  501 -0.00000000000E+00  0.00000000000E+00  0.12943801054E+03  0.12943801054E+03  0.00000000000E+00 0.  1.
         21   -1    0    0  503  502  0.00000000000E+00 -0.00000000000E+00 -0.73888817246E+03  0.73888817246E+03  0.00000000000E+00 0. -1.
         21    1    1    2  503  504 -0.23845136940E+02 -0.34157803753E+02 -0.30818286574E+03  0.31098557016E+03  0.00000000000E+00 0. -1.
         21    1    1    2  504  501 -0.39879336032E+02 -0.12674758183E+02  0.97574140017E+01  0.42967639746E+02  0.00000000000E+00 0.  1.
         21    1    1    2  505  502  0.87635028348E+02  0.95346819071E+02 -0.39432943642E+03  0.41505013977E+03  0.00000000000E+00 0. -1.
         -1    1    1    2    0  505 -0.23910555376E+02 -0.48514257135E+02  0.83304726237E+02  0.99322833313E+02  0.00000000000E+00 0.  1.
<scales pt_clust_3="41.65749" pt_clust_4="43.13538" pt_clust_5="14000.00000" pt_clust_6="87.94693"></scales>
<clustering>
<clus scale="   41.657">  2  3  1 -1</clus>
<clus scale="   43.135">  1  4  2 -1</clus>
<clus scale="   87.947">  1  6  2 -1</clus>
<clus scale="   41.657">  2  3  1 -1</clus>
</clustering>
</event>
<event>
 6    0  0.4189111E+002  0.1290266E+03  0.7546771E-02  0.1228907E+00
          1   -1    0    0  504    0 -0.00000000000E+00  0.00000000000E+00  0.31196631571E+03  0.31196631571E+03  0.00000000000E+00 0. -1.
         21   -1    0    0  505  502  0.00000000000E+00 -0.00000000000E+00 -0.82197647500E+03  0.82197647500E+03  0.00000000000E+00 0. -1.
         21    1    1    2  503  502  0.13612337075E+03 -0.97545260522E+02 -0.60735546940E+03  0.63002009185E+03  0.00000000000E+00 0. -1.
         21    1    1    2  504  503  0.43315633781E+02  0.15300662783E+02  0.45459798504E+02  0.64629309848E+02  0.00000000000E+00 0.  1.
         21    1    1    2  505  501 -0.77246268373E+02  0.47521959400E+02 -0.16992752244E+03  0.19261538227E+03  0.00000000000E+00 0. -1.
          1    1    1    2  501    0 -0.10219273616E+03  0.34722638339E+02  0.22181303405E+03  0.24667800674E+03  0.00000000000E+00 0. -1.
<scales pt_clust_3="14000.00000" pt_clust_4="45.93859" pt_clust_5="129.02656" pt_clust_6="79.37481"></scales>
<clustering>
<clus scale="   45.939">  1  4  2 -1</clus>
<clus scale="   79.375">  1  6  2 -1</clus>
<clus scale="  129.027">  1  5  2 -1</clus>
<clus scale="  129.027">  2  3  1 -1</clus>
</clustering>
</event>
<event>
 6    0  0.4189111E+002  0.9322569E+02  0.7546771E-02  0.1295223E+00
          1   -1    0    0  504    0 -0.00000000000E+00  0.00000000000E+00  0.10795396063E+04  0.10795396063E+04  0.00000000000E+00 0. -1.
         21   -1    0    0  503  502  0.00000000000E+00 -0.00000000000E+00 -0.11718544087E+03  0.11718544087E+03  0.00000000000E+00 0.  1.
         21    1    1    2  503  505  0.42815621532E+02  0.28736534184E+02 -0.79186149243E+02  0.94495566436E+02  0.00000000000E+00 0.  1.
         21    1    1    2  504  502 -0.41820925819E+02  0.33587008453E+02  0.22379112807E+03  0.23012941136E+03  0.00000000000E+00 0. -1.
         21    1    1    2  505  501 -0.70171175731E+01  0.65531273267E+02  0.27269574362E+02  0.71324732042E+02  0.00000000000E+00 0.  1.
          1    1    1    2  501    0  0.60224218597E+01 -0.12785481590E+03  0.79047961227E+03  0.80077533737E+03  0.00000000000E+00 0. -1.
<scales pt_clust_3="51.56516" pt_clust_4="52.28450" pt_clust_5="14000.00000" pt_clust_6="93.22569"></scales>
<clustering>
<clus scale="   51.565">  2  3  1 -1</clus>
<clus scale="   52.285">  1  4  2 -1</clus>
<clus scale="   93.226">  1  6  2 -1</clus>
<clus scale="   51.565">  2  3  1 -1</clus>
</clustering>
</event>
<event>
 6    0  0.4189111E+002  0.9203155E+02  0.7546771E-02  0.1298005E+00
         -3   -1    0    0    0  501 -0.00000000000E+00  0.00000000000E+00  0.29553509845E+03  0.29553509845E+03  0.00000000000E+00 0.  1.
         21   -1    0    0  505  502  0.00000000000E+00 -0.00000000000E+00 -0.14300460952E+03  0.14300460952E+03  0.00000000000E+00 0.  1.
         21    1    1    2  503  501  0.61722854456E+01 -0.90859253503E+02 -0.25495818415E+02  0.94570279747E+02  0.00000000000E+00 0.  1.
         21    1    1    2  504  502  0.26495618935E+02 -0.31512542473E+02  0.21358286550E+02  0.46381403172E+02  0.00000000000E+00 0.  1.
         21    1    1    2  505  503 -0.19180352827E+02  0.31138796775E+02 -0.55372414664E+02  0.66359738584E+02  0.00000000000E+00 0.  1.
         -3    1    1    2    0  504 -0.13487551553E+02  0.91232999201E+02  0.21204043546E+03  0.23122828646E+03  0.00000000000E+00 0.  1.
<scales pt_clust_3="14000.00000" pt_clust_4="35.66980" pt_clust_5="36.57199" pt_clust_6="92.03155"></scales>
<clustering>
<clus scale="   36.572">  2  5  1 -1</clus>
<clus scale="   35.670">  2  4  1 -1</clus>
<clus scale="   92.032">  1  6  2 -1</clus>
<clus scale="   36.572">  2  3  1 -1</clus>
</clustering>
</event>
<event>
 6    0  0.4189111E+002  0.2388899E+03  0.7546771E-02  0.1120535E+00
          1   -1    0    0  505    0 -0.00000000000E+00  0.00000000000E+00  0.14376799861E+04  0.14376799861E+04  0.00000000000E+00 0. -1.
         21   -1    0    0  504  502  0.00000000000E+00 -0.00000000000E+00 -0.14055412173E+03  0.14055412173E+03  0.00000000000E+00 0. -1.
         21    1    1    2  503  501  0.53073126341E+02 -0.53334939442E+01  0.14846183788E+03  0.15775335244E+03  0.00000000000E+00 0. -1.
         21    1    1    2  504  503  0.14339822706E+03 -0.18294870534E+03  0.16943740851E+02  0.23306730930E+03  0.00000000000E+00 0. -1.
         21    1    1    2  505  502 -0.24552091315E+03  0.16463216662E+03  0.83607380349E+03  0.88679404258E+03  0.00000000000E+00 0. -1.
          1    1    1    2  501    0  0.49049559751E+02  0.23650032668E+02  0.29564648211E+03  0.30061940347E+03  0.00000000000E+00 0. -1.
<scales pt_clust_3="45.45040" pt_clust_4="238.88992" pt_clust_5="14000.00000" pt_clust_6="113.46093"></scales>
<clustering>
<clus scale="   45.450">  3  6 -1 -1</clus>
<clus scale="  113.461">  1  3  2 -1</clus>
<clus scale="  238.890">  2  4  1 -1</clus>
<clus scale="  238.890">  2  3  1 -1</clus>
</clustering>
</event>
<event>
 6    0  0.4189111E+002  0.9367477E+02  0.7546771E-02  0.1294189E+00
          2   -1    0    0  505    0 -0.00000000000E+00  0.00000000000E+00  0.21347405852E+04  0.21347405852E+04  0.00000000000E+00 0. -1.
         21   -1    0    0  503  502  0.00000000000E+00 -0.00000000000E+00 -0.15295331381E+03  0.15295331381E+03  0.00000000000E+00 0.  1.
         21    1    1    2  503  501 -0.34663573961E+02  0.31461154020E+02 -0.32559538128E+02  0.57021847525E+02  0.00000000000E+00 0.  1.
         21    1    1    2  504  502  0.12668516446E+03 -0.13247610700E+02 -0.66510414666E+02  0.14369504286E+03  0.00000000000E+00 0.  1.
         21    1    1    2  505  504 -0.47078359552E+02 -0.46988167555E+00  0.19877197283E+03  0.20427160819E+03  0.00000000000E+00 0. -1.
          2    1    1    2  501    0 -0.44943230942E+02 -0.17743661645E+02  0.18820852514E+04  0.18827054005E+04  0.00000000000E+00 0. -1.
<scales pt_clust_3="46.81205" pt_clust_4="14000.00000" pt_clust_5="47.96075" pt_clust_6="93.67477"></scales>
<clustering>
<clus scale="   46.812">  2  3  1 -1</clus>
<clus scale="   47.961">  1  5  2 -1</clus>
<clus scale="   93.675">  1  6  2 -1</clus>
<clus scale="   46.812">  2  3  1 -1</clus>
</clustering>
</event>
<event>
 6    0  0.4189111E+002  0.1019548E+03  0.7546771E-02  0.1276238E+00
          1   -1    0    0  504    0 -0.00000000000E+00  0.00000000000E+00  0.43905222714E+03  0.43905222714E+03  0.00000000000E+00 0. -1.
         21   -1    0    0  503  502  0.00000000000E+00 -0.00000000000E+00 -0.85364607084E+02  0.85364607084E+02  0.00000000000E+00 0. -1.
         21    1    1    2  503  501 -0.32973033610E+02 -0.21224647542E+02  0.91036062427E+02  0.99122506379E+02  0.00000000000E+00 0.  1.
         21    1    1    2  504  505  0.79215437889E+02  0.72249788597E+02 -0.16228765448E+02  0.10843657308E+03  0.00000000000E+00 0. -1.
         21    1    1    2  505  502  0.13307073194E+02 -0.57518386888E+02  0.41826751788E+02  0.72352748339E+02  0.00000000000E+00 0. -1.
          1    1    1    2  501    0 -0.59549477472E+02  0.64932458323E+01  0.23705357129E+03  0.24450500643E+03  0.00000000000E+00 0. -1.
<scales pt_clust_3="32.96111" pt_clust_4="93.46203" pt_clust_5="59.03764" pt_clust_6="32.96111"></scales>
<clustering>
<clus scale="   32.961">  3  6 -1 -1</clus>
<clus scale="   59.038">  2  5  1 -1</clus>
<clus scale="   93.462">  2  4  1 -1</clus>
<clus scale="   59.038">  2  3  1 -1</clus>
</clustering>
</event>
<event>
 6    0  0.4189111E+002  0.2456054E+03  0.7546771E-02  0.1116114E+00
         21   -1    0    0  501  502  0.00000000000E+00  0.00000000000E+00  0.40010342580E+03  0.40010342580E+03  0.00000000000E+00 0.  1.
         -2   -1    0    0    0  501 -0.00000000000E+00 -0.00000000000E+00 -0.39239073674E+03  0.39239073674E+03  0.00000000000E+00 0.  1.
         21    1    1    2  503  504  0.72761469871E+02  0.10942211910E+03 -0.19777303157E+03  0.23744810731E+03  0.00000000000E+00 0.  1.
         21    1    1    2  504  505 -0.17545061763E+03 -0.16274410732E+03  0.25441806380E+03  0.34928085387E+03  0.00000000000E+00 0.  1.
         21    1    1    2  505  502 -0.30316543741E+01  0.30378908975E+02  0.50381492139E+02  0.58909793659E+02  0.00000000000E+00 0.  1.
         -2    1    1    2    0  503  0.10572080213E+03  0.22943079239E+02 -0.99313835311E+02  0.14685540770E+03  0.00000000000E+00 0.  1.
<scales pt_clust_3="90.61117" pt_clust_4="224.20952" pt_clust_5="30.52981" pt_clust_6="90.61117"></scales>
<clustering>
<clus scale="   30.530">  1  5  2 -1</clus>
<clus scale="   90.611">  3  6 -1 -1</clus>
<clus scale="  224.210">  1  4  2 -1</clus>
<clus scale="   30.530">  1  3  2 -1</clus>
</clustering>
</event>
<event>
 6    0  0.4189111E+002  0.1367623E+03  0.7546771E-02  0.1217753E+00
         -2   -1    0    0    0  501 -0.00000000000E+00  0.00000000000E+00  0.64040420566E+02  0.64040420566E+02  0.00000000000E+00 0.  1.
         21   -1    0    0  505  502  0.00000000000E+00 -0.00000000000E+00 -0.52064026066E+03  0.52064026066E+03  0.00000000000E+00 0.  1.
         21    1    1    2  503  502 -0.33969908993E+02 -0.34872079538E+02 -0.93779036728E+02  0.10566231295E+03  0.00000000000E+00 0.  1.
         21    1    1    2  504  503  0.49614907295E+02  0.24504200414E+02 -0.19014986141E+02  0.58512089022E+02  0.00000000000E+00 0.  1.
         21    1    1    2  505  501 -0.10488046967E+03  0.22688655711E+02 -0.30332544655E+03  0.32174681745E+03  0.00000000000E+00 0.  1.
         -2    1    1    2    0  504  0.89235471365E+02 -0.12320776587E+02 -0.40480370675E+02  0.98759461802E+02  0.00000000000E+00 0.  1.
<scales pt_clust_3="48.68282" pt_clust_4="32.94404" pt_clust_5="130.14285" pt_clust_6="32.94404"></scales>
<clustering>
<clus scale="   32.944">  4  6 -1 -1</clus>
<clus scale="   48.683">  2  3  1 -1</clus>
<clus scale="  130.143">  2  5  1 -1</clus>
<clus scale="   48.683">  2  3  1 -1</clus>
</clustering>
</event>
<event>
 6    0  0.4189111E+002  0.8245818E+02  0.7546771E-02  0.1322217E+00
          2   -1    0    0  505    0 -0.00000000000E+00  0.00000000000E+00  0.30225409584E+04  0.30225409584E+04  0.00000000000E+00 0.  1.
         21   -1    0    0  503  502  0.00000000000E+00 -0.00000000000E+00 -0.30950858153E+02  0.30950858153E+02  0.00000000000E+00 0.  1.
         21    1    1    2  503  501  0.35434144911E+02  0.52375487709E+02  0.19993574241E+02  0.66321288809E+02  0.00000000000E+00 0.  1.
         21    1    1    2  504  502  0.39393543801E+02 -0.10083448404E+02  0.69082362076E+02  0.80161711402E+02  0.00000000000E+00 0.  1.
         21    1    1    2  505  504 -0.45742566210E+02  0.43717755104E+02  0.78368104314E+03  0.78623126486E+03  0.00000000000E+00 0.  1.
          2    1    1    2  501    0 -0.29085122502E+02 -0.86009794410E+02  0.21188331208E+04  0.21207775515E+04  0.00000000000E+00 0.  1.
<scales pt_clust_3="82.45818" pt_clust_4="40.66359" pt_clust_5="61.50371" pt_clust_6="14000.00000"></scales>
<clustering>
<clus scale="   40.664">  2  4  1 -1</clus>
<clus scale="   61.504">  1  5  2 -1</clus>
<clus scale="   82.458">  2  3  1 -1</clus>
<clus scale="   40.664">  2  3  1 -1</clus>
</clustering>
</event>
<event>
 6    0  0.4189111E+002  0.2726851E+03  0.7546771E-02  0.1099753E+00
         21   -1    0    0  503  502  0.00000000000E+00  0.00000000000E+00  0.73727265254E+03  0.73727265254E+03  0.00000000000E+00 0.  1.
          1   -1    0    0  505    0 -0.00000000000E+00 -0.00000000000E+00 -0.20585398876E+03  0.20585398876E+03  0.00000000000E+00 0.  1.
         21    1    1    2  503  501 -0.12653273895E+02 -0.29389916573E+02  0.71620108582E+02  0.78443052526E+02  0.00000000000E+00 0.  1.
         21    1    1    2  504  502  0.48399781058E+02  0.27323071714E+03  0.37301774754E+03  0.46490838192E+03  0.00000000000E+00 0.  1.
         21    1    1    2  505  504  0.27072000573E+01 -0.31139463532E+03  0.81335386460E+02  0.32185306109E+03  0.00000000000E+00 0.  1.
          1    1    1    2  501    0 -0.38453707220E+02  0.67553834758E+02  0.54454211881E+01  0.77922145770E+02  0.00000000000E+00 0.  1.
<scales pt_clust_3="31.99801" pt_clust_4="272.68509" pt_clust_5="14000.00000" pt_clust_6="76.53483"></scales>
<clustering>
<clus scale="   31.998">  1  3  2 -1</clus>
<clus scale="   76.535">  2  6  1 -1</clus>
<clus scale="  272.685">  1  4  2 -1</clus>
<clus scale="   31.998">  1  3  2 -1</clus>
</clustering>
</event>
<event>
 6    0  0.4189111E+002  0.1457451E+03  0.7546771E-02  0.1205801E+00
          2   -1    0    0  505    0 -0.00000000000E+00  0.00000000000E+00  0.28692002386E+04  0.28692002386E+04  0.00000000000E+00 0. -1.
         21   -1    0    0  501  502  0.00000000000E+00 -0.00000000000E+00 -0.19087845226E+02  0.19087845226E+02  0.00000000000E+00 0.  1.
         21    1    1    2  503  502 -0.82429968909E+01  0.50208660620E+02  0.62670204654E+02  0.80724290956E+02  0.00000000000E+00 0.  1.
         21    1    1    2  504  503 -0.10479756253E+03 -0.12252082646E+03  0.12598328447E+04  0.12701073492E+04  0.00000000000E+00 0.  1.
         21    1    1    2  505  504  0.23083306324E+02 -0.28923604433E+02  0.25710447161E+03  0.25975396676E+03  0.00000000000E+00 0.  1.
          2    1    1    2  501    0  0.89957253101E+02  0.10123577028E+03  0.12705048724E+04  0.12777024769E+04  0.00000000000E+00 0. -1.
<scales pt_clust_3="49.99677" pt_clust_4="145.74511" pt_clust_5="37.00559" pt_clust_6="14000.00000"></scales>
<clustering>
<clus scale="   37.006">  1  5  2 -1</clus>
<clus scale="   49.997">  2  3  1 -1</clus>
<clus scale="  145.745">  2  4  1 -1</clus>
<clus scale="   49.997">  2  3  1 -1</clus>
</clustering>
</event>
<event>
 6    0  0.4189111E+002  0.1100655E+03  0.7546771E-02  0.1260449E+00
         21   -1    0    0  504  502  0.00000000000E+00  0.00000000000E+00  0.72447176922E+03  0.72447176922E+03  0.00000000000E+00 0. -1.
          1   -1    0    0  505    0 -0.00000000000E+00 -0.00000000000E+00 -0.67035868498E+02  0.67035868498E+02  0.00000000000E+00 0. -1.
         21    1    1    2  503  502  0.33285159035E+02 -0.17793823296E+02  0.29506186394E+03  0.29746600732E+03  0.00000000000E+00 0. -1.
         21    1    1    2  504  501 -0.12825656400E+02 -0.29484535849E+02  0.70867126279E+02  0.77820208836E+02  0.00000000000E+00 0. -1.
         21    1    1    2  505  503  0.66412127090E+02  0.68936860644E+02 -0.15013591020E+02  0.96893081772E+02  0.00000000000E+00 0. -1.
          1    1    1    2  501    0 -0.86871629725E+02 -0.21658501499E+02  0.30652050153E+03  0.31932833979E+03  0.00000000000E+00 0. -1.
<scales pt_clust_3="37.74284" pt_clust_4="31.42849" pt_clust_5="96.76785" pt_clust_6="31.42849"></scales>
<clustering>
<clus scale="   31.428">  4  6 -1 -1</clus>
<clus scale="   37.743">  1  3  2 -1</clus>
<clus scale="   96.768">  2  5  1 -1</clus>
<clus scale="   37.743">  1  3  2 -1</clus>
</clustering>
</event>
<event>
 6    0  0.4189111E+002  0.1377813E+03  0.7546771E-02  0.1216346E+00
          1   -1    0    0  503    0 -0.00000000000E+00  0.00000000000E+00  0.18125962097E+04  0.18125962097E+04  0.00000000000E+00 0.  1.
         21   -1    0    0  504  502  0.00000000000E+00 -0.00000000000E+00 -0.67342230637E+02  0.67342230637E+02  0.00000000000E+00 0. -1.
         21    1    1    2  503  502 -0.10945515637E+03 -0.36540385432E+02  0.14148555504E+02  0.11625752726E+03  0.00000000000E+00 0. -1.
         21    1    1    2  504  505  0.18274994971E+01 -0.35023525145E+02  0.92729660134E+01  0.36276369260E+02  0.00000000000E+00 0.  1.
         21    1    1    2  505  501  0.59742923729E+02  0.10128103432E+02  0.71429820762E+03  0.71686381191E+03  0.00000000000E+00 0.  1.
          1    1    1    2  501    0  0.47884733140E+02  0.61435807144E+02  0.10075342500E+04  0.10105407320E+04  0.00000000000E+00 0.  1.
<scales pt_clust_3="128.33300" pt_clust_4="35.07117" pt_clust_5="44.40398" pt_clust_6="44.40398"></scales>
<clustering>
<clus scale="   35.071">  2  4  1 -1</clus>
<clus scale="   44.404">  5  6 -1 -1</clus>
<clus scale="  128.333">  2  3  1 -1</clus>
<clus scale="   35.071">  2  3  1 -1</clus>
</clustering>
</event>
<event>
 6    0  0.4189111E+002  0.8875213E+02  0.7546771E-02  0.1305902E+00
          1   -1    0    0  503    0 -0.00000000000E+00  0.00000000000E+00  0.99986207048E+03  0.99986207048E+03  0.00000000000E+00 0.  1.
         21   -1    0    0  505  502  0.00000000000E+00 -0.00000000000E+00 -0.31441525161E+02  0.31441525161E+02  0.00000000000E+00 0.  1.
         21    1    1    2  503  504  0.22560590545E+02  0.33441798430E+02  0.12626762539E+03  0.13255507289E+03  0.00000000000E+00 0. -1.
         21    1    1    2  504  502  0.62962951885E+02 -0.98171657593E+02  0.23559029178E+03  0.26287790559E+03  0.00000000000E+00 0.  1.
         21    1    1    2  505  501 -0.65126004770E+02  0.17411700234E+01  0.71510852534E+02  0.96737946021E+02  0.00000000000E+00 0.  1.
          1    1    1    2  501    0 -0.20397537660E+02  0.62988689139E+02  0.53505177561E+03  0.53913267114E+03  0.00000000000E+00 0.  1.
<scales pt_clust_3="40.34023" pt_clust_4="14000.00000" pt_clust_5="63.14180" pt_clust_6="88.75213"></scales>
<clustering>
<clus scale="   40.340">  1  3  2 -1</clus>
<clus scale="   63.142">  2  5  1 -1</clus>
<clus scale="   88.752">  1  6  2 -1</clus>
<clus scale="   63.142">  2  3  1 -1</clus>
</clustering>
</event>
<event>
 6    0  0.4189111E+002  0.6878068E+02  0.7546771E-02  0.1364289E+00
         21   -1    0    0  501  502  0.00000000000E+00  0.00000000000E+00  0.25472252875E+02  0.25472252875E+02  0.00000000000E+00 0.  1.
          2   -1    0    0  505    0 -0.00000000000E+00 -0.00000000000E+00 -0.21411794211E+04  0.21411794211E+04  0.00000000000E+00 0.  1.
         21    1    1    2  503  502 -0.59273881003E+02  0.20989305390E+02 -0.11594398492E+03  0.13189750395E+03  0.00000000000E+00 0.  1.
         21    1    1    2  504  503  0.92029771339E+02 -0.77334907675E+01 -0.13632576329E+03  0.16466329108E+03  0.00000000000E+00 0.  1.
         21    1    1    2  505  504 -0.46040711835E+02 -0.51870941183E+02 -0.17070915052E+04  0.17084998533E+04  0.00000000000E+00 0.  1.
          2    1    1    2  501    0  0.13284821499E+02  0.38615126560E+02 -0.15634591485E+03  0.16159102565E+03  0.00000000000E+00 0.  1.
<scales pt_clust_3="64.60089" pt_clust_4="14000.00000" pt_clust_5="68.78068" pt_clust_6="40.83644"></scales>
<clustering>
<clus scale="   40.836">  1  6  2 -1</clus>
<clus scale="   64.601">  1  3  2 -1</clus>
<clus scale="   68.781">  2  5  1 -1</clus>
<clus scale="   40.836">  1  3  2 -1</clus>
</clustering>
</event>
<event>
 6    0  0.4189111E+002  0.1040200E+03  0.7546771E-02  0.1272063E+00
          2   -1    0    0  503    0 -0.00000000000E+00  0.00000000000E+00  0.23104492353E+04  0.23104492353E+04  0.00000000000E+00 0.  1.
         21   -1    0    0  504  502  0.00000000000E+00 -0.00000000000E+00 -0.48890824734E+03  0.48890824734E+03  0.00000000000E+00 0.  1.
         21    1    1    2  503  505 -0.41887733763E+02 -0.34779543336E+02  0.30036747861E+03  0.30526188934E+03  0.00000000000E+00 0. -1.
         21    1    1    2  504  501 -0.55371768187E+01  0.10261097796E+03 -0.41525633581E+03  0.42778206783E+03  0.00000000000E+00 0.  1.
         21    1    1    2  505  502  0.30888725542E+02 -0.14428083049E+01 -0.60641569304E+02  0.68070514828E+02  0.00000000000E+00 0. -1.
          2    1    1    2  501    0  0.16536185040E+02 -0.66388626324E+02  0.19970714145E+04  0.19982430107E+04  0.00000000000E+00 0.  1.
<scales pt_clust_3="54.31292" pt_clust_4="104.01998" pt_clust_5="30.92240" pt_clust_6="14000.00000"></scales>
<clustering>
<clus scale="   30.922">  2  5  1 -1</clus>
<clus scale="   54.313">  1  3  2 -1</clus>
<clus scale="  104.020">  2  4  1 -1</clus>
<clus scale="   30.922">  2  3  1 -1</clus>
</clustering>
</event>
<event>
 6    0  0.4189111E+002  0.1439695E+03  0.7546771E-02  0.1208085E+00
         21   -1    0    0  505  502  0.00000000000E+00  0.00000000000E+00  0.24357169606E+04  0.24357169606E+04  0.00000000000E+00 0.  1.
         -4   -1    0    0    0  501 -0.00000000000E+00 -0.00000000000E+00 -0.56742378844E+03  0.56742378844E+03  0.00000000000E+00 0. -1.
         21    1    1    2  503  502 -0.64823446209E+02  0.18072552567E+03  0.19571162358E+02  0.19299436573E+03  0.00000000000E+00 0. -1.
         21    1    1    2  504  503  0.58653533423E+02 -0.80911613229E+02 -0.18671875067E+03  0.21178011708E+03  0.00000000000E+00 0. -1.
         21    1    1    2  505  501  0.54654099949E+02 -0.27130781891E+02  0.23097106226E+04  0.23105164596E+04  0.00000000000E+00 0.  1.
         -4    1    1    2    0  504 -0.48484187163E+02 -0.72683130550E+02 -0.27426986215E+03  0.28784980659E+03  0.00000000000E+00 0. -1.
<scales pt_clust_3="143.96946" pt_clust_4="14000.00000" pt_clust_5="61.01762" pt_clust_6="87.01230"></scales>
<clustering>
<clus scale="   61.018">  1  5  2 -1</clus>
<clus scale="   87.012">  2  6  1 -1</clus>
<clus scale="  143.969">  1  3  2 -1</clus>
<clus scale="   61.018">  1  3  2 -1</clus>
</clustering>
</event>
<event>
 6    0  0.4189111E+002  0.1841695E+03  0.7546771E-02  0.1163828E+00
         21   -1    0    0  504  502  0.00000000000E+00  0.00000000000E+00  0.90653715427E+03  0.90653715427E+03  0.00000000000E+00 0. -1.
          2   -1    0    0  505    0 -0.00000000000E+00 -0.00000000000E+00 -0.67281415548E+03  0.67281415548E+03  0.00000000000E+00 0. -1.
         21    1    1    2  503  501  0.91774296338E+02  0.60865817791E+02 -0.30819959494E+03  0.32728299614E+03  0.00000000000E+00 0. -1.
         21    1    1    2  504  503 -0.12565419753E+03 -0.46631884624E+02  0.83194425631E+03  0.84267120257E+03  0.00000000000E+00 0. -1.
         21    1    1    2  505  502 -0.32601732261E+02 -0.29705321229E+02  0.47630366932E+02  0.64914797311E+02  0.00000000000E+00 0. -1.
          2    1    1    2  501    0  0.66481633451E+02  0.15471388062E+02 -0.33765202953E+03  0.34448231374E+03  0.00000000000E+00 0. -1.
<scales pt_clust_3="45.08360" pt_clust_4="175.06115" pt_clust_5="44.10532" pt_clust_6="45.08360"></scales>
<clustering>
<clus scale="   44.105">  1  5  2 -1</clus>
<clus scale="   45.084">  3  6 -1 -1</clus>
<clus scale="  175.061">  1  4  2 -1</clus>
<clus scale="   44.105">  1  3  2 -1</clus>
</clustering>
</event>
<event>
 6    0  0.4189111E+002  0.2441859E+03  0.7546771E-02  0.1117035E+00
          1   -1    0    0  502    0 -0.00000000000E+00  0.00000000000E+00  0.22243261355E+04  0.22243261355E+04  0.00000000000E+00 0.  1.
         21   -1    0    0  504  502  0.00000000000E+00 -0.00000000000E+00 -0.25719812580E+03  0.25719812580E+03  0.00000000000E+00 0. -1.
         21    1    1    2  503  505  0.83047149430E+02  0.16416044357E+03  0.29196974125E+03  0.34509681260E+03  0.00000000000E+00 0. -1.
         21    1    1    2  504  503  0.12640482367E+02 -0.26327903136E+03 -0.15115979049E+03  0.30385014795E+03  0.00000000000E+00 0. -1.
         21    1    1    2  505  501 -0.37305964731E+02  0.44153375903E+02  0.41792604116E+03  0.42190452888E+03  0.00000000000E+00 0.  1.
          1    1    1    2  501    0 -0.58381667066E+02  0.54965211884E+02  0.14083920178E+04  0.14106727719E+04  0.00000000000E+00 0.  1.
<scales pt_clust_3="244.18592" pt_clust_4="14000.00000" pt_clust_5="53.16750" pt_clust_6="151.33377"></scales>
<clustering>
<clus scale="   53.167">  5  6 -1 -1</clus>
<clus scale="  151.334">  1  5  2 -1</clus>
<clus scale="  244.186">  1  3  2 -1</clus>
<clus scale="  244.186">  2  3  1 -1</clus>
</clustering>
</event>
<event>
 6    0  0.4189111E+002  0.1569484E+03  0.7546771E-02  0.1192186E+00
          2   -1    0    0  503    0 -0.00000000000E+00  0.00000000000E+00  0.40693724680E+03  0.40693724680E+03  0.00000000000E+00 0.  1.
         21   -1    0    0  505  502  0.00000000000E+00 -0.00000000000E+00 -0.17262291668E+03  0.17262291668E+03  0.00000000000E+00 0.  1.
         21    1    1    2  503  502  0.20950673690E+03 -0.81677009219E+01 -0.12878221608E+01  0.20966984197E+03  0.00000000000E+00 0.  1.
         21    1    1    2  504  501 -0.31944113797E+02  0.20150919287E+02  0.67497300131E+02  0.77345791608E+02  0.00000000000E+00 0.  1.
         21    1    1    2  505  504 -0.12353606328E+03 -0.51700033817E+01  0.85343558777E+01  0.12393838427E+03  0.00000000000E+00 0.  1.
          2    1    1    2  501    0 -0.54026559823E+02 -0.68132149830E+01  0.15957049627E+03  0.16860614563E+03  0.00000000000E+00 0.  1.
<scales pt_clust_3="14000.00000" pt_clust_4="30.75479" pt_clust_5="156.94845" pt_clust_6="94.51228"></scales>
<clustering>
<clus scale="   30.755">  4  6 -1 -1</clus>
<clus scale="   94.512">  1  4  2 -1</clus>
<clus scale="  156.948">  2  5  1 -1</clus>
<clus scale="  156.948">  2  3  1 -1</clus>
</clustering>
</event>
<event>
 6    0  0.4189111E+002  0.1118583E+03  0.7546771E-02  0.1257167E+00
         21   -1    0    0  501  502  0.00000000000E+00  0.00000000000E+00  0.19066306352E+03  0.19066306352E+03  0.00000000000E+00 0. -1.
          3   -1    0    0  504    0 -0.00000000000E+00 -0.00000000000E+00 -0.42349489144E+03  0.42349489144E+03  0.00000000000E+00 0. -1.
         21    1    1    2  503  505  0.87179837985E+02  0.60030631740E+01  0.44136215279E+01  0.87497662675E+02  0.00000000000E+00 0. -1.
         21    1    1    2  504  503 -0.90635169122E+02  0.40083694997E+02 -0.31338044923E+03  0.32867726183E+03  0.00000000000E+00 0. -1.
         21    1    1    2  505  502  0.27078689719E+02 -0.75089452251E+02  0.11760454639E+03  0.14213553605E+03  0.00000000000E+00 0. -1.
          3    1    1    2  501    0 -0.23623358583E+02  0.29002694080E+02 -0.41469546609E+02  0.55847494399E+02  0.00000000000E+00 0. -1.
<scales pt_clust_3="14000.00000" pt_clust_4="111.85831" pt_clust_5="78.66887" pt_clust_6="37.40614"></scales>
<clustering>
<clus scale="   37.406">  2  6  1 -1</clus>
<clus scale="   78.669">  1  5  2 -1</clus>
<clus scale="  111.858">  2  4  1 -1</clus>
<clus scale="   78.669">  1  3  2 -1</clus>
</clustering>
</event>
<event>
 6    0  0.4189111E+002  0.1204783E+03  0.7546771E-02  0.1242310E+00
         21   -1    0    0  501  502  0.00000000000E+00  0.00000000000E+00  0.39616854012E+03  0.39616854012E+03  0.00000000000E+00 0. -1.
          2   -1    0    0  505    0 -0.00000000000E+00 -0.00000000000E+00 -0.45057245217E+03  0.45057245217E+03  0.00000000000E+00 0. -1.
         21    1    1    2  503  502 -0.11227835917E+03  0.45052304093E+02  0.33678214087E+03  0.35785241434E+03  0.00000000000E+00 0. -1.
         21    1    1    2  504  503  0.14830487802E+02  0.70960774742E+02 -0.58453629874E+02  0.93124657132E+02  0.00000000000E+00 0. -1.
         21    1    1    2  505  504  0.12140950195E+02 -0.48476767230E+02 -0.47431167813E+01  0.50198573580E+02  0.00000000000E+00 0. -1.
          2    1    1    2  501    0  0.85306921176E+02 -0.67536311605E+02 -0.32798930626E+03  0.34556534723E+03  0.00000000000E+00 0. -1.
<scales pt_clust_3="120.47825" pt_clust_4="64.55722" pt_clust_5="49.97399" pt_clust_6="14000.00000"></scales>
<clustering>
<clus scale="   49.974">  2  5  1 -1</clus>
<clus scale="   64.557">  2  4  1 -1</clus>
<clus scale="  120.478">  1  3  2 -1</clus>
<clus scale="  120.478">  1  3  2 -1</clus>
</clustering>
</event>
<event>
 6    0  0.4189111E+002  0.1434184E+03  0.7546771E-02  0.1208802E+00
          2   -1    0    0  502    0 -0.00000000000E+00  0.00000000000E+00  0.16459853637E+04  0.16459853637E+04  0.00000000000E+00 0. -1.
         21   -1    0    0  503  502  0.00000000000E+00 -0.00000000000E+00 -0.89695536545E+03  0.89695536545E+03  0.00000000000E+00 0. -1.
         21    1    1    2  503  504  0.33010913716E+02 -0.46874765039E+02 -0.88095791415E+03  0.88282150547E+03  0.00000000000E+00 0. -1.
         21    1    1    2  504  505  0.74430462129E+02  0.11853739038E+03  0.44353157864E+03  0.46509275189E+03  0.00000000000E+00 0. -1.
         21    1    1    2  505  501 -0.57709123380E+02 -0.54596586379E+02  0.47207166477E+03  0.47870950152E+03  0.00000000000E+00 0. -1.
          2    1    1    2  501    0 -0.49732252465E+02 -0.17066038959E+02  0.71438466894E+03  0.71631697023E+03  0.00000000000E+00 0. -1.
<scales pt_clust_3="57.33205" pt_clust_4="129.76283" pt_clust_5="49.68898" pt_clust_6="49.68898"></scales>
<clustering>
<clus scale="   49.689">  5  6 -1 -1</clus>
<clus scale="   57.332">  2  3  1 -1</clus>
<clus scale="  129.763">  2  4  1 -1</clus>
<clus scale="   57.332">  2  3  1 -1</clus>
</clustering>
</event>
<event>
 6    0  0.4189111E+002  0.1206500E+03  0.7546771E-02  0.1242029E+00
          2   -1    0    0  504    0 -0.00000000000E+00  0.00000000000E+00  0.82451475759E+03  0.82451475759E+03  0.00000000000E+00 0.  1.
         21   -1    0    0  505  502  0.00000000000E+00 -0.00000000000E+00 -0.60483350552E+02  0.60483350552E+02  0.00000000000E+00 0.  1.
         21    1    1    2  503  501 -0.83966010469E+02  0.66272152137E+02  0.29735806518E+02  0.11102480467E+03  0.00000000000E+00 0.  1.
         21    1    1    2  504  502  0.11083434214E+03 -0.45386415359E+02  0.51094608180E+03  0.52479527114E+03  0.00000000000E+00 0.  1.
         21    1    1    2  505  503  0.38494535766E+01  0.36887398531E+02  0.40217387980E+02  0.54707739482E+02  0.00000000000E+00 0.  1.
          2    1    1    2  501    0 -0.30717785250E+02 -0.57773135310E+02  0.18313213073E+03  0.19447029285E+03  0.00000000000E+00 0.  1.
<scales pt_clust_3="14000.00000" pt_clust_4="120.64996" pt_clust_5="37.08771" pt_clust_6="61.78891"></scales>
<clustering>
<clus scale="   37.088">  2  5  1 -1</clus>
<clus scale="   61.789">  1  6  2 -1</clus>
<clus scale="  120.650">  1  4  2 -1</clus>
<clus scale="   37.088">  2  3  1 -1</clus>
</clustering>
</event>
<event>
 6    0  0.4189111E+002  0.8785808E+02  0.7546771E-02  0.1308123E+00
          3   -1    0    0  503    0 -0.00000000000E+00  0.00000000000E+00  0.35427108309E+03  0.35427108309E+03  0.00000000000E+00 0. -1.
         21   -1    0    0  505  502  0.00000000000E+00 -0.00000000000E+00 -0.78840462538E+02  0.78840462538E+02  0.00000000000E+00 0. -1.
         21    1    1    2  503  502 -0.40984203641E+02  0.13684137979E+02  0.30403568758E+02  0.52833110580E+02  0.00000000000E+00 0.  1.
         21    1    1    2  504  501  0.73880616189E+02 -0.72618894112E+02  0.40511069018E+02  0.11123396938E+03  0.00000000000E+00 0. -1.
         21    1    1    2  505  504  0.32706977672E+02  0.57962167720E+01 -0.13037944338E+02  0.35683756947E+02  0.00000000000E+00 0. -1.
          3    1    1    2  501    0 -0.65603390220E+02  0.53138539361E+02  0.21755392712E+03  0.23336070873E+03  0.00000000000E+00 0. -1.
<scales pt_clust_3="37.34289" pt_clust_4="87.85808" pt_clust_5="33.21660" pt_clust_6="14000.00000"></scales>
<clustering>
<clus scale="   33.217">  2  5  1 -1</clus>
<clus scale="   37.343">  2  3  1 -1</clus>
<clus scale="   87.858">  2  4  1 -1</clus>
<clus scale="   33.217">  2  3  1 -1</clus>
</clustering>
</event>
<event>
 6    0  0.4189111E+002  0.1084685E+03  0.7546771E-02  0.1263432E+00
         21   -1    0    0  504  502  0.00000000000E+00  0.00000000000E+00  0.60590047045E+02  0.60590047045E+02  0.00000000000E+00 0.  1.
          2   -1    0    0  503    0 -0.00000000000E+00 -0.00000000000E+00 -0.16112665398E+04  0.16112665398E+04  0.00000000000E+00 0. -1.
         21    1    1    2  503  505 -0.62313594577E+00 -0.44668623649E+02 -0.35647807392E+03  0.35926632380E+03  0.00000000000E+00 0. -1.
         21    1    1    2  504  501 -0.45760605321E+02 -0.23086520302E+02 -0.89117312930E+02  0.10280523276E+03  0.00000000000E+00 0. -1.
         21    1    1    2  505  502 -0.14611487512E+02  0.11933068528E+03 -0.20127698892E+02  0.12189516922E+03  0.00000000000E+00 0.  1.
          2    1    1    2  501    0  0.60995228779E+02 -0.51575541330E+02 -0.10849534070E+04  0.10878898610E+04  0.00000000000E+00 0. -1.
<scales pt_clust_3="44.67297" pt_clust_4="52.92439" pt_clust_5="14000.00000" pt_clust_6="108.46854"></scales>
<clustering>
<clus scale="   44.673">  2  3  1 -1</clus>
<clus scale="   52.924">  1  4  2 -1</clus>
<clus scale="  108.469">  2  6  1 -1</clus>
<clus scale="   52.924">  1  3  2 -1</clus>
</clustering>
</event>
<event>
 6    0  0.4189111E+002  0.8216560E+02  0.7546771E-02  0.1323016E+00
          1   -1    0    0  504    0 -0.00000000000E+00  0.00000000000E+00  0.47207101209E+03  0.47207101209E+03  0.00000000000E+00 0.  1.
         21   -1    0    0  505  502  0.00000000000E+00 -0.00000000000E+00 -0.80445069357E+03  0.80445069357E+03  0.00000000000E+00 0.  1.
         21    1    1    2  503  502 -0.50362575189E+02 -0.33263675478E+02 -0.65890678405E+03  0.66166533169E+03  0.00000000000E+00 0.  1.
         21    1    1    2  504  503  0.43967726628E+02 -0.44659712259E+02  0.61702485224E+02  0.87947982164E+02  0.00000000000E+00 0. -1.
         21    1    1    2  505  501  0.32816462774E+02 -0.10905630218E+02 -0.12320452407E+03  0.12796565067E+03  0.00000000000E+00 0. -1.
          1    1    1    2  501    0 -0.26421614212E+02  0.88829017955E+02  0.38802914142E+03  0.39894274115E+03  0.00000000000E+00 0.  1.
<scales pt_clust_3="47.59034" pt_clust_4="82.16560" pt_clust_5="34.58111" pt_clust_6="14000.00000"></scales>
<clustering>
<clus scale="   34.581">  2  5  1 -1</clus>
<clus scale="   47.590">  2  3  1 -1</clus>
<clus scale="   82.166">  2  4  1 -1</clus>
<clus scale="   34.581">  2  3  1 -1</clus>
</clustering>
</event>
<event>
 6    0  0.4189111E+002  0.8883126E+02  0.7546771E-02  0.1305707E+00
         -1   -1    0    0    0  501 -0.00000000000E+00  0.00000000000E+00  0.44093715779E+02  0.44093715779E+02  0.00000000000E+00 0.  1.
         21   -1    0    0  503  502  0.00000000000E+00 -0.00000000000E+00 -0.48789403373E+03  0.48789403373E+03  0.00000000000E+00 0.  1.
         21    1    1    2  503  501  0.75380666619E+02  0.33927389911E+02 -0.20055877980E+03  0.21692657016E+03  0.00000000000E+00 0.  1.
         21    1    1    2  504  505  0.93265711895E+01  0.41066459719E+02 -0.32878850631E+02  0.53427126657E+02  0.00000000000E+00 0.  1.
         21    1    1    2  505  502 -0.58744952441E+02 -0.92979428921E+02 -0.20026069413E+03  0.22847426388E+03  0.00000000000E+00 0.  1.
         -1    1    1    2    0  504 -0.25962285367E+02  0.17985579291E+02 -0.10101993388E+02  0.33159788816E+02  0.00000000000E+00 0.  1.
<scales pt_clust_3="14000.00000" pt_clust_4="46.75467" pt_clust_5="88.83126" pt_clust_6="31.58356"></scales>
<clustering>
<clus scale="   31.584">  1  6  2 -1</clus>
<clus scale="   46.755">  1  4  2 -1</clus>
<clus scale="   88.831">  1  5  2 -1</clus>
<clus scale="   88.831">  2  3  1 -1</clus>
</clustering>
</event>
<event>
 6    0  0.4189111E+002  0.8059577E+02  0.7546771E-02  0.1327369E+00
         21   -1    0    0  504  502  0.00000000000E+00  0.00000000000E+00  0.44764234143E+03  0.44764234143E+03  0.00000000000E+00 0.  1.
          2   -1    0    0  505    0 -0.00000000000E+00 -0.00000000000E+00 -0.30326591388E+03  0.30326591388E+03  0.00000000000E+00 0.  1.
         21    1    1    2  503  502  0.56742543817E+02 -0.52140722288E+02  0.30466135654E+03  0.31425612702E+03  0.00000000000E+00 0.  1.
         21    1    1    2  504  501 -0.43264783067E+02  0.14134371966E+03  0.14961950507E+02  0.14857236791E+03  0.00000000000E+00 0.  1.
         21    1    1    2  505  503 -0.30717291256E+02 -0.46113896223E+02  0.39710998102E+02  0.68168957577E+02  0.00000000000E+00 0.  1.
          2    1    1    2  501    0  0.17239530506E+02 -0.43089101152E+02 -0.21495787760E+03  0.21991080281E+03  0.00000000000E+00 0.  1.
<scales pt_clust_3="80.59577" pt_clust_4="14000.00000" pt_clust_5="60.10378" pt_clust_6="46.40983"></scales>
<clustering>
<clus scale="   46.410">  2  6  1 -1</clus>
<clus scale="   60.104">  2  5  1 -1</clus>
<clus scale="   80.596">  1  3  2 -1</clus>
<clus scale="   80.596">  1  3  2 -1</clus>
</clustering>
</event>
<event>
 6    0  0.4189111E+002  0.1561984E+03  0.7546771E-02  0.1193057E+00
          2   -1    0    0  503    0 -0.00000000000E+00  0.00000000000E+00  0.21108970883E+03  0.21108970883E+03  0.00000000000E+00 0. -1.
         21   -1    0    0  505  502  0.00000000000E+00 -0.00000000000E+00 -0.23932307599E+03  0.23932307599E+03  0.00000000000E+00 0. -1.
         21    1    1    2  503  502  0.14103260131E+03  0.50732569359E+02  0.95416012093E+02  0.17767443145E+03  0.00000000000E+00 0. -1.
         21    1    1    2  504  501 -0.70477243385E+02  0.17722241394E+02 -0.56874887692E+02  0.92281485278E+02  0.00000000000E+00 0.  1.
         21    1    1    2  505  504  0.11184832290E+02 -0.76205588977E+02 -0.60809715529E+02  0.98133652573E+02  0.00000000000E+00 0. -1.
          2    1    1    2  501    0 -0.81740190216E+02  0.77507782246E+01 -0.59647760285E+01  0.82323215515E+02  0.00000000000E+00 0. -1.
<scales pt_clust_3="147.23785" pt_clust_4="49.05609" pt_clust_5="77.02202" pt_clust_6="49.05609"></scales>
<clustering>
<clus scale="   49.056">  4  6 -1 -1</clus>
<clus scale="   77.022">  2  5  1 -1</clus>
<clus scale="  147.238">  1  3  2 -1</clus>
<clus scale="   77.022">  2  3  1 -1</clus>
</clustering>
</event>
<event>
 6    0  0.4189111E+002  0.2609758E+03  0.7546771E-02  0.1106558E+00
          3   -1    0    0  504    0 -0.00000000000E+00  0.00000000000E+00  0.13629655296E+04  0.13629655296E+04  0.00000000000E+00 0. -1.
         21   -1    0    0  501  502  0.00000000000E+00 -0.00000000000E+00 -0.24254316481E+03  0.24254316481E+03  0.00000000000E+00 0. -1.
         21    1    1    2  503  505 -0.76712770314E+02  0.13736552681E+03 -0.39714510196E+02  0.16226946541E+03  0.00000000000E+00 0. -1.
         21    1    1    2  504  503 -0.75360841968E+01  0.33758318334E+02  0.37732288836E+02  0.51187325019E+02  0.00000000000E+00 0. -1.
         21    1    1    2  505  502 -0.69997993598E+02  0.46437488556E+02 -0.10587617751E+03  0.13515148691E+03  0.00000000000E+00 0. -1.
          3    1    1    2  501    0  0.15424684811E+03 -0.21756133370E+03  0.12282807636E+04  0.12569004170E+04  0.00000000000E+00 0. -1.
<scales pt_clust_3="79.63490" pt_clust_4="34.58926" pt_clust_5="79.63490" pt_clust_6="236.96707"></scales>
<clustering>
<clus scale="   34.589">  1  4  2 -1</clus>
<clus scale="   79.635">  3  5 -1 -1</clus>
<clus scale="  236.967">  1  6  2 -1</clus>
<clus scale="  260.976">  2  3  1 -1</clus>
</clustering>
</event>
<event>
 6    0  0.4189111E+002  0.7954045E+02  0.7546771E-02  0.1330361E+00
         -4   -1    0    0    0  501 -0.00000000000E+00  0.00000000000E+00  0.48180048108E+03  0.48180048108E+03  0.00000000000E+00 0. -1.
         21   -1    0    0  505  502  0.00000000000E+00 -0.00000000000E+00 -0.17397456985E+03  0.17397456985E+03  0.00000000000E+00 0.  1.
         21    1    1    2  503  501 -0.10622791336E+02  0.42580870047E+02  0.18411388367E+03  0.18927201681E+03  0.00000000000E+00 0.  1.
         21    1    1    2  504  503  0.42630587401E+02  0.73359200744E+02  0.86415503144E+02  0.12110565016E+03  0.00000000000E+00 0.  1.
         21    1    1    2  505  504  0.32202902374E+02 -0.55204682361E+02 -0.13633123823E+03  0.15056822505E+03  0.00000000000E+00 0.  1.
         -4    1    1    2    0  502 -0.64210698439E+02 -0.60735388430E+02  0.17362776264E+03  0.19482915891E+03  0.00000000000E+00 0. -1.
<scales pt_clust_3="43.88592" pt_clust_4="14000.00000" pt_clust_5="62.89513" pt_clust_6="79.54045"></scales>
<clustering>
<clus scale="   43.886">  1  3  2 -1</clus>
<clus scale="   62.895">  2  5  1 -1</clus>
<clus scale="   79.540">  1  6  2 -1</clus>
<clus scale="   62.895">  2  3  1 -1</clus>
</clustering>
</event>
<event>
 6    0  0.4189111E+002  0.1309120E+03  0.7546771E-02  0.1226109E+00
          2   -1    0    0  504    0 -0.00000000000E+00  0.00000000000E+00  0.24846132390E+04  0.24846132390E+04  0.00000000000E+00 0.  1.
         21   -1    0    0  505  502  0.00000000000E+00 -0.00000000000E+00 -0.18995854108E+02  0.18995854108E+02  0.00000000000E+00 0.  1.
         21    1    1    2  503  501  0.17288991640E+01 -0.66769141435E+02  0.69932956316E+03  0.70251188264E+03  0.00000000000E+00 0.  1.
         21    1    1    2  504  502  0.74000538464E+02  0.57152540697E+02  0.18049158372E+03  0.20327248804E+03  0.00000000000E+00 0.  1.
         21    1    1    2  505  503 -0.42772777409E+02  0.66926340169E+02  0.30019662533E+03  0.31052642296E+03  0.00000000000E+00 0.  1.
          2    1    1    2  501    0 -0.32956660219E+02 -0.57309739431E+02  0.12855996127E+04  0.12872982995E+04  0.00000000000E+00 0.  1.
<scales pt_clust_3="54.76380" pt_clust_4="118.77697" pt_clust_5="79.42698" pt_clust_6="54.76380"></scales>
<clustering>
<clus scale="   54.764">  3  6 -1 -1</clus>
<clus scale="   79.427">  2  5  1 -1</clus>
<clus scale="  118.777">  2  4  1 -1</clus>
<clus scale="   79.427">  2  3  1 -1</clus>
</clustering>
</event>
<event>
 6    0  0.4189111E+002  0.1919925E+03  0.7546771E-02  0.1156676E+00
          3   -1    0    0  504    0 -0.00000000000E+00  0.00000000000E+00  0.17263860281E+03  0.17263860281E+03  0.00000000000E+00 0.  1.
         21   -1    0    0  503  502  0.00000000000E+00 -0.00000000000E+00 -0.52508668993E+03  0.52508668993E+03  0.00000000000E+00 0.  1.
         21    1    1    2  503  505 -0.14441931924E+01  0.45356088388E+02 -0.11936762181E+03  0.12770234761E+03  0.00000000000E+00 0. -1.
         21    1    1    2  504  502 -0.13193926938E+03  0.12850335578E+03 -0.21356114023E+03  0.28200965209E+03  0.00000000000E+00 0.  1.
         21    1    1    2  505  501  0.13503470301E+03 -0.13194771062E+03 -0.87535833907E+02  0.20810355973E+03  0.00000000000E+00 0.  1.
          3    1    1    2  501    0 -0.16512404372E+01 -0.41911733549E+02  0.68016508830E+02  0.79909733309E+02  0.00000000000E+00 0.  1.
<scales pt_clust_3="43.61231" pt_clust_4="191.99248" pt_clust_5="14000.00000" pt_clust_6="41.94425"></scales>
<clustering>
<clus scale="   41.944">  1  6  2 -1</clus>
<clus scale="   43.612">  2  3  1 -1</clus>
<clus scale="  191.992">  2  4  1 -1</clus>
<clus scale="   43.612">  2  3  1 -1</clus>
</clustering>
</event>
<event>
 6    0  0.4189111E+002  0.1252546E+03  0.7546771E-02  0.1234672E+00
          1   -1    0    0  504    0 -0.00000000000E+00  0.00000000000E+00  0.66015124759E+03  0.66015124759E+03  0.00000000000E+00 0.  1.
         21   -1    0    0  501  502  0.00000000000E+00 -0.00000000000E+00 -0.46638325695E+02  0.46638325695E+02  0.00000000000E+00 0. -1.
         21    1    1    2  503  502 -0.61687544395E+02 -0.44763321151E+02  0.38901704399E+02  0.85571319139E+02  0.00000000000E+00 0. -1.
         21    1    1    2  504  505  0.34978044516E+02 -0.21337334774E+02  0.11103826826E+03  0.11835642134E+03  0.00000000000E+00 0. -1.
         21    1    1    2  505  503 -0.53245114490E+02  0.72949366188E+00  0.39252860028E+02  0.66154073181E+02  0.00000000000E+00 0. -1.
          1    1    1    2  501    0  0.79954614369E+02  0.65371162263E+02  0.42432008921E+03  0.43670775963E+03  0.00000000000E+00 0.  1.
<scales pt_clust_3="35.10572" pt_clust_4="40.97250" pt_clust_5="35.10572" pt_clust_6="118.00316"></scales>
<clustering>
<clus scale="   35.106">  3  5 -1 -1</clus>
<clus scale="   40.972">  1  4  2 -1</clus>
<clus scale="  118.003">  1  6  2 -1</clus>
<clus scale="  125.255">  2  3  1 -1</clus>
</clustering>
</event>
<event>
 6    0  0.4189111E+002  0.1885583E+03  0.7546771E-02  0.1159768E+00
          2   -1    0    0  505    0 -0.00000000000E+00  0.00000000000E+00  0.39361274358E+04  0.39361274358E+04  0.00000000000E+00 0. -1.
         21   -1    0    0  503  502  0.00000000000E+00 -0.00000000000E+00 -0.29918741362E+02  0.29918741362E+02  0.00000000000E+00 0. -1.
         21    1    1    2  503  504  0.42390559509E+02 -0.17820280236E+03  0.52779073304E+03  0.55867365803E+03  0.00000000000E+00 0. -1.
         21    1    1    2  504  501 -0.43215343526E+02  0.55098650125E+02  0.82407037955E+03  0.82704015477E+03  0.00000000000E+00 0. -1.
         21    1    1    2  505  502  0.97282089124E+02  0.55318835464E+02  0.26130267757E+03  0.28425880413E+03  0.00000000000E+00 0. -1.
          2    1    1    2  501    0 -0.96457305107E+02  0.67785316768E+02  0.22930449043E+04  0.22960735603E+04  0.00000000000E+00 0. -1.
<scales pt_clust_3="180.91873" pt_clust_4="40.94585" pt_clust_5="111.91058" pt_clust_6="40.94585"></scales>
<clustering>
<clus scale="   40.946">  4  6 -1 -1</clus>
<clus scale="  111.911">  2  5  1 -1</clus>
<clus scale="  180.919">  2  3  1 -1</clus>
<clus scale="  111.911">  2  3  1 -1</clus>
</clustering>
</event>
<event>
 6    0  0.4189111E+002  0.9270477E+02  0.7546771E-02  0.1296431E+00
          2   -1    0    0  503    0 -0.00000000000E+00  0.00000000000E+00  0.25643934648E+04  0.25643934648E+04  0.00000000000E+00 0.  1.
         21   -1    0    0  505  502  0.00000000000E+00 -0.00000000000E+00 -0.17392803623E+04  0.17392803623E+04  0.00000000000E+00 0. -1.
         21    1    1    2  503  504 -0.42225076528E+02 -0.32433443890E+02  0.82599225546E+03  0.82770652495E+03  0.00000000000E+00 0.  1.
         21    1    1    2  504  502  0.96340458181E+02  0.79611254171E+02 -0.14714476813E+04  0.14767456499E+04  0.00000000000E+00 0. -1.
         21    1    1    2  505  501 -0.47756123062E+02 -0.43710759710E+00 -0.26184567882E+03  0.26616535813E+03  0.00000000000E+00 0.  1.
          2    1    1    2  501    0 -0.63592585910E+01 -0.46740702684E+02  0.17324142072E+04  0.17330562942E+04  0.00000000000E+00 0.  1.
<scales pt_clust_3="14000.00000" pt_clust_4="92.70477" pt_clust_5="47.77590" pt_clust_6="47.17132"></scales>
<clustering>
<clus scale="   47.171">  1  6  2 -1</clus>
<clus scale="   47.776">  2  5  1 -1</clus>
<clus scale="   92.705">  2  4  1 -1</clus>
<clus scale="   47.776">  2  3  1 -1</clus>
</clustering>
</event>
<event>
 6    0  0.4189111E+002  0.2474885E+03  0.7546771E-02  0.1114902E+00
         21   -1    0    0  504  502  0.00000000000E+00  0.00000000000E+00  0.18497561936E+03  0.18497561936E+03  0.00000000000E+00 0.  1.
          1   -1    0    0  503    0 -0.00000000000E+00 -0.00000000000E+00 -0.72704082493E+03  0.72704082493E+03  0.00000000000E+00 0.  1.
         21    1    1    2  503  505  0.15063657787E+03  0.15251324351E+03 -0.41634247536E+03  0.46828701116E+03  0.00000000000E+00 0.  1.
         21    1    1    2  504  501 -0.20170381221E+03 -0.14169080948E+03 -0.43028538025E+02  0.25022423630E+03  0.00000000000E+00 0.  1.
         21    1    1    2  505  502 -0.41674969972E+02  0.14443761018E+02  0.23740488625E+02  0.50090280042E+02  0.00000000000E+00 0. -1.
          1    1    1    2  501    0  0.92742204315E+02 -0.25266195049E+02 -0.10643468082E+03  0.14341491678E+03  0.00000000000E+00 0.  1.
<scales pt_clust_3="14000.00000" pt_clust_4="247.48845" pt_clust_5="44.10698" pt_clust_6="90.62748"></scales>
<clustering>
<clus scale="   44.107">  1  5  2 -1</clus>
<clus scale="   90.627">  2  6  1 -1</clus>
<clus scale="  247.488">  1  4  2 -1</clus>
<clus scale="   44.107">  1  3  2 -1</clus>
</clustering>
</event>
<event>
 6    0  0.6724047E+002  0.2646216E+03  0.7546771E-02  0.1104398E+00
         21   -1    0    0  504  502  0.00000000000E+00  0.00000000000E+00  0.61956283495E+03  0.61956283495E+03  0.00000000000E+00 0. -1.
          2   -1    0    0  503    0 -0.00000000000E+00 -0.00000000000E+00 -0.16887496645E+04  0.16887496645E+04  0.00000000000E+00 0. -1.
         21    1    1    2  503  505 -0.33843436497E+02 -0.44190682835E+02 -0.87167599195E+02  0.10342332905E+03  0.00000000000E+00 0.  1.
         21    1    1    2  504  501 -0.55281009660E+02 -0.19123383414E+01  0.20057651278E+01  0.55350430538E+02  0.00000000000E+00 0.  1.
         21    1    1    2  505  502  0.27240936323E+03  0.15444823082E+03  0.53270988999E+03  0.61793279900E+03  0.00000000000E+00 0. -1.
          2    1    1    2  501    0 -0.18328491708E+03 -0.10834520965E+03 -0.15167348854E+04  0.15316059408E+04  0.00000000000E+00 0. -1.
<scales pt_clust_3="56.14774" pt_clust_4="55.31408" pt_clust_5="264.62157" pt_clust_6="14000.00000"></scales>
<clustering>
<clus scale="   55.314">  1  4  2 -1</clus>
<clus scale="   56.148">  2  3  1 -1</clus>
<clus scale="  264.622">  1  5  2 -1</clus>
<clus scale="   55.314">  1  3  2 -1</clus>
</clustering>
</event>
<event>
 6    0  0.4189111E+002  0.1310229E+03  0.7546771E-02  0.1225946E+00
         -1   -1    0    0    0  501 -0.00000000000E+00  0.00000000000E+00  0.43775471020E+04  0.43775471020E+04  0.00000000000E+00 0. -1.
         21   -1    0    0  503  502  0.00000000000E+00 -0.00000000000E+00 -0.10962870312E+02  0.10962870312E+02  0.00000000000E+00 0. -1.
         21    1    1    2  503  501  0.41239457326E+02 -0.13199864040E+03  0.83057843910E+03  0.84201239742E+03  0.00000000000E+00 0. -1.
         21    1    1    2  504  505 -0.19427576880E+02  0.54092733822E+02  0.11243730199E+04  0.11258410823E+04  0.00000000000E+00 0. -1.
         21    1    1    2  505  502  0.34782372377E+02  0.41427858195E+02  0.17867460139E+03  0.18668340591E+03  0.00000000000E+00 0. -1.
         -1    1    1    2    0  504 -0.56594252824E+02  0.36478048387E+02  0.22329581713E+04  0.22339730868E+04  0.00000000000E+00 0. -1.
<scales pt_clust_3="120.29493" pt_clust_4="47.97371" pt_clust_5="54.09326" pt_clust_6="47.97371"></scales>
<clustering>
<clus scale="   47.974">  4  6 -1 -1</clus>
<clus scale="   54.093">  2  5  1 -1</clus>
<clus scale="  120.295">  2  3  1 -1</clus>
<clus scale="   54.093">  2  3  1 -1</clus>
</clustering>
</event>
<event>
 6    0  0.4189111E+002  0.1434787E+03  0.7546771E-02  0.1208723E+00
          2   -1    0    0  503    0 -0.00000000000E+00  0.00000000000E+00  0.70129386252E+03  0.70129386252E+03  0.00000000000E+00 0. -1.
         21   -1    0    0  505  502  0.00000000000E+00 -0.00000000000E+00 -0.81663162340E+03  0.81663162340E+03  0.00000000000E+00 0. -1.
         21    1    1    2  503  504  0.34946661483E+02  0.68078420970E+01  0.40183668904E+01  0.35829640458E+02  0.00000000000E+00 0. -1.
         21    1    1    2  504  502  0.77310894369E+02 -0.54069877133E+02 -0.76159701340E+03  0.76741809780E+03  0.00000000000E+00 0. -1.
         21    1    1    2  505  501  0.97206961614E+02  0.30945632325E+02  0.17923264089E+03  0.20623085392E+03  0.00000000000E+00 0. -1.
          2    1    1    2  501    0 -0.20946451747E+03  0.16316402710E+02  0.46300824474E+03  0.50844689375E+03  0.00000000000E+00 0. -1.
<scales pt_clust_3="35.60359" pt_clust_4="94.44832" pt_clust_5="143.47873" pt_clust_6="14000.00000"></scales>
<clustering>
<clus scale="   35.604">  1  3  2 -1</clus>
<clus scale="   94.448">  2  4  1 -1</clus>
<clus scale="  143.479">  2  5  1 -1</clus>
<clus scale="   94.448">  2  3  1 -1</clus>
</clustering>
</event>
<event>
 6    0  0.4189111E+002  0.1469858E+03  0.7546771E-02  0.1204227E+00
         -3   -1    0    0    0  501 -0.00000000000E+00  0.00000000000E+00  0.91004325185E+02  0.91004325185E+02  0.00000000000E+00 0. -1.
         21   -1    0    0  504  502  0.00000000000E+00 -0.00000000000E+00 -0.92439420766E+03  0.92439420766E+03  0.00000000000E+00 0. -1.
         21    1    1    2  503  501 -0.13054551214E+03 -0.86093398301E+02 -0.22073808089E+02  0.15792864520E+03  0.00000000000E+00 0. -1.
         21    1    1    2  504  503  0.75647646746E+02  0.31683829887E+01 -0.50734050813E+03  0.51295905909E+03  0.00000000000E+00 0. -1.
         21    1    1    2  505  502 -0.23850138230E+02 -0.18199215877E+02 -0.92328662137E+02  0.97080494457E+02  0.00000000000E+00 0. -1.
         -3    1    1    2    0  505  0.78748003627E+02  0.10112423119E+03 -0.21164690411E+03  0.24743033409E+03  0.00000000000E+00 0. -1.
<scales pt_clust_3="146.98578" pt_clust_4="61.50828" pt_clust_5="30.00068" pt_clust_6="14000.00000"></scales>
<clustering>
<clus scale="   30.001">  2  5  1 -1</clus>
<clus scale="   61.508">  2  4  1 -1</clus>
<clus scale="  146.986">  1  3  2 -1</clus>
<clus scale="   30.001">  2  3  1 -1</clus>
</clustering>
</event>
<event>
 6    0  0.4189111E+002  0.1335980E+03  0.7546771E-02  0.1222213E+00
         -3   -1    0    0    0  501 -0.00000000000E+00  0.00000000000E+00  0.42703592487E+03  0.42703592487E+03  0.00000000000E+00 0. -1.
         21   -1    0    0  503  502  0.00000000000E+00 -0.00000000000E+00 -0.85730781447E+03  0.85730781447E+03  0.00000000000E+00 0. -1.
         21    1    1    2  503  504  0.54434721369E+02  0.77632347586E+02 -0.75699419438E+03  0.76290899235E+03  0.00000000000E+00 0. -1.
         21    1    1    2  504  501  0.22734968738E+02 -0.23630721892E+02  0.31449672136E+02  0.45435357357E+02  0.00000000000E+00 0.  1.
         21    1    1    2  505  502 -0.66226599998E+01  0.48658332624E+02 -0.72578404340E+02  0.87630575347E+02  0.00000000000E+00 0. -1.
         -3    1    1    2    0  505 -0.70547030108E+02 -0.10265995832E+03  0.36785103698E+03  0.38836881428E+03  0.00000000000E+00 0. -1.
<scales pt_clust_3="133.59800" pt_clust_4="32.79161" pt_clust_5="48.59553" pt_clust_6="14000.00000"></scales>
<clustering>
<clus scale="   32.792">  1  4  2 -1</clus>
<clus scale="   48.596">  2  5  1 -1</clus>
<clus scale="  133.598">  2  3  1 -1</clus>
<clus scale="   48.596">  2  3  1 -1</clus>
</clustering>
</event>
<event>
 6    0  0.4189111E+002  0.1526074E+03  0.7546771E-02  0.1197305E+00
         -1   -1    0    0    0  501 -0.00000000000E+00  0.00000000000E+00  0.63940310952E+03  0.63940310952E+03  0.00000000000E+00 0. -1.
         21   -1    0    0  504  502  0.00000000000E+00 -0.00000000000E+00 -0.17805598242E+04  0.17805598242E+04  0.00000000000E+00 0. -1.
         21    1    1    2  503  505  0.28195532961E+02  0.68481885761E+02 -0.11745660893E+03  0.13885536266E+03  0.00000000000E+00 0.  1.
         21    1    1    2  504  501 -0.83741128219E+01 -0.15333179813E+03  0.30429068008E+03  0.34084246224E+03  0.00000000000E+00 0.  1.
         21    1    1    2  505  502 -0.27207239844E+01 -0.66889159176E+02 -0.16143495305E+04  0.16157369739E+04  0.00000000000E+00 0. -1.
         -1    1    1    2    0  503 -0.17100696155E+02  0.15173907155E+03  0.28635874476E+03  0.32452813491E+03  0.00000000000E+00 0. -1.
<scales pt_clust_3="30.97132" pt_clust_4="152.60743" pt_clust_5="66.94447" pt_clust_6="14000.00000"></scales>
<clustering>
<clus scale="   66.944">  2  5  1 -1</clus>
<clus scale="   30.971">  2  3  1 -1</clus>
<clus scale="  152.607">  1  4  2 -1</clus>
<clus scale="   66.944">  2  3  1 -1</clus>
</clustering>
</event>
<event>
 6    0  0.4189111E+002  0.1283156E+03  0.7546771E-02  0.1229977E+00
         21   -1    0    0  505  502  0.00000000000E+00  0.00000000000E+00  0.67152593475E+03  0.67152593475E+03  0.00000000000E+00 0.  1.
          2   -1    0    0  504    0 -0.00000000000E+00 -0.00000000000E+00 -0.10614758540E+04  0.10614758540E+04  0.00000000000E+00 0. -1.
         21    1    1    2  503  501  0.84110114105E+00  0.97941392224E+02  0.12862646275E+03  0.16167247966E+03  0.00000000000E+00 0. -1.
         21    1    1    2  504  502 -0.34597305655E+02 -0.29932797911E+02 -0.12352865904E+03  0.13172803632E+03  0.00000000000E+00 0. -1.
         21    1    1    2  505  503  0.31895542224E+02  0.29067855599E+02  0.51880919731E+03  0.52060085387E+03  0.00000000000E+00 0.  1.
          2    1    1    2  501    0  0.18606622903E+01 -0.97076449912E+02 -0.91385692028E+03  0.91900041890E+03  0.00000000000E+00 0. -1.
<scales pt_clust_3="14000.00000" pt_clust_4="44.58382" pt_clust_5="43.15398" pt_clust_6="128.31564"></scales>
<clustering>
<clus scale="   43.154">  1  5  2 -1</clus>
<clus scale="   44.584">  2  4  1 -1</clus>
<clus scale="  128.316">  2  6  1 -1</clus>
<clus scale="   43.154">  1  3  2 -1</clus>
</clustering>
</event>
<event>
 6    0  0.4189111E+002  0.1232932E+03  0.7546771E-02  0.1237761E+00
          2   -1    0    0  504    0 -0.00000000000E+00  0.00000000000E+00  0.25994729092E+04  0.25994729092E+04  0.00000000000E+00 0.  1.
         21   -1    0    0  503  502  0.00000000000E+00 -0.00000000000E+00 -0.12276019716E+03  0.12276019716E+03  0.00000000000E+00 0.  1.
         21    1    1    2  503  501 -0.41266460583E+02  0.15223812624E+02 -0.10399978922E+03  0.11291873803E+03  0.00000000000E+00 0.  1.
         21    1    1    2  504  505 -0.78287279460E+02 -0.34041829287E+02  0.46031730994E+03  0.46816639146E+03  0.00000000000E+00 0. -1.
         21    1    1    2  505  502 -0.31437572743E+02  0.29121721245E+01  0.25032141573E+02  0.40291560384E+02  0.00000000000E+00 0. -1.
          2    1    1    2  501    0  0.15099131279E+03  0.15905844538E+02  0.20953630497E+04  0.21008564165E+04  0.00000000000E+00 0.  1.
<scales pt_clust_3="73.12410" pt_clust_4="14000.00000" pt_clust_5="31.57217" pt_clust_6="123.29321"></scales>
<clustering>
<clus scale="   31.572">  2  5  1 -1</clus>
<clus scale="   73.124">  2  3  1 -1</clus>
<clus scale="  123.293">  1  6  2 -1</clus>
<clus scale="   31.572">  2  3  1 -1</clus>
</clustering>
</event>
<event>
 6    0  0.4189111E+002  0.8528221E+02  0.7546771E-02  0.1314696E+00
          1   -1    0    0  503    0 -0.00000000000E+00  0.00000000000E+00  0.40978236128E+03  0.40978236128E+03  0.00000000000E+00 0. -1.
         21   -1    0    0  504  502  0.00000000000E+00 -0.00000000000E+00 -0.50333635906E+03  0.50333635906E+03  0.00000000000E+00 0.  1.
         21    1    1    2  503  502 -0.63771141185E+02  0.67226030514E+01 -0.31764321058E+03  0.32405117045E+03  0.00000000000E+00 0.  1.
         21    1    1    2  504  505  0.14474030784E+03  0.28002708246E+02 -0.14363157408E+03  0.20582501660E+03  0.00000000000E+00 0. -1.
         21    1    1    2  505  501 -0.52264834159E+02  0.42123115471E+01  0.12176508230E+03  0.13257485329E+03  0.00000000000E+00 0. -1.
          1    1    1    2  501    0 -0.28704332497E+02 -0.38937622844E+02  0.24595570458E+03  0.25066767999E+03  0.00000000000E+00 0. -1.
<scales pt_clust_3="64.61524" pt_clust_4="85.28221" pt_clust_5="14000.00000" pt_clust_6="48.37434"></scales>
<clustering>
<clus scale="   48.374">  1  6  2 -1</clus>
<clus scale="   64.615">  2  3  1 -1</clus>
<clus scale="   85.282">  2  4  1 -1</clus>
<clus scale="   64.615">  2  3  1 -1</clus>
</clustering>
</event>
<event>
 6    0  0.4189111E+002  0.1297694E+03  0.7546771E-02  0.1227798E+00
          2   -1    0    0  504    0 -0.00000000000E+00  0.00000000000E+00  0.31490241462E+04  0.31490241462E+04  0.00000000000E+00 0.  1.
         21   -1    0    0  503  502  0.00000000000E+00 -0.00000000000E+00 -0.16725430995E+03  0.16725430995E+03  0.00000000000E+00 0. -1.
         21    1    1    2  503  505  0.39694912117E+02 -0.16041949501E+02 -0.12413277615E+03  0.13130870614E+03  0.00000000000E+00 0. -1.
         21    1    1    2  504  502  0.37041019858E+02 -0.30563336774E+01  0.10372331258E+03  0.11018123207E+03  0.00000000000E+00 0.  1.
         21    1    1    2  505  501  0.91458769524E+02 -0.11584392350E+02  0.28922233786E+02  0.96619875160E+02  0.00000000000E+00 0.  1.
          2    1    1    2  501    0 -0.16819470150E+03  0.30682675528E+02  0.29732570660E+04  0.29781686428E+04  0.00000000000E+00 0.  1.
<scales pt_clust_3="42.85576" pt_clust_4="37.16690" pt_clust_5="129.76945" pt_clust_6="14000.00000"></scales>
<clustering>
<clus scale="   37.167">  1  4  2 -1</clus>
<clus scale="   42.856">  2  3  1 -1</clus>
<clus scale="  129.769">  2  5  1 -1</clus>
<clus scale="   42.856">  2  3  1 -1</clus>
</clustering>
</event>
<event>
 6    0  0.4189111E+002  0.1115113E+03  0.7546771E-02  0.1257797E+00
          4   -1    0    0  504    0 -0.00000000000E+00  0.00000000000E+00  0.33899365111E+03  0.33899365111E+03  0.00000000000E+00 0.  1.
         21   -1    0    0  503  502  0.00000000000E+00 -0.00000000000E+00 -0.35306394660E+03  0.35306394660E+03  0.00000000000E+00 0.  1.
         21    1    1    2  503  501  0.48779631730E+02  0.15719075952E+01 -0.12706782141E+02  0.50431990617E+02  0.00000000000E+00 0. -1.
         21    1    1    2  504  505 -0.77045724722E+02  0.81814871941E+01 -0.18408985472E+01  0.77500769919E+02  0.00000000000E+00 0.  1.
         21    1    1    2  505  502 -0.81069596996E+02  0.52644619909E+02 -0.25860331760E+03  0.27607863271E+03  0.00000000000E+00 0.  1.
          4    1    1    2  501    0  0.10933568999E+03 -0.62398014698E+02  0.25908070280E+03  0.28804620446E+03  0.00000000000E+00 0.  1.
<scales pt_clust_3="48.80495" pt_clust_4="111.51131" pt_clust_5="67.46535" pt_clust_6="14000.00000"></scales>
<clustering>
<clus scale="   48.805">  2  3  1 -1</clus>
<clus scale="   67.465">  2  5  1 -1</clus>
<clus scale="  111.511">  2  4  1 -1</clus>
<clus scale="   48.805">  2  3  1 -1</clus>
</clustering>
</event>
<event>
 6    0  0.4189111E+002  0.7783728E+02  0.7546771E-02  0.1335303E+00
         21   -1    0    0  503  502  0.00000000000E+00  0.00000000000E+00  0.94697858932E+02  0.94697858932E+02  0.00000000000E+00 0. -1.
          2   -1    0    0  505    0 -0.00000000000E+00 -0.00000000000E+00 -0.58879283424E+03  0.58879283424E+03  0.00000000000E+00 0.  1.
         21    1    1    2  503  504  0.71761024496E+02 -0.71408769713E+01  0.31897794160E+02  0.78854968347E+02  0.00000000000E+00 0. -1.
         21    1    1    2  504  501 -0.87980759470E+02  0.70226544905E+02 -0.53532001479E+02  0.12465174218E+03  0.00000000000E+00 0. -1.
         21    1    1    2  505  502  0.19064745517E+02 -0.28025065524E+02 -0.94590759668E+02  0.10048024997E+03  0.00000000000E+00 0. -1.
          2    1    1    2  501    0 -0.28450105436E+01 -0.35060602410E+02 -0.37787000832E+03  0.37950373267E+03  0.00000000000E+00 0.  1.
<scales pt_clust_3="77.83728" pt_clust_4="14000.00000" pt_clust_5="33.89497" pt_clust_6="57.88984"></scales>
<clustering>
<clus scale="   33.895">  2  5  1 -1</clus>
<clus scale="   57.890">  2  6  1 -1</clus>
<clus scale="   77.837">  1  3  2 -1</clus>
<clus scale="   77.837">  1  3  2 -1</clus>
</clustering>
</event>
<event>
 6    0  0.4189111E+002  0.1884402E+03  0.7546771E-02  0.1159876E+00
          2   -1    0    0  504    0 -0.00000000000E+00  0.00000000000E+00  0.69112972176E+02  0.69112972176E+02  0.00000000000E+00 0.  1.
         21   -1    0    0  505  502  0.00000000000E+00 -0.00000000000E+00 -0.90178887478E+03  0.90178887478E+03  0.00000000000E+00 0.  1.
         21    1    1    2  503  502  0.44267654967E+02  0.20277513924E+02 -0.15758807599E+03  0.16493879029E+03  0.00000000000E+00 0.  1.
         21    1    1    2  504  503  0.13742855669E+03  0.59687446164E+02 -0.20594484554E+03  0.25468113167E+03  0.00000000000E+00 0.  1.
         21    1    1    2  505  501 -0.16261752990E+03 -0.33740743970E+02 -0.47281983072E+03  0.50114019112E+03  0.00000000000E+00 0.  1.
          2    1    1    2  501    0 -0.19078681755E+02 -0.46224216118E+02  0.36768496435E+01  0.50141733881E+02  0.00000000000E+00 0.  1.
<scales pt_clust_3="38.31231" pt_clust_4="38.31231" pt_clust_5="176.04803" pt_clust_6="50.00674"></scales>
<clustering>
<clus scale="   38.312">  3  4 -1 -1</clus>
<clus scale="   50.007">  1  6  2 -1</clus>
<clus scale="  176.048">  2  5  1 -1</clus>
<clus scale="  176.048">  2  3  1 -1</clus>
</clustering>
</event>
<event>
 6    0  0.4189111E+002  0.1643109E+03  0.7546771E-02  0.1183914E+00
         21   -1    0    0  503  502  0.00000000000E+00  0.00000000000E+00  0.18347201331E+03  0.18347201331E+03  0.00000000000E+00 0. -1.
          1   -1    0    0  504    0 -0.00000000000E+00 -0.00000000000E+00 -0.75901707897E+03  0.75901707897E+03  0.00000000000E+00 0. -1.
         21    1    1    2  503  505  0.13710509465E+02 -0.35511271014E+02  0.62339138352E+02  0.73042430199E+02  0.00000000000E+00 0. -1.
         21    1    1    2  504  502 -0.12774942552E+03 -0.76236206248E+02  0.53829781679E+02  0.15820720672E+03  0.00000000000E+00 0. -1.
         21    1    1    2  505  501  0.29442229613E+02  0.58662130377E+02 -0.27402319171E+03  0.28177437787E+03  0.00000000000E+00 0.  1.
          1    1    1    2  501    0  0.84596686441E+02  0.53085346885E+02 -0.41769079398E+03  0.42946507749E+03  0.00000000000E+00 0. -1.
<scales pt_clust_3="38.06611" pt_clust_4="158.42075" pt_clust_5="35.34535" pt_clust_6="35.34535"></scales>
<clustering>
<clus scale="   35.345">  5  6 -1 -1</clus>
<clus scale="   38.066">  1  3  2 -1</clus>
<clus scale="  158.421">  1  4  2 -1</clus>
<clus scale="   38.066">  1  3  2 -1</clus>
</clustering>
</event>
<event>
 6    0  0.4189111E+002  0.7488692E+02  0.7546771E-02  0.1344222E+00
         21   -1    0    0  501  502  0.00000000000E+00  0.00000000000E+00  0.49036984351E+03  0.49036984351E+03  0.00000000000E+00 0. -1.
          1   -1    0    0  504    0 -0.00000000000E+00 -0.00000000000E+00 -0.15850729219E+04  0.15850729219E+04  0.00000000000E+00 0.  1.
         21    1    1    2  503  505 -0.19290939114E+02  0.39375665573E+02  0.11052992145E+02  0.45218934161E+02  0.00000000000E+00 0.  1.
         21    1    1    2  504  503 -0.43517048030E+02  0.26949685059E+02 -0.42094224750E+03  0.42404291613E+03  0.00000000000E+00 0.  1.
         21    1    1    2  505  502  0.56889325021E+01  0.37489989465E+02  0.45683170972E+03  0.45840274243E+03  0.00000000000E+00 0. -1.
          1    1    1    2  501    0  0.57119054642E+02 -0.10381534010E+03 -0.11416455327E+04  0.11477781727E+04  0.00000000000E+00 0.  1.
<scales pt_clust_3="74.88692" pt_clust_4="51.91775" pt_clust_5="37.91917" pt_clust_6="14000.00000"></scales>
<clustering>
<clus scale="   37.919">  1  5  2 -1</clus>
<clus scale="   51.918">  2  4  1 -1</clus>
<clus scale="   74.887">  1  3  2 -1</clus>
<clus scale="   37.919">  1  3  2 -1</clus>
</clustering>
</event>
<event>
 6    0  0.4189111E+002  0.8517498E+02  0.7546771E-02  0.1314976E+00
          2   -1    0    0  503    0 -0.00000000000E+00  0.00000000000E+00  0.51373050877E+03  0.51373050877E+03  0.00000000000E+00 0. -1.
         21   -1    0    0  501  502  0.00000000000E+00 -0.00000000000E+00 -0.27637998480E+03  0.27637998480E+03  0.00000000000E+00 0.  1.
         21    1    1    2  503  504  0.27646860327E+02 -0.20268392579E+02  0.19971009054E+03  0.20263088829E+03  0.00000000000E+00 0. -1.
         21    1    1    2  504  505 -0.40106085025E+02  0.91290240943E+02 -0.12720099264E+03  0.16162456087E+03  0.00000000000E+00 0.  1.
         21    1    1    2  505  502  0.55360900821E+02 -0.54688961598E+02 -0.11688113898E+03  0.14041692387E+03  0.00000000000E+00 0.  1.
          2    1    1    2  501    0 -0.42901676123E+02 -0.16332886765E+02  0.28172256505E+03  0.28543812054E+03  0.00000000000E+00 0. -1.
<scales pt_clust_3="34.28056" pt_clust_4="85.17498" pt_clust_5="14000.00000" pt_clust_6="39.02701"></scales>
<clustering>
<clus scale="   34.281">  1  3  2 -1</clus>
<clus scale="   39.027">  1  6  2 -1</clus>
<clus scale="   85.175">  1  4  2 -1</clus>
<clus scale="   85.175">  2  3  1 -1</clus>
</clustering>
</event>
<event>
 6    0  0.4189111E+002  0.7566992E+02  0.7546771E-02  0.1341809E+00
          2   -1    0    0  504    0 -0.00000000000E+00  0.00000000000E+00  0.78041844854E+03  0.78041844854E+03  0.00000000000E+00 0. -1.
         21   -1    0    0  505  502  0.00000000000E+00 -0.00000000000E+00 -0.10245233470E+04  0.10245233470E+04  0.00000000000E+00 0. -1.
         21    1    1    2  503  502  0.18531153189E+02 -0.62381511777E+02  0.50684093576E+01  0.65272853649E+02  0.00000000000E+00 0. -1.
         21    1    1    2  504  503 -0.68534204977E+02  0.22214523238E+02  0.46473144980E+03  0.47028262005E+03  0.00000000000E+00 0. -1.
         21    1    1    2  505  501  0.19964607671E+02  0.73858869193E+02 -0.98832326694E+03  0.99128028231E+03  0.00000000000E+00 0. -1.
          2    1    1    2  501    0  0.30038444117E+02 -0.33691880654E+02  0.27441850934E+03  0.27810603952E+03  0.00000000000E+00 0. -1.
<scales pt_clust_3="75.66992" pt_clust_4="41.66916" pt_clust_5="14000.00000" pt_clust_6="45.13813"></scales>
<clustering>
<clus scale="   45.138">  1  6  2 -1</clus>
<clus scale="   41.669">  1  4  2 -1</clus>
<clus scale="   75.670">  1  3  2 -1</clus>
<clus scale="   75.670">  2  3  1 -1</clus>
</clustering>
</event>
<event>
 6    0  0.4189111E+002  0.9719734E+02  0.7546771E-02  0.1286302E+00
          2   -1    0    0  505    0 -0.00000000000E+00  0.00000000000E+00  0.91905295250E+03  0.91905295250E+03  0.00000000000E+00 0.  1.
         21   -1    0    0  504  502  0.00000000000E+00 -0.00000000000E+00 -0.13696777581E+04  0.13696777581E+04  0.00000000000E+00 0. -1.
         21    1    1    2  503  502  0.28253543742E+02  0.39174156162E+02 -0.24213995964E+03  0.24691018063E+03  0.00000000000E+00 0.  1.
         21    1    1    2  504  501 -0.32001679339E+02  0.34506170457E+01 -0.11127123253E+04  0.11131777635E+04  0.00000000000E+00 0. -1.
         21    1    1    2  505  503 -0.13969107860E+02 -0.10994646125E+03  0.76494687437E+03  0.77293407282E+03  0.00000000000E+00 0.  1.
          2    1    1    2  501    0  0.17717243457E+02  0.67321688046E+02  0.13928060491E+03  0.15570869372E+03  0.00000000000E+00 0.  1.
<scales pt_clust_3="42.51903" pt_clust_4="32.18718" pt_clust_5="14000.00000" pt_clust_6="97.19734"></scales>
<clustering>
<clus scale="   32.187">  2  4  1 -1</clus>
<clus scale="   42.519">  2  3  1 -1</clus>
<clus scale="   97.197">  2  6  1 -1</clus>
<clus scale="   32.187">  2  3  1 -1</clus>
</clustering>
</event>
<event>
 6    0  0.4189111E+002  0.3157485E+03  0.7546771E-02  0.1077623E+00
          2   -1    0    0  502    0 -0.00000000000E+00  0.00000000000E+00  0.25981340688E+04  0.25981340688E+04  0.00000000000E+00 0. -1.
         21   -1    0    0  503  502  0.00000000000E+00 -0.00000000000E+00 -0.64083454241E+03  0.64083454241E+03  0.00000000000E+00 0.  1.
         21    1    1    2  503  504 -0.30881547585E+03 -0.51585776231E+02 -0.52842262160E+03  0.61421377178E+03  0.00000000000E+00 0.  1.
         21    1    1    2  504  505  0.35979368266E+03 -0.62369150887E+02  0.42883723324E+03  0.56324308933E+03  0.00000000000E+00 0. -1.
         21    1    1    2  505  501 -0.38451516328E+02  0.28319455492E+02  0.51858556173E+03  0.52077969958E+03  0.00000000000E+00 0. -1.
          2    1    1    2  501    0 -0.12526690489E+02  0.85635471625E+02  0.15382993531E+04  0.15407320506E+04  0.00000000000E+00 0. -1.
<scales pt_clust_3="14000.00000" pt_clust_4="315.74847" pt_clust_5="43.76100" pt_clust_6="138.04037"></scales>
<clustering>
<clus scale="   43.761">  5  6 -1 -1</clus>
<clus scale="  138.040">  1  5  2 -1</clus>
<clus scale="  315.748">  1  4  2 -1</clus>
<clus scale="  315.748">  2  3  1 -1</clus>
</clustering>
</event>
<event>
 6    0  0.4189111E+002  0.8936863E+02  0.7546771E-02  0.1304388E+00
         21   -1    0    0  501  502  0.00000000000E+00  0.00000000000E+00  0.19145119704E+03  0.19145119704E+03  0.00000000000E+00 0.  1.
          1   -1    0    0  503    0 -0.00000000000E+00 -0.00000000000E+00 -0.41026782453E+03  0.41026782453E+03  0.00000000000E+00 0.  1.
         21    1    1    2  503  504  0.33369583285E+02  0.34812265474E+02 -0.41083061785E+02  0.63350145080E+02  0.00000000000E+00 0.  1.
         21    1    1    2  504  505 -0.13081144643E+03  0.79548102088E+01 -0.13545666290E+03  0.18847657957E+03  0.00000000000E+00 0.  1.
         21    1    1    2  505  502  0.42133080554E+02 -0.32304803532E+02  0.14496017342E+03  0.15437696942E+03  0.00000000000E+00 0.  1.
          1    1    1    2  501    0  0.55308782596E+02 -0.10462272150E+02 -0.18723707623E+03  0.19551532750E+03  0.00000000000E+00 0.  1.
<scales pt_clust_3="48.22264" pt_clust_4="89.36863" pt_clust_5="53.16577" pt_clust_6="14000.00000"></scales>
<clustering>
<clus scale="   48.223">  2  3  1 -1</clus>
<clus scale="   53.166">  1  5  2 -1</clus>
<clus scale="   89.369">  1  4  2 -1</clus>
<clus scale="   53.166">  1  3  2 -1</clus>
</clustering>
</event>
<event>
 6    0  0.4189111E+002  0.1647965E+03  0.7546771E-02  0.1183386E+00
          2   -1    0    0  503    0 -0.00000000000E+00  0.00000000000E+00  0.36862767522E+03  0.36862767522E+03  0.00000000000E+00 0. -1.
         21   -1    0    0  505  502  0.00000000000E+00 -0.00000000000E+00 -0.76733152459E+03  0.76733152459E+03  0.00000000000E+00 0.  1.
         21    1    1    2  503  504 -0.41480717130E+01 -0.67787851436E+02  0.49334151237E+01  0.68093596513E+02  0.00000000000E+00 0. -1.
         21    1    1    2  504  502 -0.12313967817E+03  0.63313165521E+02 -0.12407073139E+03  0.18591794872E+03  0.00000000000E+00 0.  1.
         21    1    1    2  505  501  0.22115724685E+03  0.77298743027E+02 -0.54386307522E+03  0.59217621372E+03  0.00000000000E+00 0.  1.
          2    1    1    2  501    0 -0.93869496968E+02 -0.72824057112E+02  0.26429654213E+03  0.28977144086E+03  0.00000000000E+00 0. -1.
<scales pt_clust_3="67.91465" pt_clust_4="136.04339" pt_clust_5="164.79648" pt_clust_6="14000.00000"></scales>
<clustering>
<clus scale="   67.915">  1  3  2 -1</clus>
<clus scale="  136.043">  2  4  1 -1</clus>
<clus scale="  164.796">  2  5  1 -1</clus>
<clus scale="  136.043">  2  3  1 -1</clus>
</clustering>
</event>
<event>
 6    0  0.4189111E+002  0.8830581E+02  0.7546771E-02  0.1307007E+00
         21   -1    0    0  504  502  0.00000000000E+00  0.00000000000E+00  0.93159232557E+02  0.93159232557E+02  0.00000000000E+00 0.  1.
          2   -1    0    0  505    0 -0.00000000000E+00 -0.00000000000E+00 -0.16449920043E+04  0.16449920043E+04  0.00000000000E+00 0.  1.
         21    1    1    2  503  501  0.66587396562E+01  0.60780938594E+02 -0.65010943269E+03  0.65297851097E+03  0.00000000000E+00 0.  1.
         21    1    1    2  504  503 -0.42454091134E+02 -0.78754426190E+02  0.59292075722E+02  0.10733200707E+03  0.00000000000E+00 0.  1.
         21    1    1    2  505  502  0.81773321761E+02 -0.11625350506E+02 -0.22303804828E+03  0.23784027394E+03  0.00000000000E+00 0.  1.
          2    1    1    2  501    0 -0.45977970283E+02  0.29598838102E+02 -0.73797736651E+03  0.74000044490E+03  0.00000000000E+00 0.  1.
<scales pt_clust_3="14000.00000" pt_clust_4="88.30581" pt_clust_5="70.19862" pt_clust_6="54.68149"></scales>
<clustering>
<clus scale="   54.681">  2  6  1 -1</clus>
<clus scale="   70.199">  2  5  1 -1</clus>
<clus scale="   88.306">  1  4  2 -1</clus>
<clus scale="   88.306">  1  3  2 -1</clus>
</clustering>
</event>
<event>
 6    0  0.4189111E+002  0.1559416E+03  0.7546771E-02  0.1193356E+00
          2   -1    0    0  503    0 -0.00000000000E+00  0.00000000000E+00  0.16436452012E+04  0.16436452012E+04  0.00000000000E+00 0.  1.
         21   -1    0    0  505  502  0.00000000000E+00 -0.00000000000E+00 -0.96149066550E+03  0.96149066550E+03  0.00000000000E+00 0.  1.
         21    1    1    2  503  504  0.84125031617E+02  0.17312779782E+03  0.74019796376E+03  0.76481584769E+03  0.00000000000E+00 0. -1.
         21    1    1    2  504  502 -0.55420725461E+01 -0.37085771073E+02 -0.89529710865E+03  0.89608201731E+03  0.00000000000E+00 0.  1.
         21    1    1    2  505  501 -0.30231952931E+02 -0.48439566711E+01 -0.43089668736E+02  0.52859762070E+02  0.00000000000E+00 0.  1.
          2    1    1    2  501    0 -0.48351006139E+02 -0.13119807008E+03  0.88034334931E+03  0.89137823962E+03  0.00000000000E+00 0.  1.
<scales pt_clust_3="155.94162" pt_clust_4="54.66355" pt_clust_5="30.61756" pt_clust_6="14000.00000"></scales>
<clustering>
<clus scale="   30.618">  2  5  1 -1</clus>
<clus scale="   54.664">  2  4  1 -1</clus>
<clus scale="  155.942">  2  3  1 -1</clus>
<clus scale="   30.618">  2  3  1 -1</clus>
</clustering>
</event>
<event>
 6    0  0.4189111E+002  0.1139132E+03  0.7546771E-02  0.1253490E+00
          2   -1    0    0  504    0 -0.00000000000E+00  0.00000000000E+00  0.24083060788E+04  0.24083060788E+04  0.00000000000E+00 0.  1.
         21   -1    0    0  505  502  0.00000000000E+00 -0.00000000000E+00 -0.82178171930E+02  0.82178171930E+02  0.00000000000E+00 0.  1.
         21    1    1    2  503  502  0.70630113660E+02 -0.16853933625E+02  0.96839419679E+02  0.12103942018E+03  0.00000000000E+00 0. -1.
         21    1    1    2  504  503 -0.47330395937E+02  0.27938533468E+02  0.54183412526E+03  0.54461449423E+03  0.00000000000E+00 0.  1.
         21    1    1    2  505  501  0.37044788195E+01 -0.77584862391E+02 -0.45746726910E+02  0.90143757735E+02  0.00000000000E+00 0.  1.
          2    1    1    2  501    0 -0.27004196542E+02  0.66500262548E+02  0.17332010888E+04  0.17346865786E+04  0.00000000000E+00 0.  1.
<scales pt_clust_3="69.55173" pt_clust_4="54.96115" pt_clust_5="14000.00000" pt_clust_6="113.91322"></scales>
<clustering>
<clus scale="   54.961">  1  4  2 -1</clus>
<clus scale="   69.552">  2  3  1 -1</clus>
<clus scale="  113.913">  1  6  2 -1</clus>
<clus scale="   69.552">  2  3  1 -1</clus>
</clustering>
</event>
<event>
 6    0  0.4189111E+002  0.9040022E+02  0.7546771E-02  0.1301885E+00
         -1   -1    0    0    0  501 -0.00000000000E+00  0.00000000000E+00  0.25821626008E+04  0.25821626008E+04  0.00000000000E+00 0. -1.
         21   -1    0    0  504  502  0.00000000000E+00 -0.00000000000E+00 -0.78851502445E+02  0.78851502445E+02  0.00000000000E+00 0. -1.
         21    1    1    2  503  505  0.22756338891E+01 -0.73192905817E+02  0.30084257374E+01  0.73290044324E+02  0.00000000000E+00 0. -1.
         21    1    1    2  504  501 -0.39517495289E+02 -0.26260269598E+01  0.15339121072E+03  0.15842156412E+03  0.00000000000E+00 0. -1.
         21    1    1    2  505  502 -0.35119110982E+02 -0.13061795490E+02 -0.30999810587E+02  0.48630758928E+02  0.00000000000E+00 0. -1.
         -1    1    1    2    0  503  0.72360972381E+02  0.88880728267E+02  0.23779112725E+04  0.23806717359E+04  0.00000000000E+00 0. -1.
<scales pt_clust_3="90.40022" pt_clust_4="41.92394" pt_clust_5="37.46949" pt_clust_6="14000.00000"></scales>
<clustering>
<clus scale="   37.469">  2  5  1 -1</clus>
<clus scale="   41.924">  1  4  2 -1</clus>
<clus scale="   90.400">  2  3  1 -1</clus>
<clus scale="   37.469">  2  3  1 -1</clus>
</clustering>
</event>
<event>
 6    0  0.4189111E+002  0.1397070E+03  0.7546771E-02  0.1213724E+00
          1   -1    0    0  503    0 -0.00000000000E+00  0.00000000000E+00  0.23438128936E+04  0.23438128936E+04  0.00000000000E+00 0.  1.
         21   -1    0    0  504  502  0.00000000000E+00 -0.00000000000E+00 -0.19740301095E+03  0.19740301095E+03  0.00000000000E+00 0. -1.
         21    1    1    2  503  502 -0.36053547500E+01 -0.82557007540E+02 -0.14678702132E+03  0.16844906561E+03  0.00000000000E+00 0. -1.
         21    1    1    2  504  505 -0.34102650835E+02 -0.10696210256E+02 -0.20308199007E+02  0.41107452545E+02  0.00000000000E+00 0. -1.
         21    1    1    2  505  501 -0.32968503350E+02 -0.28328556873E+02  0.61737896872E+02  0.75504948565E+02  0.00000000000E+00 0.  1.
          1    1    1    2  501    0  0.70676508935E+02  0.12158177467E+03  0.22517672061E+04  0.22561544378E+04  0.00000000000E+00 0.  1.
<scales pt_clust_3="139.70699" pt_clust_4="35.74073" pt_clust_5="44.82731" pt_clust_6="14000.00000"></scales>
<clustering>
<clus scale="   35.741">  2  4  1 -1</clus>
<clus scale="   44.827">  2  5  1 -1</clus>
<clus scale="  139.707">  2  3  1 -1</clus>
<clus scale="   35.741">  2  3  1 -1</clus>
</clustering>
</event>
<event>
 6    0  0.4189111E+002  0.7212358E+02  0.7546771E-02  0.1353017E+00
          2   -1    0    0  505    0 -0.00000000000E+00  0.00000000000E+00  0.23689583440E+04  0.23689583440E+04  0.00000000000E+00 0.  1.
         21   -1    0    0  504  502  0.00000000000E+00 -0.00000000000E+00 -0.18669831975E+02  0.18669831975E+02  0.00000000000E+00 0. -1.
         21    1    1    2  503  501  0.59213441748E+02 -0.70312347307E+02  0.30774448314E+03  0.32118020607E+03  0.00000000000E+00 0. -1.
         21    1    1    2  504  503 -0.48432585665E+02 -0.23209906194E+02  0.72488829323E+02  0.90216658530E+02  0.00000000000E+00 0.  1.
         21    1    1    2  505  502 -0.29123857113E+02  0.47040042194E+02  0.27871890454E+03  0.28415698544E+03  0.00000000000E+00 0.  1.
          2    1    1    2  501    0  0.18343001030E+02  0.46482211308E+02  0.16913362950E+04  0.16920743259E+04  0.00000000000E+00 0.  1.
<scales pt_clust_3="72.12358" pt_clust_4="49.47553" pt_clust_5="14000.00000" pt_clust_6="49.97061"></scales>
<clustering>
<clus scale="   49.971">  1  6  2 -1</clus>
<clus scale="   49.476">  2  4  1 -1</clus>
<clus scale="   72.124">  2  3  1 -1</clus>
<clus scale="   49.476">  2  3  1 -1</clus>
</clustering>
</event>
<event>
 6    0  0.4189111E+002  0.1941900E+03  0.7546771E-02  0.1154736E+00
         21   -1    0    0  505  502  0.00000000000E+00  0.00000000000E+00  0.91433512149E+02  0.91433512149E+02  0.00000000000E+00 0.  1.
         -4   -1    0    0    0  501 -0.00000000000E+00 -0.00000000000E+00 -0.27580727731E+04  0.27580727731E+04  0.00000000000E+00 0.  1.
         21    1    1    2  503  502 -0.94389635554E+02  0.10436472358E+03 -0.10786005224E+04  0.10877410012E+04  0.00000000000E+00 0.  1.
         21    1    1    2  504  501  0.71805848238E+02 -0.11401057421E+03 -0.20293313805E+01  0.13475388328E+03  0.00000000000E+00 0.  1.
         21    1    1    2  505  504  0.59287177062E+02 -0.80082656858E+01 -0.23982435788E+02  0.64453540707E+02  0.00000000000E+00 0.  1.
         -4    1    1    2    0  503 -0.36703389747E+02  0.17654116310E+02 -0.15620269713E+04  0.15625578600E+04  0.00000000000E+00 0.  1.
<scales pt_clust_3="175.43300" pt_clust_4="55.22005" pt_clust_5="55.22005" pt_clust_6="40.72845"></scales>
<clustering>
<clus scale="   40.728">  2  6  1 -1</clus>
<clus scale="   55.220">  4  5 -1 -1</clus>
<clus scale="  175.433">  2  3  1 -1</clus>
<clus scale="  194.190">  1  3  2 -1</clus>
</clustering>
</event>
<event>
 6    0  0.4189111E+002  0.1804684E+03  0.7546771E-02  0.1167350E+00
         -1   -1    0    0    0  501 -0.00000000000E+00  0.00000000000E+00  0.96280368113E+02  0.96280368113E+02  0.00000000000E+00 0. -1.
         21   -1    0    0  505  502  0.00000000000E+00 -0.00000000000E+00 -0.73101597492E+03  0.73101597492E+03  0.00000000000E+00 0.  1.
         21    1    1    2  503  502 -0.36938343726E+01  0.38111067514E+02 -0.62752723301E+02  0.73511918497E+02  0.00000000000E+00 0.  1.
         21    1    1    2  504  503  0.18023984495E+03  0.61069880359E+02 -0.46206825904E+03  0.49972293125E+03  0.00000000000E+00 0.  1.
         21    1    1    2  505  501 -0.14652678094E+03 -0.50738917365E+02 -0.12014453620E+03  0.19616127254E+03  0.00000000000E+00 0. -1.
         -1    1    1    2    0  504 -0.30019229643E+02 -0.48442030508E+02  0.10229911738E+02  0.57900220745E+02  0.00000000000E+00 0. -1.
<scales pt_clust_3="38.28966" pt_clust_4="180.46841" pt_clust_5="14000.00000" pt_clust_6="55.90071"></scales>
<clustering>
<clus scale="   38.290">  2  3  1 -1</clus>
<clus scale="   55.901">  1  6  2 -1</clus>
<clus scale="  180.468">  2  4  1 -1</clus>
<clus scale="   38.290">  2  3  1 -1</clus>
</clustering>
</event>
<event>
 6    0  0.4189111E+002  0.1056374E+03  0.7546771E-02  0.1268869E+00
         21   -1    0    0  504  502  0.00000000000E+00  0.00000000000E+00  0.13754334256E+03  0.13754334256E+03  0.00000000000E+00 0.  1.
         -4   -1    0    0    0  501 -0.00000000000E+00 -0.00000000000E+00 -0.23248916150E+03  0.23248916150E+03  0.00000000000E+00 0. -1.
         21    1    1    2  503  505  0.44077886513E+02  0.19142711164E+02  0.41647772766E+01  0.48235348449E+02  0.00000000000E+00 0.  1.
         21    1    1    2  504  501 -0.10196991713E+03 -0.55020245517E+02 -0.17737447698E+02  0.11721650254E+03  0.00000000000E+00 0.  1.
         21    1    1    2  505  502 -0.39950105203E+02  0.62206394444E+01  0.32259815400E+02  0.51724297486E+02  0.00000000000E+00 0.  1.
         -4    1    1    2    0  503  0.97842135817E+02  0.29656894908E+02 -0.11363296391E+03  0.15285635559E+03  0.00000000000E+00 0. -1.
<scales pt_clust_3="39.13859" pt_clust_4="14000.00000" pt_clust_5="40.43151" pt_clust_6="105.63743"></scales>
<clustering>
<clus scale="   40.432">  1  5  2 -1</clus>
<clus scale="   39.139">  1  3  2 -1</clus>
<clus scale="  105.637">  2  6  1 -1</clus>
<clus scale="   40.432">  1  3  2 -1</clus>
</clustering>
</event>
<event>
 6    0  0.4189111E+002  0.1695341E+03  0.7546771E-02  0.1178335E+00
          1   -1    0    0  503    0 -0.00000000000E+00  0.00000000000E+00  0.10137985352E+04  0.10137985352E+04  0.00000000000E+00 0. -1.
         21   -1    0    0  505  502  0.00000000000E+00 -0.00000000000E+00 -0.27489132833E+03  0.27489132833E+03  0.00000000000E+00 0. -1.
         21    1    1    2  503  502  0.32009753613E+02  0.24888634261E+02  0.23606046735E+03  0.23951745800E+03  0.00000000000E+00 0. -1.
         21    1    1    2  504  501 -0.19238400942E+03  0.11561248080E+03 -0.31754618005E+02  0.22668526322E+03  0.00000000000E+00 0. -1.
         21    1    1    2  505  504  0.47190840167E+02 -0.34101609175E+02 -0.12868997561E+03  0.14124802641E+03  0.00000000000E+00 0. -1.
          1    1    1    2  501    0  0.11318341564E+03 -0.10639950588E+03  0.66329133318E+03  0.68123911594E+03  0.00000000000E+00 0. -1.
<scales pt_clust_3="40.54711" pt_clust_4="169.53408" pt_clust_5="58.31563" pt_clust_6="14000.00000"></scales>
<clustering>
<clus scale="   40.547">  1  3  2 -1</clus>
<clus scale="   58.316">  2  5  1 -1</clus>
<clus scale="  169.534">  2  4  1 -1</clus>
<clus scale="   58.316">  2  3  1 -1</clus>
</clustering>
</event>
<event>
 6    0  0.4189111E+002  0.7776940E+02  0.7546771E-02  0.1335503E+00
         21   -1    0    0  501  502  0.00000000000E+00  0.00000000000E+00  0.71843764629E+02  0.71843764629E+02  0.00000000000E+00 0. -1.
          2   -1    0    0  503    0 -0.00000000000E+00 -0.00000000000E+00 -0.67985885691E+03  0.67985885691E+03  0.00000000000E+00 0.  1.
         21    1    1    2  503  504  0.67796187023E+02  0.35078031565E+02 -0.45747089716E+03  0.46379565870E+03  0.00000000000E+00 0.  1.
         21    1    1    2  504  505 -0.89999699378E+02 -0.18604242763E+02 -0.61277856963E+02  0.11045831563E+03  0.00000000000E+00 0. -1.
         21    1    1    2  505  502 -0.23439848669E+02  0.44919815498E+02  0.10483172481E+02  0.51740827547E+02  0.00000000000E+00 0. -1.
          2    1    1    2  501    0  0.45643361023E+02 -0.61393604300E+02 -0.99749510636E+02  0.12570781967E+03  0.00000000000E+00 0.  1.
<scales pt_clust_3="77.76940" pt_clust_4="14000.00000" pt_clust_5="50.66770" pt_clust_6="60.61183"></scales>
<clustering>
<clus scale="   50.668">  1  5  2 -1</clus>
<clus scale="   60.612">  1  6  2 -1</clus>
<clus scale="   77.769">  2  3  1 -1</clus>
<clus scale="   50.668">  1  3  2 -1</clus>
</clustering>
</event>
<event>
 6    0  0.4189111E+002  0.7870826E+02  0.7546771E-02  0.1332758E+00
         21   -1    0    0  504  502  0.00000000000E+00  0.00000000000E+00  0.13744883030E+03  0.13744883030E+03  0.00000000000E+00 0. -1.
         -1   -1    0    0    0  501 -0.00000000000E+00 -0.00000000000E+00 -0.13580498970E+04  0.13580498970E+04  0.00000000000E+00 0. -1.
         21    1    1    2  503  501  0.61338900273E+02  0.51528006968E+02 -0.57743888393E+03  0.58296934813E+03  0.00000000000E+00 0.  1.
         21    1    1    2  504  505  0.49739215239E+02  0.26930108913E+02  0.12096526586E+03  0.13353582232E+03  0.00000000000E+00 0. -1.
         21    1    1    2  505  503 -0.41343942905E+02 -0.67263267773E+02 -0.34172772786E+03  0.35072996564E+03  0.00000000000E+00 0. -1.
         -1    1    1    2    0  502 -0.69734172607E+02 -0.11194848108E+02 -0.42239972074E+03  0.42826359119E+03  0.00000000000E+00 0. -1.
<scales pt_clust_3="78.70826" pt_clust_4="56.56165" pt_clust_5="14000.00000" pt_clust_6="55.54192"></scales>
<clustering>
<clus scale="   56.562">  1  4  2 -1</clus>
<clus scale="   55.542">  1  6  2 -1</clus>
<clus scale="   78.708">  2  3  1 -1</clus>
<clus scale="   56.562">  1  3  2 -1</clus>
</clustering>
</event>
<event>
 6    0  0.4189111E+002  0.9082943E+02  0.7546771E-02  0.1300855E+00
          2   -1    0    0  505    0 -0.00000000000E+00  0.00000000000E+00  0.49530740256E+03  0.49530740256E+03  0.00000000000E+00 0. -1.
         21   -1    0    0  504  502  0.00000000000E+00 -0.00000000000E+00 -0.18428322707E+04  0.18428322707E+04  0.00000000000E+00 0. -1.
         21    1    1    2  503  502  0.63323064032E+01 -0.43902579735E+02 -0.11532703983E+04  0.11541231071E+04  0.00000000000E+00 0. -1.
         21    1    1    2  504  501 -0.94411708860E+02  0.20575705361E+02 -0.66971237886E+03  0.67664732381E+03  0.00000000000E+00 0. -1.
         21    1    1    2  505  503  0.12328853090E+02  0.31914781000E+02  0.99086669537E+01  0.35619314221E+02  0.00000000000E+00 0.  1.
          2    1    1    2  501    0  0.75750549367E+02 -0.85879066259E+01  0.46554924211E+03  0.47174992814E+03  0.00000000000E+00 0. -1.
<scales pt_clust_3="44.32999" pt_clust_4="14000.00000" pt_clust_5="34.21336" pt_clust_6="90.82943"></scales>
<clustering>
<clus scale="   34.213">  1  5  2 -1</clus>
<clus scale="   44.330">  2  3  1 -1</clus>
<clus scale="   90.829">  1  6  2 -1</clus>
<clus scale="   44.330">  2  3  1 -1</clus>
</clustering>
</event>
<event>
 6    0  0.4189111E+002  0.6234357E+02  0.7546771E-02  0.1388252E+00
         21   -1    0    0  505  502  0.00000000000E+00  0.00000000000E+00  0.63323694784E+02  0.63323694784E+02  0.00000000000E+00 0. -1.
          2   -1    0    0  504    0 -0.00000000000E+00 -0.00000000000E+00 -0.30847059752E+04  0.30847059752E+04  0.00000000000E+00 0. -1.
         21    1    1    2  503  502  0.38763433943E+02  0.23112703170E+02 -0.13397705061E+02  0.47077588721E+02  0.00000000000E+00 0. -1.
         21    1    1    2  504  503 -0.54265223806E+02  0.77010790630E+01 -0.18634487110E+02  0.57890113520E+02  0.00000000000E+00 0. -1.
         21    1    1    2  505  501  0.16300138662E+02 -0.92773968304E+02 -0.57085871433E+02  0.11014309072E+03  0.00000000000E+00 0. -1.
          2    1    1    2  501    0 -0.79834879832E+00  0.61960186071E+02 -0.29322642168E+04  0.29329188770E+04  0.00000000000E+00 0. -1.
<scales pt_clust_3="45.13093" pt_clust_4="41.72618" pt_clust_5="62.34357" pt_clust_6="14000.00000"></scales>
<clustering>
<clus scale="   45.131">  1  3  2 -1</clus>
<clus scale="   41.726">  1  4  2 -1</clus>
<clus scale="   62.344">  1  5  2 -1</clus>
<clus scale="   45.131">  1  3  2 -1</clus>
</clustering>
</event>
<event>
 6    0  0.4189111E+002  0.1310408E+03  0.7546771E-02  0.1225920E+00
         21   -1    0    0  501  502  0.00000000000E+00  0.00000000000E+00  0.10868496103E+03  0.10868496103E+03  0.00000000000E+00 0. -1.
          2   -1    0    0  503    0 -0.00000000000E+00 -0.00000000000E+00 -0.28799122373E+04  0.28799122373E+04  0.00000000000E+00 0.  1.
         21    1    1    2  503  505 -0.48883283647E+02 -0.59874430985E+01 -0.33914690783E+03  0.34270402680E+03  0.00000000000E+00 0. -1.
         21    1    1    2  504  502  0.50323929910E+02  0.95173254037E+02  0.38635516494E+02  0.11438159529E+03  0.00000000000E+00 0. -1.
         21    1    1    2  505  504 -0.10427085109E+03  0.31400589808E+02 -0.78958700887E+02  0.13450979099E+03  0.00000000000E+00 0. -1.
          2    1    1    2  501    0  0.10283020483E+03 -0.12058640075E+03 -0.23917571840E+04  0.23970017853E+04  0.00000000000E+00 0.  1.
<scales pt_clust_3="49.24860" pt_clust_4="107.24083" pt_clust_5="14000.00000" pt_clust_6="131.04075"></scales>
<clustering>
<clus scale="   49.249">  2  3  1 -1</clus>
<clus scale="  107.241">  1  4  2 -1</clus>
<clus scale="  131.041">  2  6  1 -1</clus>
<clus scale="  107.241">  1  3  2 -1</clus>
</clustering>
</event>
<event>
 6    0  0.4189111E+002  0.1582107E+03  0.7546771E-02  0.1190732E+00
         21   -1    0    0  501  502  0.00000000000E+00  0.00000000000E+00  0.65727695493E+03  0.65727695493E+03  0.00000000000E+00 0.  1.
          2   -1    0    0  503    0 -0.00000000000E+00 -0.00000000000E+00 -0.10948659460E+04  0.10948659460E+04  0.00000000000E+00 0.  1.
         21    1    1    2  503  504  0.14704970709E+02 -0.36758784710E+02 -0.36243496220E+02  0.53675277690E+02  0.00000000000E+00 0.  1.
         21    1    1    2  504  505 -0.20446718736E+02  0.14083937751E+03  0.50710960506E+01  0.14240616061E+03  0.00000000000E+00 0.  1.
         21    1    1    2  505  502  0.81442994041E+02 -0.14046959750E+03  0.56150084815E+03  0.58450651970E+03  0.00000000000E+00 0.  1.
          2    1    1    2  501    0 -0.75701246014E+02  0.36389004703E+02 -0.96791743900E+03  0.97155494288E+03  0.00000000000E+00 0.  1.
<scales pt_clust_3="39.59096" pt_clust_4="14000.00000" pt_clust_5="158.21073" pt_clust_6="62.16693"></scales>
<clustering>
<clus scale="   39.591">  2  3  1 -1</clus>
<clus scale="   62.167">  2  6  1 -1</clus>
<clus scale="  158.211">  1  5  2 -1</clus>
<clus scale="  158.211">  1  3  2 -1</clus>
</clustering>
</event>
<event>
 6    0  0.4189111E+002  0.1002064E+03  0.7546771E-02  0.1279862E+00
         21   -1    0    0  504  502  0.00000000000E+00  0.00000000000E+00  0.93398989891E+02  0.93398989891E+02  0.00000000000E+00 0. -1.
         -3   -1    0    0    0  501 -0.00000000000E+00 -0.00000000000E+00 -0.91128212627E+03  0.91128212627E+03  0.00000000000E+00 0. -1.
         21    1    1    2  503  501  0.19114350662E+02 -0.42110738513E+02 -0.12662672514E+03  0.13480727065E+03  0.00000000000E+00 0. -1.
         21    1    1    2  504  503 -0.31247099605E+02 -0.43351776544E+02 -0.19645466843E+02  0.56935947614E+02  0.00000000000E+00 0.  1.
         21    1    1    2  505  502 -0.23910503323E+02  0.13123789941E+03  0.53199964005E+01  0.13350430994E+03  0.00000000000E+00 0. -1.
         -3    1    1    2    0  505  0.36043252266E+02 -0.45775384350E+02 -0.67693094079E+03  0.67943358796E+03  0.00000000000E+00 0. -1.
<scales pt_clust_3="46.24579" pt_clust_4="54.60232" pt_clust_5="14000.00000" pt_clust_6="100.20643"></scales>
<clustering>
<clus scale="   46.246">  2  3  1 -1</clus>
<clus scale="   54.602">  1  4  2 -1</clus>
<clus scale="  100.206">  2  6  1 -1</clus>
<clus scale="   54.602">  1  3  2 -1</clus>
</clustering>
</event>
<event>
 6    0  0.4189111E+002  0.1723542E+03  0.7546771E-02  0.1175415E+00
          2   -1    0    0  505    0 -0.00000000000E+00  0.00000000000E+00  0.16252192987E+04  0.16252192987E+04  0.00000000000E+00 0.  1.
         21   -1    0    0  504  502  0.00000000000E+00 -0.00000000000E+00 -0.59507713830E+03  0.59507713830E+03  0.00000000000E+00 0.  1.
         21    1    1    2  503  501  0.76284452254E+02 -0.30573048061E+02  0.22253965487E+02  0.85142632702E+02  0.00000000000E+00 0.  1.
         21    1    1    2  504  503 -0.17444595489E+03 -0.15287121683E+02 -0.54755261656E+03  0.57487299047E+03  0.00000000000E+00 0.  1.
         21    1    1    2  505  502  0.55138992059E+02  0.36400984157E+02  0.56312210722E+03  0.56698487435E+03  0.00000000000E+00 0.  1.
          2    1    1    2  501    0  0.43022510582E+02  0.94591855875E+01  0.99231870429E+03  0.99329593953E+03  0.00000000000E+00 0.  1.
<scales pt_clust_3="85.30094" pt_clust_4="14000.00000" pt_clust_5="172.35419" pt_clust_6="44.05011"></scales>
<clustering>
<clus scale="   44.050">  1  6  2 -1</clus>
<clus scale="   85.301">  1  3  2 -1</clus>
<clus scale="  172.354">  1  5  2 -1</clus>
<clus scale="  172.354">  2  3  1 -1</clus>
</clustering>
</event>
<event>
 6    0  0.4189111E+002  0.9585303E+02  0.7546771E-02  0.1289266E+00
         -3   -1    0    0    0  501 -0.00000000000E+00  0.00000000000E+00  0.55957537438E+03  0.55957537438E+03  0.00000000000E+00 0.  1.
         21   -1    0    0  503  502  0.00000000000E+00 -0.00000000000E+00 -0.14545369627E+04  0.14545369627E+04  0.00000000000E+00 0. -1.
         21    1    1    2  503  505 -0.95997422864E+00 -0.99155973511E+02 -0.12645350690E+04  0.12684170329E+04  0.00000000000E+00 0. -1.
         21    1    1    2  504  501 -0.29073299209E+01 -0.46177981182E+02  0.16570858544E+02  0.49147246781E+02  0.00000000000E+00 0.  1.
         21    1    1    2  505  504  0.26867511570E+02  0.77924286189E+02 -0.15927678437E+03  0.17934088099E+03  0.00000000000E+00 0.  1.
         -3    1    1    2    0  502 -0.23000207421E+02  0.67409668504E+02  0.51227940653E+03  0.51720717638E+03  0.00000000000E+00 0.  1.
<scales pt_clust_3="14000.00000" pt_clust_4="46.26941" pt_clust_5="95.85303" pt_clust_6="34.12097"></scales>
<clustering>
<clus scale="   46.269">  1  4  2 -1</clus>
<clus scale="   34.121">  1  6  2 -1</clus>
<clus scale="   95.853">  1  5  2 -1</clus>
<clus scale="   95.853">  2  3  1 -1</clus>
</clustering>
</event>
<event>
 6    0  0.4189111E+002  0.1287727E+03  0.7546771E-02  0.1229288E+00
          2   -1    0    0  504    0 -0.00000000000E+00  0.00000000000E+00  0.21367513075E+04  0.21367513075E+04  0.00000000000E+00 0.  1.
         21   -1    0    0  505  502  0.00000000000E+00 -0.00000000000E+00 -0.41893506470E+03  0.41893506470E+03  0.00000000000E+00 0. -1.
         21    1    1    2  503  501 -0.73540889038E+02  0.41981754083E+02  0.11355631817E+03  0.14165368838E+03  0.00000000000E+00 0.  1.
         21    1    1    2  504  502  0.13944261531E+03  0.41401842941E+02 -0.14114493564E+03  0.20268262979E+03  0.00000000000E+00 0. -1.
         21    1    1    2  505  503 -0.51810139526E+01  0.30537579128E+02 -0.22982669137E+03  0.23190449481E+03  0.00000000000E+00 0. -1.
          2    1    1    2  501    0 -0.60720712315E+02 -0.11392117615E+03  0.19752315516E+04  0.19794455592E+04  0.00000000000E+00 0.  1.
<scales pt_clust_3="86.16577" pt_clust_4="14000.00000" pt_clust_5="30.97397" pt_clust_6="128.77272"></scales>
<clustering>
<clus scale="   30.974">  2  5  1 -1</clus>
<clus scale="   86.166">  2  3  1 -1</clus>
<clus scale="  128.773">  1  6  2 -1</clus>
<clus scale="   30.974">  2  3  1 -1</clus>
</clustering>
</event>
<event>
 6    0  0.4189111E+002  0.2455788E+03  0.7546771E-02  0.1116131E+00
         21   -1    0    0  503  502  0.00000000000E+00  0.00000000000E+00  0.70962727726E+03  0.70962727726E+03  0.00000000000E+00 0.  1.
         -3   -1    0    0    0  501 -0.00000000000E+00 -0.00000000000E+00 -0.91893013992E+03  0.91893013992E+03  0.00000000000E+00 0.  1.
         21    1    1    2  503  501  0.24874607363E+03  0.23664745535E+02 -0.44369692254E+03  0.50921664191E+03  0.00000000000E+00 0.  1.
         21    1    1    2  504  505 -0.51806785720E+02 -0.69721685090E+02  0.60850476614E+02  0.10605581984E+03  0.00000000000E+00 0.  1.
         21    1    1    2  505  502  0.42941850755E+02 -0.27702377984E+02  0.55463278983E+03  0.55698200675E+03  0.00000000000E+00 0.  1.
         -3    1    1    2    0  504 -0.23988113866E+03  0.73759317539E+02 -0.38108920657E+03  0.45630294868E+03  0.00000000000E+00 0.  1.
<scales pt_clust_3="245.57882" pt_clust_4="89.41786" pt_clust_5="51.10210" pt_clust_6="14000.00000"></scales>
<clustering>
<clus scale="   51.102">  1  5  2 -1</clus>
<clus scale="   89.418">  1  4  2 -1</clus>
<clus scale="  245.579">  2  3  1 -1</clus>
<clus scale="   51.102">  1  3  2 -1</clus>
</clustering>
</event>
<event>
 6    0  0.4189111E+002  0.1442735E+03  0.7546771E-02  0.1207692E+00
         21   -1    0    0  503  502  0.00000000000E+00  0.00000000000E+00  0.38015261634E+03  0.38015261634E+03  0.00000000000E+00 0. -1.
          2   -1    0    0  505    0 -0.00000000000E+00 -0.00000000000E+00 -0.17583127407E+04  0.17583127407E+04  0.00000000000E+00 0.  1.
         21    1    1    2  503  501  0.45599940353E+01  0.43243252332E+02 -0.35349718881E+02  0.56039049267E+02  0.00000000000E+00 0. -1.
         21    1    1    2  504  502  0.52271454253E+02  0.88205200605E+02  0.32549962081E+03  0.34126597470E+03  0.00000000000E+00 0. -1.
         21    1    1    2  505  504 -0.19153740230E+03 -0.10152294976E+03 -0.32428086368E+03  0.39006610255E+03  0.00000000000E+00 0. -1.
          2    1    1    2  501    0  0.13470595402E+03 -0.29925503173E+02 -0.13440291626E+04  0.13510942305E+04  0.00000000000E+00 0.  1.
<scales pt_clust_3="43.48301" pt_clust_4="14000.00000" pt_clust_5="144.27349" pt_clust_6="137.94352"></scales>
<clustering>
<clus scale="   43.483">  1  3  2 -1</clus>
<clus scale="  137.944">  2  6  1 -1</clus>
<clus scale="  144.273">  2  5  1 -1</clus>
<clus scale="   43.483">  1  3  2 -1</clus>
</clustering>
</event>
<event>
 6    0  0.4189111E+002  0.9582220E+02  0.7546771E-02  0.1289335E+00
         21   -1    0    0  503  502  0.00000000000E+00  0.00000000000E+00  0.19604842072E+03  0.19604842072E+03  0.00000000000E+00 0. -1.
          2   -1    0    0  505    0 -0.00000000000E+00 -0.00000000000E+00 -0.45511312830E+03  0.45511312830E+03  0.00000000000E+00 0. -1.
         21    1    1    2  503  501  0.14262514428E+02  0.60715053942E+02  0.67537696834E+02  0.91929742666E+02  0.00000000000E+00 0.  1.
         21    1    1    2  504  502  0.40685389178E+02 -0.12759190533E+03  0.47018007385E+02  0.14193550724E+03  0.00000000000E+00 0. -1.
         21    1    1    2  505  504  0.53387399368E+02  0.14319469137E+02 -0.61155039916E+02  0.82433006222E+02  0.00000000000E+00 0. -1.
          2    1    1    2  501    0 -0.10833530297E+03  0.52557382249E+02 -0.31246537189E+03  0.33486329289E+03  0.00000000000E+00 0. -1.
<scales pt_clust_3="63.21872" pt_clust_4="14000.00000" pt_clust_5="55.27442" pt_clust_6="95.82220"></scales>
<clustering>
<clus scale="   55.274">  2  5  1 -1</clus>
<clus scale="   63.219">  1  3  2 -1</clus>
<clus scale="   95.822">  2  6  1 -1</clus>
<clus scale="   63.219">  1  3  2 -1</clus>
</clustering>
</event>
<event>
 6    0  0.4189111E+002  0.8122092E+02  0.7546771E-02  0.1325622E+00
          2   -1    0    0  503    0 -0.00000000000E+00  0.00000000000E+00  0.66883197548E+03  0.66883197548E+03  0.00000000000E+00 0.  1.
         21   -1    0    0  505  502  0.00000000000E+00 -0.00000000000E+00 -0.21044888446E+03  0.21044888446E+03  0.00000000000E+00 0.  1.
         21    1    1    2  503  504  0.33618441271E+02  0.21170333874E+02  0.11225424289E+03  0.11907727607E+03  0.00000000000E+00 0.  1.
         21    1    1    2  504  502 -0.52377010529E+01  0.66049575410E+02 -0.17731102149E+03  0.18928596954E+03  0.00000000000E+00 0.  1.
         21    1    1    2  505  501  0.34245578062E+02  0.92071639058E+01  0.47776401990E+00  0.35464908606E+02  0.00000000000E+00 0.  1.
          2    1    1    2  501    0 -0.62626318280E+02 -0.96427073190E+02  0.52296210559E+03  0.53545270573E+03  0.00000000000E+00 0.  1.
<scales pt_clust_3="40.32838" pt_clust_4="81.22092" pt_clust_5="35.46169" pt_clust_6="14000.00000"></scales>
<clustering>
<clus scale="   35.462">  2  5  1 -1</clus>
<clus scale="   40.328">  1  3  2 -1</clus>
<clus scale="   81.221">  2  4  1 -1</clus>
<clus scale="   35.462">  2  3  1 -1</clus>
</clustering>
</event>
<event>
 6    0  0.4189111E+002  0.8422988E+02  0.7546771E-02  0.1317459E+00
         21   -1    0    0  503  502  0.00000000000E+00  0.00000000000E+00  0.29322835929E+03  0.29322835929E+03  0.00000000000E+00 0. -1.
          2   -1    0    0  505    0 -0.00000000000E+00 -0.00000000000E+00 -0.35975537878E+03  0.35975537878E+03  0.00000000000E+00 0. -1.
         21    1    1    2  503  501 -0.10998357207E+03 -0.36806778833E+02  0.12558653331E+03  0.17094765995E+03  0.00000000000E+00 0. -1.
         21    1    1    2  504  502  0.26188409087E+02  0.61523883284E+02  0.12818681785E+03  0.14457828764E+03  0.00000000000E+00 0. -1.
         21    1    1    2  505  504  0.46582250839E+02 -0.44093421209E+02 -0.20190524514E+03  0.21184868161E+03  0.00000000000E+00 0. -1.
          2    1    1    2  501    0  0.37212912146E+02  0.19376316758E+02 -0.11839512552E+03  0.12560910886E+03  0.00000000000E+00 0. -1.
<scales pt_clust_3="14000.00000" pt_clust_4="67.98889" pt_clust_5="84.22988" pt_clust_6="41.95524"></scales>
<clustering>
<clus scale="   41.955">  2  6  1 -1</clus>
<clus scale="   67.989">  1  4  2 -1</clus>
<clus scale="   84.230">  2  5  1 -1</clus>
<clus scale="   67.989">  1  3  2 -1</clus>
</clustering>
</event>
<event>
 6    0  0.4189111E+002  0.9851869E+02  0.7546771E-02  0.1283442E+00
         21   -1    0    0  503  502  0.00000000000E+00  0.00000000000E+00  0.18853175985E+03  0.18853175985E+03  0.00000000000E+00 0.  1.
          2   -1    0    0  505    0 -0.00000000000E+00 -0.00000000000E+00 -0.17708861323E+04  0.17708861323E+04  0.00000000000E+00 0.  1.
         21    1    1    2  503  501  0.88948160078E+02  0.42800974677E+02  0.15199323740E+03  0.18123366914E+03  0.00000000000E+00 0.  1.
         21    1    1    2  504  502 -0.11108218322E+03  0.11768356802E+02 -0.12993100588E+03  0.17134705115E+03  0.00000000000E+00 0.  1.
         21    1    1    2  505  504 -0.23021614017E+02 -0.23045924177E+02 -0.51449669033E+03  0.51552687000E+03  0.00000000000E+00 0. -1.
          2    1    1    2  501    0  0.45155637158E+02 -0.31523407303E+02 -0.10899199136E+04  0.10913103019E+04  0.00000000000E+00 0.  1.
<scales pt_clust_3="14000.00000" pt_clust_4="98.51869" pt_clust_5="32.57467" pt_clust_6="57.35184"></scales>
<clustering>
<clus scale="   32.575">  2  5  1 -1</clus>
<clus scale="   57.352">  2  6  1 -1</clus>
<clus scale="   98.519">  2  4  1 -1</clus>
<clus scale="   98.519">  1  3  2 -1</clus>
</clustering>
</event>
<event>
 6    0  0.4189111E+002  0.7641907E+02  0.7546771E-02  0.1339532E+00
          3   -1    0    0  503    0 -0.00000000000E+00  0.00000000000E+00  0.25357243708E+02  0.25357243708E+02  0.00000000000E+00 0. -1.
         21   -1    0    0  504  502  0.00000000000E+00 -0.00000000000E+00 -0.29763905672E+04  0.29763905672E+04  0.00000000000E+00 0.  1.
         21    1    1    2  503  502  0.11776098879E+02  0.28059710851E+02 -0.14121777541E+02  0.33547704523E+02  0.00000000000E+00 0. -1.
         21    1    1    2  504  505  0.54098858355E+02  0.52974246966E+02 -0.25591038682E+04  0.25602237335E+04  0.00000000000E+00 0.  1.
         21    1    1    2  505  501 -0.92466942499E+02 -0.32102830612E+02 -0.22646519356E+03  0.24671281094E+03  0.00000000000E+00 0. -1.
          3    1    1    2  501    0  0.26591985264E+02 -0.48931127205E+02 -0.15134248413E+03  0.16126356189E+03  0.00000000000E+00 0. -1.
<scales pt_clust_3="30.43064" pt_clust_4="14000.00000" pt_clust_5="76.41907" pt_clust_6="50.22326"></scales>
<clustering>
<clus scale="   30.431">  1  3  2 -1</clus>
<clus scale="   50.223">  1  6  2 -1</clus>
<clus scale="   76.419">  1  5  2 -1</clus>
<clus scale="   76.419">  2  3  1 -1</clus>
</clustering>
</event>
<event>
 6    0  0.4189111E+002  0.8607026E+02  0.7546771E-02  0.1312657E+00
          2   -1    0    0  503    0 -0.00000000000E+00  0.00000000000E+00  0.15393720057E+04  0.15393720057E+04  0.00000000000E+00 0.  1.
         21   -1    0    0  505  502  0.00000000000E+00 -0.00000000000E+00 -0.12623460380E+03  0.12623460380E+03  0.00000000000E+00 0. -1.
         21    1    1    2  503  504 -0.14133974298E+02  0.31562914043E+02  0.12552212827E+03  0.13019904554E+03  0.00000000000E+00 0.  1.
         21    1    1    2  504  502  0.33869832392E+02 -0.10952145793E+03 -0.68938810482E+02  0.13377097923E+03  0.00000000000E+00 0. -1.
         21    1    1    2  505  501 -0.51032647219E+02  0.24322925284E+02  0.14788669084E+02  0.58434925428E+02  0.00000000000E+00 0. -1.
          2    1    1    2  501    0  0.31296789125E+02  0.53635618606E+02  0.13417654151E+04  0.13432016593E+04  0.00000000000E+00 0.  1.
<scales pt_clust_3="34.58304" pt_clust_4="86.07026" pt_clust_5="57.21873" pt_clust_6="14000.00000"></scales>
<clustering>
<clus scale="   34.583">  1  3  2 -1</clus>
<clus scale="   57.219">  2  5  1 -1</clus>
<clus scale="   86.070">  2  4  1 -1</clus>
<clus scale="   57.219">  2  3  1 -1</clus>
</clustering>
</event>
<event>
 6    0  0.4189111E+002  0.9957776E+02  0.7546771E-02  0.1281186E+00
         21   -1    0    0  505  502  0.00000000000E+00  0.00000000000E+00  0.34542427244E+03  0.34542427244E+03  0.00000000000E+00 0. -1.
          2   -1    0    0  503    0 -0.00000000000E+00 -0.00000000000E+00 -0.89643982352E+03  0.89643982352E+03  0.00000000000E+00 0.  1.
         21    1    1    2  503  504 -0.39209377780E+02 -0.16558019027E+02 -0.32401803122E+02  0.53492243789E+02  0.00000000000E+00 0.  1.
         21    1    1    2  504  502  0.33191153233E+02  0.70980007010E+01  0.13320735954E+03  0.13746357664E+03  0.00000000000E+00 0. -1.
         21    1    1    2  505  501  0.16924886729E+02  0.10828867203E+03  0.18131077053E+03  0.21186430513E+03  0.00000000000E+00 0. -1.
          2    1    1    2  501    0 -0.10906662182E+02 -0.98828653704E+02 -0.83313187802E+03  0.83904397039E+03  0.00000000000E+00 0.  1.
<scales pt_clust_3="40.89012" pt_clust_4="33.94163" pt_clust_5="99.57776" pt_clust_6="14000.00000"></scales>
<clustering>
<clus scale="   33.942">  1  4  2 -1</clus>
<clus scale="   40.890">  1  3  2 -1</clus>
<clus scale="   99.578">  1  5  2 -1</clus>
<clus scale="   33.942">  1  3  2 -1</clus>
</clustering>
</event>
<event>
 6    0  0.4189111E+002  0.1129869E+03  0.7546771E-02  0.1255137E+00
          2   -1    0    0  504    0 -0.00000000000E+00  0.00000000000E+00  0.46377914768E+04  0.46377914768E+04  0.00000000000E+00 0.  1.
         21   -1    0    0  503  502  0.00000000000E+00 -0.00000000000E+00 -0.71454025203E+02  0.71454025203E+02  0.00000000000E+00 0.  1.
         21    1    1    2  503  505  0.30200184733E+02 -0.41715958581E+02 -0.54880470022E+02  0.75260470023E+02  0.00000000000E+00 0.  1.
         21    1    1    2  504  502 -0.59903836570E+02  0.37449268804E+02  0.11242707768E+04  0.11264882143E+04  0.00000000000E+00 0.  1.
         21    1    1    2  505  501  0.10306875658E+03  0.13880026579E+02  0.55742726149E+03  0.56704583198E+03  0.00000000000E+00 0. -1.
          2    1    1    2  501    0 -0.73365104738E+02 -0.96133368016E+01  0.29395198833E+04  0.29404509857E+04  0.00000000000E+00 0.  1.
<scales pt_clust_3="51.50022" pt_clust_4="62.44865" pt_clust_5="112.98687" pt_clust_6="14000.00000"></scales>
<clustering>
<clus scale="   51.500">  2  3  1 -1</clus>
<clus scale="   62.449">  1  4  2 -1</clus>
<clus scale="  112.987">  2  5  1 -1</clus>
<clus scale="   51.500">  2  3  1 -1</clus>
</clustering>
</event>
<event>
 6    0  0.4189111E+002  0.1202726E+03  0.7546771E-02  0.1242648E+00
         21   -1    0    0  505  502  0.00000000000E+00  0.00000000000E+00  0.62310213458E+02  0.62310213458E+02  0.00000000000E+00 0. -1.
          1   -1    0    0  503    0 -0.00000000000E+00 -0.00000000000E+00 -0.56181515511E+03  0.56181515511E+03  0.00000000000E+00 0. -1.
         21    1    1    2  503  502 -0.20989509978E+02  0.27997595716E+02  0.52474652043E+01  0.35383057896E+02  0.00000000000E+00 0. -1.
         21    1    1    2  504  501  0.61909954252E+02  0.37576976232E+02 -0.19156175902E+03  0.20479448014E+03  0.00000000000E+00 0.  1.
         21    1    1    2  505  504 -0.76502747532E+02 -0.78687718308E+02 -0.54577009759E+02  0.12256866397E+03  0.00000000000E+00 0. -1.
          1    1    1    2  501    0  0.35582303258E+02  0.13113146361E+02 -0.25861363808E+03  0.26137916656E+03  0.00000000000E+00 0. -1.
<scales pt_clust_3="34.99178" pt_clust_4="36.72739" pt_clust_5="108.99427" pt_clust_6="36.72739"></scales>
<clustering>
<clus scale="   34.992">  1  3  2 -1</clus>
<clus scale="   36.727">  4  6 -1 -1</clus>
<clus scale="  108.994">  1  5  2 -1</clus>
<clus scale="   34.992">  1  3  2 -1</clus>
</clustering>
</event>
<event>
 6    0  0.4189111E+002  0.1035752E+03  0.7546771E-02  0.1272952E+00
          2   -1    0    0  503    0 -0.00000000000E+00  0.00000000000E+00  0.17195129067E+03  0.17195129067E+03  0.00000000000E+00 0.  1.
         21   -1    0    0  504  502  0.00000000000E+00 -0.00000000000E+00 -0.48982776272E+03  0.48982776272E+03  0.00000000000E+00 0.  1.
         21    1    1    2  503  505 -0.19073010670E+02  0.23175904830E+02  0.27727706027E+02  0.40862305151E+02  0.00000000000E+00 0.  1.
         21    1    1    2  504  501  0.43726244644E+02 -0.91142397915E+02 -0.36410475918E+03  0.37787722454E+03  0.00000000000E+00 0.  1.
         21    1    1    2  505  502 -0.18483643764E+01  0.12803444291E+03 -0.60157702790E+02  0.14147503040E+03  0.00000000000E+00 0.  1.
          2    1    1    2  501    0 -0.22804869598E+02 -0.60067949822E+02  0.78658283896E+02  0.10156449330E+03  0.00000000000E+00 0.  1.
<scales pt_clust_3="30.01503" pt_clust_4="14000.00000" pt_clust_5="103.57523" pt_clust_6="57.10622"></scales>
<clustering>
<clus scale="   30.015">  1  3  2 -1</clus>
<clus scale="   57.106">  1  6  2 -1</clus>
<clus scale="  103.575">  1  5  2 -1</clus>
<clus scale="  103.575">  2  3  1 -1</clus>
</clustering>
</event>
<event>
 6    0  0.4189111E+002  0.8815554E+02  0.7546771E-02  0.1307381E+00
          2   -1    0    0  503    0 -0.00000000000E+00  0.00000000000E+00  0.81989519704E+03  0.81989519704E+03  0.00000000000E+00 0. -1.
         21   -1    0    0  505  502  0.00000000000E+00 -0.00000000000E+00 -0.40799164910E+03  0.40799164910E+03  0.00000000000E+00 0. -1.
         21    1    1    2  503  504  0.14718571720E+03  0.57419847909E+01 -0.14760353666E+03  0.20852676033E+03  0.00000000000E+00 0. -1.
         21    1    1    2  504  502 -0.32797292175E+02 -0.34506909367E+02 -0.20670071759E+03  0.21211217745E+03  0.00000000000E+00 0. -1.
         21    1    1    2  505  501 -0.27132159637E+02  0.24999948942E+02  0.82994755304E+00  0.36903121096E+02  0.00000000000E+00 0. -1.
          2    1    1    2  501    0 -0.87256265388E+02  0.37649756350E+01  0.76537785464E+03  0.77034478727E+03  0.00000000000E+00 0. -1.
<scales pt_clust_3="14000.00000" pt_clust_4="51.84697" pt_clust_5="36.89379" pt_clust_6="88.15554"></scales>
<clustering>
<clus scale="   36.894">  2  5  1 -1</clus>
<clus scale="   51.847">  2  4  1 -1</clus>
<clus scale="   88.156">  1  6  2 -1</clus>
<clus scale="   36.894">  2  3  1 -1</clus>
</clustering>
</event>
<event>
 6    0  0.4189111E+002  0.8188510E+02  0.7546771E-02  0.1323785E+00
         -1   -1    0    0    0  501 -0.00000000000E+00  0.00000000000E+00  0.15104873523E+02  0.15104873523E+02  0.00000000000E+00 0. -1.
         21   -1    0    0  503  502  0.00000000000E+00 -0.00000000000E+00 -0.18948828035E+04  0.18948828035E+04  0.00000000000E+00 0. -1.
         21    1    1    2  503  501  0.32823849170E+02  0.35533743421E+02 -0.24128601564E+03  0.24608736932E+03  0.00000000000E+00 0. -1.
         21    1    1    2  504  505 -0.58261893709E+02  0.43916838876E+02 -0.45765398317E+03  0.46343317243E+03  0.00000000000E+00 0. -1.
         21    1    1    2  505  502 -0.49570618609E+02 -0.44722224016E+02 -0.99305832430E+03  0.99530003467E+03  0.00000000000E+00 0. -1.
         -1    1    1    2    0  504  0.75008663148E+02 -0.34728358282E+02 -0.18777960688E+03  0.20516710062E+03  0.00000000000E+00 0. -1.
<scales pt_clust_3="48.37408" pt_clust_4="14000.00000" pt_clust_5="62.51414" pt_clust_6="81.88510"></scales>
<clustering>
<clus scale="   48.374">  1  3  2 -1</clus>
<clus scale="   62.514">  2  5  1 -1</clus>
<clus scale="   81.885">  1  6  2 -1</clus>
<clus scale="   62.514">  2  3  1 -1</clus>
</clustering>
</event>
<event>
 6    0  0.4189111E+002  0.1684731E+03  0.7546771E-02  0.1179450E+00
         21   -1    0    0  501  502  0.00000000000E+00  0.00000000000E+00  0.20896535446E+03  0.20896535446E+03  0.00000000000E+00 0.  1.
          2   -1    0    0  503    0 -0.00000000000E+00 -0.00000000000E+00 -0.28150436085E+04  0.28150436085E+04  0.00000000000E+00 0.  1.
         21    1    1    2  503  504  0.89797274415E+02  0.47925296595E+02 -0.21845917391E+04  0.21869616940E+04  0.00000000000E+00 0.  1.
         21    1    1    2  504  505 -0.13828568168E+03 -0.32811111715E+02 -0.26202990723E+02  0.14452022535E+03  0.00000000000E+00 0.  1.
         21    1    1    2  505  502 -0.54992715393E+01 -0.68517101729E+02  0.13783690702E+03  0.15402547891E+03  0.00000000000E+00 0.  1.
          2    1    1    2  501    0  0.53987678809E+02  0.53402916849E+02 -0.53312043123E+03  0.53850156471E+03  0.00000000000E+00 0.  1.
<scales pt_clust_3="168.47311" pt_clust_4="14000.00000" pt_clust_5="68.73744" pt_clust_6="73.73900"></scales>
<clustering>
<clus scale="   68.737">  1  5  2 -1</clus>
<clus scale="   73.739">  2  6  1 -1</clus>
<clus scale="  168.473">  2  3  1 -1</clus>
<clus scale="   68.737">  1  3  2 -1</clus>
</clustering>
</event>
<event>
 6    0  0.4189111E+002  0.2224898E+03  0.7546771E-02  0.1132040E+00
          2   -1    0    0  503    0 -0.00000000000E+00  0.00000000000E+00  0.16981655741E+04  0.16981655741E+04  0.00000000000E+00 0.  1.
         21   -1    0    0  504  502  0.00000000000E+00 -0.00000000000E+00 -0.13698158667E+03  0.13698158667E+03  0.00000000000E+00 0. -1.
         21    1    1    2  503  502  0.55447385227E+02 -0.14055301689E+03 -0.27151347524E+02  0.15351468580E+03  0.00000000000E+00 0. -1.
         21    1    1    2  504  505  0.15704902652E+03  0.15781325880E+03  0.30280170130E+03  0.37584344040E+03  0.00000000000E+00 0. -1.
         21    1    1    2  505  501 -0.32389030603E+02 -0.26119490487E+02  0.13679248292E+03  0.14298062970E+03  0.00000000000E+00 0.  1.
          2    1    1    2  501    0 -0.18010738115E+03  0.88592485796E+01  0.11487411507E+04  0.11628084048E+04  0.00000000000E+00 0.  1.
<scales pt_clust_3="151.09455" pt_clust_4="206.07293" pt_clust_5="40.29167" pt_clust_6="40.29167"></scales>
<clustering>
<clus scale="   40.292">  5  6 -1 -1</clus>
<clus scale="  151.095">  2  3  1 -1</clus>
<clus scale="  206.073">  2  4  1 -1</clus>
<clus scale="  151.095">  2  3  1 -1</clus>
</clustering>
</event>
<event>
 6    0  0.4189111E+002  0.1084484E+03  0.7546771E-02  0.1263470E+00
          1   -1    0    0  503    0 -0.00000000000E+00  0.00000000000E+00  0.76423978442E+03  0.76423978442E+03  0.00000000000E+00 0.  1.
         21   -1    0    0  505  502  0.00000000000E+00 -0.00000000000E+00 -0.89049813341E+02  0.89049813341E+02  0.00000000000E+00 0.  1.
         21    1    1    2  503  504  0.31844002931E+02  0.76607403053E+01  0.72193515084E+02  0.79275665150E+02  0.00000000000E+00 0.  1.
         21    1    1    2  504  502  0.10410580268E+03 -0.21181545231E+02 -0.17997245566E+02  0.10775238679E+03  0.00000000000E+00 0.  1.
         21    1    1    2  505  501 -0.10327170230E+03  0.75539476874E+02  0.18663716726E+03  0.22628453165E+03  0.00000000000E+00 0.  1.
          1    1    1    2  501    0 -0.32678103314E+02 -0.62018671948E+02  0.43435653430E+03  0.43997701417E+03  0.00000000000E+00 0.  1.
<scales pt_clust_3="32.75252" pt_clust_4="108.44843" pt_clust_5="14000.00000" pt_clust_6="58.49662"></scales>
<clustering>
<clus scale="   32.753">  1  3  2 -1</clus>
<clus scale="   58.497">  1  6  2 -1</clus>
<clus scale="  108.448">  2  4  1 -1</clus>
<clus scale="  108.448">  2  3  1 -1</clus>
</clustering>
</event>
<event>
 6    0  0.4189111E+002  0.9275949E+02  0.7546771E-02  0.1296303E+00
         21   -1    0    0  505  502  0.00000000000E+00  0.00000000000E+00  0.13382520493E+04  0.13382520493E+04  0.00000000000E+00 0. -1.
          1   -1    0    0  503    0 -0.00000000000E+00 -0.00000000000E+00 -0.71290777646E+03  0.71290777646E+03  0.00000000000E+00 0. -1.
         21    1    1    2  503  504  0.71401051757E+02 -0.39923324260E+02 -0.22076414540E+02  0.84731045615E+02  0.00000000000E+00 0.  1.
         21    1    1    2  504  502  0.56589919791E+02  0.18930608504E+02  0.11537645560E+04  0.11553066422E+04  0.00000000000E+00 0. -1.
         21    1    1    2  505  501  0.36553340860E+02 -0.10485520488E+02  0.13914492674E+03  0.14424771577E+03  0.00000000000E+00 0.  1.
          1    1    1    2  501    0 -0.16454431241E+03  0.31478236244E+02 -0.64548879530E+03  0.66687442218E+03  0.00000000000E+00 0. -1.
<scales pt_clust_3="82.77413" pt_clust_4="14000.00000" pt_clust_5="38.02753" pt_clust_6="92.75949"></scales>
<clustering>
<clus scale="   38.028">  1  5  2 -1</clus>
<clus scale="   82.774">  2  3  1 -1</clus>
<clus scale="   92.759">  2  6  1 -1</clus>
<clus scale="   38.028">  1  3  2 -1</clus>
</clustering>
</event>
<event>
 6    0  0.4189111E+002  0.9085012E+02  0.7546771E-02  0.1300806E+00
          2   -1    0    0  504    0 -0.00000000000E+00  0.00000000000E+00  0.29824227974E+04  0.29824227974E+04  0.00000000000E+00 0. -1.
         21   -1    0    0  503  502  0.00000000000E+00 -0.00000000000E+00 -0.33652506639E+02  0.33652506639E+02  0.00000000000E+00 0.  1.
         21    1    1    2  503  501 -0.80464796897E+02  0.79105540608E+01  0.10418000316E+03  0.13187355104E+03  0.00000000000E+00 0. -1.
         21    1    1    2  504  505  0.43763952754E+02 -0.25809926681E+02  0.41102414844E+03  0.41415249182E+03  0.00000000000E+00 0.  1.
         21    1    1    2  505  502  0.14942387426E+03 -0.31015591537E+02  0.33767189829E+03  0.37055603087E+03  0.00000000000E+00 0.  1.
          2    1    1    2  501    0 -0.11272303012E+03  0.48914964158E+02  0.20958942408E+04  0.20994932303E+04  0.00000000000E+00 0. -1.
<scales pt_clust_3="78.74253" pt_clust_4="50.80783" pt_clust_5="90.85012" pt_clust_6="14000.00000"></scales>
<clustering>
<clus scale="   50.808">  1  4  2 -1</clus>
<clus scale="   78.743">  2  3  1 -1</clus>
<clus scale="   90.850">  2  5  1 -1</clus>
<clus scale="   78.743">  2  3  1 -1</clus>
</clustering>
</event>
<event>
 6    0  0.4189111E+002  0.1078015E+03  0.7546771E-02  0.1264696E+00
          1   -1    0    0  503    0 -0.00000000000E+00  0.00000000000E+00  0.35452810918E+03  0.35452810918E+03  0.00000000000E+00 0.  1.
         21   -1    0    0  504  502  0.00000000000E+00 -0.00000000000E+00 -0.11098802921E+04  0.11098802921E+04  0.00000000000E+00 0. -1.
         21    1    1    2  503  505 -0.80133144351E+02  0.69837994423E+02  0.69983373672E+02  0.12726483756E+03  0.00000000000E+00 0. -1.
         21    1    1    2  504  501  0.71679340066E+02  0.11367834136E+03 -0.16697169012E+03  0.21433674064E+03  0.00000000000E+00 0. -1.
         21    1    1    2  505  502  0.19097555214E+02 -0.58928381134E+02 -0.87257487424E+03  0.87477093108E+03  0.00000000000E+00 0. -1.
          1    1    1    2  501    0 -0.10643750929E+02 -0.12458795465E+03  0.21421100776E+03  0.24803589201E+03  0.00000000000E+00 0.  1.
<scales pt_clust_3="99.92973" pt_clust_4="14000.00000" pt_clust_5="61.94571" pt_clust_6="107.80147"></scales>
<clustering>
<clus scale="   61.946">  2  5  1 -1</clus>
<clus scale="   99.930">  1  3  2 -1</clus>
<clus scale="  107.801">  1  6  2 -1</clus>
<clus scale="   61.946">  2  3  1 -1</clus>
</clustering>
</event>
<event>
 6    0  0.4189111E+002  0.1760738E+03  0.7546771E-02  0.1171658E+00
          3   -1    0    0  503    0 -0.00000000000E+00  0.00000000000E+00  0.70040632760E+02  0.70040632760E+02  0.00000000000E+00 0.  1.
         21   -1    0    0  505  502  0.00000000000E+00 -0.00000000000E+00 -0.98817186793E+03  0.98817186793E+03  0.00000000000E+00 0.  1.
         21    1    1    2  503  504 -0.10715359462E+02 -0.20856131864E+03 -0.24541402168E+03  0.32224320721E+03  0.00000000000E+00 0.  1.
         21    1    1    2  504  502  0.63311798653E+02  0.20395356124E+02 -0.21838642831E+03  0.22829145072E+03  0.00000000000E+00 0.  1.
         21    1    1    2  505  501 -0.37449510884E+02  0.39248596904E+02 -0.24126069814E+03  0.24728453791E+03  0.00000000000E+00 0.  1.
          3    1    1    2  501    0 -0.15146928307E+02  0.14891736561E+03 -0.21307008705E+03  0.26039330485E+03  0.00000000000E+00 0.  1.
<scales pt_clust_3="176.07380" pt_clust_4="61.20948" pt_clust_5="54.24867" pt_clust_6="14000.00000"></scales>
<clustering>
<clus scale="   54.249">  2  5  1 -1</clus>
<clus scale="   61.209">  2  4  1 -1</clus>
<clus scale="  176.074">  2  3  1 -1</clus>
<clus scale="   54.249">  2  3  1 -1</clus>
</clustering>
</event>
<event>
 6    0  0.4189111E+002  0.1375505E+03  0.7546771E-02  0.1216663E+00
         21   -1    0    0  505  502  0.00000000000E+00  0.00000000000E+00  0.19537434020E+02  0.19537434020E+02  0.00000000000E+00 0. -1.
          2   -1    0    0  503    0 -0.00000000000E+00 -0.00000000000E+00 -0.21845489893E+04  0.21845489893E+04  0.00000000000E+00 0. -1.
         21    1    1    2  503  502 -0.11255495090E+02  0.80233335369E+02 -0.41193337953E+03  0.41982518200E+03  0.00000000000E+00 0. -1.
         21    1    1    2  504  501  0.39374902717E+02 -0.20993343911E+02 -0.27693000628E+03  0.28050192839E+03  0.00000000000E+00 0. -1.
         21    1    1    2  505  504 -0.11798435895E+03 -0.44794165310E+02 -0.31929242975E+03  0.34332853347E+03  0.00000000000E+00 0. -1.
          2    1    1    2  501    0  0.89864951324E+02 -0.14445826148E+02 -0.11568557397E+04  0.11604307795E+04  0.00000000000E+00 0. -1.
<scales pt_clust_3="81.01897" pt_clust_4="35.61028" pt_clust_5="127.80261" pt_clust_6="35.61028"></scales>
<clustering>
<clus scale="   35.610">  4  6 -1 -1</clus>
<clus scale="   81.019">  1  3  2 -1</clus>
<clus scale="  127.803">  1  5  2 -1</clus>
<clus scale="   81.019">  1  3  2 -1</clus>
</clustering>
</event>
<event>
 6    0  0.4189111E+002  0.3807988E+03  0.7546771E-02  0.1050639E+00
          2   -1    0    0  502    0 -0.00000000000E+00  0.00000000000E+00  0.15863665010E+04  0.15863665010E+04  0.00000000000E+00 0. -1.
         21   -1    0    0  505  502  0.00000000000E+00 -0.00000000000E+00 -0.87152524063E+03  0.87152524063E+03  0.00000000000E+00 0. -1.
         21    1    1    2  503  504 -0.31002475587E+02 -0.55064564236E+02 -0.23739168660E+03  0.24565844702E+03  0.00000000000E+00 0.  1.
         21    1    1    2  504  501  0.34195626642E+02  0.32827693027E+02  0.36551825964E+03  0.36857915899E+03  0.00000000000E+00 0. -1.
         21    1    1    2  505  503 -0.25189641052E+03 -0.17392468678E+03 -0.56856894502E+03  0.64573387982E+03  0.00000000000E+00 0. -1.
          2    1    1    2  501    0  0.24870325946E+03  0.19616155799E+03  0.11552836323E+04  0.11979202558E+04  0.00000000000E+00 0. -1.
<scales pt_clust_3="50.87939" pt_clust_4="35.90432" pt_clust_5="50.87939" pt_clust_6="375.60887"></scales>
<clustering>
<clus scale="   35.904">  4  6 -1 -1</clus>
<clus scale="   50.879">  3  5 -1 -1</clus>
<clus scale="  375.609">  1  4  2 -1</clus>
<clus scale="  380.799">  2  3  1 -1</clus>
</clustering>
</event>
<event>
 6    0  0.4189111E+002  0.7023333E+02  0.7546771E-02  0.1359301E+00
         21   -1    0    0  505  502  0.00000000000E+00  0.00000000000E+00  0.19452911924E+03  0.19452911924E+03  0.00000000000E+00 0.  1.
          1   -1    0    0  504    0 -0.00000000000E+00 -0.00000000000E+00 -0.17693535886E+04  0.17693535886E+04  0.00000000000E+00 0.  1.
         21    1    1    2  503  502  0.30899500951E+02  0.16295434403E+02  0.17117195254E+03  0.17470019370E+03  0.00000000000E+00 0.  1.
         21    1    1    2  504  503  0.34240732830E+02 -0.23747969255E+02 -0.19423340702E+03  0.19865298948E+03  0.00000000000E+00 0.  1.
         21    1    1    2  505  501 -0.68698562286E+02 -0.70062794103E+02 -0.11292498651E+03  0.14960060212E+03  0.00000000000E+00 0.  1.
          1    1    1    2  501    0  0.35583285045E+01  0.77515328955E+02 -0.14388380284E+04  0.14409289225E+04  0.00000000000E+00 0.  1.
<scales pt_clust_3="34.93308" pt_clust_4="43.43409" pt_clust_5="14000.00000" pt_clust_6="70.23333"></scales>
<clustering>
<clus scale="   34.933">  1  3  2 -1</clus>
<clus scale="   43.434">  2  4  1 -1</clus>
<clus scale="   70.233">  2  6  1 -1</clus>
<clus scale="   34.933">  1  3  2 -1</clus>
</clustering>
</event>
<event>
 6    0  0.4189111E+002  0.9206175E+02  0.7546771E-02  0.1297934E+00
          1   -1    0    0  503    0 -0.00000000000E+00  0.00000000000E+00  0.13527005458E+04  0.13527005458E+04  0.00000000000E+00 0. -1.
         21   -1    0    0  504  502  0.00000000000E+00 -0.00000000000E+00 -0.11155060349E+03  0.11155060349E+03  0.00000000000E+00 0. -1.
         21    1    1    2  503  505  0.15172058440E+03  0.68480783034E+02  0.29391102816E+03  0.33777573307E+03  0.00000000000E+00 0. -1.
         21    1    1    2  504  501 -0.51364155237E+02 -0.21858719114E+02  0.28812805074E+03  0.29348569584E+03  0.00000000000E+00 0. -1.
         21    1    1    2  505  502 -0.66085720371E+02 -0.25704429195E+02 -0.71837830901E+02  0.10093916022E+03  0.00000000000E+00 0. -1.
          1    1    1    2  501    0 -0.34270708788E+02 -0.20917634725E+02  0.73094869436E+03  0.73205056021E+03  0.00000000000E+00 0. -1.
<scales pt_clust_3="14000.00000" pt_clust_4="92.06175" pt_clust_5="71.83462" pt_clust_6="40.15008"></scales>
<clustering>
<clus scale="   40.150">  1  6  2 -1</clus>
<clus scale="   71.835">  2  5  1 -1</clus>
<clus scale="   92.062">  1  4  2 -1</clus>
<clus scale="   71.835">  2  3  1 -1</clus>
</clustering>
</event>
<event>
 6    0  0.4189111E+002  0.5644029E+02  0.7546771E-02  0.1413408E+00
         21   -1    0    0  503  502  0.00000000000E+00  0.00000000000E+00  0.57538021556E+03  0.57538021556E+03  0.00000000000E+00 0.  1.
          1   -1    0    0  504    0 -0.00000000000E+00 -0.00000000000E+00 -0.15183801660E+04  0.15183801660E+04  0.00000000000E+00 0.  1.
         21    1    1    2  503  501 -0.81290457399E+02 -0.24506058433E+02 -0.24495514547E+02  0.88366937239E+02  0.00000000000E+00 0. -1.
         21    1    1    2  504  505  0.71585792302E+02 -0.51206357378E+02  0.17350557008E+03  0.19455281942E+03  0.00000000000E+00 0.  1.
         21    1    1    2  505  502 -0.23635030255E+02  0.42988051852E+02  0.35736325075E+03  0.36071467983E+03  0.00000000000E+00 0.  1.
          1    1    1    2  501    0  0.33339695352E+02  0.32724363959E+02 -0.14493732567E+04  0.14501259451E+04  0.00000000000E+00 0.  1.
<scales pt_clust_3="56.44029" pt_clust_4="14000.00000" pt_clust_5="49.37717" pt_clust_6="46.71637"></scales>
<clustering>
<clus scale="   46.716">  2  6  1 -1</clus>
<clus scale="   49.377">  1  5  2 -1</clus>
<clus scale="   56.440">  2  3  1 -1</clus>
<clus scale="   49.377">  1  3  2 -1</clus>
</clustering>
</event>
<event>
 6    0  0.4189111E+002  0.1192173E+03  0.7546771E-02  0.1244394E+00
         21   -1    0    0  503  502  0.00000000000E+00  0.00000000000E+00  0.19476914101E+02  0.19476914101E+02  0.00000000000E+00 0. -1.
          2   -1    0    0  505    0 -0.00000000000E+00 -0.00000000000E+00 -0.28205118213E+04  0.28205118213E+04  0.00000000000E+00 0. -1.
         21    1    1    2  503  501  0.13593641769E+03 -0.72315821307E+02 -0.45468006776E+03  0.48004401016E+03  0.00000000000E+00 0. -1.
         21    1    1    2  504  502 -0.15616715847E+02  0.48532531006E+02 -0.13493819596E+03  0.14424841458E+03  0.00000000000E+00 0.  1.
         21    1    1    2  505  504 -0.37507346846E+02  0.57644011727E+00 -0.29856196361E+03  0.30090925453E+03  0.00000000000E+00 0.  1.
          2    1    1    2  501    0 -0.82812355000E+02  0.23206850184E+02 -0.19128546799E+04  0.19147870562E+04  0.00000000000E+00 0. -1.
<scales pt_clust_3="119.21735" pt_clust_4="51.68728" pt_clust_5="37.51178" pt_clust_6="14000.00000"></scales>
<clustering>
<clus scale="   37.512">  2  5  1 -1</clus>
<clus scale="   51.687">  1  4  2 -1</clus>
<clus scale="  119.217">  1  3  2 -1</clus>
<clus scale="   51.687">  1  3  2 -1</clus>
</clustering>
</event>
<event>
 6    0  0.4189111E+002  0.9973867E+02  0.7546771E-02  0.1280846E+00
         21   -1    0    0  503  502  0.00000000000E+00  0.00000000000E+00  0.10016839002E+03  0.10016839002E+03  0.00000000000E+00 0.  1.
          2   -1    0    0  504    0 -0.00000000000E+00 -0.00000000000E+00 -0.59609552926E+03  0.59609552926E+03  0.00000000000E+00 0.  1.
         21    1    1    2  503  501 -0.99517574570E+02  0.37953040219E+02  0.71754613442E+01  0.10675049487E+03  0.00000000000E+00 0.  1.
         21    1    1    2  504  505  0.10545257312E+02  0.64861831785E+02 -0.14663421206E+03  0.16068556818E+03  0.00000000000E+00 0.  1.
         21    1    1    2  505  502 -0.23337900682E+01 -0.75322938376E+02 -0.18405472760E+02  0.77574177722E+02  0.00000000000E+00 0.  1.
          2    1    1    2  501    0  0.91306107327E+02 -0.27491933628E+02 -0.33806291576E+03  0.35125367850E+03  0.00000000000E+00 0.  1.
<scales pt_clust_3="14000.00000" pt_clust_4="65.71347" pt_clust_5="68.29791" pt_clust_6="99.73867"></scales>
<clustering>
<clus scale="   65.713">  2  4  1 -1</clus>
<clus scale="   68.298">  1  5  2 -1</clus>
<clus scale="   99.739">  2  6  1 -1</clus>
<clus scale="   68.298">  1  3  2 -1</clus>
</clustering>
</event>
<event>
 6    0  0.4189111E+002  0.1313945E+03  0.7546771E-02  0.1225401E+00
         21   -1    0    0  504  502  0.00000000000E+00  0.00000000000E+00  0.25209364802E+02  0.25209364802E+02  0.00000000000E+00 0. -1.
          2   -1    0    0  503    0 -0.00000000000E+00 -0.00000000000E+00 -0.16062416846E+04  0.16062416846E+04  0.00000000000E+00 0. -1.
         21    1    1    2  503  502  0.14164386491E+03 -0.84619793991E+02 -0.47621409703E+03  0.50398746038E+03  0.00000000000E+00 0. -1.
         21    1    1    2  504  505 -0.37492013374E+02  0.12127814579E+02 -0.68985940644E+02  0.79446805850E+02  0.00000000000E+00 0. -1.
         21    1    1    2  505  501 -0.10631066860E+03  0.33354478007E+02 -0.58734579599E+03  0.59782067840E+03  0.00000000000E+00 0. -1.
          2    1    1    2  501    0  0.21588170649E+01  0.39137501405E+02 -0.44848648616E+03  0.45019610479E+03  0.00000000000E+00 0. -1.
<scales pt_clust_3="14000.00000" pt_clust_4="40.11947" pt_clust_5="131.39451" pt_clust_6="39.19700"></scales>
<clustering>
<clus scale="   39.197">  2  6  1 -1</clus>
<clus scale="   40.119">  1  4  2 -1</clus>
<clus scale="  131.395">  2  5  1 -1</clus>
<clus scale="   40.119">  1  3  2 -1</clus>
</clustering>
</event>
<event>
 6    0  0.4189111E+002  0.2107621E+03  0.7546771E-02  0.1140964E+00
          3   -1    0    0  502    0 -0.00000000000E+00  0.00000000000E+00  0.93894478880E+03  0.93894478880E+03  0.00000000000E+00 0.  1.
         21   -1    0    0  504  502  0.00000000000E+00 -0.00000000000E+00 -0.27004981273E+03  0.27004981273E+03  0.00000000000E+00 0.  1.
         21    1    1    2  503  505 -0.23904498730E+03 -0.25751655384E+02  0.10676446706E+03  0.26306711147E+03  0.00000000000E+00 0.  1.
         21    1    1    2  504  503  0.47794896961E+02  0.15637543896E+02 -0.17450179380E+03  0.18160330667E+03  0.00000000000E+00 0.  1.
         21    1    1    2  505  501  0.69648827476E+02  0.42714082509E+01  0.15345587870E+03  0.16857612763E+03  0.00000000000E+00 0.  1.
          3    1    1    2  501    0  0.12160126286E+03  0.58427032375E+01  0.58317642410E+03  0.59574805576E+03  0.00000000000E+00 0.  1.
<scales pt_clust_3="198.83467" pt_clust_4="50.28802" pt_clust_5="53.68859" pt_clust_6="53.68859"></scales>
<clustering>
<clus scale="   50.288">  2  4  1 -1</clus>
<clus scale="   53.689">  5  6 -1 -1</clus>
<clus scale="  198.835">  2  3  1 -1</clus>
<clus scale="   50.288">  2  3  1 -1</clus>
</clustering>
</event>
<event>
 6    0  0.4189111E+002  0.5849729E+02  0.7546771E-02  0.1404248E+00
         -3   -1    0    0    0  501 -0.00000000000E+00  0.00000000000E+00  0.31823616960E+02  0.31823616960E+02  0.00000000000E+00 0. -1.
         21   -1    0    0  505  502  0.00000000000E+00 -0.00000000000E+00 -0.81888456539E+03  0.81888456539E+03  0.00000000000E+00 0.  1.
         21    1    1    2  503  501 -0.10330735702E+02 -0.28632131555E+02 -0.71916813531E+02  0.78093220743E+02  0.00000000000E+00 0. -1.
         21    1    1    2  504  503  0.52089983622E+02 -0.12127167429E+02 -0.12244845276E+03  0.13361907860E+03  0.00000000000E+00 0.  1.
         21    1    1    2  505  504  0.42013119322E+02 -0.34734387509E+02 -0.46682612696E+03  0.46999809860E+03  0.00000000000E+00 0.  1.
         -3    1    1    2    0  502 -0.83772367242E+02  0.75493686494E+02 -0.12586955518E+03  0.16899778441E+03  0.00000000000E+00 0. -1.
<scales pt_clust_3="30.43884" pt_clust_4="53.11523" pt_clust_5="58.49729" pt_clust_6="14000.00000"></scales>
<clustering>
<clus scale="   30.439">  1  3  2 -1</clus>
<clus scale="   53.115">  1  4  2 -1</clus>
<clus scale="   58.497">  2  5  1 -1</clus>
<clus scale="   58.497">  2  3  1 -1</clus>
</clustering>
</event>
<event>
 6    0  0.4189111E+002  0.1226043E+03  0.7546771E-02  0.1238862E+00
         21   -1    0    0  501  502  0.00000000000E+00  0.00000000000E+00  0.18983130463E+03  0.18983130463E+03  0.00000000000E+00 0.  1.
          1   -1    0    0  505    0 -0.00000000000E+00 -0.00000000000E+00 -0.76121663869E+03  0.76121663869E+03  0.00000000000E+00 0.  1.
         21    1    1    2  503  502  0.29005688916E+02 -0.25723084056E+02  0.33293448954E+02  0.51102453817E+02  0.00000000000E+00 0.  1.
         21    1    1    2  504  503 -0.18468952476E+02 -0.98404523051E+02  0.11680475238E+03  0.15384376017E+03  0.00000000000E+00 0.  1.
         21    1    1    2  505  504 -0.35302837202E+02 -0.75408282560E+01 -0.51737806811E+02  0.63086884999E+02  0.00000000000E+00 0.  1.
          1    1    1    2  501    0  0.24766100762E+02  0.13166843536E+03 -0.66974572859E+03  0.68301484434E+03  0.00000000000E+00 0.  1.
<scales pt_clust_3="38.49952" pt_clust_4="14000.00000" pt_clust_5="36.09923" pt_clust_6="122.60428"></scales>
<clustering>
<clus scale="   36.099">  2  5  1 -1</clus>
<clus scale="   38.500">  1  3  2 -1</clus>
<clus scale="  122.604">  2  6  1 -1</clus>
<clus scale="   38.500">  1  3  2 -1</clus>
</clustering>
</event>
<event>
 6    0  0.4189111E+002  0.2126563E+03  0.7546771E-02  0.1139480E+00
         21   -1    0    0  503  502  0.00000000000E+00  0.00000000000E+00  0.76949936299E+03  0.76949936299E+03  0.00000000000E+00 0. -1.
         -3   -1    0    0    0  501 -0.00000000000E+00 -0.00000000000E+00 -0.11340878508E+04  0.11340878508E+04  0.00000000000E+00 0. -1.
         21    1    1    2  503  505 -0.57295410620E+02 -0.29947327651E+02  0.69641486550E+02  0.95023908362E+02  0.00000000000E+00 0. -1.
         21    1    1    2  504  502  0.12094843641E+03  0.25970201319E+03  0.59220951354E+03  0.65786455130E+03  0.00000000000E+00 0. -1.
         21    1    1    2  505  501 -0.75195715430E+02 -0.11451871586E+03 -0.20986523972E+02  0.13859785745E+03  0.00000000000E+00 0. -1.
         -3    1    1    2    0  504  0.11542689645E+02 -0.11523596968E+03 -0.10054529639E+04  0.10121008966E+04  0.00000000000E+00 0. -1.
<scales pt_clust_3="64.64988" pt_clust_4="14000.00000" pt_clust_5="212.65627" pt_clust_6="115.92950"></scales>
<clustering>
<clus scale="   64.650">  1  3  2 -1</clus>
<clus scale="  115.929">  2  6  1 -1</clus>
<clus scale="  212.656">  2  5  1 -1</clus>
<clus scale="   64.650">  1  3  2 -1</clus>
</clustering>
</event>
<event>
 6    0  0.4189111E+002  0.7476518E+02  0.7546771E-02  0.1344600E+00
         21   -1    0    0  505  502  0.00000000000E+00  0.00000000000E+00  0.15008531750E+03  0.15008531750E+03  0.00000000000E+00 0. -1.
          2   -1    0    0  503    0 -0.00000000000E+00 -0.00000000000E+00 -0.12386646270E+04  0.12386646270E+04  0.00000000000E+00 0. -1.
         21    1    1    2  503  504 -0.14230591304E+02  0.35964178275E+02 -0.28372491075E+03  0.28634901227E+03  0.00000000000E+00 0.  1.
         21    1    1    2  504  502 -0.65398289141E+02 -0.27116854711E+02  0.40617234897E+02  0.81621197019E+02  0.00000000000E+00 0. -1.
         21    1    1    2  505  501  0.11312237558E+03 -0.32425441745E+02  0.47475486542E+02  0.12689366790E+03  0.00000000000E+00 0. -1.
          2    1    1    2  501    0 -0.33493495137E+02  0.23578118182E+02 -0.89294712019E+03  0.89388606731E+03  0.00000000000E+00 0. -1.
<scales pt_clust_3="38.67728" pt_clust_4="70.78866" pt_clust_5="74.76518" pt_clust_6="14000.00000"></scales>
<clustering>
<clus scale="   38.677">  2  3  1 -1</clus>
<clus scale="   70.789">  1  4  2 -1</clus>
<clus scale="   74.765">  1  5  2 -1</clus>
<clus scale="   70.789">  1  3  2 -1</clus>
</clustering>
</event>
<event>
 6    0  0.4189111E+002  0.1269137E+03  0.7546771E-02  0.1232108E+00
         21   -1    0    0  501  502  0.00000000000E+00  0.00000000000E+00  0.27484545739E+02  0.27484545739E+02  0.00000000000E+00 0.  1.
          1   -1    0    0  503    0 -0.00000000000E+00 -0.00000000000E+00 -0.37906150897E+04  0.37906150897E+04  0.00000000000E+00 0. -1.
         21    1    1    2  503  504 -0.17818149002E+02 -0.47786817174E+02 -0.13725219433E+04  0.13734691665E+04  0.00000000000E+00 0. -1.
         21    1    1    2  504  505  0.63092765019E+02  0.10541468804E+02 -0.49701664007E+03  0.50111611436E+03  0.00000000000E+00 0.  1.
         21    1    1    2  505  502 -0.10845832269E+03  0.76008109567E+02 -0.15725424429E+03  0.20559508221E+03  0.00000000000E+00 0.  1.
          1    1    1    2  501    0  0.63183706669E+02 -0.38762761197E+02 -0.17363377163E+04  0.17379192724E+04  0.00000000000E+00 0. -1.
<scales pt_clust_3="51.00065" pt_clust_4="59.41844" pt_clust_5="14000.00000" pt_clust_6="126.91367"></scales>
<clustering>
<clus scale="   51.001">  2  3  1 -1</clus>
<clus scale="   59.418">  2  4  1 -1</clus>
<clus scale="  126.914">  2  6  1 -1</clus>
<clus scale="  126.914">  1  3  2 -1</clus>
</clustering>
</event>
<event>
 6    0  0.4189111E+002  0.1642696E+03  0.7546771E-02  0.1183959E+00
         21   -1    0    0  505  502  0.00000000000E+00  0.00000000000E+00  0.69229330008E+03  0.69229330008E+03  0.00000000000E+00 0. -1.
          2   -1    0    0  502    0 -0.00000000000E+00 -0.00000000000E+00 -0.17605956300E+04  0.17605956300E+04  0.00000000000E+00 0.  1.
         21    1    1    2  503  501  0.47064110286E+02  0.77740539481E+02 -0.93360146233E+03  0.93801402571E+03  0.00000000000E+00 0.  1.
         21    1    1    2  504  503 -0.85515334516E+02 -0.95587200977E+02  0.24483094417E+03  0.27639098511E+03  0.00000000000E+00 0. -1.
         21    1    1    2  505  504 -0.21861339251E+02 -0.24664505155E+02  0.42715737277E+03  0.42842697987E+03  0.00000000000E+00 0. -1.
          2    1    1    2  501    0  0.60312563481E+02  0.42511166651E+02 -0.80668918453E+03  0.81005693939E+03  0.00000000000E+00 0.  1.
<scales pt_clust_3="30.56201" pt_clust_4="160.73010" pt_clust_5="32.95840" pt_clust_6="30.56201"></scales>
<clustering>
<clus scale="   30.562">  3  6 -1 -1</clus>
<clus scale="   32.958">  1  5  2 -1</clus>
<clus scale="  160.730">  1  4  2 -1</clus>
<clus scale="   32.958">  1  3  2 -1</clus>
</clustering>
</event>
<event>
 6    0  0.4189111E+002  0.8762639E+02  0.7546771E-02  0.1308704E+00
          2   -1    0    0  504    0 -0.00000000000E+00  0.00000000000E+00  0.47868355123E+02  0.47868355123E+02  0.00000000000E+00 0.  1.
         21   -1    0    0  501  502  0.00000000000E+00 -0.00000000000E+00 -0.23987777879E+04  0.23987777879E+04  0.00000000000E+00 0. -1.
         21    1    1    2  503  505 -0.12463888829E+03  0.44734097611E+00 -0.12083541650E+04  0.12147653439E+04  0.00000000000E+00 0. -1.
         21    1    1    2  504  503  0.21167349483E+02 -0.24765165276E+02 -0.34982989033E+02  0.47803552346E+02  0.00000000000E+00 0.  1.
         21    1    1    2  505  502  0.50227881963E+02  0.49431420181E+02 -0.11213948922E+04  0.11236070530E+04  0.00000000000E+00 0. -1.
          2    1    1    2  501    0  0.53243656843E+02 -0.25113595881E+02  0.13822613440E+02  0.60470193769E+02  0.00000000000E+00 0.  1.
<scales pt_clust_3="14000.00000" pt_clust_4="32.57868" pt_clust_5="70.41641" pt_clust_6="87.62639"></scales>
<clustering>
<clus scale="   32.579">  1  4  2 -1</clus>
<clus scale="   70.416">  2  5  1 -1</clus>
<clus scale="   87.626">  1  6  2 -1</clus>
<clus scale="   70.416">  2  3  1 -1</clus>
</clustering>
</event>
<event>
 6    0  0.4189111E+002  0.1189708E+03  0.7546771E-02  0.1244805E+00
          1   -1    0    0  504    0 -0.00000000000E+00  0.00000000000E+00  0.89617329037E+03  0.89617329037E+03  0.00000000000E+00 0. -1.
         21   -1    0    0  505  502  0.00000000000E+00 -0.00000000000E+00 -0.58272171340E+02  0.58272171340E+02  0.00000000000E+00 0. -1.
         21    1    1    2  503  501  0.77326249480E+02 -0.59956079970E+02  0.23365566576E+03  0.25331610791E+03  0.00000000000E+00 0. -1.
         21    1    1    2  504  502  0.13808364955E+02 -0.31335789347E+02 -0.69204022610E+01  0.34935577914E+02  0.00000000000E+00 0. -1.
         21    1    1    2  505  503  0.30049224784E+02  0.29698227555E+02  0.22716240064E+01  0.42309584087E+02  0.00000000000E+00 0. -1.
          1    1    1    2  501    0 -0.12118383922E+03  0.61593641763E+02  0.60889423153E+03  0.62388419180E+03  0.00000000000E+00 0. -1.
<scales pt_clust_3="118.97083" pt_clust_4="34.24329" pt_clust_5="39.61090" pt_clust_6="14000.00000"></scales>
<clustering>
<clus scale="   34.243">  2  4  1 -1</clus>
<clus scale="   39.611">  2  5  1 -1</clus>
<clus scale="  118.971">  2  3  1 -1</clus>
<clus scale="   34.243">  2  3  1 -1</clus>
</clustering>
</event>
<event>
 6    0  0.4189111E+002  0.1153568E+03  0.7546771E-02  0.1250960E+00
         21   -1    0    0  505  502  0.00000000000E+00  0.00000000000E+00  0.13202430993E+04  0.13202430993E+04  0.00000000000E+00 0.  1.
          4   -1    0    0  503    0 -0.00000000000E+00 -0.00000000000E+00 -0.19295652824E+03  0.19295652824E+03  0.00000000000E+00 0.  1.
         21    1    1    2  503  504  0.34724982049E+02  0.25549841659E+02  0.38934765026E+01  0.43287156829E+02  0.00000000000E+00 0.  1.
         21    1    1    2  504  502 -0.51245750752E+02 -0.12621723293E+02  0.69434445558E+03  0.69634736868E+03  0.00000000000E+00 0.  1.
         21    1    1    2  505  501 -0.41303161695E+01  0.11451954602E+03  0.57059030166E+03  0.58198374400E+03  0.00000000000E+00 0.  1.
          4    1    1    2  501    0  0.20651084873E+02 -0.12744766439E+03 -0.14154166269E+03  0.19158135803E+03  0.00000000000E+00 0.  1.
<scales pt_clust_3="43.11170" pt_clust_4="52.54710" pt_clust_5="14000.00000" pt_clust_6="115.35684"></scales>
<clustering>
<clus scale="   43.112">  2  3  1 -1</clus>
<clus scale="   52.547">  1  4  2 -1</clus>
<clus scale="  115.357">  2  6  1 -1</clus>
<clus scale="   52.547">  1  3  2 -1</clus>
</clustering>
</event>
<event>
 6    0  0.4189111E+002  0.1100177E+03  0.7546771E-02  0.1260537E+00
         21   -1    0    0  504  502  0.00000000000E+00  0.00000000000E+00  0.93957206651E+03  0.93957206651E+03  0.00000000000E+00 0.  1.
         -3   -1    0    0    0  501 -0.00000000000E+00 -0.00000000000E+00 -0.10447332504E+04  0.10447332504E+04  0.00000000000E+00 0.  1.
         21    1    1    2  503  505 -0.96331413358E+02 -0.10394277957E+03  0.81739508976E+02  0.16360070278E+03  0.00000000000E+00 0.  1.
         21    1    1    2  504  501  0.14656596572E+01  0.32640759160E+02 -0.21196358355E+02  0.38946796072E+02  0.00000000000E+00 0. -1.
         21    1    1    2  505  502  0.12423609164E+02  0.35901585351E+02  0.80551133776E+03  0.80640671200E+03  0.00000000000E+00 0.  1.
         -3    1    1    2    0  503  0.82442144537E+02  0.35400435054E+02 -0.97121567224E+03  0.97535110601E+03  0.00000000000E+00 0.  1.
<scales pt_clust_3="110.01765" pt_clust_4="32.67365" pt_clust_5="38.00421" pt_clust_6="14000.00000"></scales>
<clustering>
<clus scale="   32.674">  2  4  1 -1</clus>
<clus scale="   38.004">  1  5  2 -1</clus>
<clus scale="  110.018">  1  3  2 -1</clus>
<clus scale="   38.004">  1  3  2 -1</clus>
</clustering>
</event>
<event>
 6    0  0.4189111E+002  0.1005275E+03  0.7546771E-02  0.1279191E+00
          2   -1    0    0  503    0 -0.00000000000E+00  0.00000000000E+00  0.15666681456E+04  0.15666681456E+04  0.00000000000E+00 0.  1.
         21   -1    0    0  505  502  0.00000000000E+00 -0.00000000000E+00 -0.90562985605E+02  0.90562985605E+02  0.00000000000E+00 0. -1.
         21    1    1    2  503  504  0.10455393302E+03  0.48388082680E+02  0.10777208364E+04  0.10838612147E+04  0.00000000000E+00 0.  1.
         21    1    1    2  504  502 -0.86169443366E+00 -0.56544078814E+02  0.75106476291E+02  0.94015733508E+02  0.00000000000E+00 0.  1.
         21    1    1    2  505  501 -0.38710997181E+02  0.56914114503E+02 -0.57696339960E+02  0.89814394042E+02  0.00000000000E+00 0. -1.
          2    1    1    2  501    0 -0.64981241402E+02 -0.48758118369E+02  0.38097418728E+03  0.38953978900E+03  0.00000000000E+00 0.  1.
<scales pt_clust_3="14000.00000" pt_clust_4="56.55064" pt_clust_5="39.87516" pt_clust_6="100.52749"></scales>
<clustering>
<clus scale="   56.551">  2  4  1 -1</clus>
<clus scale="   39.875">  2  5  1 -1</clus>
<clus scale="  100.527">  2  6  1 -1</clus>
<clus scale="   56.551">  2  3  1 -1</clus>
</clustering>
</event>
<event>
 6    0  0.4189111E+002  0.8807895E+02  0.7546771E-02  0.1307572E+00
         -1   -1    0    0    0  501 -0.00000000000E+00  0.00000000000E+00  0.22177734366E+04  0.22177734366E+04  0.00000000000E+00 0. -1.
         21   -1    0    0  503  502  0.00000000000E+00 -0.00000000000E+00 -0.24312067353E+02  0.24312067353E+02  0.00000000000E+00 0. -1.
         21    1    1    2  503  504 -0.22569739130E+02  0.56630652517E+02  0.37290999906E+02  0.71463575358E+02  0.00000000000E+00 0. -1.
         21    1    1    2  504  505 -0.69350363299E+02 -0.34733947776E+02  0.47295029539E+03  0.47926808983E+03  0.00000000000E+00 0. -1.
         21    1    1    2  505  501  0.91018464866E+02  0.21846325936E+02  0.15025038605E+04  0.15054167110E+04  0.00000000000E+00 0. -1.
         -1    1    1    2    0  502  0.90163756377E+00 -0.43743030677E+02  0.18071621347E+03  0.18593712779E+03  0.00000000000E+00 0. -1.
<scales pt_clust_3="31.14921" pt_clust_4="88.07895" pt_clust_5="14000.00000" pt_clust_6="43.75232"></scales>
<clustering>
<clus scale="   43.752">  2  6  1 -1</clus>
<clus scale="   31.149">  2  3  1 -1</clus>
<clus scale="   88.079">  2  4  1 -1</clus>
<clus scale="   43.752">  2  3  1 -1</clus>
</clustering>
</event>
<event>
 6    0  0.4189111E+002  0.8983164E+02  0.7546771E-02  0.1303260E+00
         -1   -1    0    0    0  501 -0.00000000000E+00  0.00000000000E+00  0.18953575975E+04  0.18953575975E+04  0.00000000000E+00 0. -1.
         21   -1    0    0  505  502  0.00000000000E+00 -0.00000000000E+00 -0.10700740810E+03  0.10700740810E+03  0.00000000000E+00 0.  1.
         21    1    1    2  503  501  0.27421828263E+02 -0.19601340307E+02  0.13372639694E+04  0.13376887131E+04  0.00000000000E+00 0. -1.
         21    1    1    2  504  502 -0.41399784322E+02  0.29248791196E+02  0.26965057922E+02  0.57415575213E+02  0.00000000000E+00 0.  1.
         21    1    1    2  505  503  0.16765170737E+02 -0.11288295021E+03 -0.48125703634E+02  0.12385360208E+03  0.00000000000E+00 0.  1.
         -1    1    1    2    0  504 -0.27872146776E+01  0.10323549932E+03  0.47224686571E+03  0.48340711523E+03  0.00000000000E+00 0. -1.
<scales pt_clust_3="33.70711" pt_clust_4="48.14049" pt_clust_5="89.83164" pt_clust_6="14000.00000"></scales>
<clustering>
<clus scale="   33.707">  1  3  2 -1</clus>
<clus scale="   48.140">  2  4  1 -1</clus>
<clus scale="   89.832">  2  5  1 -1</clus>
<clus scale="   48.140">  2  3  1 -1</clus>
</clustering>
</event>
<event>
 6    0  0.4189111E+002  0.8096506E+02  0.7546771E-02  0.1326335E+00
         -4   -1    0    0    0  501 -0.00000000000E+00  0.00000000000E+00  0.69578230987E+02  0.69578230987E+02  0.00000000000E+00 0.  1.
         21   -1    0    0  504  502  0.00000000000E+00 -0.00000000000E+00 -0.41281474853E+03  0.41281474853E+03  0.00000000000E+00 0. -1.
         21    1    1    2  503  501 -0.15904856092E+02  0.28355608982E+02 -0.18422607377E+02  0.37368402035E+02  0.00000000000E+00 0. -1.
         21    1    1    2  504  503 -0.87776074723E+02 -0.62973821295E+02 -0.17114310828E+03  0.20238652369E+03  0.00000000000E+00 0. -1.
         21    1    1    2  505  502  0.76012885785E+02 -0.20233887725E+02 -0.16253328347E+03  0.18056698827E+03  0.00000000000E+00 0. -1.
         -4    1    1    2    0  505  0.27668045030E+02  0.54852100038E+02  0.88624815825E+01  0.62071065515E+02  0.00000000000E+00 0.  1.
<scales pt_clust_3="32.51161" pt_clust_4="80.96506" pt_clust_5="14000.00000" pt_clust_6="73.88199"></scales>
<clustering>
<clus scale="   32.512">  1  3  2 -1</clus>
<clus scale="   73.882">  1  6  2 -1</clus>
<clus scale="   80.965">  1  4  2 -1</clus>
<clus scale="   80.965">  2  3  1 -1</clus>
</clustering>
</event>
<event>
 6    0  0.4189111E+002  0.1092017E+03  0.7546771E-02  0.1262055E+00
         21   -1    0    0  504  502  0.00000000000E+00  0.00000000000E+00  0.13899398429E+03  0.13899398429E+03  0.00000000000E+00 0. -1.
          1   -1    0    0  503    0 -0.00000000000E+00 -0.00000000000E+00 -0.46584998615E+03  0.46584998615E+03  0.00000000000E+00 0. -1.
         21    1    1    2  503  505 -0.60450508101E+02 -0.10622093908E+03 -0.22387751053E+03  0.25506526920E+03  0.00000000000E+00 0. -1.
         21    1    1    2  504  501  0.29945649246E+02  0.65624756912E+02  0.70540652871E+02  0.10089268723E+03  0.00000000000E+00 0. -1.
         21    1    1    2  505  502 -0.20276633971E+02 -0.43740814294E+02  0.13271475381E+01  0.48230302103E+02  0.00000000000E+00 0.  1.
          1    1    1    2  501    0  0.50781492827E+02  0.84336996463E+02 -0.17484629174E+03  0.20065571191E+03  0.00000000000E+00 0. -1.
<scales pt_clust_3="14000.00000" pt_clust_4="35.95321" pt_clust_5="48.21204" pt_clust_6="109.20165"></scales>
<clustering>
<clus scale="   48.212">  1  5  2 -1</clus>
<clus scale="   35.953">  1  4  2 -1</clus>
<clus scale="  109.202">  2  6  1 -1</clus>
<clus scale="   48.212">  1  3  2 -1</clus>
</clustering>
</event>
<event>
 6    0  0.4189111E+002  0.1045874E+03  0.7546771E-02  0.1270935E+00
         -2   -1    0    0    0  501 -0.00000000000E+00  0.00000000000E+00  0.48411543776E+03  0.48411543776E+03  0.00000000000E+00 0.  1.
         21   -1    0    0  505  502  0.00000000000E+00 -0.00000000000E+00 -0.24392302061E+03  0.24392302061E+03  0.00000000000E+00 0.  1.
         21    1    1    2  503  501 -0.10756787145E+03  0.99596819324E+01  0.19417597307E+03  0.22220339950E+03  0.00000000000E+00 0.  1.
         21    1    1    2  504  502  0.31401166963E+02  0.92538274521E+02 -0.95283732956E+02  0.13648573297E+03  0.00000000000E+00 0.  1.
         21    1    1    2  505  503  0.15564447603E+02 -0.12243572449E+03 -0.74603767537E+02  0.14421678402E+03  0.00000000000E+00 0.  1.
         -2    1    1    2    0  504  0.60602256881E+02  0.19937768039E+02  0.21590394457E+03  0.22513254188E+03  0.00000000000E+00 0.  1.
<scales pt_clust_3="65.00310" pt_clust_4="104.58743" pt_clust_5="14000.00000" pt_clust_6="63.79771"></scales>
<clustering>
<clus scale="   63.798">  1  6  2 -1</clus>
<clus scale="   65.003">  1  3  2 -1</clus>
<clus scale="  104.587">  2  4  1 -1</clus>
<clus scale="  104.587">  2  3  1 -1</clus>
</clustering>
</event>
<event>
 6    0  0.4860241E+002  0.9587720E+02  0.7546771E-02  0.1289213E+00
          2   -1    0    0  503    0 -0.00000000000E+00  0.00000000000E+00  0.40892232677E+04  0.40892232677E+04  0.00000000000E+00 0. -1.
         21   -1    0    0  505  502  0.00000000000E+00 -0.00000000000E+00 -0.68104120248E+03  0.68104120248E+03  0.00000000000E+00 0.  1.
         21    1    1    2  503  504 -0.11215281341E+02  0.35868084506E+02  0.55958857902E+03  0.56084907043E+03  0.00000000000E+00 0. -1.
         21    1    1    2  504  502 -0.55619097095E+02 -0.99108442843E+02 -0.65214170213E+03  0.66197036721E+03  0.00000000000E+00 0.  1.
         21    1    1    2  505  501  0.36955641956E+02  0.49008353218E+01 -0.79749989009E+01  0.38122673918E+02  0.00000000000E+00 0. -1.
          2    1    1    2  501    0  0.29878736480E+02  0.58339523015E+02  0.35087101872E+04  0.35093223586E+04  0.00000000000E+00 0. -1.
<scales pt_clust_3="37.57454" pt_clust_4="14000.00000" pt_clust_5="37.27919" pt_clust_6="95.87720"></scales>
<clustering>
<clus scale="   37.279">  2  5  1 -1</clus>
<clus scale="   37.575">  1  3  2 -1</clus>
<clus scale="   95.877">  1  6  2 -1</clus>
<clus scale="   37.279">  2  3  1 -1</clus>
</clustering>
</event>
<event>
 6    0  0.4189111E+002  0.3440563E+03  0.7546771E-02  0.1065081E+00
         21   -1    0    0  504  502  0.00000000000E+00  0.00000000000E+00  0.47197610262E+02  0.47197610262E+02  0.00000000000E+00 0.  1.
          2   -1    0    0  505    0 -0.00000000000E+00 -0.00000000000E+00 -0.32015368287E+04  0.32015368287E+04  0.00000000000E+00 0.  1.
         21    1    1    2  503  502  0.56934065107E+02 -0.26765123950E+02 -0.20600829983E+03  0.21540027676E+03  0.00000000000E+00 0.  1.
         21    1    1    2  504  501 -0.12759855935E+03 -0.13602943428E+03 -0.10854375446E+04  0.11013446611E+04  0.00000000000E+00 0. -1.
         21    1    1    2  505  503  0.15218406294E+03  0.30156490875E+03 -0.10392179458E+04  0.10927375358E+04  0.00000000000E+00 0.  1.
          2    1    1    2  501    0 -0.81519568690E+02 -0.13877035051E+03 -0.82367542829E+03  0.83925196540E+03  0.00000000000E+00 0.  1.
<scales pt_clust_3="62.91152" pt_clust_4="41.10077" pt_clust_5="341.19954" pt_clust_6="41.10077"></scales>
<clustering>
<clus scale="   41.101">  4  6 -1 -1</clus>
<clus scale="   62.912">  1  3  2 -1</clus>
<clus scale="  341.200">  1  5  2 -1</clus>
<clus scale="   62.912">  1  3  2 -1</clus>
</clustering>
</event>
<event>
 6    0  0.4189111E+002  0.2379969E+03  0.7546771E-02  0.1121134E+00
          2   -1    0    0  503    0 -0.00000000000E+00  0.00000000000E+00  0.74106566098E+03  0.74106566098E+03  0.00000000000E+00 0. -1.
         21   -1    0    0  501  502  0.00000000000E+00 -0.00000000000E+00 -0.48911458923E+03  0.48911458923E+03  0.00000000000E+00 0. -1.
         21    1    1    2  503  504  0.78627577211E+02 -0.48357817246E+02  0.72504023218E+02  0.11737805489E+03  0.00000000000E+00 0. -1.
         21    1    1    2  504  505 -0.13561010184E+02 -0.10706577951E+03  0.46160236304E+02  0.11737865886E+03  0.00000000000E+00 0. -1.
         21    1    1    2  505  502  0.19807746208E+03  0.13541262928E+03 -0.36195169471E+03  0.43425832226E+03  0.00000000000E+00 0. -1.
          2    1    1    2  501    0 -0.26314402911E+03  0.20010967480E+02  0.49523850694E+03  0.56116521420E+03  0.00000000000E+00 0. -1.
<scales pt_clust_3="92.30804" pt_clust_4="113.24321" pt_clust_5="237.99692" pt_clust_6="14000.00000"></scales>
<clustering>
<clus scale="   92.308">  1  3  2 -1</clus>
<clus scale="  113.243">  1  4  2 -1</clus>
<clus scale="  237.997">  2  5  1 -1</clus>
<clus scale="  237.997">  2  3  1 -1</clus>
</clustering>
</event>
<event>
 6    0  0.4189111E+002  0.9674705E+02  0.7546771E-02  0.1287289E+00
          2   -1    0    0  505    0 -0.00000000000E+00  0.00000000000E+00  0.27381009558E+04  0.27381009558E+04  0.00000000000E+00 0.  1.
         21   -1    0    0  504  502  0.00000000000E+00 -0.00000000000E+00 -0.20589853738E+03  0.20589853738E+03  0.00000000000E+00 0. -1.
         21    1    1    2  503  501 -0.22345364132E+02  0.52982001805E+02  0.46065404263E+03  0.46422898962E+03  0.00000000000E+00 0. -1.
         21    1    1    2  504  503 -0.10361737022E+03 -0.60868031790E+02 -0.47606557973E+02  0.12925889164E+03  0.00000000000E+00 0. -1.
         21    1    1    2  505  502  0.81401357665E+02  0.32311914045E+02 -0.98768832668E+02  0.13200576929E+03  0.00000000000E+00 0. -1.
          2    1    1    2  501    0  0.44561376689E+02 -0.24425884060E+02  0.22179237665E+04  0.22185058427E+04  0.00000000000E+00 0.  1.
<scales pt_clust_3="35.71973" pt_clust_4="14000.00000" pt_clust_5="96.74705" pt_clust_6="50.81673"></scales>
<clustering>
<clus scale="   50.817">  1  6  2 -1</clus>
<clus scale="   35.720">  1  3  2 -1</clus>
<clus scale="   96.747">  2  5  1 -1</clus>
<clus scale="   96.747">  2  3  1 -1</clus>
</clustering>
</event>
<event>
 6    0  0.4189111E+002  0.1187023E+03  0.7546771E-02  0.1245253E+00
         21   -1    0    0  501  502  0.00000000000E+00  0.00000000000E+00  0.19224350569E+03  0.19224350569E+03  0.00000000000E+00 0.  1.
          2   -1    0    0  504    0 -0.00000000000E+00 -0.00000000000E+00 -0.23881848413E+04  0.23881848413E+04  0.00000000000E+00 0. -1.
         21    1    1    2  503  502  0.11149962249E+03  0.40828211529E+02  0.13851483955E+03  0.18244305810E+03  0.00000000000E+00 0.  1.
         21    1    1    2  504  505 -0.27245219100E+02  0.13772619009E+02 -0.93798147630E+03  0.93847814939E+03  0.00000000000E+00 0. -1.
         21    1    1    2  505  503 -0.90278537294E+02 -0.92607034470E+02 -0.10266506854E+03  0.16512538698E+03  0.00000000000E+00 0.  1.
          2    1    1    2  501    0  0.60241339000E+01  0.38006203932E+02 -0.12938096303E+04  0.12943817525E+04  0.00000000000E+00 0. -1.
<scales pt_clust_3="118.70232" pt_clust_4="30.52846" pt_clust_5="14000.00000" pt_clust_6="53.52139"></scales>
<clustering>
<clus scale="   30.528">  2  4  1 -1</clus>
<clus scale="   53.521">  2  6  1 -1</clus>
<clus scale="  118.702">  1  3  2 -1</clus>
<clus scale="  118.702">  1  3  2 -1</clus>
</clustering>
</event>
<event>
 6    0  0.4189111E+002  0.1334429E+03  0.7546771E-02  0.1222435E+00
         21   -1    0    0  503  502  0.00000000000E+00  0.00000000000E+00  0.51499990183E+02  0.51499990183E+02  0.00000000000E+00 0. -1.
          2   -1    0    0  505    0 -0.00000000000E+00 -0.00000000000E+00 -0.26893728234E+04  0.26893728234E+04  0.00000000000E+00 0.  1.
         21    1    1    2  503  501  0.46363239079E+02  0.10725030619E+03 -0.18326073795E+03  0.21734000136E+03  0.00000000000E+00 0. -1.
         21    1    1    2  504  502 -0.11273067182E+03 -0.10566018106E+03 -0.15765237960E+03  0.22074091380E+03  0.00000000000E+00 0. -1.
         21    1    1    2  505  504  0.30147623709E+02 -0.48890325822E+02 -0.33218946249E+03  0.33711864701E+03  0.00000000000E+00 0.  1.
          2    1    1    2  501    0  0.36219809036E+02  0.47300200696E+02 -0.19647702531E+04  0.19656732514E+04  0.00000000000E+00 0.  1.
<scales pt_clust_3="14000.00000" pt_clust_4="133.44291" pt_clust_5="57.43817" pt_clust_6="61.72355"></scales>
<clustering>
<clus scale="   57.438">  2  5  1 -1</clus>
<clus scale="   61.724">  2  6  1 -1</clus>
<clus scale="  133.443">  1  4  2 -1</clus>
<clus scale="  133.443">  1  3  2 -1</clus>
</clustering>
</event>
<event>
 6    0  0.4189111E+002  0.1372207E+03  0.7546771E-02  0.1217118E+00
         21   -1    0    0  503  502  0.00000000000E+00  0.00000000000E+00  0.55164377617E+02  0.55164377617E+02  0.00000000000E+00 0.  1.
          1   -1    0    0  504    0 -0.00000000000E+00 -0.00000000000E+00 -0.15321457445E+04  0.15321457445E+04  0.00000000000E+00 0.  1.
         21    1    1    2  503  505 -0.94079957778E+02 -0.75882553065E+02 -0.15181901191E+03  0.19405724076E+03  0.00000000000E+00 0.  1.
         21    1    1    2  504  502  0.16058129958E+03  0.37137363829E+02 -0.17629148421E+03  0.24133840343E+03  0.00000000000E+00 0.  1.
         21    1    1    2  505  501 -0.33436554681E+02  0.20037853752E+02 -0.35471463945E+03  0.35685010048E+03  0.00000000000E+00 0.  1.
          1    1    1    2  501    0 -0.33064787115E+02  0.18707335484E+02 -0.79415623131E+03  0.79506437745E+03  0.00000000000E+00 0.  1.
<scales pt_clust_3="14000.00000" pt_clust_4="137.22072" pt_clust_5="32.42896" pt_clust_6="83.68206"></scales>
<clustering>
<clus scale="   32.429">  5  6 -1 -1</clus>
<clus scale="   83.682">  2  5  1 -1</clus>
<clus scale="  137.221">  2  4  1 -1</clus>
<clus scale="  137.221">  1  3  2 -1</clus>
</clustering>
</event>
<event>
 6    0  0.4189111E+002  0.9661167E+02  0.7546771E-02  0.1287587E+00
         -1   -1    0    0    0  501 -0.00000000000E+00  0.00000000000E+00  0.16241737925E+04  0.16241737925E+04  0.00000000000E+00 0.  1.
         21   -1    0    0  503  502  0.00000000000E+00 -0.00000000000E+00 -0.18618710571E+03  0.18618710571E+03  0.00000000000E+00 0.  1.
         21    1    1    2  503  504  0.40942410075E+02 -0.92363089295E+02 -0.90041262399E+02  0.13533163023E+03  0.00000000000E+00 0.  1.
         21    1    1    2  504  501  0.11307157963E+01  0.66554316145E+02  0.73331497713E+03  0.73632982501E+03  0.00000000000E+00 0.  1.
         21    1    1    2  505  502 -0.79191681333E+02  0.19313418120E+00 -0.49430073863E+02  0.93352514135E+02  0.00000000000E+00 0.  1.
         -1    1    1    2    0  505  0.37118555462E+02  0.25615638970E+02  0.84414304595E+03  0.84534692887E+03  0.00000000000E+00 0.  1.
<scales pt_clust_3="96.61167" pt_clust_4="14000.00000" pt_clust_5="78.15118" pt_clust_6="45.09931"></scales>
<clustering>
<clus scale="   45.099">  1  6  2 -1</clus>
<clus scale="   78.151">  2  5  1 -1</clus>
<clus scale="   96.612">  2  3  1 -1</clus>
<clus scale="   78.151">  2  3  1 -1</clus>
</clustering>
</event>
<event>
 6    0  0.4189111E+002  0.1235376E+03  0.7546771E-02  0.1237373E+00
         21   -1    0    0  503  502  0.00000000000E+00  0.00000000000E+00  0.65924360118E+03  0.65924360118E+03  0.00000000000E+00 0.  1.
         -2   -1    0    0    0  501 -0.00000000000E+00 -0.00000000000E+00 -0.55875438555E+03  0.55875438555E+03  0.00000000000E+00 0. -1.
         21    1    1    2  503  505 -0.11733562129E+03  0.15717187919E+03  0.16945351079E+03  0.25920096441E+03  0.00000000000E+00 0.  1.
         21    1    1    2  504  502  0.39715672085E+02 -0.64932625671E+02  0.42289348713E+03  0.42968881989E+03  0.00000000000E+00 0.  1.
         21    1    1    2  505  501  0.35583830249E+02 -0.37267288378E+02 -0.25222167875E+02  0.57369133779E+02  0.00000000000E+00 0.  1.
         -2    1    1    2    0  504  0.42036118958E+02 -0.54971965138E+02 -0.46663561441E+03  0.47173906864E+03  0.00000000000E+00 0. -1.
<scales pt_clust_3="123.53758" pt_clust_4="76.44627" pt_clust_5="51.52727" pt_clust_6="14000.00000"></scales>
<clustering>
<clus scale="   51.527">  2  5  1 -1</clus>
<clus scale="   76.446">  1  4  2 -1</clus>
<clus scale="  123.538">  1  3  2 -1</clus>
<clus scale="   76.446">  1  3  2 -1</clus>
</clustering>
</event>
<event>
 6    0  0.4189111E+002  0.1119727E+03  0.7546771E-02  0.1256960E+00
         21   -1    0    0  503  502  0.00000000000E+00  0.00000000000E+00  0.77346695635E+03  0.77346695635E+03  0.00000000000E+00 0.  1.
          1   -1    0    0  504    0 -0.00000000000E+00 -0.00000000000E+00 -0.18736436820E+04  0.18736436820E+04  0.00000000000E+00 0.  1.
         21    1    1    2  503  501  0.38537694969E+01  0.46905925611E+02  0.69929108551E+03  0.70087305531E+03  0.00000000000E+00 0.  1.
         21    1    1    2  504  505  0.38010420612E+02 -0.49982521757E+02 -0.97178872722E+03  0.97381537003E+03  0.00000000000E+00 0.  1.
         21    1    1    2  505  502 -0.10474620613E+02  0.69532106248E+02  0.53392616164E+02  0.88290446465E+02  0.00000000000E+00 0.  1.
          1    1    1    2  501    0 -0.31389569495E+02 -0.66455510101E+02 -0.88107170006E+03  0.88413176650E+03  0.00000000000E+00 0.  1.
<scales pt_clust_3="47.06397" pt_clust_4="62.31184" pt_clust_5="111.97274" pt_clust_6="14000.00000"></scales>
<clustering>
<clus scale="   47.064">  1  3  2 -1</clus>
<clus scale="   62.312">  2  4  1 -1</clus>
<clus scale="  111.973">  1  5  2 -1</clus>
<clus scale="   47.064">  1  3  2 -1</clus>
</clustering>
</event>
<event>
 6    0  0.4189111E+002  0.2298451E+03  0.7546771E-02  0.1126749E+00
         21   -1    0    0  504  502  0.00000000000E+00  0.00000000000E+00  0.37776774073E+03  0.37776774073E+03  0.00000000000E+00 0. -1.
          1   -1    0    0  503    0 -0.00000000000E+00 -0.00000000000E+00 -0.13833315451E+04  0.13833315451E+04  0.00000000000E+00 0. -1.
         21    1    1    2  503  502 -0.14909389086E+03  0.69687467964E+02 -0.36025445801E+03  0.39606641614E+03  0.00000000000E+00 0. -1.
         21    1    1    2  504  505  0.96572884166E+02 -0.14572813994E+03  0.27210356188E+03  0.32342442876E+03  0.00000000000E+00 0. -1.
         21    1    1    2  505  501  0.54623023631E+02 -0.12402530636E+02  0.47016217043E+02  0.73130172582E+02  0.00000000000E+00 0. -1.
          1    1    1    2  501    0 -0.21020169421E+01  0.88443202617E+02 -0.96442912532E+03  0.96847826839E+03  0.00000000000E+00 0. -1.
<scales pt_clust_3="212.78199" pt_clust_4="49.19209" pt_clust_5="49.19209" pt_clust_6="88.46818"></scales>
<clustering>
<clus scale="   49.192">  4  5 -1 -1</clus>
<clus scale="   88.468">  2  6  1 -1</clus>
<clus scale="  212.782">  2  3  1 -1</clus>
<clus scale="  229.845">  1  3  2 -1</clus>
</clustering>
</event>
<event>
 6    0  0.4189111E+002  0.8655249E+02  0.7546771E-02  0.1311422E+00
         21   -1    0    0  501  502  0.00000000000E+00  0.00000000000E+00  0.26185041507E+03  0.26185041507E+03  0.00000000000E+00 0.  1.
         -4   -1    0    0    0  501 -0.00000000000E+00 -0.00000000000E+00 -0.28433903374E+04  0.28433903374E+04  0.00000000000E+00 0. -1.
         21    1    1    2  503  505 -0.83078117530E+01  0.53528827684E+02 -0.23224152673E+03  0.23847532759E+03  0.00000000000E+00 0. -1.
         21    1    1    2  504  502 -0.90044353478E+02 -0.32178572059E+02  0.21162357884E+03  0.23222399793E+03  0.00000000000E+00 0.  1.
         21    1    1    2  505  504  0.64790275520E+02 -0.39793044868E+02 -0.27515790308E+01  0.76084409763E+02  0.00000000000E+00 0.  1.
         -4    1    1    2    0  503  0.33561889711E+02  0.18442789244E+02 -0.25581703954E+04  0.25584570172E+04  0.00000000000E+00 0. -1.
<scales pt_clust_3="71.43990" pt_clust_4="14000.00000" pt_clust_5="86.55249" pt_clust_6="38.29539"></scales>
<clustering>
<clus scale="   38.295">  2  6  1 -1</clus>
<clus scale="   71.440">  2  3  1 -1</clus>
<clus scale="   86.552">  2  5  1 -1</clus>
<clus scale="   86.552">  1  3  2 -1</clus>
</clustering>
</event>
<event>
 6    0  0.4189111E+002  0.7164126E+02  0.7546771E-02  0.1354599E+00
          2   -1    0    0  503    0 -0.00000000000E+00  0.00000000000E+00  0.19447277365E+03  0.19447277365E+03  0.00000000000E+00 0.  1.
         21   -1    0    0  504  502  0.00000000000E+00 -0.00000000000E+00 -0.65742801507E+03  0.65742801507E+03  0.00000000000E+00 0.  1.
         21    1    1    2  503  502  0.11410263779E+02  0.32613940082E+02  0.60119807800E+02  0.69341578415E+02  0.00000000000E+00 0. -1.
         21    1    1    2  504  505 -0.58032547455E+02 -0.28008308403E+02 -0.45387023680E+03  0.45842167680E+03  0.00000000000E+00 0.  1.
         21    1    1    2  505  501  0.11496858660E+03 -0.12600687699E+02 -0.16786472319E+03  0.20385072609E+03  0.00000000000E+00 0.  1.
          2    1    1    2  501    0 -0.68346302929E+02  0.79950560201E+01  0.98659910776E+02  0.12028680742E+03  0.00000000000E+00 0.  1.
<scales pt_clust_3="34.55233" pt_clust_4="64.01043" pt_clust_5="71.64126" pt_clust_6="14000.00000"></scales>
<clustering>
<clus scale="   34.552">  1  3  2 -1</clus>
<clus scale="   64.010">  2  4  1 -1</clus>
<clus scale="   71.641">  2  5  1 -1</clus>
<clus scale="   64.010">  2  3  1 -1</clus>
</clustering>
</event>
<event>
 6    0  0.4189111E+002  0.1331350E+03  0.7546771E-02  0.1222877E+00
         21   -1    0    0  505  502  0.00000000000E+00  0.00000000000E+00  0.27732236454E+02  0.27732236454E+02  0.00000000000E+00 0.  1.
          1   -1    0    0  504    0 -0.00000000000E+00 -0.00000000000E+00 -0.95966076410E+03  0.95966076410E+03  0.00000000000E+00 0. -1.
         21    1    1    2  503  502 -0.31235845079E+02  0.73206701062E+01 -0.21383479197E+02  0.38555458902E+02  0.00000000000E+00 0.  1.
         21    1    1    2  504  503 -0.94897854429E+02 -0.40004186328E+02 -0.20980179835E+03  0.23371506646E+03  0.00000000000E+00 0.  1.
         21    1    1    2  505  501  0.41094046457E+02 -0.11848751420E+02 -0.14600852627E+03  0.15214336432E+03  0.00000000000E+00 0. -1.
          1    1    1    2  501    0  0.85039653051E+02  0.44532267642E+02 -0.55473472383E+03  0.56297911087E+03  0.00000000000E+00 0. -1.
<scales pt_clust_3="32.08224" pt_clust_4="119.76565" pt_clust_5="37.41941" pt_clust_6="37.41941"></scales>
<clustering>
<clus scale="   32.082">  1  3  2 -1</clus>
<clus scale="   37.419">  5  6 -1 -1</clus>
<clus scale="  119.766">  1  4  2 -1</clus>
<clus scale="   32.082">  1  3  2 -1</clus>
</clustering>
</event>
<event>
 6    0  0.4189111E+002  0.1088136E+03  0.7546771E-02  0.1262783E+00
          1   -1    0    0  504    0 -0.00000000000E+00  0.00000000000E+00  0.10950345323E+04  0.10950345323E+04  0.00000000000E+00 0. -1.
         21   -1    0    0  505  502  0.00000000000E+00 -0.00000000000E+00 -0.42229286038E+03  0.42229286038E+03  0.00000000000E+00 0. -1.
         21    1    1    2  503  502 -0.72967859289E+01  0.63523692448E+02 -0.79996581992E+02  0.10241072072E+03  0.00000000000E+00 0. -1.
         21    1    1    2  504  503 -0.37574577577E+02 -0.43955959338E+02  0.30003472993E+03  0.30555656499E+03  0.00000000000E+00 0. -1.
         21    1    1    2  505  501  0.80188234307E+02  0.23256549523E+02 -0.32201119528E+03  0.33265933010E+03  0.00000000000E+00 0. -1.
          1    1    1    2  501    0 -0.35316870801E+02 -0.42824282632E+02  0.77471471926E+03  0.77670077687E+03  0.00000000000E+00 0. -1.
<scales pt_clust_3="62.60543" pt_clust_4="14000.00000" pt_clust_5="108.81355" pt_clust_6="55.50856"></scales>
<clustering>
<clus scale="   55.509">  1  6  2 -1</clus>
<clus scale="   62.605">  2  3  1 -1</clus>
<clus scale="  108.814">  2  5  1 -1</clus>
<clus scale="   62.605">  2  3  1 -1</clus>
</clustering>
</event>
<event>
 6    0  0.4189111E+002  0.8263851E+02  0.7546771E-02  0.1321726E+00
          2   -1    0    0  503    0 -0.00000000000E+00  0.00000000000E+00  0.17976718529E+04  0.17976718529E+04  0.00000000000E+00 0. -1.
         21   -1    0    0  504  502  0.00000000000E+00 -0.00000000000E+00 -0.20959964054E+03  0.20959964054E+03  0.00000000000E+00 0.  1.
         21    1    1    2  503  505  0.47038056243E+02 -0.80563833533E+02  0.27566160983E+02  0.97277968935E+02  0.00000000000E+00 0. -1.
         21    1    1    2  504  501  0.69514950823E+02  0.36934714470E+02  0.50063588999E+03  0.50678673608E+03  0.00000000000E+00 0.  1.
         21    1    1    2  505  502 -0.26567017052E+02  0.24177133299E+02 -0.16804690182E+03  0.17184324654E+03  0.00000000000E+00 0.  1.
          2    1    1    2  501    0 -0.89985990014E+02  0.19451985765E+02  0.12279170632E+04  0.12313635418E+04  0.00000000000E+00 0. -1.
<scales pt_clust_3="63.86695" pt_clust_4="82.63851" pt_clust_5="35.92131" pt_clust_6="14000.00000"></scales>
<clustering>
<clus scale="   35.921">  2  5  1 -1</clus>
<clus scale="   63.867">  2  3  1 -1</clus>
<clus scale="   82.639">  2  4  1 -1</clus>
<clus scale="   35.921">  2  3  1 -1</clus>
</clustering>
</event>
<event>
 6    0  0.4189111E+002  0.1185269E+03  0.7546771E-02  0.1245547E+00
         -3   -1    0    0    0  501 -0.00000000000E+00  0.00000000000E+00  0.29064029613E+03  0.29064029613E+03  0.00000000000E+00 0.  1.
         21   -1    0    0  504  502  0.00000000000E+00 -0.00000000000E+00 -0.47288688801E+03  0.47288688801E+03  0.00000000000E+00 0. -1.
         21    1    1    2  503  501 -0.34668081673E+02 -0.17651608226E+02 -0.77297108895E+01  0.39663630574E+02  0.00000000000E+00 0. -1.
         21    1    1    2  504  505 -0.21375502375E+02 -0.75055407095E+02 -0.32550908931E+03  0.33473331693E+03  0.00000000000E+00 0. -1.
         21    1    1    2  505  503 -0.32532552107E+02 -0.17793011019E+02 -0.96835803555E+02  0.10369248303E+03  0.00000000000E+00 0. -1.
         -3    1    1    2    0  502  0.88576136155E+02  0.11050002634E+03  0.24782801188E+03  0.28543775361E+03  0.00000000000E+00 0.  1.
<scales pt_clust_3="38.90315" pt_clust_4="33.16620" pt_clust_5="33.16620" pt_clust_6="108.32161"></scales>
<clustering>
<clus scale="   33.166">  4  5 -1 -1</clus>
<clus scale="   38.903">  1  3  2 -1</clus>
<clus scale="  108.322">  1  6  2 -1</clus>
<clus scale="  118.527">  2  3  1 -1</clus>
</clustering>
</event>
<event>
 6    0  0.4189111E+002  0.8621910E+02  0.7546771E-02  0.1312275E+00
          4   -1    0    0  505    0 -0.00000000000E+00  0.00000000000E+00  0.88240164141E+03  0.88240164141E+03  0.00000000000E+00 0.  1.
         21   -1    0    0  501  502  0.00000000000E+00 -0.00000000000E+00 -0.14183489305E+04  0.14183489305E+04  0.00000000000E+00 0. -1.
         21    1    1    2  503  502 -0.36781452019E+02  0.29890755855E+01 -0.34287622077E+03  0.34485636511E+03  0.00000000000E+00 0. -1.
         21    1    1    2  504  503  0.12232592617E+03 -0.12595817396E+02 -0.10654049943E+04  0.10724784793E+04  0.00000000000E+00 0. -1.
         21    1    1    2  505  504 -0.87601337228E+01  0.39914523489E+02  0.12439622650E+03  0.13093635972E+03  0.00000000000E+00 0.  1.
          4    1    1    2  501    0 -0.76784340428E+02 -0.30307781678E+02  0.74793769947E+03  0.75247936773E+03  0.00000000000E+00 0.  1.
<scales pt_clust_3="36.90271" pt_clust_4="14000.00000" pt_clust_5="40.89754" pt_clust_6="86.21910"></scales>
<clustering>
<clus scale="   36.903">  2  3  1 -1</clus>
<clus scale="   40.898">  1  5  2 -1</clus>
<clus scale="   86.219">  1  6  2 -1</clus>
<clus scale="   36.903">  2  3  1 -1</clus>
</clustering>
</event>
<event>
 6    0  0.4189111E+002  0.1451232E+03  0.7546771E-02  0.1206597E+00
          2   -1    0    0  504    0 -0.00000000000E+00  0.00000000000E+00  0.27096703530E+04  0.27096703530E+04  0.00000000000E+00 0. -1.
         21   -1    0    0  503  502  0.00000000000E+00 -0.00000000000E+00 -0.23821211492E+02  0.23821211492E+02  0.00000000000E+00 0. -1.
         21    1    1    2  503  501 -0.13100335517E+03 -0.71030841690E+02  0.40056195975E+03  0.42738406982E+03  0.00000000000E+00 0. -1.
         21    1    1    2  504  505 -0.38344754949E+02  0.11293774408E+02  0.46976700987E+03  0.47146464675E+03  0.00000000000E+00 0. -1.
         21    1    1    2  505  502  0.13934188594E+03  0.31991545643E+02  0.54420719326E+03  0.56267316389E+03  0.00000000000E+00 0. -1.
          2    1    1    2  501    0  0.30006224180E+02  0.27745521640E+02  0.12713129786E+04  0.12719696840E+04  0.00000000000E+00 0. -1.
<scales pt_clust_3="145.12318" pt_clust_4="39.97336" pt_clust_5="14000.00000" pt_clust_6="35.13683"></scales>
<clustering>
<clus scale="   39.973">  1  4  2 -1</clus>
<clus scale="   35.137">  1  6  2 -1</clus>
<clus scale="  145.123">  2  3  1 -1</clus>
<clus scale="  145.123">  2  3  1 -1</clus>
</clustering>
</event>
<event>
 6    0  0.4189111E+002  0.8877803E+02  0.7546771E-02  0.1305838E+00
         21   -1    0    0  504  502  0.00000000000E+00  0.00000000000E+00  0.33878393126E+03  0.33878393126E+03  0.00000000000E+00 0. -1.
         -2   -1    0    0    0  501 -0.00000000000E+00 -0.00000000000E+00 -0.13205435170E+03  0.13205435170E+03  0.00000000000E+00 0.  1.
         21    1    1    2  503  505 -0.34195510423E+02 -0.72401849278E+02  0.44043586399E+02  0.91384890517E+02  0.00000000000E+00 0. -1.
         21    1    1    2  504  501 -0.67960263593E+02  0.65074951298E+02  0.22499269534E+03  0.24387509030E+03  0.00000000000E+00 0. -1.
         21    1    1    2  505  502  0.59556214904E+02 -0.26466690438E+02 -0.25847752680E+02  0.70110874727E+02  0.00000000000E+00 0.  1.
         -2    1    1    2    0  503  0.42599559113E+02  0.33793588418E+02 -0.36458949494E+02  0.65467427420E+02  0.00000000000E+00 0.  1.
<scales pt_clust_3="66.21523" pt_clust_4="88.77803" pt_clust_5="14000.00000" pt_clust_6="54.37581"></scales>
<clustering>
<clus scale="   54.376">  2  6  1 -1</clus>
<clus scale="   66.215">  2  3  1 -1</clus>
<clus scale="   88.778">  1  4  2 -1</clus>
<clus scale="   88.778">  1  3  2 -1</clus>
</clustering>
</event>
<event>
 6    0  0.4189111E+002  0.1064092E+03  0.7546771E-02  0.1267368E+00
          1   -1    0    0  505    0 -0.00000000000E+00  0.00000000000E+00  0.58521581630E+02  0.58521581630E+02  0.00000000000E+00 0.  1.
         21   -1    0    0  503  502  0.00000000000E+00 -0.00000000000E+00 -0.64267651894E+03  0.64267651894E+03  0.00000000000E+00 0. -1.
         21    1    1    2  503  504 -0.51170372306E+02 -0.65792473058E+01 -0.14480650854E+03  0.15372253710E+03  0.00000000000E+00 0. -1.
         21    1    1    2  504  501 -0.44050294036E+02  0.78909472171E+02 -0.31423399364E+03  0.32697115464E+03  0.00000000000E+00 0. -1.
         21    1    1    2  505  502 -0.26900270154E+02 -0.41165838556E+02 -0.10795029181E+02  0.50346632989E+02  0.00000000000E+00 0. -1.
          1    1    1    2  501    0  0.12212093650E+03 -0.31164386309E+02 -0.11431940595E+03  0.17015777585E+03  0.00000000000E+00 0.  1.
<scales pt_clust_3="55.43272" pt_clust_4="106.40915" pt_clust_5="49.17571" pt_clust_6="14000.00000"></scales>
<clustering>
<clus scale="   49.176">  1  5  2 -1</clus>
<clus scale="   55.433">  2  3  1 -1</clus>
<clus scale="  106.409">  2  4  1 -1</clus>
<clus scale="   55.433">  2  3  1 -1</clus>
</clustering>
</event>
<event>
 6    0  0.4189111E+002  0.8448218E+02  0.7546771E-02  0.1316792E+00
         21   -1    0    0  505  502  0.00000000000E+00  0.00000000000E+00  0.19719007723E+03  0.19719007723E+03  0.00000000000E+00 0. -1.
         -2   -1    0    0    0  501 -0.00000000000E+00 -0.00000000000E+00 -0.12604132777E+04  0.12604132777E+04  0.00000000000E+00 0. -1.
         21    1    1    2  503  504  0.95406912819E+02  0.10600578838E+02 -0.18578148978E+03  0.20911626725E+03  0.00000000000E+00 0. -1.
         21    1    1    2  504  502 -0.81686047405E+02 -0.41971293473E+02  0.89458011977E+02  0.12820661341E+03  0.00000000000E+00 0. -1.
         21    1    1    2  505  501  0.41524221527E+02  0.72456049686E+02  0.52444923942E+02  0.98613438013E+02  0.00000000000E+00 0. -1.
         -2    1    1    2    0  503 -0.55245086942E+02 -0.41085335050E+02 -0.10193446466E+04  0.10216670363E+04  0.00000000000E+00 0. -1.
<scales pt_clust_3="55.07064" pt_clust_4="84.48218" pt_clust_5="14000.00000" pt_clust_6="68.84784"></scales>
<clustering>
<clus scale="   68.848">  2  6  1 -1</clus>
<clus scale="   55.071">  2  3  1 -1</clus>
<clus scale="   84.482">  1  4  2 -1</clus>
<clus scale="   84.482">  1  3  2 -1</clus>
</clustering>
</event>
<event>
 6    0  0.4189111E+002  0.1092662E+03  0.7546771E-02  0.1261935E+00
          2   -1    0    0  504    0 -0.00000000000E+00  0.00000000000E+00  0.36962485067E+04  0.36962485067E+04  0.00000000000E+00 0.  1.
         21   -1    0    0  505  502  0.00000000000E+00 -0.00000000000E+00 -0.24965575978E+03  0.24965575978E+03  0.00000000000E+00 0. -1.
         21    1    1    2  503  501  0.98179473553E+02  0.49618347661E+02  0.12514590277E+03  0.16662138648E+03  0.00000000000E+00 0.  1.
         21    1    1    2  504  502 -0.28240481137E+02 -0.60940153726E+02  0.31642826674E+02  0.74246182332E+02  0.00000000000E+00 0. -1.
         21    1    1    2  505  503  0.39095900200E+02  0.21782048651E+02 -0.20433626373E+03  0.20917996015E+03  0.00000000000E+00 0. -1.
          2    1    1    2  501    0 -0.10903489262E+03 -0.10460242586E+02  0.34941402812E+04  0.34958567375E+04  0.00000000000E+00 0.  1.
<scales pt_clust_3="14000.00000" pt_clust_4="50.89508" pt_clust_5="44.75430" pt_clust_6="109.26625"></scales>
<clustering>
<clus scale="   44.754">  2  5  1 -1</clus>
<clus scale="   50.895">  2  4  1 -1</clus>
<clus scale="  109.266">  1  6  2 -1</clus>
<clus scale="   44.754">  2  3  1 -1</clus>
</clustering>
</event>
<event>
 6    0  0.4189111E+002  0.8671019E+02  0.7546771E-02  0.1311020E+00
          2   -1    0    0  505    0 -0.00000000000E+00  0.00000000000E+00  0.94000498636E+03  0.94000498636E+03  0.00000000000E+00 0. -1.
         21   -1    0    0  504  502  0.00000000000E+00 -0.00000000000E+00 -0.18668113366E+03  0.18668113366E+03  0.00000000000E+00 0.  1.
         21    1    1    2  503  501  0.95917570219E+01 -0.70846426156E+02  0.88509774298E+02  0.11377696625E+03  0.00000000000E+00 0. -1.
         21    1    1    2  504  503 -0.42467809543E+02 -0.44785774532E+02 -0.14298846326E+03  0.15574010747E+03  0.00000000000E+00 0.  1.
         21    1    1    2  505  502 -0.13094707712E+02  0.35312592591E+02 -0.59861755054E+01  0.38135087030E+02  0.00000000000E+00 0. -1.
          2    1    1    2  501    0  0.45970760234E+02  0.80319608096E+02  0.81378871717E+03  0.81903395927E+03  0.00000000000E+00 0. -1.
<scales pt_clust_3="14000.00000" pt_clust_4="55.82351" pt_clust_5="37.66232" pt_clust_6="86.71019"></scales>
<clustering>
<clus scale="   37.662">  2  5  1 -1</clus>
<clus scale="   55.824">  2  4  1 -1</clus>
<clus scale="   86.710">  1  6  2 -1</clus>
<clus scale="   37.662">  2  3  1 -1</clus>
</clustering>
</event>
<event>
 6    0  0.4189111E+002  0.1027337E+03  0.7546771E-02  0.1274650E+00
         21   -1    0    0  505  502  0.00000000000E+00  0.00000000000E+00  0.25466986373E+02  0.25466986373E+02  0.00000000000E+00 0.  1.
          2   -1    0    0  503    0 -0.00000000000E+00 -0.00000000000E+00 -0.22611635012E+04  0.22611635012E+04  0.00000000000E+00 0. -1.
         21    1    1    2  503  502 -0.31818633280E+02  0.78278923409E+02 -0.94676265719E+02  0.12690000222E+03  0.00000000000E+00 0.  1.
         21    1    1    2  504  501  0.41332017010E+02 -0.70749639790E+02 -0.10476766098E+04  0.10508758851E+04  0.00000000000E+00 0. -1.
         21    1    1    2  505  504 -0.50873992889E+02  0.51813623809E+00 -0.81119802168E+02  0.95754132660E+02  0.00000000000E+00 0.  1.
          2    1    1    2  501    0  0.41360609159E+02 -0.80474198574E+01 -0.10122238371E+04  0.10131004676E+04  0.00000000000E+00 0. -1.
<scales pt_clust_3="102.73373" pt_clust_4="14000.00000" pt_clust_5="47.94426" pt_clust_6="42.13622"></scales>
<clustering>
<clus scale="   42.136">  2  6  1 -1</clus>
<clus scale="   47.944">  1  5  2 -1</clus>
<clus scale="  102.734">  1  3  2 -1</clus>
<clus scale="   47.944">  1  3  2 -1</clus>
</clustering>
</event>
<event>
 6    0  0.4189111E+002  0.8999903E+02  0.7546771E-02  0.1302854E+00
         21   -1    0    0  501  502  0.00000000000E+00  0.00000000000E+00  0.60354544937E+02  0.60354544937E+02  0.00000000000E+00 0. -1.
          2   -1    0    0  503    0 -0.00000000000E+00 -0.00000000000E+00 -0.11526836557E+04  0.11526836557E+04  0.00000000000E+00 0.  1.
         21    1    1    2  503  504 -0.39449436110E+02 -0.25546550178E+02 -0.15112002943E+03  0.15825974703E+03  0.00000000000E+00 0. -1.
         21    1    1    2  504  505 -0.23566929230E+01  0.69929071329E+02 -0.29583011771E+02  0.75965673852E+02  0.00000000000E+00 0. -1.
         21    1    1    2  505  502 -0.42871194529E+02  0.16535854374E+02  0.13447070958E+02  0.47876899624E+02  0.00000000000E+00 0. -1.
          2    1    1    2  501    0  0.84677323562E+02 -0.60918375525E+02 -0.92507314051E+03  0.93093588012E+03  0.00000000000E+00 0.  1.
<scales pt_clust_3="50.44299" pt_clust_4="89.99903" pt_clust_5="45.94969" pt_clust_6="14000.00000"></scales>
<clustering>
<clus scale="   45.950">  1  5  2 -1</clus>
<clus scale="   50.443">  2  3  1 -1</clus>
<clus scale="   89.999">  1  4  2 -1</clus>
<clus scale="   45.950">  1  3  2 -1</clus>
</clustering>
</event>
<event>
 6    0  0.4189111E+002  0.2050505E+03  0.7546771E-02  0.1145547E+00
         21   -1    0    0  504  502  0.00000000000E+00  0.00000000000E+00  0.33914564604E+03  0.33914564604E+03  0.00000000000E+00 0.  1.
          2   -1    0    0  505    0 -0.00000000000E+00 -0.00000000000E+00 -0.82467707361E+03  0.82467707361E+03  0.00000000000E+00 0.  1.
         21    1    1    2  503  501  0.80944512284E+02  0.69286235285E+02 -0.28681328953E+03  0.30596480111E+03  0.00000000000E+00 0.  1.
         21    1    1    2  504  503  0.25472130899E+02 -0.11641519194E+03  0.26678396420E+03  0.29219002365E+03  0.00000000000E+00 0.  1.
         21    1    1    2  505  502 -0.20698955937E+03  0.38173273862E+02 -0.24400803225E+03  0.32224493220E+03  0.00000000000E+00 0.  1.
          2    1    1    2  501    0  0.10057291619E+03  0.89556827930E+01 -0.22149406999E+03  0.24342296270E+03  0.00000000000E+00 0.  1.
<scales pt_clust_3="64.42726" pt_clust_4="119.16932" pt_clust_5="194.07607" pt_clust_6="64.42726"></scales>
<clustering>
<clus scale="   64.427">  3  6 -1 -1</clus>
<clus scale="  119.169">  1  4  2 -1</clus>
<clus scale="  194.076">  1  5  2 -1</clus>
<clus scale="  119.169">  1  3  2 -1</clus>
</clustering>
</event>
<event>
 6    0  0.4189111E+002  0.1764882E+03  0.7546771E-02  0.1171246E+00
         21   -1    0    0  504  502  0.00000000000E+00  0.00000000000E+00  0.11259377666E+04  0.11259377666E+04  0.00000000000E+00 0.  1.
          2   -1    0    0  502    0 -0.00000000000E+00 -0.00000000000E+00 -0.26508872247E+04  0.26508872247E+04  0.00000000000E+00 0. -1.
         21    1    1    2  503  505 -0.89637986489E+02  0.10416979333E+02  0.29420250386E+03  0.30773136882E+03  0.00000000000E+00 0.  1.
         21    1    1    2  504  503 -0.76226547299E+02 -0.35808788946E+01  0.82022946448E+03  0.82377162103E+03  0.00000000000E+00 0.  1.
         21    1    1    2  505  501  0.40213642745E+02  0.16551805420E+02 -0.41511873156E+03  0.41739029771E+03  0.00000000000E+00 0. -1.
          2    1    1    2  501    0  0.12565089104E+03 -0.23387905859E+02 -0.22242626949E+04  0.22279317037E+04  0.00000000000E+00 0. -1.
<scales pt_clust_3="165.26250" pt_clust_4="76.31061" pt_clust_5="36.12933" pt_clust_6="36.12933"></scales>
<clustering>
<clus scale="   36.129">  5  6 -1 -1</clus>
<clus scale="   76.311">  1  4  2 -1</clus>
<clus scale="  165.262">  1  3  2 -1</clus>
<clus scale="   76.311">  1  3  2 -1</clus>
</clustering>
</event>
<event>
 6    0  0.4189111E+002  0.7668334E+02  0.7546771E-02  0.1338736E+00
          2   -1    0    0  505    0 -0.00000000000E+00  0.00000000000E+00  0.88556032850E+03  0.88556032850E+03  0.00000000000E+00 0. -1.
         21   -1    0    0  504  502  0.00000000000E+00 -0.00000000000E+00 -0.27270878407E+03  0.27270878407E+03  0.00000000000E+00 0. -1.
         21    1    1    2  503  502 -0.90456485200E+02 -0.15610642187E+02 -0.22071682324E+03  0.23904389540E+03  0.00000000000E+00 0. -1.
         21    1    1    2  504  501  0.22429324497E+02  0.46141421311E+02 -0.12316374034E+02  0.52761713651E+02  0.00000000000E+00 0. -1.
         21    1    1    2  505  503 -0.40937207668E+02  0.35224175471E+02  0.15992283393E+03  0.16879546890E+03  0.00000000000E+00 0. -1.
          2    1    1    2  501    0  0.10896436837E+03 -0.65754954596E+02  0.68596190777E+03  0.69766803463E+03  0.00000000000E+00 0. -1.
<scales pt_clust_3="76.68334" pt_clust_4="51.30405" pt_clust_5="54.25512" pt_clust_6="14000.00000"></scales>
<clustering>
<clus scale="   51.304">  2  4  1 -1</clus>
<clus scale="   54.255">  1  5  2 -1</clus>
<clus scale="   76.683">  2  3  1 -1</clus>
<clus scale="   51.304">  2  3  1 -1</clus>
</clustering>
</event>
<event>
 6    0  0.4189111E+002  0.9414640E+02  0.7546771E-02  0.1293110E+00
          2   -1    0    0  504    0 -0.00000000000E+00  0.00000000000E+00  0.75133176530E+03  0.75133176530E+03  0.00000000000E+00 0.  1.
         21   -1    0    0  503  502  0.00000000000E+00 -0.00000000000E+00 -0.20894379815E+03  0.20894379815E+03  0.00000000000E+00 0.  1.
         21    1    1    2  503  501  0.63392963332E+02  0.43745221181E+02 -0.15418494772E+03  0.17235228539E+03  0.00000000000E+00 0.  1.
         21    1    1    2  504  505 -0.64517456626E+02 -0.98907569610E+02  0.30045349222E+03  0.32282736954E+03  0.00000000000E+00 0.  1.
         21    1    1    2  505  502  0.32319154408E+02 -0.36537456927E+02 -0.80870015045E+01  0.49446062469E+02  0.00000000000E+00 0.  1.
          2    1    1    2  501    0 -0.31194661114E+02  0.91699805356E+02  0.40420642416E+03  0.41564984604E+03  0.00000000000E+00 0.  1.
<scales pt_clust_3="93.28752" pt_clust_4="14000.00000" pt_clust_5="48.78026" pt_clust_6="94.14640"></scales>
<clustering>
<clus scale="   48.780">  2  5  1 -1</clus>
<clus scale="   93.288">  2  3  1 -1</clus>
<clus scale="   94.146">  1  6  2 -1</clus>
<clus scale="   48.780">  2  3  1 -1</clus>
</clustering>
</event>
<event>
 6    0  0.4189111E+002  0.1265060E+03  0.7546771E-02  0.1232734E+00
          3   -1    0    0  503    0 -0.00000000000E+00  0.00000000000E+00  0.24097464528E+03  0.24097464528E+03  0.00000000000E+00 0.  1.
         21   -1    0    0  504  502  0.00000000000E+00 -0.00000000000E+00 -0.15096597146E+04  0.15096597146E+04  0.00000000000E+00 0. -1.
         21    1    1    2  503  505 -0.54031550583E+02 -0.43050959869E+01 -0.22988752968E+02  0.58876354106E+02  0.00000000000E+00 0. -1.
         21    1    1    2  504  501  0.98736357881E+01  0.40044933148E+02 -0.10470629666E+03  0.11253663366E+03  0.00000000000E+00 0. -1.
         21    1    1    2  505  502  0.71340926436E+02  0.60239646696E+02 -0.13470516656E+04  0.13502838711E+04  0.00000000000E+00 0. -1.
          3    1    1    2  501    0 -0.27183011641E+02 -0.95979483858E+02  0.20606164592E+03  0.22893750099E+03  0.00000000000E+00 0.  1.
<scales pt_clust_3="53.83445" pt_clust_4="41.24422" pt_clust_5="126.50596" pt_clust_6="14000.00000"></scales>
<clustering>
<clus scale="   41.244">  2  4  1 -1</clus>
<clus scale="   53.834">  1  3  2 -1</clus>
<clus scale="  126.506">  2  5  1 -1</clus>
<clus scale="   41.244">  2  3  1 -1</clus>
</clustering>
</event>
<event>
 6    0  0.4189111E+002  0.1372876E+03  0.7546771E-02  0.1217026E+00
         21   -1    0    0  501  502  0.00000000000E+00  0.00000000000E+00  0.38723537063E+03  0.38723537063E+03  0.00000000000E+00 0.  1.
          2   -1    0    0  504    0 -0.00000000000E+00 -0.00000000000E+00 -0.10640916629E+04  0.10640916629E+04  0.00000000000E+00 0. -1.
         21    1    1    2  503  502  0.41944568341E+02  0.29497569866E+02  0.31052489504E+03  0.31473030340E+03  0.00000000000E+00 0.  1.
         21    1    1    2  504  505  0.37304305629E+02  0.29579749302E+02 -0.18382248905E+03  0.18988754638E+03  0.00000000000E+00 0.  1.
         21    1    1    2  505  503  0.69403457549E+02  0.58594141246E+02  0.27022669538E+02  0.94764645185E+02  0.00000000000E+00 0.  1.
          2    1    1    2  501    0 -0.14865233152E+03 -0.11767146041E+03 -0.83058136783E+03  0.85194453859E+03  0.00000000000E+00 0. -1.
<scales pt_clust_3="51.39212" pt_clust_4="47.60854" pt_clust_5="137.28760" pt_clust_6="14000.00000"></scales>
<clustering>
<clus scale="   47.609">  2  4  1 -1</clus>
<clus scale="   51.392">  1  3  2 -1</clus>
<clus scale="  137.288">  1  5  2 -1</clus>
<clus scale="   51.392">  1  3  2 -1</clus>
</clustering>
</event>
<event>
 6    0  0.4189111E+002  0.9573700E+02  0.7546771E-02  0.1289525E+00
         21   -1    0    0  503  502  0.00000000000E+00  0.00000000000E+00  0.34811090581E+02  0.34811090581E+02  0.00000000000E+00 0. -1.
          2   -1    0    0  505    0 -0.00000000000E+00 -0.00000000000E+00 -0.99553246672E+03  0.99553246672E+03  0.00000000000E+00 0. -1.
         21    1    1    2  503  504 -0.12764277554E+02  0.30486703608E+02 -0.19093269986E+02  0.38169606195E+02  0.00000000000E+00 0. -1.
         21    1    1    2  504  501 -0.75469165345E+02 -0.72866795126E+02 -0.15918102852E+03  0.19064040650E+03  0.00000000000E+00 0. -1.
         21    1    1    2  505  502  0.45317870459E+02 -0.41079212519E+02 -0.50397653585E+03  0.50767465937E+03  0.00000000000E+00 0. -1.
          2    1    1    2  501    0  0.42915572440E+02  0.83459304037E+02 -0.27847054179E+03  0.29385888524E+03  0.00000000000E+00 0. -1.
<scales pt_clust_3="33.05096" pt_clust_4="95.73700" pt_clust_5="58.98440" pt_clust_6="14000.00000"></scales>
<clustering>
<clus scale="   33.051">  1  3  2 -1</clus>
<clus scale="   58.984">  2  5  1 -1</clus>
<clus scale="   95.737">  1  4  2 -1</clus>
<clus scale="   33.051">  1  3  2 -1</clus>
</clustering>
</event>
<event>
 6    0  0.4189111E+002  0.1062372E+03  0.7546771E-02  0.1267701E+00
         21   -1    0    0  504  502  0.00000000000E+00  0.00000000000E+00  0.15179233849E+03  0.15179233849E+03  0.00000000000E+00 0.  1.
          1   -1    0    0  505    0 -0.00000000000E+00 -0.00000000000E+00 -0.30932523572E+04  0.30932523572E+04  0.00000000000E+00 0. -1.
         21    1    1    2  503  502 -0.29801571063E+02  0.96753514932E+01  0.27315651831E+02  0.41567907084E+02  0.00000000000E+00 0. -1.
         21    1    1    2  504  501  0.10603882568E+02  0.97185706285E+02  0.94332333489E+02  0.13585320376E+03  0.00000000000E+00 0.  1.
         21    1    1    2  505  503  0.58366437013E+02 -0.47203704632E+02 -0.83341317717E+03  0.83678692305E+03  0.00000000000E+00 0.  1.
          1    1    1    2  501    0 -0.39168748518E+02 -0.59657353146E+02 -0.22296948269E+04  0.22308366618E+04  0.00000000000E+00 0. -1.
<scales pt_clust_3="31.33283" pt_clust_4="106.23720" pt_clust_5="14000.00000" pt_clust_6="71.40697"></scales>
<clustering>
<clus scale="   31.333">  1  3  2 -1</clus>
<clus scale="   71.407">  2  6  1 -1</clus>
<clus scale="  106.237">  1  4  2 -1</clus>
<clus scale="   31.333">  1  3  2 -1</clus>
</clustering>
</event>
<event>
 6    0  0.4189111E+002  0.8698530E+02  0.7546771E-02  0.1310321E+00
         21   -1    0    0  505  502  0.00000000000E+00  0.00000000000E+00  0.74772981002E+03  0.74772981002E+03  0.00000000000E+00 0. -1.
          1   -1    0    0  503    0 -0.00000000000E+00 -0.00000000000E+00 -0.17552893266E+03  0.17552893266E+03  0.00000000000E+00 0. -1.
         21    1    1    2  503  502 -0.37741014493E+01  0.49305575793E+02 -0.96315442426E+01  0.50379065995E+02  0.00000000000E+00 0.  1.
         21    1    1    2  504  501  0.77194516089E+02  0.33468276482E+02  0.30687656394E+03  0.31820173529E+03  0.00000000000E+00 0. -1.
         21    1    1    2  505  504  0.10737088948E+02 -0.31176050105E+02  0.39662841195E+03  0.39799664364E+03  0.00000000000E+00 0. -1.
          1    1    1    2  501    0 -0.84157503587E+02 -0.51597802170E+02 -0.12167255429E+03  0.15668129776E+03  0.00000000000E+00 0. -1.
<scales pt_clust_3="47.59729" pt_clust_4="86.98530" pt_clust_5="32.97319" pt_clust_6="14000.00000"></scales>
<clustering>
<clus scale="   32.973">  1  5  2 -1</clus>
<clus scale="   47.597">  2  3  1 -1</clus>
<clus scale="   86.985">  1  4  2 -1</clus>
<clus scale="   32.973">  1  3  2 -1</clus>
</clustering>
</event>
<event>
 6    0  0.4189111E+002  0.1098827E+03  0.7546771E-02  0.1260787E+00
         21   -1    0    0  504  502  0.00000000000E+00  0.00000000000E+00  0.27404894501E+03  0.27404894501E+03  0.00000000000E+00 0. -1.
          3   -1    0    0  505    0 -0.00000000000E+00 -0.00000000000E+00 -0.10411451170E+04  0.10411451170E+04  0.00000000000E+00 0.  1.
         21    1    1    2  503  502 -0.81474466623E+02 -0.16999330938E+02  0.21108506796E+03  0.22690079744E+03  0.00000000000E+00 0. -1.
         21    1    1    2  504  501 -0.25696665456E+02  0.49736166080E+02  0.34720431469E+02  0.65874981543E+02  0.00000000000E+00 0. -1.
         21    1    1    2  505  503  0.16588428566E+02 -0.44713594765E+02 -0.36703111577E+03  0.37011663224E+03  0.00000000000E+00 0.  1.
          3    1    1    2  501    0  0.90582703513E+02  0.11976759623E+02 -0.64587055561E+03  0.65230165073E+03  0.00000000000E+00 0.  1.
<scales pt_clust_3="109.88271" pt_clust_4="54.88593" pt_clust_5="47.69152" pt_clust_6="14000.00000"></scales>
<clustering>
<clus scale="   47.692">  2  5  1 -1</clus>
<clus scale="   54.886">  1  4  2 -1</clus>
<clus scale="  109.883">  1  3  2 -1</clus>
<clus scale="   54.886">  1  3  2 -1</clus>
</clustering>
</event>
<event>
 6    0  0.4189111E+002  0.9568223E+02  0.7546771E-02  0.1289647E+00
         21   -1    0    0  504  502  0.00000000000E+00  0.00000000000E+00  0.12864929742E+04  0.12864929742E+04  0.00000000000E+00 0.  1.
          4   -1    0    0  505    0 -0.00000000000E+00 -0.00000000000E+00 -0.15751463950E+03  0.15751463950E+03  0.00000000000E+00 0.  1.
         21    1    1    2  503  502 -0.38768547503E+02 -0.31708592193E+01  0.11391927870E+04  0.11398566842E+04  0.00000000000E+00 0.  1.
         21    1    1    2  504  501 -0.18962034615E+02  0.55003463779E+02  0.36211779698E+02  0.68529065172E+02  0.00000000000E+00 0.  1.
         21    1    1    2  505  503 -0.16921458755E+01 -0.12306203238E+03  0.15563566919E+02  0.12405382617E+03  0.00000000000E+00 0. -1.
          4    1    1    2  501    0  0.59422727994E+02  0.71229427821E+02 -0.61989798842E+02  0.11156803821E+03  0.00000000000E+00 0.  1.
<scales pt_clust_3="38.89800" pt_clust_4="63.06090" pt_clust_5="95.68223" pt_clust_6="14000.00000"></scales>
<clustering>
<clus scale="   38.898">  1  3  2 -1</clus>
<clus scale="   63.061">  1  4  2 -1</clus>
<clus scale="   95.682">  1  5  2 -1</clus>
<clus scale="   38.898">  1  3  2 -1</clus>
</clustering>
</event>
<event>
 6    0  0.4189111E+002  0.7459980E+02  0.7546771E-02  0.1345115E+00
          2   -1    0    0  505    0 -0.00000000000E+00  0.00000000000E+00  0.18947252484E+04  0.18947252484E+04  0.00000000000E+00 0.  1.
         21   -1    0    0  504  502  0.00000000000E+00 -0.00000000000E+00 -0.65818409434E+02  0.65818409434E+02  0.00000000000E+00 0. -1.
         21    1    1    2  503  502  0.25709137411E+02 -0.16584718798E+02  0.81365948653E+01  0.31657808200E+02  0.00000000000E+00 0. -1.
         21    1    1    2  504  501 -0.87957603069E+02  0.54350381765E+02  0.11227609998E+01  0.10340098901E+03  0.00000000000E+00 0. -1.
         21    1    1    2  505  503 -0.21496164907E+02 -0.24321597473E+02  0.14067256899E+03  0.14436896092E+03  0.00000000000E+00 0.  1.
          2    1    1    2  501    0  0.83744630566E+02 -0.13444065494E+02  0.16789749141E+04  0.16811158997E+04  0.00000000000E+00 0.  1.
<scales pt_clust_3="30.59432" pt_clust_4="74.59980" pt_clust_5="32.31891" pt_clust_6="14000.00000"></scales>
<clustering>
<clus scale="   30.594">  2  3  1 -1</clus>
<clus scale="   32.319">  1  5  2 -1</clus>
<clus scale="   74.600">  2  4  1 -1</clus>
<clus scale="   30.594">  2  3  1 -1</clus>
</clustering>
</event>
<event>
 6    0  0.4189111E+002  0.1024853E+03  0.7546771E-02  0.1275155E+00
          2   -1    0    0  503    0 -0.00000000000E+00  0.00000000000E+00  0.33242513404E+03  0.33242513404E+03  0.00000000000E+00 0. -1.
         21   -1    0    0  505  502  0.00000000000E+00 -0.00000000000E+00 -0.30619390047E+03  0.30619390047E+03  0.00000000000E+00 0.  1.
         21    1    1    2  503  504 -0.30061694769E+02  0.65042883546E+01  0.56989149298E+02  0.64759357602E+02  0.00000000000E+00 0. -1.
         21    1    1    2  504  502 -0.48010224859E+02  0.26202849252E+02 -0.79542599119E+02  0.96532875615E+02  0.00000000000E+00 0.  1.
         21    1    1    2  505  501  0.66921013111E+02 -0.12596117634E+03 -0.18020658064E+03  0.22982395795E+03  0.00000000000E+00 0.  1.
          2    1    1    2  501    0  0.11150906517E+02  0.93254038738E+02  0.22899126404E+03  0.24750284334E+03  0.00000000000E+00 0. -1.
<scales pt_clust_3="30.75730" pt_clust_4="55.61890" pt_clust_5="102.48528" pt_clust_6="14000.00000"></scales>
<clustering>
<clus scale="   30.757">  1  3  2 -1</clus>
<clus scale="   55.619">  2  4  1 -1</clus>
<clus scale="  102.485">  2  5  1 -1</clus>
<clus scale="   55.619">  2  3  1 -1</clus>
</clustering>
</event>
<event>
 6    0  0.4189111E+002  0.9915924E+02  0.7546771E-02  0.1282074E+00
         -2   -1    0    0    0  501 -0.00000000000E+00  0.00000000000E+00  0.55285270308E+03  0.55285270308E+03  0.00000000000E+00 0.  1.
         21   -1    0    0  503  502  0.00000000000E+00 -0.00000000000E+00 -0.15671932204E+03  0.15671932204E+03  0.00000000000E+00 0.  1.
         21    1    1    2  503  504 -0.76250259146E+02 -0.48041082177E+02 -0.70916215985E+02  0.11467849531E+03  0.00000000000E+00 0.  1.
         21    1    1    2  504  501  0.27623522017E+02 -0.96628880908E+02  0.37061567574E+03  0.38400023268E+03  0.00000000000E+00 0.  1.
         21    1    1    2  505  502 -0.32049589921E+01  0.11587827777E+03  0.25957451792E+02  0.11879325034E+03  0.00000000000E+00 0.  1.
         -2    1    1    2    0  505  0.51831696122E+02  0.28791685312E+02  0.70476469498E+02  0.92100046791E+02  0.00000000000E+00 0.  1.
<scales pt_clust_3="87.37553" pt_clust_4="99.15924" pt_clust_5="14000.00000" pt_clust_6="59.29153"></scales>
<clustering>
<clus scale="   59.292">  1  6  2 -1</clus>
<clus scale="   87.376">  2  3  1 -1</clus>
<clus scale="   99.159">  1  4  2 -1</clus>
<clus scale="   87.376">  2  3  1 -1</clus>
</clustering>
</event>
<event>
 6    0  0.4189111E+002  0.8696209E+02  0.7546771E-02  0.1310380E+00
          2   -1    0    0  503    0 -0.00000000000E+00  0.00000000000E+00  0.30116795891E+04  0.30116795891E+04  0.00000000000E+00 0. -1.
         21   -1    0    0  504  502  0.00000000000E+00 -0.00000000000E+00 -0.16275728697E+03  0.16275728697E+03  0.00000000000E+00 0.  1.
         21    1    1    2  503  505  0.41778344770E+02  0.24552137549E+02  0.15498780980E+03  0.16238675665E+03  0.00000000000E+00 0. -1.
         21    1    1    2  504  501  0.65411994981E+02  0.42361902452E+02  0.54841789302E+02  0.95293660443E+02  0.00000000000E+00 0. -1.
         21    1    1    2  505  502 -0.34441040748E+02 -0.18712991386E+02 -0.13536547968E+03  0.14092613109E+03  0.00000000000E+00 0.  1.
          2    1    1    2  501    0 -0.72749299003E+02 -0.48201048615E+02  0.27744581827E+04  0.27758303279E+04  0.00000000000E+00 0. -1.
<scales pt_clust_3="42.57059" pt_clust_4="86.96209" pt_clust_5="39.19645" pt_clust_6="14000.00000"></scales>
<clustering>
<clus scale="   39.196">  2  5  1 -1</clus>
<clus scale="   42.571">  2  3  1 -1</clus>
<clus scale="   86.962">  2  4  1 -1</clus>
<clus scale="   39.196">  2  3  1 -1</clus>
</clustering>
</event>
<event>
 6    0  0.4189111E+002  0.8243527E+02  0.7546771E-02  0.1322279E+00
         21   -1    0    0  504  502  0.00000000000E+00  0.00000000000E+00  0.53184923886E+03  0.53184923886E+03  0.00000000000E+00 0.  1.
         -3   -1    0    0    0  501 -0.00000000000E+00 -0.00000000000E+00 -0.70589944482E+02  0.70589944482E+02  0.00000000000E+00 0.  1.
         21    1    1    2  503  502 -0.36951436477E+02  0.37777101937E+01  0.24395418561E+03  0.24676572783E+03  0.00000000000E+00 0.  1.
         21    1    1    2  504  505  0.17483607747E+02  0.44881449647E+02  0.81667540366E+02  0.94813544453E+02  0.00000000000E+00 0.  1.
         21    1    1    2  505  501  0.97910983621E+02 -0.30428435084E+02  0.14731592895E+03  0.17948379675E+03  0.00000000000E+00 0.  1.
         -3    1    1    2    0  503 -0.78443154892E+02 -0.18230724756E+02 -0.11678360551E+02  0.81376114307E+02  0.00000000000E+00 0.  1.
<scales pt_clust_3="37.14404" pt_clust_4="46.44762" pt_clust_5="14000.00000" pt_clust_6="82.43527"></scales>
<clustering>
<clus scale="   37.144">  1  3  2 -1</clus>
<clus scale="   46.448">  1  4  2 -1</clus>
<clus scale="   82.435">  2  6  1 -1</clus>
<clus scale="   37.144">  1  3  2 -1</clus>
</clustering>
</event>
<event>
 6    0  0.4189111E+002  0.6826065E+02  0.7546771E-02  0.1366110E+00
          2   -1    0    0  503    0 -0.00000000000E+00  0.00000000000E+00  0.16323986645E+04  0.16323986645E+04  0.00000000000E+00 0.  1.
         21   -1    0    0  505  502  0.00000000000E+00 -0.00000000000E+00 -0.22252242939E+04  0.22252242939E+04  0.00000000000E+00 0.  1.
         21    1    1    2  503  504 -0.89582596578E+02  0.56027919114E+02  0.14481746643E+04  0.14520241140E+04  0.00000000000E+00 0.  1.
         21    1    1    2  504  502  0.10710213968E+02  0.34626761621E+02 -0.14570914118E+04  0.14575421448E+04  0.00000000000E+00 0.  1.
         21    1    1    2  505  501  0.41745084062E+02 -0.78106401215E+02 -0.76127670484E+03  0.76641077973E+03  0.00000000000E+00 0.  1.
          2    1    1    2  501    0  0.37127298548E+02 -0.12548279520E+02  0.17736782286E+03  0.18164591987E+03  0.00000000000E+00 0.  1.
<scales pt_clust_3="68.26065" pt_clust_4="36.24529" pt_clust_5="14000.00000" pt_clust_6="39.18801"></scales>
<clustering>
<clus scale="   36.245">  2  4  1 -1</clus>
<clus scale="   39.188">  1  6  2 -1</clus>
<clus scale="   68.261">  1  3  2 -1</clus>
<clus scale="   36.245">  2  3  1 -1</clus>
</clustering>
</event>
<event>
 6    0  0.4189111E+002  0.1132073E+03  0.7546771E-02  0.1254743E+00
         21   -1    0    0  503  502  0.00000000000E+00  0.00000000000E+00  0.42010655991E+02  0.42010655991E+02  0.00000000000E+00 0.  1.
          2   -1    0    0  505    0 -0.00000000000E+00 -0.00000000000E+00 -0.29556807053E+04  0.29556807053E+04  0.00000000000E+00 0. -1.
         21    1    1    2  503  501 -0.84103260479E+02  0.23291142623E+02 -0.26223331065E+02  0.91123536148E+02  0.00000000000E+00 0.  1.
         21    1    1    2  504  502 -0.32715255727E+02 -0.33189114472E+02 -0.71377325498E+02  0.85243931584E+02  0.00000000000E+00 0.  1.
         21    1    1    2  505  504  0.22855811289E+02 -0.49880441520E+02 -0.61639905547E+03  0.61883619976E+03  0.00000000000E+00 0.  1.
          2    1    1    2  501    0  0.93962704916E+02  0.59778413369E+02 -0.21996703373E+04  0.22024876938E+04  0.00000000000E+00 0. -1.
<scales pt_clust_3="113.20733" pt_clust_4="46.60263" pt_clust_5="55.46294" pt_clust_6="14000.00000"></scales>
<clustering>
<clus scale="   46.603">  1  4  2 -1</clus>
<clus scale="   55.463">  2  5  1 -1</clus>
<clus scale="  113.207">  1  3  2 -1</clus>
<clus scale="   46.603">  1  3  2 -1</clus>
</clustering>
</event>
<event>
 6    0  0.4189111E+002  0.5938789E+02  0.7546771E-02  0.1400419E+00
         21   -1    0    0  503  502  0.00000000000E+00  0.00000000000E+00  0.12000535881E+04  0.12000535881E+04  0.00000000000E+00 0. -1.
          2   -1    0    0  504    0 -0.00000000000E+00 -0.00000000000E+00 -0.15765790098E+04  0.15765790098E+04  0.00000000000E+00 0.  1.
         21    1    1    2  503  505 -0.64714736335E+01 -0.54888532266E+02  0.10927790546E+04  0.10941758054E+04  0.00000000000E+00 0. -1.
         21    1    1    2  504  502  0.13312992523E+02  0.31417136211E+02 -0.45531278977E+03  0.45658954077E+03  0.00000000000E+00 0.  1.
         21    1    1    2  505  501 -0.34323249751E+02  0.96847066172E+02  0.79287320715E+02  0.12978412432E+03  0.00000000000E+00 0.  1.
          2    1    1    2  501    0  0.27481730862E+02 -0.73375670117E+02 -0.10932790073E+04  0.10960831274E+04  0.00000000000E+00 0.  1.
<scales pt_clust_3="55.24830" pt_clust_4="34.12143" pt_clust_5="14000.00000" pt_clust_6="59.38789"></scales>
<clustering>
<clus scale="   34.121">  2  4  1 -1</clus>
<clus scale="   55.248">  1  3  2 -1</clus>
<clus scale="   59.388">  2  6  1 -1</clus>
<clus scale="   55.248">  1  3  2 -1</clus>
</clustering>
</event>
<event>
 6    0  0.4189111E+002  0.1304841E+03  0.7546771E-02  0.1226739E+00
         -3   -1    0    0    0  501 -0.00000000000E+00  0.00000000000E+00  0.13137181058E+03  0.13137181058E+03  0.00000000000E+00 0.  1.
         21   -1    0    0  503  502  0.00000000000E+00 -0.00000000000E+00 -0.47749262624E+03  0.47749262624E+03  0.00000000000E+00 0. -1.
         21    1    1    2  503  501  0.70634023396E+02 -0.11367317434E+03 -0.28338635892E+03  0.31339844328E+03  0.00000000000E+00 0. -1.
         21    1    1    2  504  505 -0.37706549181E+02  0.37131314834E+02  0.10505635425E+02  0.53952634487E+02  0.00000000000E+00 0.  1.
         21    1    1    2  505  502  0.21959674946E+02  0.31787684928E+02 -0.13936517074E+03  0.14462135061E+03  0.00000000000E+00 0. -1.
         -3    1    1    2    0  504 -0.54887149161E+02  0.44754174579E+02  0.66125078571E+02  0.96892008449E+02  0.00000000000E+00 0.  1.
<scales pt_clust_3="124.18973" pt_clust_4="34.60978" pt_clust_5="38.63527" pt_clust_6="34.60978"></scales>
<clustering>
<clus scale="   34.610">  4  6 -1 -1</clus>
<clus scale="   38.635">  2  5  1 -1</clus>
<clus scale="  124.190">  2  3  1 -1</clus>
<clus scale="   38.635">  2  3  1 -1</clus>
</clustering>
</event>
<event>
 6    0  0.4189111E+002  0.1725527E+03  0.7546771E-02  0.1175212E+00
          1   -1    0    0  503    0 -0.00000000000E+00  0.00000000000E+00  0.32780398551E+04  0.32780398551E+04  0.00000000000E+00 0.  1.
         21   -1    0    0  504  502  0.00000000000E+00 -0.00000000000E+00 -0.23169378243E+02  0.23169378243E+02  0.00000000000E+00 0.  1.
         21    1    1    2  503  502 -0.67656657892E+02 -0.21152037525E+03  0.88636234949E+03  0.91375954555E+03  0.00000000000E+00 0.  1.
         21    1    1    2  504  505  0.44675604652E+02  0.62204529643E+02  0.22037899043E+03  0.23330712073E+03  0.00000000000E+00 0. -1.
         21    1    1    2  505  501  0.35242066093E+02  0.52461072633E+02  0.86025079590E+03  0.86256918518E+03  0.00000000000E+00 0.  1.
          1    1    1    2  501    0 -0.12261012853E+02  0.96854772975E+02  0.12878783411E+04  0.12915733819E+04  0.00000000000E+00 0.  1.
<scales pt_clust_3="163.48208" pt_clust_4="76.58533" pt_clust_5="44.42032" pt_clust_6="44.42032"></scales>
<clustering>
<clus scale="   44.420">  5  6 -1 -1</clus>
<clus scale="   76.585">  2  4  1 -1</clus>
<clus scale="  163.482">  2  3  1 -1</clus>
<clus scale="   76.585">  2  3  1 -1</clus>
</clustering>
</event>
<event>
 6    0  0.4189111E+002  0.1431698E+03  0.7546771E-02  0.1209126E+00
         21   -1    0    0  504  502  0.00000000000E+00  0.00000000000E+00  0.44055316465E+03  0.44055316465E+03  0.00000000000E+00 0. -1.
         -1   -1    0    0    0  501 -0.00000000000E+00 -0.00000000000E+00 -0.44725208064E+03  0.44725208064E+03  0.00000000000E+00 0. -1.
         21    1    1    2  503  505  0.31489004659E+02  0.74759361970E+02 -0.16746037769E+03  0.18607390390E+03  0.00000000000E+00 0.  1.
         21    1    1    2  504  503  0.13759191358E+03 -0.35680534547E+02  0.37898476815E+03  0.40476423968E+03  0.00000000000E+00 0. -1.
         21    1    1    2  505  501 -0.10623307932E+01 -0.31716760937E+02 -0.22438173149E+02  0.38865834422E+02  0.00000000000E+00 0.  1.
         -1    1    1    2    0  502 -0.16801858745E+03 -0.73620664857E+01 -0.19578513331E+03  0.25810126729E+03  0.00000000000E+00 0. -1.
<scales pt_clust_3="68.71147" pt_clust_4="14000.00000" pt_clust_5="31.73455" pt_clust_6="143.16976"></scales>
<clustering>
<clus scale="   31.735">  2  5  1 -1</clus>
<clus scale="   68.711">  2  3  1 -1</clus>
<clus scale="  143.170">  2  6  1 -1</clus>
<clus scale="  143.170">  1  3  2 -1</clus>
</clustering>
</event>
<event>
 6    0  0.4189111E+002  0.8184178E+02  0.7546771E-02  0.1323905E+00
         -1   -1    0    0    0  501 -0.00000000000E+00  0.00000000000E+00  0.38298262801E+03  0.38298262801E+03  0.00000000000E+00 0.  1.
         21   -1    0    0  504  502  0.00000000000E+00 -0.00000000000E+00 -0.34578453164E+04  0.34578453164E+04  0.00000000000E+00 0.  1.
         21    1    1    2  503  502  0.99225374750E+02  0.62915379265E+02 -0.28042882609E+04  0.28067484159E+04  0.00000000000E+00 0.  1.
         21    1    1    2  504  505 -0.48176630193E+02  0.98377138758E+00 -0.63144841102E+03  0.63328433684E+03  0.00000000000E+00 0.  1.
         21    1    1    2  505  501 -0.41358200258E+02 -0.73664004709E+01  0.73484752785E+01  0.42646977307E+02  0.00000000000E+00 0.  1.
         -1    1    1    2    0  503 -0.96905442992E+01 -0.56532750181E+02  0.35352550824E+03  0.35814821439E+03  0.00000000000E+00 0.  1.
<scales pt_clust_3="14000.00000" pt_clust_4="48.29232" pt_clust_5="42.00910" pt_clust_6="81.84178"></scales>
<clustering>
<clus scale="   42.009">  1  5  2 -1</clus>
<clus scale="   48.292">  2  4  1 -1</clus>
<clus scale="   81.842">  1  6  2 -1</clus>
<clus scale="   48.292">  2  3  1 -1</clus>
</clustering>
</event>
<event>
 6    0  0.4189111E+002  0.8889420E+02  0.7546771E-02  0.1305552E+00
          2   -1    0    0  503    0 -0.00000000000E+00  0.00000000000E+00  0.30480956998E+03  0.30480956998E+03  0.00000000000E+00 0. -1.
         21   -1    0    0  501  502  0.00000000000E+00 -0.00000000000E+00 -0.23968887967E+03  0.23968887967E+03  0.00000000000E+00 0. -1.
         21    1    1    2  503  505  0.29882474187E+02 -0.26836969301E+02  0.11127305581E+03  0.11829994984E+03  0.00000000000E+00 0. -1.
         21    1    1    2  504  502 -0.73468500567E+02  0.77279337075E+02 -0.13801258105E+03  0.17440524374E+03  0.00000000000E+00 0. -1.
         21    1    1    2  505  504  0.85251546940E+02  0.79330456006E+01 -0.45409908706E+02  0.96916558322E+02  0.00000000000E+00 0. -1.
          2    1    1    2  501    0 -0.41665520561E+02 -0.58375413375E+02  0.13727012426E+03  0.15487669775E+03  0.00000000000E+00 0. -1.
<scales pt_clust_3="40.16448" pt_clust_4="14000.00000" pt_clust_5="88.89420" pt_clust_6="81.18701"></scales>
<clustering>
<clus scale="   40.164">  1  3  2 -1</clus>
<clus scale="   81.187">  1  6  2 -1</clus>
<clus scale="   88.894">  1  5  2 -1</clus>
<clus scale="   88.894">  2  3  1 -1</clus>
</clustering>
</event>
<event>
 6    0  0.4189111E+002  0.7754488E+02  0.7546771E-02  0.1336167E+00
          2   -1    0    0  505    0 -0.00000000000E+00  0.00000000000E+00  0.97964009384E+03  0.97964009384E+03  0.00000000000E+00 0. -1.
         21   -1    0    0  504  502  0.00000000000E+00 -0.00000000000E+00 -0.13425550015E+03  0.13425550015E+03  0.00000000000E+00 0. -1.
         21    1    1    2  503  502 -0.29045257836E+02 -0.54052335555E+02 -0.13078963893E+02  0.62740268395E+02  0.00000000000E+00 0. -1.
         21    1    1    2  504  501  0.57967638062E+01  0.33918442842E+02 -0.72451030792E+02  0.80207325714E+02  0.00000000000E+00 0. -1.
         21    1    1    2  505  503 -0.75083017574E+02  0.98631264911E+01  0.81536754831E+03  0.81887665716E+03  0.00000000000E+00 0. -1.
          2    1    1    2  501    0  0.98331511604E+02  0.10270766223E+02  0.11554704005E+03  0.15207134272E+03  0.00000000000E+00 0. -1.
<scales pt_clust_3="40.64919" pt_clust_4="34.41022" pt_clust_5="77.54488" pt_clust_6="14000.00000"></scales>
<clustering>
<clus scale="   34.410">  2  4  1 -1</clus>
<clus scale="   40.649">  2  3  1 -1</clus>
<clus scale="   77.545">  1  5  2 -1</clus>
<clus scale="   34.410">  2  3  1 -1</clus>
</clustering>
</event>
<event>
 6    0  0.4189111E+002  0.1206915E+03  0.7546771E-02  0.1241961E+00
         21   -1    0    0  503  502  0.00000000000E+00  0.00000000000E+00  0.38408888189E+03  0.38408888189E+03  0.00000000000E+00 0. -1.
         -2   -1    0    0    0  501 -0.00000000000E+00 -0.00000000000E+00 -0.16013056660E+03  0.16013056660E+03  0.00000000000E+00 0. -1.
         21    1    1    2  503  504 -0.44816868638E+02  0.82752742894E+02  0.75973250534E+02  0.12094834835E+03  0.00000000000E+00 0. -1.
         21    1    1    2  504  501  0.20528298196E+02  0.22933461834E+02 -0.40046821757E+02  0.50508441189E+02  0.00000000000E+00 0.  1.
         21    1    1    2  505  502  0.52567564994E+02 -0.13301281006E+03  0.25657169134E+03  0.29374272642E+03  0.00000000000E+00 0. -1.
         -2    1    1    2    0  505 -0.28278994552E+02  0.27326605336E+02 -0.68539804824E+02  0.79019932533E+02  0.00000000000E+00 0. -1.
<scales pt_clust_3="120.69149" pt_clust_4="30.77913" pt_clust_5="14000.00000" pt_clust_6="44.68448"></scales>
<clustering>
<clus scale="   30.779">  2  4  1 -1</clus>
<clus scale="   44.684">  2  6  1 -1</clus>
<clus scale="  120.691">  2  3  1 -1</clus>
<clus scale="  120.691">  1  3  2 -1</clus>
</clustering>
</event>
<event>
 6    0  0.4189111E+002  0.1403421E+03  0.7546771E-02  0.1212869E+00
         21   -1    0    0  505  502  0.00000000000E+00  0.00000000000E+00  0.13213416000E+03  0.13213416000E+03  0.00000000000E+00 0.  1.
          2   -1    0    0  504    0 -0.00000000000E+00 -0.00000000000E+00 -0.15020084367E+04  0.15020084367E+04  0.00000000000E+00 0. -1.
         21    1    1    2  503  502 -0.62385181101E+02 -0.20994164614E+02 -0.10787048409E+04  0.10807112471E+04  0.00000000000E+00 0. -1.
         21    1    1    2  504  503  0.24526736157E+02 -0.44245190794E+02 -0.13248391021E+03  0.14181390679E+03  0.00000000000E+00 0.  1.
         21    1    1    2  505  501  0.95218770896E+02  0.11993384306E+03  0.70887884217E+02  0.16874783901E+03  0.00000000000E+00 0.  1.
          2    1    1    2  501    0 -0.57360325953E+02 -0.54694487649E+02 -0.22957340983E+03  0.24286960385E+03  0.00000000000E+00 0. -1.
<scales pt_clust_3="70.59039" pt_clust_4="50.58851" pt_clust_5="140.34211" pt_clust_6="14000.00000"></scales>
<clustering>
<clus scale="   50.589">  2  4  1 -1</clus>
<clus scale="   70.590">  2  3  1 -1</clus>
<clus scale="  140.342">  1  5  2 -1</clus>
<clus scale="  140.342">  1  3  2 -1</clus>
</clustering>
</event>
<event>
 6    0  0.1598957E+003  0.1480323E+03  0.7546771E-02  0.1202912E+00
         21   -1    0    0  504  502  0.00000000000E+00  0.00000000000E+00  0.84370937218E+03  0.84370937218E+03  0.00000000000E+00 0.  1.
          2   -1    0    0  505    0 -0.00000000000E+00 -0.00000000000E+00 -0.25394982234E+04  0.25394982234E+04  0.00000000000E+00 0.  1.
         21    1    1    2  503  502  0.60962244493E+02  0.89450225590E+02  0.80434594705E+03  0.81159727738E+03  0.00000000000E+00 0.  1.
         21    1    1    2  504  501  0.36397641635E+02  0.22712884115E+02  0.18830801145E+02  0.46853628389E+02  0.00000000000E+00 0.  1.
         21    1    1    2  505  503 -0.39479040747E+02 -0.13826242070E+02 -0.30532179712E+03  0.30817391101E+03  0.00000000000E+00 0. -1.
          2    1    1    2  501    0 -0.57880845382E+02 -0.98336867635E+02 -0.22136438023E+04  0.22165827788E+04  0.00000000000E+00 0.  1.
<scales pt_clust_3="14000.00000" pt_clust_4="42.64688" pt_clust_5="41.83013" pt_clust_6="148.03227"></scales>
<clustering>
<clus scale="   41.830">  2  5  1 -1</clus>
<clus scale="   42.647">  1  4  2 -1</clus>
<clus scale="  148.032">  2  6  1 -1</clus>
<clus scale="   42.647">  1  3  2 -1</clus>
</clustering>
</event>
<event>
 6    0  0.4189111E+002  0.8837337E+02  0.7546771E-02  0.1306839E+00
         21   -1    0    0  505  502  0.00000000000E+00  0.00000000000E+00  0.20315104964E+03  0.20315104964E+03  0.00000000000E+00 0.  1.
          2   -1    0    0  503    0 -0.00000000000E+00 -0.00000000000E+00 -0.11757107600E+04  0.11757107600E+04  0.00000000000E+00 0. -1.
         21    1    1    2  503  502  0.82499150073E+01 -0.45754313195E+02 -0.20946218383E+03  0.21455983950E+03  0.00000000000E+00 0.  1.
         21    1    1    2  504  501  0.68916343311E+02  0.86530658029E+01 -0.19722735708E+02  0.72203353294E+02  0.00000000000E+00 0.  1.
         21    1    1    2  505  504 -0.79898085508E+01  0.67144100552E+02  0.16618643344E+03  0.17941599132E+03  0.00000000000E+00 0.  1.
          2    1    1    2  501    0 -0.69176449767E+02 -0.30042853159E+02 -0.90956122426E+03  0.91268262551E+03  0.00000000000E+00 0. -1.
<scales pt_clust_3="46.49213" pt_clust_4="14000.00000" pt_clust_5="67.29926" pt_clust_6="88.37337"></scales>
<clustering>
<clus scale="   46.492">  2  3  1 -1</clus>
<clus scale="   67.299">  1  5  2 -1</clus>
<clus scale="   88.373">  2  6  1 -1</clus>
<clus scale="   67.299">  1  3  2 -1</clus>
</clustering>
</event>
<event>
 6    0  0.4189111E+002  0.1023171E+03  0.7546771E-02  0.1275497E+00
         21   -1    0    0  501  502  0.00000000000E+00  0.00000000000E+00  0.71026307777E+02  0.71026307777E+02  0.00000000000E+00 0.  1.
          2   -1    0    0  504    0 -0.00000000000E+00 -0.00000000000E+00 -0.16854980473E+04  0.16854980473E+04  0.00000000000E+00 0. -1.
         21    1    1    2  503  505  0.75307716173E+02 -0.91397428152E+02 -0.14530969886E+03  0.18745572963E+03  0.00000000000E+00 0. -1.
         21    1    1    2  504  503  0.10466901072E+02  0.90463102743E+02 -0.13709597948E+04  0.13739810362E+04  0.00000000000E+00 0. -1.
         21    1    1    2  505  502 -0.10540508362E+03  0.24496273560E+02 -0.11679712839E+03  0.15922270024E+03  0.00000000000E+00 0.  1.
          2    1    1    2  501    0  0.19630466380E+02 -0.23561948151E+02  0.18594882471E+02  0.35864889029E+02  0.00000000000E+00 0. -1.
<scales pt_clust_3="14000.00000" pt_clust_4="90.34038" pt_clust_5="102.31714" pt_clust_6="30.66791"></scales>
<clustering>
<clus scale="   30.668">  1  6  2 -1</clus>
<clus scale="   90.340">  2  4  1 -1</clus>
<clus scale="  102.317">  1  5  2 -1</clus>
<clus scale="   30.668">  1  3  2 -1</clus>
</clustering>
</event>
<event>
 6    0  0.4189111E+002  0.7388008E+02  0.7546771E-02  0.1347375E+00
          1   -1    0    0  504    0 -0.00000000000E+00  0.00000000000E+00  0.22516092921E+04  0.22516092921E+04  0.00000000000E+00 0. -1.
         21   -1    0    0  505  502  0.00000000000E+00 -0.00000000000E+00 -0.23862744612E+03  0.23862744612E+03  0.00000000000E+00 0. -1.
         21    1    1    2  503  502 -0.12080546747E+03 -0.22222787236E+02 -0.20002135848E+03  0.23472613210E+03  0.00000000000E+00 0. -1.
         21    1    1    2  504  503  0.34644935908E+02 -0.48271893605E+02  0.20485500371E+03  0.21329796023E+03  0.00000000000E+00 0. -1.
         21    1    1    2  505  501  0.55602116421E+02 -0.10869264491E+02  0.33838374422E+02  0.65990695137E+02  0.00000000000E+00 0.  1.
          1    1    1    2  501    0  0.30558415142E+02  0.81363945332E+02  0.19743098263E+04  0.19762219507E+04  0.00000000000E+00 0. -1.
<scales pt_clust_3="73.88008" pt_clust_4="60.20454" pt_clust_5="56.65453" pt_clust_6="14000.00000"></scales>
<clustering>
<clus scale="   56.655">  2  5  1 -1</clus>
<clus scale="   60.205">  1  4  2 -1</clus>
<clus scale="   73.880">  2  3  1 -1</clus>
<clus scale="   56.655">  2  3  1 -1</clus>
</clustering>
</event>
<event>
 6    0  0.4189111E+002  0.8506007E+02  0.7546771E-02  0.1315276E+00
          1   -1    0    0  503    0 -0.00000000000E+00  0.00000000000E+00  0.16112010589E+04  0.16112010589E+04  0.00000000000E+00 0.  1.
         21   -1    0    0  504  502  0.00000000000E+00 -0.00000000000E+00 -0.11942730017E+03  0.11942730017E+03  0.00000000000E+00 0.  1.
         21    1    1    2  503  505 -0.13577064776E+02 -0.31123197168E+02  0.40073349693E+03  0.40216952352E+03  0.00000000000E+00 0. -1.
         21    1    1    2  504  501 -0.67604028654E+02  0.10343907728E+03 -0.31617105273E+02  0.12755229808E+03  0.00000000000E+00 0.  1.
         21    1    1    2  505  502  0.46883034076E+02 -0.20471557948E+02 -0.21189089539E+02  0.55372204981E+02  0.00000000000E+00 0. -1.
          1    1    1    2  501    0  0.34298059354E+02 -0.51844322164E+02  0.11438464566E+04  0.11455343325E+04  0.00000000000E+00 0.  1.
<scales pt_clust_3="33.95571" pt_clust_4="85.06007" pt_clust_5="51.16005" pt_clust_6="14000.00000"></scales>
<clustering>
<clus scale="   33.956">  1  3  2 -1</clus>
<clus scale="   51.160">  2  5  1 -1</clus>
<clus scale="   85.060">  2  4  1 -1</clus>
<clus scale="   51.160">  2  3  1 -1</clus>
</clustering>
</event>
<event>
 6    0  0.4189111E+002  0.9155975E+02  0.7546771E-02  0.1299118E+00
         21   -1    0    0  503  502  0.00000000000E+00  0.00000000000E+00  0.66115125037E+03  0.66115125037E+03  0.00000000000E+00 0.  1.
          2   -1    0    0  504    0 -0.00000000000E+00 -0.00000000000E+00 -0.17735944333E+03  0.17735944333E+03  0.00000000000E+00 0. -1.
         21    1    1    2  503  501 -0.70555890642E+02  0.26617540945E+02  0.15274610656E+03  0.17034670604E+03  0.00000000000E+00 0.  1.
         21    1    1    2  504  505  0.37544935441E+02 -0.26700739224E+02 -0.66364532626E+02  0.80788630655E+02  0.00000000000E+00 0.  1.
         21    1    1    2  505  502 -0.29335900100E+02 -0.47557064881E+02  0.47426298467E+03  0.47754334681E+03  0.00000000000E+00 0.  1.
          2    1    1    2  501    0  0.62346855301E+02  0.47640263160E+02 -0.76852751563E+02  0.10983201019E+03  0.00000000000E+00 0. -1.
<scales pt_clust_3="91.55975" pt_clust_4="46.07116" pt_clust_5="55.92962" pt_clust_6="14000.00000"></scales>
<clustering>
<clus scale="   46.071">  2  4  1 -1</clus>
<clus scale="   55.930">  1  5  2 -1</clus>
<clus scale="   91.560">  1  3  2 -1</clus>
<clus scale="   55.930">  1  3  2 -1</clus>
</clustering>
</event>
<event>
 6    0  0.4189111E+002  0.1376480E+03  0.7546771E-02  0.1216529E+00
         21   -1    0    0  503  502  0.00000000000E+00  0.00000000000E+00  0.23842693349E+03  0.23842693349E+03  0.00000000000E+00 0.  1.
          2   -1    0    0  504    0 -0.00000000000E+00 -0.00000000000E+00 -0.78729424446E+03  0.78729424446E+03  0.00000000000E+00 0.  1.
         21    1    1    2  503  501  0.10331209974E+02  0.33213272666E+02  0.21452680498E+03  0.21732833556E+03  0.00000000000E+00 0.  1.
         21    1    1    2  504  505  0.16517503073E+02  0.69466318282E+02 -0.24056263659E+03  0.25093580735E+03  0.00000000000E+00 0.  1.
         21    1    1    2  505  502  0.48118988749E+02  0.17585442575E+02 -0.12249086206E+03  0.13277310027E+03  0.00000000000E+00 0.  1.
          2    1    1    2  501    0 -0.74967701796E+02 -0.12026503352E+03 -0.40034061729E+03  0.42468393477E+03  0.00000000000E+00 0.  1.
<scales pt_clust_3="34.78298" pt_clust_4="51.05202" pt_clust_5="51.05202" pt_clust_6="123.60488"></scales>
<clustering>
<clus scale="   34.783">  1  3  2 -1</clus>
<clus scale="   51.052">  4  5 -1 -1</clus>
<clus scale="  123.605">  1  6  2 -1</clus>
<clus scale="   34.783">  1  3  2 -1</clus>
</clustering>
</event>
<event>
 6    0  0.4189111E+002  0.1306481E+03  0.7546771E-02  0.1226497E+00
         21   -1    0    0  504  502  0.00000000000E+00  0.00000000000E+00  0.89789800912E+03  0.89789800912E+03  0.00000000000E+00 0. -1.
          1   -1    0    0  505    0 -0.00000000000E+00 -0.00000000000E+00 -0.64627752720E+03  0.64627752720E+03  0.00000000000E+00 0.  1.
         21    1    1    2  503  502 -0.65340829932E+02 -0.14425909025E+02  0.76406269552E+03  0.76698717955E+03  0.00000000000E+00 0. -1.
         21    1    1    2  504  501 -0.61246951926E+02 -0.23251144276E+02  0.79670204843E+02  0.10314623779E+03  0.00000000000E+00 0. -1.
         21    1    1    2  505  503 -0.39999944562E+02 -0.70137414545E+02 -0.45842261781E+02  0.92848077251E+02  0.00000000000E+00 0.  1.
          1    1    1    2  501    0  0.16658772642E+03  0.10781446785E+03 -0.54627015667E+03  0.58119404173E+03  0.00000000000E+00 0.  1.
<scales pt_clust_3="14000.00000" pt_clust_4="65.51187" pt_clust_5="82.22369" pt_clust_6="130.64805"></scales>
<clustering>
<clus scale="   65.512">  1  4  2 -1</clus>
<clus scale="   82.224">  2  5  1 -1</clus>
<clus scale="  130.648">  2  6  1 -1</clus>
<clus scale="   65.512">  1  3  2 -1</clus>
</clustering>
</event>
<event>
 6    0  0.4189111E+002  0.8545382E+02  0.7546771E-02  0.1314250E+00
          1   -1    0    0  503    0 -0.00000000000E+00  0.00000000000E+00  0.26117352948E+03  0.26117352948E+03  0.00000000000E+00 0.  1.
         21   -1    0    0  504  502  0.00000000000E+00 -0.00000000000E+00 -0.15481857368E+03  0.15481857368E+03  0.00000000000E+00 0.  1.
         21    1    1    2  503  502  0.88203535499E+02 -0.50710826654E+02 -0.26249500242E+02  0.10507372591E+03  0.00000000000E+00 0.  1.
         21    1    1    2  504  505 -0.64526647279E+02 -0.56166173728E+02 -0.31914793519E+02  0.91306524004E+02  0.00000000000E+00 0.  1.
         21    1    1    2  505  501 -0.44435977029E+02  0.57578736690E+02  0.37588230445E+02  0.81870275689E+02  0.00000000000E+00 0.  1.
          1    1    1    2  501    0  0.20759088809E+02  0.49298263692E+02  0.12693101912E+03  0.13774157755E+03  0.00000000000E+00 0.  1.
<scales pt_clust_3="85.45382" pt_clust_4="74.67550" pt_clust_5="14000.00000" pt_clust_6="53.49073"></scales>
<clustering>
<clus scale="   53.491">  1  6  2 -1</clus>
<clus scale="   74.675">  2  4  1 -1</clus>
<clus scale="   85.454">  2  3  1 -1</clus>
<clus scale="   74.675">  2  3  1 -1</clus>
</clustering>
</event>
<event>
 6    0  0.4189111E+002  0.1078266E+03  0.7546771E-02  0.1264648E+00
         -3   -1    0    0    0  501 -0.00000000000E+00  0.00000000000E+00  0.52684551954E+03  0.52684551954E+03  0.00000000000E+00 0. -1.
         21   -1    0    0  503  502  0.00000000000E+00 -0.00000000000E+00 -0.82305477654E+02  0.82305477654E+02  0.00000000000E+00 0.  1.
         21    1    1    2  503  505 -0.25039585754E+02  0.16647743478E+02 -0.13128945544E+02  0.32810020249E+02  0.00000000000E+00 0.  1.
         21    1    1    2  504  501 -0.34146786559E+02  0.44162335405E+02  0.15013176955E+03  0.16017447714E+03  0.00000000000E+00 0.  1.
         21    1    1    2  505  504 -0.78528402579E+02 -0.53176285380E+02  0.19519557507E+02  0.96826858173E+02  0.00000000000E+00 0. -1.
         -3    1    1    2    0  502  0.13771477489E+03 -0.76337935026E+01  0.28801766037E+03  0.31933964162E+03  0.00000000000E+00 0. -1.
<scales pt_clust_3="30.06872" pt_clust_4="58.24034" pt_clust_5="107.82660" pt_clust_6="14000.00000"></scales>
<clustering>
<clus scale="   30.069">  2  3  1 -1</clus>
<clus scale="   58.240">  1  4  2 -1</clus>
<clus scale="  107.827">  2  5  1 -1</clus>
<clus scale="   30.069">  2  3  1 -1</clus>
</clustering>
</event>
<event>
 6    0  0.4189111E+002  0.5997243E+02  0.7546771E-02  0.1397947E+00
         -1   -1    0    0    0  501 -0.00000000000E+00  0.00000000000E+00  0.31401563338E+03  0.31401563338E+03  0.00000000000E+00 0.  1.
         21   -1    0    0  504  502  0.00000000000E+00 -0.00000000000E+00 -0.14718237714E+04  0.14718237714E+04  0.00000000000E+00 0. -1.
         21    1    1    2  503  502  0.31545127570E+02  0.39599522212E+02 -0.12207142170E+04  0.12217636502E+04  0.00000000000E+00 0. -1.
         21    1    1    2  504  505  0.14311824626E+02 -0.71138478345E+02 -0.19588178401E+03  0.20889036534E+03  0.00000000000E+00 0.  1.
         21    1    1    2  505  501 -0.50761640738E+02  0.71741447950E+02 -0.52679726910E+01  0.88041643900E+02  0.00000000000E+00 0.  1.
         -1    1    1    2    0  503  0.49046885420E+01 -0.40202491817E+02  0.26405583570E+03  0.26714374536E+03  0.00000000000E+00 0.  1.
<scales pt_clust_3="50.32153" pt_clust_4="14000.00000" pt_clust_5="59.97243" pt_clust_6="40.50057"></scales>
<clustering>
<clus scale="   40.501">  1  6  2 -1</clus>
<clus scale="   50.322">  2  3  1 -1</clus>
<clus scale="   59.972">  1  5  2 -1</clus>
<clus scale="   50.322">  2  3  1 -1</clus>
</clustering>
</event>
<event>
 6    0  0.4189111E+002  0.7854546E+02  0.7546771E-02  0.1333231E+00
          3   -1    0    0  505    0 -0.00000000000E+00  0.00000000000E+00  0.25732918973E+03  0.25732918973E+03  0.00000000000E+00 0. -1.
         21   -1    0    0  503  502  0.00000000000E+00 -0.00000000000E+00 -0.78202266400E+03  0.78202266400E+03  0.00000000000E+00 0. -1.
         21    1    1    2  503  504  0.10612412045E+02 -0.38314857976E+02 -0.71758079891E+03  0.71868133036E+03  0.00000000000E+00 0. -1.
         21    1    1    2  504  501 -0.22486148256E+02 -0.91597178399E+02  0.33306999277E+02  0.10002512762E+03  0.00000000000E+00 0. -1.
         21    1    1    2  505  502 -0.31226429988E+02  0.69401646813E+02  0.62990765935E+02  0.98790258140E+02  0.00000000000E+00 0. -1.
          3    1    1    2  501    0  0.43100166198E+02  0.60510389562E+02  0.96589559433E+02  0.12185513761E+03  0.00000000000E+00 0. -1.
<scales pt_clust_3="39.75741" pt_clust_4="78.54546" pt_clust_5="65.11617" pt_clust_6="14000.00000"></scales>
<clustering>
<clus scale="   39.757">  2  3  1 -1</clus>
<clus scale="   65.116">  2  5  1 -1</clus>
<clus scale="   78.545">  2  4  1 -1</clus>
<clus scale="   39.757">  2  3  1 -1</clus>
</clustering>
</event>
<event>
 6    0  0.4189111E+002  0.1414123E+03  0.7546771E-02  0.1211441E+00
         -2   -1    0    0    0  501 -0.00000000000E+00  0.00000000000E+00  0.72474961270E+03  0.72474961270E+03  0.00000000000E+00 0. -1.
         21   -1    0    0  504  502  0.00000000000E+00 -0.00000000000E+00 -0.31250799355E+03  0.31250799355E+03  0.00000000000E+00 0. -1.
         21    1    1    2  503  501 -0.23705519788E+02 -0.18655829260E+02  0.21481263749E+03  0.21692040213E+03  0.00000000000E+00 0. -1.
         21    1    1    2  504  503  0.14117772025E+03 -0.60626459653E+02 -0.26927809297E+03  0.31002807559E+03  0.00000000000E+00 0. -1.
         21    1    1    2  505  502 -0.83556354700E+02  0.14347093912E+02  0.79466845566E+02  0.11620018528E+03  0.00000000000E+00 0. -1.
         -2    1    1    2    0  505 -0.33915845760E+02  0.64935195001E+02  0.38724022907E+03  0.39410894325E+03  0.00000000000E+00 0. -1.
<scales pt_clust_3="30.16607" pt_clust_4="141.41230" pt_clust_5="14000.00000" pt_clust_6="72.64724"></scales>
<clustering>
<clus scale="   30.166">  1  3  2 -1</clus>
<clus scale="   72.647">  1  6  2 -1</clus>
<clus scale="  141.412">  2  4  1 -1</clus>
<clus scale="  141.412">  2  3  1 -1</clus>
</clustering>
</event>
<event>
 6    0  0.4189111E+002  0.7504934E+02  0.7546771E-02  0.1343718E+00
          2   -1    0    0  504    0 -0.00000000000E+00  0.00000000000E+00  0.53193300071E+03  0.53193300071E+03  0.00000000000E+00 0.  1.
         21   -1    0    0  505  502  0.00000000000E+00 -0.00000000000E+00 -0.13414091573E+03  0.13414091573E+03  0.00000000000E+00 0. -1.
         21    1    1    2  503  502  0.32322189195E+02  0.66331992929E+02  0.33696272171E+01  0.73864819690E+02  0.00000000000E+00 0. -1.
         21    1    1    2  504  503 -0.27267502663E+02 -0.27271438112E+02  0.14673634355E+03  0.15171948641E+03  0.00000000000E+00 0.  1.
         21    1    1    2  505  501 -0.62558041912E+02  0.11058836641E+02 -0.81072393856E+02  0.10299776464E+03  0.00000000000E+00 0. -1.
          2    1    1    2  501    0  0.57503355380E+02 -0.50119391458E+02  0.32875850807E+03  0.33749184569E+03  0.00000000000E+00 0.  1.
<scales pt_clust_3="75.04934" pt_clust_4="38.56485" pt_clust_5="64.16755" pt_clust_6="14000.00000"></scales>
<clustering>
<clus scale="   38.565">  1  4  2 -1</clus>
<clus scale="   64.168">  2  5  1 -1</clus>
<clus scale="   75.049">  2  3  1 -1</clus>
<clus scale="   64.168">  2  3  1 -1</clus>
</clustering>
</event>
<event>
 6    0  0.4189111E+002  0.2822157E+03  0.7546771E-02  0.1094485E+00
          2   -1    0    0  504    0 -0.00000000000E+00  0.00000000000E+00  0.16026965288E+04  0.16026965288E+04  0.00000000000E+00 0. -1.
         21   -1    0    0  503  502  0.00000000000E+00 -0.00000000000E+00 -0.12305896573E+03  0.12305896573E+03  0.00000000000E+00 0.  1.
         21    1    1    2  503  505 -0.12823268400E+02  0.63637220248E+02  0.41189860437E+02  0.76881315131E+02  0.00000000000E+00 0. -1.
         21    1    1    2  504  502  0.23838296628E+03 -0.21199918213E+03  0.19209245781E+03  0.37238367873E+03  0.00000000000E+00 0.  1.
         21    1    1    2  505  501 -0.77573605360E+02  0.76872810478E+02  0.42125626268E+03  0.43518264221E+03  0.00000000000E+00 0.  1.
          2    1    1    2  501    0 -0.14798609252E+03  0.71489151407E+02  0.82509898218E+03  0.84130785848E+03  0.00000000000E+00 0. -1.
<scales pt_clust_3="64.91635" pt_clust_4="276.59993" pt_clust_5="45.66540" pt_clust_6="45.66540"></scales>
<clustering>
<clus scale="   45.665">  5  6 -1 -1</clus>
<clus scale="   64.916">  2  3  1 -1</clus>
<clus scale="  276.600">  2  4  1 -1</clus>
<clus scale="   64.916">  2  3  1 -1</clus>
</clustering>
</event>
<event>
 6    0  0.4189111E+002  0.1171266E+03  0.7546771E-02  0.1247914E+00
          1   -1    0    0  503    0 -0.00000000000E+00  0.00000000000E+00  0.17364172705E+04  0.17364172705E+04  0.00000000000E+00 0.  1.
         21   -1    0    0  504  502  0.00000000000E+00 -0.00000000000E+00 -0.51958339008E+03  0.51958339008E+03  0.00000000000E+00 0. -1.
         21    1    1    2  503  505  0.23839532442E+02  0.31728139486E+02  0.87880043310E+02  0.96425619803E+02  0.00000000000E+00 0. -1.
         21    1    1    2  504  501 -0.30312138594E+02 -0.18493988844E+02 -0.40981607641E+03  0.41135151617E+03  0.00000000000E+00 0. -1.
         21    1    1    2  505  502  0.13294704329E+03 -0.35166951829E+02 -0.55862840796E+02  0.14843277200E+03  0.00000000000E+00 0.  1.
          1    1    1    2  501    0 -0.12647443714E+03  0.21932801187E+02  0.15946327543E+04  0.15997907526E+04  0.00000000000E+00 0.  1.
<scales pt_clust_3="38.39633" pt_clust_4="35.50850" pt_clust_5="117.12662" pt_clust_6="14000.00000"></scales>
<clustering>
<clus scale="   35.508">  2  4  1 -1</clus>
<clus scale="   38.396">  1  3  2 -1</clus>
<clus scale="  117.127">  2  5  1 -1</clus>
<clus scale="   35.508">  2  3  1 -1</clus>
</clustering>
</event>
<event>
 6    0  0.4189111E+002  0.1002909E+03  0.7546771E-02  0.1279685E+00
          2   -1    0    0  505    0 -0.00000000000E+00  0.00000000000E+00  0.70239144266E+03  0.70239144266E+03  0.00000000000E+00 0.  1.
         21   -1    0    0  503  502  0.00000000000E+00 -0.00000000000E+00 -0.57451442398E+03  0.57451442398E+03  0.00000000000E+00 0.  1.
         21    1    1    2  503  501 -0.48484409798E+02  0.13239534756E+03  0.19405142770E+03  0.23986500921E+03  0.00000000000E+00 0.  1.
         21    1    1    2  504  502  0.78946031262E+02 -0.24802110462E+02 -0.53627678253E+03  0.54262363385E+03  0.00000000000E+00 0.  1.
         21    1    1    2  505  504  0.26622212369E+02 -0.47900542709E+02  0.89410733915E+02  0.10486888729E+03  0.00000000000E+00 0. -1.
          2    1    1    2  501    0 -0.57083833834E+02 -0.59692694389E+02  0.38069163959E+03  0.38954833628E+03  0.00000000000E+00 0.  1.
<scales pt_clust_3="14000.00000" pt_clust_4="82.95903" pt_clust_5="54.80150" pt_clust_6="100.29092"></scales>
<clustering>
<clus scale="   54.801">  1  5  2 -1</clus>
<clus scale="   82.959">  2  4  1 -1</clus>
<clus scale="  100.291">  1  6  2 -1</clus>
<clus scale="   82.959">  2  3  1 -1</clus>
</clustering>
</event>
<event>
 6    0  0.4189111E+002  0.9839162E+02  0.7546771E-02  0.1283715E+00
          2   -1    0    0  504    0 -0.00000000000E+00  0.00000000000E+00  0.49723953407E+04  0.49723953407E+04  0.00000000000E+00 0.  1.
         21   -1    0    0  505  502  0.00000000000E+00 -0.00000000000E+00 -0.48596195196E+02  0.48596195196E+02  0.00000000000E+00 0.  1.
         21    1    1    2  503  502 -0.70424749097E+02  0.86907129506E+02  0.33958673078E+02  0.11690032473E+03  0.00000000000E+00 0.  1.
         21    1    1    2  504  503  0.20761275610E+02  0.40231023829E+02  0.54286702315E+03  0.54475147606E+03  0.00000000000E+00 0. -1.
         21    1    1    2  505  501  0.61981729384E+02  0.89729253077E+01  0.18870715490E+03  0.19882816318E+03  0.00000000000E+00 0.  1.
          2    1    1    2  501    0 -0.12318255897E+02 -0.13611107864E+03  0.41582662944E+04  0.41605115719E+04  0.00000000000E+00 0.  1.
<scales pt_clust_3="98.39162" pt_clust_4="45.27213" pt_clust_5="63.79943" pt_clust_6="14000.00000"></scales>
<clustering>
<clus scale="   45.272">  1  4  2 -1</clus>
<clus scale="   63.799">  2  5  1 -1</clus>
<clus scale="   98.392">  2  3  1 -1</clus>
<clus scale="   63.799">  2  3  1 -1</clus>
</clustering>
</event>
<event>
 6    0  0.4189111E+002  0.1322903E+03  0.7546771E-02  0.1224096E+00
          2   -1    0    0  505    0 -0.00000000000E+00  0.00000000000E+00  0.26513479521E+04  0.26513479521E+04  0.00000000000E+00 0.  1.
         21   -1    0    0  503  502  0.00000000000E+00 -0.00000000000E+00 -0.13442230732E+03  0.13442230732E+03  0.00000000000E+00 0. -1.
         21    1    1    2  503  501  0.87889528705E+02 -0.59699627291E+02  0.25807513880E+03  0.27909029367E+03  0.00000000000E+00 0.  1.
         21    1    1    2  504  502 -0.99722793295E+02  0.92820573441E+02 -0.79874649021E+02  0.15792483628E+03  0.00000000000E+00 0. -1.
         21    1    1    2  505  504 -0.85028127607E+02 -0.34557020506E+01  0.49596978394E+03  0.50321739928E+03  0.00000000000E+00 0. -1.
          2    1    1    2  501    0  0.96861392198E+02 -0.29665244099E+02  0.18427553711E+04  0.18455377302E+04  0.00000000000E+00 0.  1.
<scales pt_clust_3="132.29035" pt_clust_4="14000.00000" pt_clust_5="85.09832" pt_clust_6="40.49654"></scales>
<clustering>
<clus scale="   85.098">  1  5  2 -1</clus>
<clus scale="   40.497">  1  6  2 -1</clus>
<clus scale="  132.290">  1  3  2 -1</clus>
<clus scale="  132.290">  2  3  1 -1</clus>
</clustering>
</event>
<event>
 6    0  0.4189111E+002  0.8000758E+02  0.7546771E-02  0.1329030E+00
         21   -1    0    0  504  502  0.00000000000E+00  0.00000000000E+00  0.14900897233E+04  0.14900897233E+04  0.00000000000E+00 0. -1.
         -1   -1    0    0    0  501 -0.00000000000E+00 -0.00000000000E+00 -0.46745250300E+02  0.46745250300E+02  0.00000000000E+00 0.  1.
         21    1    1    2  503  501 -0.15354748113E+02  0.37401886082E+02  0.39069901090E+02  0.56223896550E+02  0.00000000000E+00 0.  1.
         21    1    1    2  504  505  0.75943110336E+02  0.14528465135E+02  0.11968986375E+04  0.11993935054E+04  0.00000000000E+00 0. -1.
         21    1    1    2  505  503 -0.10556413409E+03 -0.52991171607E+02  0.20447042350E+03  0.23613556437E+03  0.00000000000E+00 0.  1.
         -1    1    1    2    0  502  0.44975771868E+02  0.10608203897E+01  0.29055109909E+01  0.45082007377E+02  0.00000000000E+00 0.  1.
<scales pt_clust_3="40.43104" pt_clust_4="14000.00000" pt_clust_5="80.00758" pt_clust_6="42.46977"></scales>
<clustering>
<clus scale="   40.431">  2  3  1 -1</clus>
<clus scale="   42.470">  2  6  1 -1</clus>
<clus scale="   80.008">  2  5  1 -1</clus>
<clus scale="   80.008">  1  3  2 -1</clus>
</clustering>
</event>
<event>
 6    0  0.4189111E+002  0.8527996E+02  0.7546771E-02  0.1314702E+00
         21   -1    0    0  504  502  0.00000000000E+00  0.00000000000E+00  0.64807485557E+02  0.64807485557E+02  0.00000000000E+00 0. -1.
          2   -1    0    0  503    0 -0.00000000000E+00 -0.00000000000E+00 -0.11707548924E+04  0.11707548924E+04  0.00000000000E+00 0. -1.
         21    1    1    2  503  505  0.12387982459E+03  0.80869535470E+01 -0.24317236329E+03  0.27302821837E+03  0.00000000000E+00 0. -1.
         21    1    1    2  504  501 -0.46834315318E+02 -0.57523323090E+02 -0.14960980364E+03  0.16698945816E+03  0.00000000000E+00 0. -1.
         21    1    1    2  505  502 -0.14272105447E+02  0.35996880549E+02  0.30389500387E+02  0.49223877711E+02  0.00000000000E+00 0. -1.
          2    1    1    2  501    0 -0.62773403828E+02  0.13439488994E+02 -0.74355474026E+03  0.74632082368E+03  0.00000000000E+00 0. -1.
<scales pt_clust_3="14000.00000" pt_clust_4="85.27996" pt_clust_5="38.72297" pt_clust_6="65.40915"></scales>
<clustering>
<clus scale="   38.723">  1  5  2 -1</clus>
<clus scale="   65.409">  2  6  1 -1</clus>
<clus scale="   85.280">  1  4  2 -1</clus>
<clus scale="   38.723">  1  3  2 -1</clus>
</clustering>
</event>
<event>
 6    0  0.4189111E+002  0.1396261E+03  0.7546771E-02  0.1213833E+00
         21   -1    0    0  501  502  0.00000000000E+00  0.00000000000E+00  0.56029623161E+03  0.56029623161E+03  0.00000000000E+00 0.  1.
          2   -1    0    0  504    0 -0.00000000000E+00 -0.00000000000E+00 -0.32893762681E+03  0.32893762681E+03  0.00000000000E+00 0. -1.
         21    1    1    2  503  505 -0.29516962869E+02 -0.20861022022E+03 -0.54883107577E+02  0.21771915528E+03  0.00000000000E+00 0. -1.
         21    1    1    2  504  503 -0.26229961153E+02  0.22214994021E+02 -0.10000416762E+03  0.10574663287E+03  0.00000000000E+00 0. -1.
         21    1    1    2  505  502  0.51656229720E+02  0.84426044859E+02  0.43960474301E+03  0.45060898038E+03  0.00000000000E+00 0.  1.
          2    1    1    2  501    0  0.40906943025E+01  0.10196918134E+03 -0.53358863008E+02  0.11515908990E+03  0.00000000000E+00 0. -1.
<scales pt_clust_3="14000.00000" pt_clust_4="34.37320" pt_clust_5="99.10683" pt_clust_6="139.62613"></scales>
<clustering>
<clus scale="   34.373">  2  4  1 -1</clus>
<clus scale="   99.107">  1  5  2 -1</clus>
<clus scale="  139.626">  2  6  1 -1</clus>
<clus scale="   99.107">  1  3  2 -1</clus>
</clustering>
</event>
<event>
 6    0  0.4189111E+002  0.1048125E+03  0.7546771E-02  0.1270490E+00
         21   -1    0    0  504  502  0.00000000000E+00  0.00000000000E+00  0.29357570926E+03  0.29357570926E+03  0.00000000000E+00 0. -1.
          2   -1    0    0  503    0 -0.00000000000E+00 -0.00000000000E+00 -0.38137221763E+04  0.38137221763E+04  0.00000000000E+00 0.  1.
         21    1    1    2  503  502  0.22917995267E+02  0.56456866954E+02 -0.18190887974E+03  0.19184226037E+03  0.00000000000E+00 0. -1.
         21    1    1    2  504  505 -0.89498331103E+02 -0.54192552140E+02  0.27404717919E+03  0.29334048544E+03  0.00000000000E+00 0. -1.
         21    1    1    2  505  501  0.15618656309E+03  0.14896788001E+01 -0.15424236637E+04  0.15503119750E+04  0.00000000000E+00 0.  1.
          2    1    1    2  501    0 -0.89606227257E+02 -0.37539936139E+01 -0.20698611028E+04  0.20718031647E+04  0.00000000000E+00 0.  1.
<scales pt_clust_3="60.93121" pt_clust_4="14000.00000" pt_clust_5="104.81246" pt_clust_6="81.64925"></scales>
<clustering>
<clus scale="   60.931">  2  3  1 -1</clus>
<clus scale="   81.649">  2  6  1 -1</clus>
<clus scale="  104.812">  2  5  1 -1</clus>
<clus scale="  104.812">  1  3  2 -1</clus>
</clustering>
</event>
<event>
 6    0  0.4189111E+002  0.9169746E+02  0.7546771E-02  0.1298792E+00
         21   -1    0    0  503  502  0.00000000000E+00  0.00000000000E+00  0.15650252584E+03  0.15650252584E+03  0.00000000000E+00 0. -1.
          2   -1    0    0  505    0 -0.00000000000E+00 -0.00000000000E+00 -0.33562257882E+03  0.33562257882E+03  0.00000000000E+00 0.  1.
         21    1    1    2  503  501 -0.66539786597E+02 -0.57671848843E+02  0.14131071486E+01  0.88065783487E+02  0.00000000000E+00 0.  1.
         21    1    1    2  504  502  0.44527030194E+02  0.84775994688E+02  0.78497786938E+02  0.12382054857E+03  0.00000000000E+00 0. -1.
         21    1    1    2  505  504  0.29889291117E+02  0.32598900994E+02 -0.14035022147E+03  0.14715380639E+03  0.00000000000E+00 0. -1.
          2    1    1    2  501    0 -0.78765347140E+01 -0.59703046839E+02 -0.11868072560E+03  0.13308496621E+03  0.00000000000E+00 0.  1.
<scales pt_clust_3="14000.00000" pt_clust_4="91.69746" pt_clust_5="44.22735" pt_clust_6="40.07177"></scales>
<clustering>
<clus scale="   44.227">  2  5  1 -1</clus>
<clus scale="   40.072">  2  6  1 -1</clus>
<clus scale="   91.697">  1  4  2 -1</clus>
<clus scale="   91.697">  1  3  2 -1</clus>
</clustering>
</event>
<event>
 6    0  0.4189111E+002  0.8008709E+02  0.7546771E-02  0.1328804E+00
          2   -1    0    0  505    0 -0.00000000000E+00  0.00000000000E+00  0.18449183927E+04  0.18449183927E+04  0.00000000000E+00 0.  1.
         21   -1    0    0  504  502  0.00000000000E+00 -0.00000000000E+00 -0.54650423816E+03  0.54650423816E+03  0.00000000000E+00 0.  1.
         21    1    1    2  503  502 -0.45711094235E+02 -0.88154349269E+00 -0.53563072633E+03  0.53757841870E+03  0.00000000000E+00 0.  1.
         21    1    1    2  504  501  0.33093915257E+02 -0.82161204774E+02  0.31143529304E+03  0.32378636869E+03  0.00000000000E+00 0.  1.
         21    1    1    2  505  503 -0.38739596011E+02  0.67029635917E+02  0.49280964992E+03  0.49885376559E+03  0.00000000000E+00 0.  1.
          2    1    1    2  501    0  0.51356774989E+02  0.16013112350E+02  0.10297999379E+04  0.10312040779E+04  0.00000000000E+00 0.  1.
<scales pt_clust_3="45.71959" pt_clust_4="80.08709" pt_clust_5="14000.00000" pt_clust_6="50.69000"></scales>
<clustering>
<clus scale="   45.720">  2  3  1 -1</clus>
<clus scale="   50.690">  1  6  2 -1</clus>
<clus scale="   80.087">  2  4  1 -1</clus>
<clus scale="   45.720">  2  3  1 -1</clus>
</clustering>
</event>
<event>
 6    0  0.4189111E+002  0.1302878E+03  0.7546771E-02  0.1227029E+00
         21   -1    0    0  504  502  0.00000000000E+00  0.00000000000E+00  0.31184156311E+03  0.31184156311E+03  0.00000000000E+00 0.  1.
          2   -1    0    0  505    0 -0.00000000000E+00 -0.00000000000E+00 -0.91080090181E+03  0.91080090181E+03  0.00000000000E+00 0. -1.
         21    1    1    2  503  502  0.21960841126E+02 -0.30739878495E+02 -0.12718205140E+02  0.39861904305E+02  0.00000000000E+00 0. -1.
         21    1    1    2  504  501  0.23339794892E+02 -0.97343138529E+02  0.26517025511E+03  0.28343552501E+03  0.00000000000E+00 0.  1.
         21    1    1    2  505  503 -0.77114184532E+02  0.33495263570E+02 -0.64070833897E+02  0.10570525954E+03  0.00000000000E+00 0. -1.
          2    1    1    2  501    0  0.31813548514E+02  0.94587753455E+02 -0.78734055477E+03  0.79363977607E+03  0.00000000000E+00 0. -1.
<scales pt_clust_3="37.77855" pt_clust_4="130.28782" pt_clust_5="81.82524" pt_clust_6="14000.00000"></scales>
<clustering>
<clus scale="   37.779">  1  3  2 -1</clus>
<clus scale="   81.825">  2  5  1 -1</clus>
<clus scale="  130.288">  1  4  2 -1</clus>
<clus scale="   37.779">  1  3  2 -1</clus>
</clustering>
</event>
<event>
 6    0  0.4189111E+002  0.2750376E+03  0.7546771E-02  0.1098431E+00
          2   -1    0    0  504    0 -0.00000000000E+00  0.00000000000E+00  0.20073587870E+04  0.20073587870E+04  0.00000000000E+00 0. -1.
         21   -1    0    0  503  502  0.00000000000E+00 -0.00000000000E+00 -0.21719446169E+03  0.21719446169E+03  0.00000000000E+00 0. -1.
         21    1    1    2  503  501 -0.31940453007E+01 -0.39164312612E+02  0.10106329696E+02  0.40573183357E+02  0.00000000000E+00 0.  1.
         21    1    1    2  504  505  0.12164087370E+02 -0.75788221383E+02  0.33079936454E+03  0.33958804323E+03  0.00000000000E+00 0.  1.
         21    1    1    2  505  502 -0.23581443796E+03  0.18052116869E+03 -0.71455691189E+02  0.30545418200E+03  0.00000000000E+00 0. -1.
          2    1    1    2  501    0  0.22684439589E+03 -0.65568634695E+02  0.15207143223E+04  0.15389378401E+04  0.00000000000E+00 0. -1.
<scales pt_clust_3="39.29434" pt_clust_4="77.58883" pt_clust_5="14000.00000" pt_clust_6="275.03760"></scales>
<clustering>
<clus scale="   39.294">  2  3  1 -1</clus>
<clus scale="   77.589">  1  4  2 -1</clus>
<clus scale="  275.038">  1  6  2 -1</clus>
<clus scale="   39.294">  2  3  1 -1</clus>
</clustering>
</event>
<event>
 6    0  0.4189111E+002  0.1233987E+03  0.7546771E-02  0.1237593E+00
         21   -1    0    0  504  502  0.00000000000E+00  0.00000000000E+00  0.71995903674E+03  0.71995903674E+03  0.00000000000E+00 0.  1.
          1   -1    0    0  503    0 -0.00000000000E+00 -0.00000000000E+00 -0.32243583581E+03  0.32243583581E+03  0.00000000000E+00 0.  1.
         21    1    1    2  503  502  0.19351940719E+02  0.30852270430E+02 -0.29304014959E+02  0.46744898043E+02  0.00000000000E+00 0.  1.
         21    1    1    2  504  505 -0.12875822439E+03 -0.26483385046E+02  0.66915300133E+03  0.68194265830E+03  0.00000000000E+00 0.  1.
         21    1    1    2  505  501  0.70853118695E+02 -0.35674925541E+02 -0.14638726168E+02  0.80666951381E+02  0.00000000000E+00 0.  1.
          1    1    1    2  501    0  0.38553164972E+02  0.31306040157E+02 -0.22768705927E+03  0.23304036482E+03  0.00000000000E+00 0.  1.
<scales pt_clust_3="36.41923" pt_clust_4="14000.00000" pt_clust_5="123.39866" pt_clust_6="78.16520"></scales>
<clustering>
<clus scale="   36.419">  2  3  1 -1</clus>
<clus scale="   78.165">  2  6  1 -1</clus>
<clus scale="  123.399">  2  5  1 -1</clus>
<clus scale="  123.399">  1  3  2 -1</clus>
</clustering>
</event>
<event>
 6    0  0.4189111E+002  0.1589882E+03  0.7546771E-02  0.1189844E+00
          2   -1    0    0  503    0 -0.00000000000E+00  0.00000000000E+00  0.22567241848E+04  0.22567241848E+04  0.00000000000E+00 0.  1.
         21   -1    0    0  504  502  0.00000000000E+00 -0.00000000000E+00 -0.21134624239E+04  0.21134624239E+04  0.00000000000E+00 0. -1.
         21    1    1    2  503  502  0.37268233730E+02 -0.44422205356E+02  0.27360878772E+03  0.27968557755E+03  0.00000000000E+00 0. -1.
         21    1    1    2  504  505 -0.15329232079E+02  0.54457687757E+02 -0.20524205080E+04  0.20532000796E+04  0.00000000000E+00 0. -1.
         21    1    1    2  505  501 -0.13344801630E+03  0.17283010821E+02  0.25133056500E+02  0.13688953958E+03  0.00000000000E+00 0.  1.
          2    1    1    2  501    0  0.11150901465E+03 -0.27318493222E+02  0.18969404246E+04  0.19004114120E+04  0.00000000000E+00 0.  1.
<scales pt_clust_3="55.41365" pt_clust_4="56.57407" pt_clust_5="158.98821" pt_clust_6="14000.00000"></scales>
<clustering>
<clus scale="   56.574">  2  4  1 -1</clus>
<clus scale="   55.414">  1  3  2 -1</clus>
<clus scale="  158.988">  2  5  1 -1</clus>
<clus scale="   56.574">  2  3  1 -1</clus>
</clustering>
</event>
<event>
 6    0  0.4189111E+002  0.1249073E+03  0.7546771E-02  0.1235214E+00
         21   -1    0    0  504  502  0.00000000000E+00  0.00000000000E+00  0.33031874455E+03  0.33031874455E+03  0.00000000000E+00 0.  1.
          2   -1    0    0  505    0 -0.00000000000E+00 -0.00000000000E+00 -0.95398319860E+03  0.95398319860E+03  0.00000000000E+00 0.  1.
         21    1    1    2  503  502 -0.53818782908E+02 -0.70779958384E+02  0.39627468321E+02  0.97347830732E+02  0.00000000000E+00 0. -1.
         21    1    1    2  504  501  0.71352476278E+02  0.13664055644E+03  0.23656172855E+03  0.28235309269E+03  0.00000000000E+00 0.  1.
         21    1    1    2  505  503 -0.31083423293E+02 -0.10336216891E+02 -0.43826263138E+03  0.43948509718E+03  0.00000000000E+00 0.  1.
          2    1    1    2  501    0  0.13549729924E+02 -0.55524381163E+02 -0.46159101954E+03  0.46511592255E+03  0.00000000000E+00 0.  1.
<scales pt_clust_3="14000.00000" pt_clust_4="124.90725" pt_clust_5="32.75693" pt_clust_6="66.40455"></scales>
<clustering>
<clus scale="   32.757">  2  5  1 -1</clus>
<clus scale="   66.405">  2  6  1 -1</clus>
<clus scale="  124.907">  1  4  2 -1</clus>
<clus scale="  124.907">  1  3  2 -1</clus>
</clustering>
</event>
<event>
 6    0  0.4189111E+002  0.1136984E+03  0.7546771E-02  0.1253870E+00
         21   -1    0    0  504  502  0.00000000000E+00  0.00000000000E+00  0.71687328142E+03  0.71687328142E+03  0.00000000000E+00 0.  1.
         -1   -1    0    0    0  501 -0.00000000000E+00 -0.00000000000E+00 -0.72415088723E+03  0.72415088723E+03  0.00000000000E+00 0.  1.
         21    1    1    2  503  502  0.42558234007E+02  0.49705185594E+01  0.60856827704E+03  0.61007479636E+03  0.00000000000E+00 0.  1.
         21    1    1    2  504  501  0.89389666508E+02  0.12415197618E+02  0.29877099313E+02  0.95064665747E+02  0.00000000000E+00 0.  1.
         21    1    1    2  505  503 -0.18335764283E+02 -0.40509348659E+02  0.27809564190E+02  0.52445966871E+02  0.00000000000E+00 0. -1.
         -1    1    1    2    0  505 -0.11361213623E+03  0.23123632482E+02 -0.67353254635E+03  0.68343873966E+03  0.00000000000E+00 0.  1.
<scales pt_clust_3="42.84751" pt_clust_4="113.69843" pt_clust_5="38.73286" pt_clust_6="14000.00000"></scales>
<clustering>
<clus scale="   42.848">  1  3  2 -1</clus>
<clus scale="   38.733">  1  5  2 -1</clus>
<clus scale="  113.698">  1  4  2 -1</clus>
<clus scale="   42.848">  1  3  2 -1</clus>
</clustering>
</event>
<event>
 6    0  0.4189111E+002  0.1280723E+03  0.7546771E-02  0.1230344E+00
          1   -1    0    0  503    0 -0.00000000000E+00  0.00000000000E+00  0.21992565719E+04  0.21992565719E+04  0.00000000000E+00 0. -1.
         21   -1    0    0  504  502  0.00000000000E+00 -0.00000000000E+00 -0.22901678696E+02  0.22901678696E+02  0.00000000000E+00 0. -1.
         21    1    1    2  503  502 -0.28871307247E+02 -0.13475116320E+02  0.95742118339E+02  0.10090433274E+03  0.00000000000E+00 0. -1.
         21    1    1    2  504  505  0.57557674867E+02 -0.10571365123E+03  0.18149160883E+03  0.21777847935E+03  0.00000000000E+00 0. -1.
         21    1    1    2  505  501 -0.21024861417E+02  0.71809649880E+02  0.86089832340E+03  0.86414385021E+03  0.00000000000E+00 0. -1.
          1    1    1    2  501    0 -0.76615062030E+01  0.47379117670E+02  0.10382228426E+04  0.10393315883E+04  0.00000000000E+00 0. -1.
<scales pt_clust_3="31.86112" pt_clust_4="121.95836" pt_clust_5="31.31353" pt_clust_6="31.31353"></scales>
<clustering>
<clus scale="   31.314">  5  6 -1 -1</clus>
<clus scale="   31.861">  2  3  1 -1</clus>
<clus scale="  121.958">  2  4  1 -1</clus>
<clus scale="   31.861">  2  3  1 -1</clus>
</clustering>
</event>
<event>
 6    0  0.4189111E+002  0.1385002E+03  0.7546771E-02  0.1215361E+00
          2   -1    0    0  504    0 -0.00000000000E+00  0.00000000000E+00  0.11493434528E+04  0.11493434528E+04  0.00000000000E+00 0.  1.
         21   -1    0    0  503  502  0.00000000000E+00 -0.00000000000E+00 -0.69699627626E+03  0.69699627626E+03  0.00000000000E+00 0.  1.
         21    1    1    2  503  505  0.30611318017E+02 -0.15261406751E+02 -0.62053739769E+02  0.70856403705E+02  0.00000000000E+00 0.  1.
         21    1    1    2  504  502  0.33960677568E+02  0.96526183522E+02 -0.57806322361E+03  0.58705001679E+03  0.00000000000E+00 0.  1.
         21    1    1    2  505  501  0.68291039056E+02 -0.40142071852E+02 -0.76303338571E+01  0.79581869434E+02  0.00000000000E+00 0.  1.
          2    1    1    2  501    0 -0.13286303464E+03 -0.41122704919E+02  0.11000944738E+04  0.11088514391E+04  0.00000000000E+00 0.  1.
<scales pt_clust_3="34.20473" pt_clust_4="138.50024" pt_clust_5="81.57526" pt_clust_6="14000.00000"></scales>
<clustering>
<clus scale="   34.205">  2  3  1 -1</clus>
<clus scale="   81.575">  2  5  1 -1</clus>
<clus scale="  138.500">  2  4  1 -1</clus>
<clus scale="   34.205">  2  3  1 -1</clus>
</clustering>
</event>
<event>
 6    0  0.4189111E+002  0.1326699E+03  0.7546771E-02  0.1223547E+00
          2   -1    0    0  504    0 -0.00000000000E+00  0.00000000000E+00  0.19998243164E+04  0.19998243164E+04  0.00000000000E+00 0. -1.
         21   -1    0    0  505  502  0.00000000000E+00 -0.00000000000E+00 -0.16670486547E+03  0.16670486547E+03  0.00000000000E+00 0. -1.
         21    1    1    2  503  502  0.58566351578E+02 -0.11141306589E+01 -0.14068277377E+03  0.15239062196E+03  0.00000000000E+00 0. -1.
         21    1    1    2  504  503 -0.91841734750E+02 -0.10356345702E+03  0.58829013259E+03  0.60435550298E+03  0.00000000000E+00 0. -1.
         21    1    1    2  505  501  0.38965321665E+02 -0.38271467695E+02  0.82498797638E+02  0.98939643943E+02  0.00000000000E+00 0. -1.
          2    1    1    2  501    0 -0.56899384924E+01  0.14294905537E+03  0.13030132945E+04  0.13108434130E+04  0.00000000000E+00 0. -1.
<scales pt_clust_3="101.39200" pt_clust_4="132.66986" pt_clust_5="54.61686" pt_clust_6="14000.00000"></scales>
<clustering>
<clus scale="   54.617">  2  5  1 -1</clus>
<clus scale="  101.392">  2  3  1 -1</clus>
<clus scale="  132.670">  2  4  1 -1</clus>
<clus scale="   54.617">  2  3  1 -1</clus>
</clustering>
</event>
<event>
 6    0  0.4189111E+002  0.1009735E+03  0.7546771E-02  0.1278262E+00
         21   -1    0    0  505  502  0.00000000000E+00  0.00000000000E+00  0.15061719526E+02  0.15061719526E+02  0.00000000000E+00 0.  1.
         -3   -1    0    0    0  501 -0.00000000000E+00 -0.00000000000E+00 -0.31965289409E+04  0.31965289409E+04  0.00000000000E+00 0. -1.
         21    1    1    2  503  501  0.43490184908E+02 -0.13675617891E+00 -0.10051314953E+04  0.10060719347E+04  0.00000000000E+00 0.  1.
         21    1    1    2  504  502 -0.14414854748E+02  0.40137074299E+02 -0.12948959224E+03  0.13633168109E+03  0.00000000000E+00 0. -1.
         21    1    1    2  505  503 -0.28900389123E+02 -0.12986030342E+03 -0.43621052844E+03  0.45604665991E+03  0.00000000000E+00 0.  1.
         -3    1    1    2    0  504 -0.17494103653E+00  0.89859985297E+02 -0.16106356054E+04  0.16131403848E+04  0.00000000000E+00 0. -1.
<scales pt_clust_3="42.93358" pt_clust_4="42.64707" pt_clust_5="100.97350" pt_clust_6="14000.00000"></scales>
<clustering>
<clus scale="   42.647">  1  4  2 -1</clus>
<clus scale="   42.934">  2  3  1 -1</clus>
<clus scale="  100.974">  1  5  2 -1</clus>
<clus scale="   42.647">  1  3  2 -1</clus>
</clustering>
</event>
<event>
 6    0  0.4189111E+002  0.1469489E+03  0.7546771E-02  0.1204273E+00
         -1   -1    0    0    0  501 -0.00000000000E+00  0.00000000000E+00  0.51187461610E+03  0.51187461610E+03  0.00000000000E+00 0. -1.
         21   -1    0    0  505  502  0.00000000000E+00 -0.00000000000E+00 -0.13100147634E+04  0.13100147634E+04  0.00000000000E+00 0.  1.
         21    1    1    2  503  502  0.95497819222E+02 -0.25785988246E+02 -0.18985761316E+03  0.21408097519E+03  0.00000000000E+00 0. -1.
         21    1    1    2  504  503  0.34052506848E+02  0.13580278395E+03  0.33501771111E+03  0.36309618024E+03  0.00000000000E+00 0. -1.
         21    1    1    2  505  501 -0.20009130140E+03 -0.77890660709E+02 -0.10726427611E+04  0.10939222902E+04  0.00000000000E+00 0.  1.
         -1    1    1    2    0  504  0.70540975329E+02 -0.32126134995E+02  0.12934251588E+03  0.15078993390E+03  0.00000000000E+00 0. -1.
<scales pt_clust_3="101.40997" pt_clust_4="146.94892" pt_clust_5="14000.00000" pt_clust_6="77.51205"></scales>
<clustering>
<clus scale="   77.512">  1  6  2 -1</clus>
<clus scale="  101.410">  2  3  1 -1</clus>
<clus scale="  146.949">  1  4  2 -1</clus>
<clus scale="  101.410">  2  3  1 -1</clus>
</clustering>
</event>
<event>
 6    0  0.4189111E+002  0.2166438E+03  0.7546771E-02  0.1136410E+00
         -1   -1    0    0    0  501 -0.00000000000E+00  0.00000000000E+00  0.60028175931E+03  0.60028175931E+03  0.00000000000E+00 0. -1.
         21   -1    0    0  503  502  0.00000000000E+00 -0.00000000000E+00 -0.10404906563E+03  0.10404906563E+03  0.00000000000E+00 0. -1.
         21    1    1    2  503  504  0.87655177897E+02 -0.51080225584E+02  0.59662072191E+02  0.11769529522E+03  0.00000000000E+00 0. -1.
         21    1    1    2  504  505  0.32857421376E+02 -0.10013450111E+03  0.11087720324E+03  0.15297150928E+03  0.00000000000E+00 0. -1.
         21    1    1    2  505  501 -0.98367563334E+02  0.18403983683E+03  0.15905012058E+03  0.26238098238E+03  0.00000000000E+00 0. -1.
         -1    1    1    2    0  502 -0.22145035940E+02 -0.32825110140E+02  0.16664329766E+03  0.17128303806E+03  0.00000000000E+00 0. -1.
<scales pt_clust_3="77.90801" pt_clust_4="77.90801" pt_clust_5="200.36672" pt_clust_6="39.59660"></scales>
<clustering>
<clus scale="   39.597">  1  6  2 -1</clus>
<clus scale="   77.908">  3  4 -1 -1</clus>
<clus scale="  200.367">  1  5  2 -1</clus>
<clus scale="  216.644">  2  3  1 -1</clus>
</clustering>
</event>
<event>
 6    0  0.4189111E+002  0.1137584E+03  0.7546771E-02  0.1253764E+00
          2   -1    0    0  503    0 -0.00000000000E+00  0.00000000000E+00  0.20140017216E+04  0.20140017216E+04  0.00000000000E+00 0.  1.
         21   -1    0    0  505  502  0.00000000000E+00 -0.00000000000E+00 -0.84609264007E+02  0.84609264007E+02  0.00000000000E+00 0.  1.
         21    1    1    2  503  502 -0.47417463571E+02  0.12909845340E+03 -0.96144416980E+01  0.13786683434E+03  0.00000000000E+00 0.  1.
         21    1    1    2  504  501 -0.16958519291E+02 -0.43656043088E+02  0.56361298978E+03  0.56555551781E+03  0.00000000000E+00 0. -1.
         21    1    1    2  505  504  0.54593479625E+02 -0.23568636336E+02  0.87621892522E+02  0.10589393130E+03  0.00000000000E+00 0. -1.
          2    1    1    2  501    0  0.97825032371E+01 -0.61873773979E+02  0.12877720170E+04  0.12892947022E+04  0.00000000000E+00 0.  1.
<scales pt_clust_3="106.23610" pt_clust_4="35.17450" pt_clust_5="59.46367" pt_clust_6="35.17450"></scales>
<clustering>
<clus scale="   35.174">  4  6 -1 -1</clus>
<clus scale="   59.464">  2  5  1 -1</clus>
<clus scale="  106.236">  2  3  1 -1</clus>
<clus scale="   59.464">  2  3  1 -1</clus>
</clustering>
</event>
<event>
 6    0  0.4189111E+002  0.8231816E+02  0.7546771E-02  0.1322599E+00
         21   -1    0    0  504  502  0.00000000000E+00  0.00000000000E+00  0.66848344307E+02  0.66848344307E+02  0.00000000000E+00 0. -1.
          2   -1    0    0  505    0 -0.00000000000E+00 -0.00000000000E+00 -0.70894454346E+03  0.70894454346E+03  0.00000000000E+00 0.  1.
         21    1    1    2  503  502 -0.16535042344E+02  0.36908588597E+02  0.34923049203E+02  0.53434734987E+02  0.00000000000E+00 0. -1.
         21    1    1    2  504  501 -0.39511810036E+02  0.32777560490E+02 -0.98523367172E+02  0.11109637925E+03  0.00000000000E+00 0.  1.
         21    1    1    2  505  503 -0.45823782748E+02 -0.21437782916E+02 -0.50921113525E+02  0.71779923407E+02  0.00000000000E+00 0.  1.
          2    1    1    2  501    0  0.10187063513E+03 -0.48248366171E+02 -0.52757476766E+03  0.53948185012E+03  0.00000000000E+00 0.  1.
<scales pt_clust_3="40.44319" pt_clust_4="82.31816" pt_clust_5="53.61657" pt_clust_6="14000.00000"></scales>
<clustering>
<clus scale="   40.443">  1  3  2 -1</clus>
<clus scale="   53.617">  1  5  2 -1</clus>
<clus scale="   82.318">  1  4  2 -1</clus>
<clus scale="   40.443">  1  3  2 -1</clus>
</clustering>
</event>
<event>
 6    0  0.4189111E+002  0.8398855E+02  0.7546771E-02  0.1318099E+00
          2   -1    0    0  503    0 -0.00000000000E+00  0.00000000000E+00  0.89324382539E+03  0.89324382539E+03  0.00000000000E+00 0. -1.
         21   -1    0    0  505  502  0.00000000000E+00 -0.00000000000E+00 -0.60174382340E+03  0.60174382340E+03  0.00000000000E+00 0. -1.
         21    1    1    2  503  504  0.13457899352E+02 -0.71765430743E+02  0.30874118063E+03  0.31725779537E+03  0.00000000000E+00 0. -1.
         21    1    1    2  504  502 -0.58042992933E+02  0.95652358643E+02 -0.48629817843E+03  0.49900328765E+03  0.00000000000E+00 0. -1.
         21    1    1    2  505  501 -0.11047595220E+01 -0.35647647659E+02 -0.10079818440E+03  0.10692169684E+03  0.00000000000E+00 0. -1.
          2    1    1    2  501    0  0.45689853103E+02  0.11760719759E+02  0.56985518417E+03  0.57180486893E+03  0.00000000000E+00 0. -1.
<scales pt_clust_3="14000.00000" pt_clust_4="83.98855" pt_clust_5="35.66476" pt_clust_6="47.15976"></scales>
<clustering>
<clus scale="   35.665">  2  5  1 -1</clus>
<clus scale="   47.160">  1  6  2 -1</clus>
<clus scale="   83.989">  2  4  1 -1</clus>
<clus scale="   35.665">  2  3  1 -1</clus>
</clustering>
</event>
<event>
 6    0  0.4189111E+002  0.1313840E+03  0.7546771E-02  0.1225416E+00
         21   -1    0    0  501  502  0.00000000000E+00  0.00000000000E+00  0.34262203720E+03  0.34262203720E+03  0.00000000000E+00 0.  1.
          2   -1    0    0  504    0 -0.00000000000E+00 -0.00000000000E+00 -0.18696505777E+03  0.18696505777E+03  0.00000000000E+00 0.  1.
         21    1    1    2  503  505  0.86308731686E+02  0.58854712587E+01  0.16947907986E+03  0.19028135602E+03  0.00000000000E+00 0.  1.
         21    1    1    2  504  503 -0.51919390154E+02 -0.27339879377E+02 -0.98442854943E+02  0.11460404778E+03  0.00000000000E+00 0.  1.
         21    1    1    2  505  502  0.38536352783E+02 -0.35751457596E+02  0.11558792102E+03  0.12697946563E+03  0.00000000000E+00 0.  1.
          2    1    1    2  501    0 -0.72925694315E+02  0.57205865714E+02 -0.30967166512E+02  0.97722225544E+02  0.00000000000E+00 0.  1.
<scales pt_clust_3="42.07170" pt_clust_4="58.67787" pt_clust_5="42.07170" pt_clust_6="119.78645"></scales>
<clustering>
<clus scale="   42.072">  3  5 -1 -1</clus>
<clus scale="   58.678">  2  4  1 -1</clus>
<clus scale="  119.786">  2  6  1 -1</clus>
<clus scale="  131.384">  1  3  2 -1</clus>
</clustering>
</event>
<event>
 6    0  0.4189111E+002  0.1158127E+03  0.7546771E-02  0.1250169E+00
         21   -1    0    0  501  502  0.00000000000E+00  0.00000000000E+00  0.13114357206E+03  0.13114357206E+03  0.00000000000E+00 0.  1.
          2   -1    0    0  503    0 -0.00000000000E+00 -0.00000000000E+00 -0.29835734928E+04  0.29835734928E+04  0.00000000000E+00 0. -1.
         21    1    1    2  503  504  0.84534302857E+01  0.38629226476E+02 -0.22366503767E+03  0.22713371986E+03  0.00000000000E+00 0. -1.
         21    1    1    2  504  505  0.46061760256E+02 -0.13245186586E+03 -0.16114617615E+03  0.21361945748E+03  0.00000000000E+00 0.  1.
         21    1    1    2  505  502 -0.35659286639E+02  0.16688799476E+02  0.98779956950E+02  0.10633710851E+03  0.00000000000E+00 0.  1.
          2    1    1    2  501    0 -0.18855903902E+02  0.77133839912E+02 -0.25663986638E+04  0.25676267790E+04  0.00000000000E+00 0. -1.
<scales pt_clust_3="40.13768" pt_clust_4="14000.00000" pt_clust_5="39.37132" pt_clust_6="115.81271"></scales>
<clustering>
<clus scale="   39.371">  1  5  2 -1</clus>
<clus scale="   40.138">  2  3  1 -1</clus>
<clus scale="  115.813">  2  6  1 -1</clus>
<clus scale="   39.371">  1  3  2 -1</clus>
</clustering>
</event>
<event>
 6    0  0.8287637E+002  0.7218683E+02  0.7546771E-02  0.1352811E+00
          2   -1    0    0  505    0 -0.00000000000E+00  0.00000000000E+00  0.91557333238E+03  0.91557333238E+03  0.00000000000E+00 0.  1.
         21   -1    0    0  501  502  0.00000000000E+00 -0.00000000000E+00 -0.67352093109E+03  0.67352093109E+03  0.00000000000E+00 0. -1.
         21    1    1    2  503  504 -0.33956869907E+02 -0.65618958417E+02 -0.24681869803E+02  0.77898083510E+02  0.00000000000E+00 0.  1.
         21    1    1    2  504  502  0.69299919735E+02  0.24758973268E+02 -0.60607873201E+03  0.61053002795E+03  0.00000000000E+00 0. -1.
         21    1    1    2  505  503 -0.37917136202E+02 -0.25539801768E+02  0.28779263932E+02  0.54020706442E+02  0.00000000000E+00 0.  1.
          2    1    1    2  501    0  0.25740863733E+01  0.66399786918E+02  0.84403373917E+03  0.84664544556E+03  0.00000000000E+00 0.  1.
<scales pt_clust_3="72.18683" pt_clust_4="14000.00000" pt_clust_5="45.71642" pt_clust_6="53.86446"></scales>
<clustering>
<clus scale="   45.716">  1  5  2 -1</clus>
<clus scale="   53.864">  1  6  2 -1</clus>
<clus scale="   72.187">  1  3  2 -1</clus>
<clus scale="   72.187">  2  3  1 -1</clus>
</clustering>
</event>
<event>
 6    0  0.4189111E+002  0.7851071E+02  0.7546771E-02  0.1333332E+00
          1   -1    0    0  505    0 -0.00000000000E+00  0.00000000000E+00  0.62394809578E+02  0.62394809578E+02  0.00000000000E+00 0.  1.
         21   -1    0    0  504  502  0.00000000000E+00 -0.00000000000E+00 -0.24576172846E+04  0.24576172846E+04  0.00000000000E+00 0. -1.
         21    1    1    2  503  502 -0.11649447444E+03 -0.17613343261E+02 -0.22741552788E+04  0.22772051784E+04  0.00000000000E+00 0. -1.
         21    1    1    2  504  501  0.36214933416E+02  0.11715888544E+02 -0.13013300934E+03  0.13558533684E+03  0.00000000000E+00 0.  1.
         21    1    1    2  505  503  0.31911340531E+02 -0.32121709277E+02  0.52442690736E+01  0.45581138857E+02  0.00000000000E+00 0. -1.
          1    1    1    2  501    0  0.48368200490E+02  0.38019163994E+02  0.38215440810E+01  0.61640440042E+02  0.00000000000E+00 0.  1.
<scales pt_clust_3="14000.00000" pt_clust_4="38.06289" pt_clust_5="45.42873" pt_clust_6="78.51071"></scales>
<clustering>
<clus scale="   38.063">  2  4  1 -1</clus>
<clus scale="   45.429">  1  5  2 -1</clus>
<clus scale="   78.511">  1  6  2 -1</clus>
<clus scale="   38.063">  2  3  1 -1</clus>
</clustering>
</event>
<event>
 6    0  0.4189111E+002  0.1016574E+03  0.7546771E-02  0.1276849E+00
         21   -1    0    0  503  502  0.00000000000E+00  0.00000000000E+00  0.30159957433E+03  0.30159957433E+03  0.00000000000E+00 0. -1.
          2   -1    0    0  504    0 -0.00000000000E+00 -0.00000000000E+00 -0.25471254153E+04  0.25471254153E+04  0.00000000000E+00 0.  1.
         21    1    1    2  503  501  0.79086878092E+02  0.40155264827E+02 -0.88267293737E+02  0.12513310802E+03  0.00000000000E+00 0. -1.
         21    1    1    2  504  505 -0.12782132956E+03 -0.60443563662E+02  0.27101569624E+02  0.14396600903E+03  0.00000000000E+00 0. -1.
         21    1    1    2  505  502  0.39675605311E+02 -0.80783174961E+02  0.18624446438E+03  0.20685036990E+03  0.00000000000E+00 0. -1.
          2    1    1    2  501    0  0.90588461587E+01  0.10107147380E+03 -0.23706045812E+04  0.23727755027E+04  0.00000000000E+00 0.  1.
<scales pt_clust_3="88.69712" pt_clust_4="100.08411" pt_clust_5="14000.00000" pt_clust_6="101.65741"></scales>
<clustering>
<clus scale="   88.697">  1  3  2 -1</clus>
<clus scale="  101.657">  2  6  1 -1</clus>
<clus scale="  100.084">  2  4  1 -1</clus>
<clus scale="   88.697">  1  3  2 -1</clus>
</clustering>
</event>
<event>
 6    0  0.4189111E+002  0.2000191E+03  0.7546771E-02  0.1149723E+00
         21   -1    0    0  503  502  0.00000000000E+00  0.00000000000E+00  0.94232694074E+02  0.94232694074E+02  0.00000000000E+00 0. -1.
         -1   -1    0    0    0  501 -0.00000000000E+00 -0.00000000000E+00 -0.24111207790E+04  0.24111207790E+04  0.00000000000E+00 0.  1.
         21    1    1    2  503  505  0.22979125056E+02  0.30745971080E+02  0.33337228053E+02  0.50840197681E+02  0.00000000000E+00 0. -1.
         21    1    1    2  504  501  0.46973500186E+02 -0.30777673643E+02 -0.12123287111E+04  0.12136287236E+04  0.00000000000E+00 0.  1.
         21    1    1    2  505  504 -0.57625897760E+01  0.18038400144E+03 -0.15018302383E+03  0.23479040880E+03  0.00000000000E+00 0. -1.
         -1    1    1    2    0  502 -0.64190035466E+02 -0.18035229888E+03 -0.98771357802E+03  0.10060941430E+04  0.00000000000E+00 0.  1.
<scales pt_clust_3="38.38431" pt_clust_4="56.19006" pt_clust_5="200.01908" pt_clust_6="14000.00000"></scales>
<clustering>
<clus scale="   38.384">  1  3  2 -1</clus>
<clus scale="   56.190">  2  4  1 -1</clus>
<clus scale="  200.019">  1  5  2 -1</clus>
<clus scale="   38.384">  1  3  2 -1</clus>
</clustering>
</event>
<event>
 6    0  0.4189111E+002  0.1127029E+03  0.7546771E-02  0.1255645E+00
          2   -1    0    0  504    0 -0.00000000000E+00  0.00000000000E+00  0.26624539792E+04  0.26624539792E+04  0.00000000000E+00 0. -1.
         21   -1    0    0  503  502  0.00000000000E+00 -0.00000000000E+00 -0.42986132016E+03  0.42986132016E+03  0.00000000000E+00 0. -1.
         21    1    1    2  503  505  0.24218789677E+02  0.21973786436E+02 -0.91196864672E+02  0.96882739380E+02  0.00000000000E+00 0. -1.
         21    1    1    2  504  502  0.15567307990E+01  0.81764478788E+02  0.41961448795E+03  0.42750926528E+03  0.00000000000E+00 0.  1.
         21    1    1    2  505  501 -0.79209537954E+02 -0.12132335649E+03 -0.31568645233E+03  0.34734916715E+03  0.00000000000E+00 0. -1.
          2    1    1    2  501    0  0.53434017478E+02  0.17585091269E+02  0.22198614881E+04  0.22205741276E+04  0.00000000000E+00 0. -1.
<scales pt_clust_3="32.70164" pt_clust_4="14000.00000" pt_clust_5="112.70293" pt_clust_6="56.28496"></scales>
<clustering>
<clus scale="   32.702">  2  3  1 -1</clus>
<clus scale="   56.285">  1  6  2 -1</clus>
<clus scale="  112.703">  2  5  1 -1</clus>
<clus scale="   32.702">  2  3  1 -1</clus>
</clustering>
</event>
<event>
 6    0  0.4189111E+002  0.1655784E+03  0.7546771E-02  0.1182539E+00
         21   -1    0    0  501  502  0.00000000000E+00  0.00000000000E+00  0.14280158592E+03  0.14280158592E+03  0.00000000000E+00 0.  1.
          3   -1    0    0  503    0 -0.00000000000E+00 -0.00000000000E+00 -0.53509071588E+03  0.53509071588E+03  0.00000000000E+00 0.  1.
         21    1    1    2  503  505  0.20141318350E+02  0.36515170377E+02 -0.12589782360E+03  0.13262462954E+03  0.00000000000E+00 0.  1.
         21    1    1    2  504  502 -0.94313337257E+02  0.15566362786E+03  0.69896449546E+01  0.18214012672E+03  0.00000000000E+00 0.  1.
         21    1    1    2  505  504  0.18139445833E+02 -0.14594742579E+03 -0.10790689407E+03  0.18241049415E+03  0.00000000000E+00 0. -1.
          3    1    1    2  501    0  0.56032573074E+02 -0.46231372446E+02 -0.16547405724E+03  0.18071705139E+03  0.00000000000E+00 0.  1.
<scales pt_clust_3="41.70168" pt_clust_4="165.57839" pt_clust_5="14000.00000" pt_clust_6="71.52630"></scales>
<clustering>
<clus scale="   41.702">  2  3  1 -1</clus>
<clus scale="   71.526">  2  6  1 -1</clus>
<clus scale="  165.578">  1  4  2 -1</clus>
<clus scale="  165.578">  1  3  2 -1</clus>
</clustering>
</event>
<event>
 6    0  0.4189111E+002  0.1051254E+03  0.7546771E-02  0.1269873E+00
         21   -1    0    0  505  502  0.00000000000E+00  0.00000000000E+00  0.38360744142E+03  0.38360744142E+03  0.00000000000E+00 0. -1.
          2   -1    0    0  503    0 -0.00000000000E+00 -0.00000000000E+00 -0.22574913180E+04  0.22574913180E+04  0.00000000000E+00 0. -1.
         21    1    1    2  503  502  0.54249810346E+02  0.58359990528E+02 -0.59556981791E+03  0.60087630875E+03  0.00000000000E+00 0. -1.
         21    1    1    2  504  501 -0.61043944404E+01 -0.12475449425E+03  0.24426365556E+03  0.27434591467E+03  0.00000000000E+00 0. -1.
         21    1    1    2  505  504 -0.20907682146E+02  0.22543749438E+02  0.11929447807E+03  0.12319303677E+03  0.00000000000E+00 0.  1.
          2    1    1    2  501    0 -0.27237733760E+02  0.43850754288E+02 -0.16418721923E+04  0.16426834992E+04  0.00000000000E+00 0. -1.
<scales pt_clust_3="105.12538" pt_clust_4="14000.00000" pt_clust_5="30.74657" pt_clust_6="51.66820"></scales>
<clustering>
<clus scale="   30.747">  1  5  2 -1</clus>
<clus scale="   51.668">  2  6  1 -1</clus>
<clus scale="  105.125">  2  3  1 -1</clus>
<clus scale="   30.747">  1  3  2 -1</clus>
</clustering>
</event>
<event>
 6    0  0.4189111E+002  0.2443279E+03  0.7546771E-02  0.1116943E+00
          2   -1    0    0  505    0 -0.00000000000E+00  0.00000000000E+00  0.40905473933E+03  0.40905473933E+03  0.00000000000E+00 0.  1.
         21   -1    0    0  504  502  0.00000000000E+00 -0.00000000000E+00 -0.11329222816E+04  0.11329222816E+04  0.00000000000E+00 0.  1.
         21    1    1    2  503  502 -0.15760387129E+02  0.36772661586E+02 -0.53378081118E+02  0.66707105966E+02  0.00000000000E+00 0.  1.
         21    1    1    2  504  501 -0.14278090983E+03  0.15506063873E+03 -0.96991673195E+03  0.99255662650E+03  0.00000000000E+00 0.  1.
         21    1    1    2  505  503  0.80251247329E+02  0.35345962408E+02 -0.12913938079E+02  0.88636163912E+02  0.00000000000E+00 0.  1.
          2    1    1    2  501    0  0.78290049634E+02 -0.22717926273E+03  0.31234120890E+03  0.39407712451E+03  0.00000000000E+00 0.  1.
<scales pt_clust_3="40.00773" pt_clust_4="14000.00000" pt_clust_5="87.72967" pt_clust_6="244.32790"></scales>
<clustering>
<clus scale="   40.008">  2  3  1 -1</clus>
<clus scale="   87.730">  1  5  2 -1</clus>
<clus scale="  244.328">  1  6  2 -1</clus>
<clus scale="   40.008">  2  3  1 -1</clus>
</clustering>
</event>
<event>
 6    0  0.4189111E+002  0.1079777E+03  0.7546771E-02  0.1264361E+00
         -2   -1    0    0    0  501 -0.00000000000E+00  0.00000000000E+00  0.24977843640E+03  0.24977843640E+03  0.00000000000E+00 0. -1.
         21   -1    0    0  505  502  0.00000000000E+00 -0.00000000000E+00 -0.89994101607E+03  0.89994101607E+03  0.00000000000E+00 0.  1.
         21    1    1    2  503  504  0.12047685310E+03 -0.21898152219E+02 -0.64706802261E+03  0.65855237232E+03  0.00000000000E+00 0.  1.
         21    1    1    2  504  502 -0.49803638086E+02  0.41570085322E+02 -0.19447924197E+03  0.20501377982E+03  0.00000000000E+00 0.  1.
         21    1    1    2  505  501  0.35954847084E+02 -0.36752558504E+01 -0.25305158395E+02  0.44120398636E+02  0.00000000000E+00 0. -1.
         -2    1    1    2    0  503 -0.10662806210E+03 -0.15996677253E+02  0.21668984330E+03  0.24203290169E+03  0.00000000000E+00 0. -1.
<scales pt_clust_3="14000.00000" pt_clust_4="58.14428" pt_clust_5="36.14220" pt_clust_6="107.97767"></scales>
<clustering>
<clus scale="   36.142">  2  5  1 -1</clus>
<clus scale="   58.144">  2  4  1 -1</clus>
<clus scale="  107.978">  1  6  2 -1</clus>
<clus scale="   36.142">  2  3  1 -1</clus>
</clustering>
</event>
<event>
 6    0  0.4189111E+002  0.8689797E+02  0.7546771E-02  0.1310542E+00
          2   -1    0    0  505    0 -0.00000000000E+00  0.00000000000E+00  0.38801213918E+03  0.38801213918E+03  0.00000000000E+00 0. -1.
         21   -1    0    0  503  502  0.00000000000E+00 -0.00000000000E+00 -0.41669974435E+03  0.41669974435E+03  0.00000000000E+00 0. -1.
         21    1    1    2  503  504 -0.94132668312E+02  0.20698539940E+02 -0.35828121039E+03  0.37101861748E+03  0.00000000000E+00 0. -1.
         21    1    1    2  504  501  0.58534382915E+02  0.18856277920E+02 -0.21433781519E+02  0.65124804725E+02  0.00000000000E+00 0. -1.
         21    1    1    2  505  502  0.45930747613E+02  0.18971861526E+02  0.11707750874E+03  0.12718768870E+03  0.00000000000E+00 0. -1.
          2    1    1    2  501    0 -0.10332462216E+02 -0.58526679386E+02  0.23394987800E+03  0.24138077263E+03  0.00000000000E+00 0. -1.
<scales pt_clust_3="86.89797" pt_clust_4="14000.00000" pt_clust_5="49.69472" pt_clust_6="51.69026"></scales>
<clustering>
<clus scale="   49.695">  1  5  2 -1</clus>
<clus scale="   51.690">  1  6  2 -1</clus>
<clus scale="   86.898">  2  3  1 -1</clus>
<clus scale="   86.898">  2  3  1 -1</clus>
</clustering>
</event>
<event>
 6    0  0.4189111E+002  0.2418192E+03  0.7546771E-02  0.1118587E+00
         21   -1    0    0  504  502  0.00000000000E+00  0.00000000000E+00  0.10458169864E+04  0.10458169864E+04  0.00000000000E+00 0. -1.
          2   -1    0    0  503    0 -0.00000000000E+00 -0.00000000000E+00 -0.15797745006E+03  0.15797745006E+03  0.00000000000E+00 0.  1.
         21    1    1    2  503  502  0.38484837519E+02  0.93166605104E+02  0.14872767429E+03  0.17966919638E+03  0.00000000000E+00 0.  1.
         21    1    1    2  504  505  0.17757699683E+02  0.15045003174E+03  0.75352119300E+03  0.76859920391E+03  0.00000000000E+00 0. -1.
         21    1    1    2  505  501 -0.29724701965E+02 -0.13834860685E+03  0.16983459262E+02  0.14252134161E+03  0.00000000000E+00 0. -1.
          2    1    1    2  501    0 -0.26517835236E+02 -0.10526802999E+03 -0.31392790186E+02  0.11300469459E+03  0.00000000000E+00 0.  1.
<scales pt_clust_3="100.80228" pt_clust_4="236.43787" pt_clust_5="44.43394" pt_clust_6="44.43394"></scales>
<clustering>
<clus scale="   44.434">  5  6 -1 -1</clus>
<clus scale="  100.802">  1  3  2 -1</clus>
<clus scale="  236.438">  1  4  2 -1</clus>
<clus scale="  100.802">  1  3  2 -1</clus>
</clustering>
</event>
<event>
 6    0  0.4189111E+002  0.6323547E+02  0.7546771E-02  0.1384735E+00
         21   -1    0    0  504  502  0.00000000000E+00  0.00000000000E+00  0.29916418877E+03  0.29916418877E+03  0.00000000000E+00 0. -1.
          1   -1    0    0  505    0 -0.00000000000E+00 -0.00000000000E+00 -0.16987858211E+04  0.16987858211E+04  0.00000000000E+00 0.  1.
         21    1    1    2  503  502  0.65297027486E+02  0.87767661417E+02  0.22763669470E+03  0.25255757555E+03  0.00000000000E+00 0. -1.
         21    1    1    2  504  501 -0.11902067348E+02 -0.54747631485E+02  0.41865000935E+02  0.69940264967E+02  0.00000000000E+00 0.  1.
         21    1    1    2  505  503  0.15150539982E+02 -0.30947168880E+02 -0.12099240572E+03  0.12580313337E+03  0.00000000000E+00 0.  1.
          1    1    1    2  501    0 -0.68545500120E+02 -0.20728610520E+01 -0.15481309222E+04  0.15496490360E+04  0.00000000000E+00 0.  1.
<scales pt_clust_3="63.23547" pt_clust_4="56.26755" pt_clust_5="34.45673" pt_clust_6="14000.00000"></scales>
<clustering>
<clus scale="   34.457">  2  5  1 -1</clus>
<clus scale="   56.268">  1  4  2 -1</clus>
<clus scale="   63.235">  1  3  2 -1</clus>
<clus scale="   56.268">  1  3  2 -1</clus>
</clustering>
</event>
<event>
 6    0  0.4189111E+002  0.1525186E+03  0.7546771E-02  0.1197412E+00
         21   -1    0    0  503  502  0.00000000000E+00  0.00000000000E+00  0.94507481953E+02  0.94507481953E+02  0.00000000000E+00 0. -1.
          2   -1    0    0  504    0 -0.00000000000E+00 -0.00000000000E+00 -0.21940614216E+04  0.21940614216E+04  0.00000000000E+00 0. -1.
         21    1    1    2  503  501  0.83439296043E+02  0.82133811794E+02 -0.46192778127E+02  0.12586441878E+03  0.00000000000E+00 0. -1.
         21    1    1    2  504  505  0.76532231473E+02 -0.62037393715E+02 -0.54065734912E+03  0.54955999657E+03  0.00000000000E+00 0. -1.
         21    1    1    2  505  502  0.18034840378E+02  0.42394259998E+02  0.32554734666E+02  0.56412228261E+02  0.00000000000E+00 0. -1.
          2    1    1    2  501    0 -0.17800636789E+03 -0.62490678077E+02 -0.15452585471E+04  0.15567322600E+04  0.00000000000E+00 0. -1.
<scales pt_clust_3="152.51862" pt_clust_4="97.46900" pt_clust_5="46.07091" pt_clust_6="14000.00000"></scales>
<clustering>
<clus scale="   46.071">  1  5  2 -1</clus>
<clus scale="   97.469">  2  4  1 -1</clus>
<clus scale="  152.519">  1  3  2 -1</clus>
<clus scale="   46.071">  1  3  2 -1</clus>
</clustering>
</event>
<event>
 6    0  0.4189111E+002  0.1428542E+03  0.7546771E-02  0.1209539E+00
         21   -1    0    0  503  502  0.00000000000E+00  0.00000000000E+00  0.18809471020E+03  0.18809471020E+03  0.00000000000E+00 0. -1.
          2   -1    0    0  505    0 -0.00000000000E+00 -0.00000000000E+00 -0.15215160570E+04  0.15215160570E+04  0.00000000000E+00 0.  1.
         21    1    1    2  503  504  0.19504404501E+02  0.49051044861E+02  0.12619010681E+03  0.13678585400E+03  0.00000000000E+00 0. -1.
         21    1    1    2  504  501  0.63689019359E+02 -0.13994209273E+02 -0.86915466445E+02  0.10865738533E+03  0.00000000000E+00 0. -1.
         21    1    1    2  505  502  0.65433499730E+02 -0.10327806936E+02  0.15324787249E+02  0.67993055434E+02  0.00000000000E+00 0. -1.
          2    1    1    2  501    0 -0.14862692359E+03 -0.24729028652E+02 -0.13880207744E+04  0.13961744724E+04  0.00000000000E+00 0.  1.
<scales pt_clust_3="52.78662" pt_clust_4="67.58968" pt_clust_5="14000.00000" pt_clust_6="142.85419"></scales>
<clustering>
<clus scale="   52.787">  1  3  2 -1</clus>
<clus scale="   67.590">  1  4  2 -1</clus>
<clus scale="  142.854">  2  6  1 -1</clus>
<clus scale="   52.787">  1  3  2 -1</clus>
</clustering>
</event>
<event>
 6    0  0.4189111E+002  0.1191373E+03  0.7546771E-02  0.1244527E+00
          4   -1    0    0  504    0 -0.00000000000E+00  0.00000000000E+00  0.17488443149E+04  0.17488443149E+04  0.00000000000E+00 0. -1.
         21   -1    0    0  503  502  0.00000000000E+00 -0.00000000000E+00 -0.52557970502E+02  0.52557970502E+02  0.00000000000E+00 0.  1.
         21    1    1    2  503  505 -0.95201523605E+02 -0.49568290614E+02  0.21832010069E+02  0.10953073630E+03  0.00000000000E+00 0.  1.
         21    1    1    2  504  502  0.71231947997E+01 -0.31299196482E+02  0.11898093343E+04  0.11902422576E+04  0.00000000000E+00 0. -1.
         21    1    1    2  505  501  0.45984175799E+02  0.70094478501E+02  0.27348472546E+03  0.28604488355E+03  0.00000000000E+00 0. -1.
          4    1    1    2  501    0  0.42094153006E+02  0.10773008595E+02  0.21116027451E+03  0.21558440798E+03  0.00000000000E+00 0. -1.
<scales pt_clust_3="108.35068" pt_clust_4="32.09953" pt_clust_5="38.65965" pt_clust_6="38.65965"></scales>
<clustering>
<clus scale="   32.100">  1  4  2 -1</clus>
<clus scale="   38.660">  5  6 -1 -1</clus>
<clus scale="  108.351">  2  3  1 -1</clus>
<clus scale="  108.351">  2  3  1 -1</clus>
</clustering>
</event>
<event>
 6    0  0.4189111E+002  0.9615925E+02  0.7546771E-02  0.1288586E+00
         -1   -1    0    0    0  501 -0.00000000000E+00  0.00000000000E+00  0.50998931613E+04  0.50998931613E+04  0.00000000000E+00 0. -1.
         21   -1    0    0  504  502  0.00000000000E+00 -0.00000000000E+00 -0.46264133343E+02  0.46264133343E+02  0.00000000000E+00 0. -1.
         21    1    1    2  503  502  0.10917614384E+03  0.71347622716E+01  0.14539968610E+03  0.18196539213E+03  0.00000000000E+00 0. -1.
         21    1    1    2  504  505 -0.18731965807E+02  0.25813113511E+02 -0.17609162160E+02  0.36431936047E+02  0.00000000000E+00 0. -1.
         21    1    1    2  505  501 -0.24503275802E+02  0.18860539609E+02  0.41824154774E+03  0.41938302629E+03  0.00000000000E+00 0. -1.
         -1    1    1    2    0  503 -0.65940902228E+02 -0.51808415392E+02  0.45075969563E+04  0.45083769402E+04  0.00000000000E+00 0. -1.
<scales pt_clust_3="14000.00000" pt_clust_4="31.95325" pt_clust_5="30.92136" pt_clust_6="96.15925"></scales>
<clustering>
<clus scale="   30.921">  1  5  2 -1</clus>
<clus scale="   31.953">  2  4  1 -1</clus>
<clus scale="   96.159">  1  6  2 -1</clus>
<clus scale="   31.953">  2  3  1 -1</clus>
</clustering>
</event>
<event>
 6    0  0.4189111E+002  0.1172811E+03  0.7546771E-02  0.1247651E+00
         -1   -1    0    0    0  501 -0.00000000000E+00  0.00000000000E+00  0.42678546252E+03  0.42678546252E+03  0.00000000000E+00 0. -1.
         21   -1    0    0  504  502  0.00000000000E+00 -0.00000000000E+00 -0.33530351670E+03  0.33530351670E+03  0.00000000000E+00 0.  1.
         21    1    1    2  503  501  0.10696525112E+03 -0.14798828228E+03 -0.11408700620E+01  0.18260174759E+03  0.00000000000E+00 0.  1.
         21    1    1    2  504  503  0.47418719928E+02  0.89610604809E+02 -0.19008666370E+03  0.21543336606E+03  0.00000000000E+00 0.  1.
         21    1    1    2  505  502 -0.54377881013E+02  0.83177040278E+01 -0.51325954070E+01  0.55249268587E+02  0.00000000000E+00 0.  1.
         -1    1    1    2    0  505 -0.10000609004E+03  0.50059973439E+02  0.28784207499E+03  0.30880459699E+03  0.00000000000E+00 0. -1.
<scales pt_clust_3="14000.00000" pt_clust_4="95.80471" pt_clust_5="55.01035" pt_clust_6="117.28108"></scales>
<clustering>
<clus scale="   55.010">  2  5  1 -1</clus>
<clus scale="   95.805">  2  4  1 -1</clus>
<clus scale="  117.281">  1  6  2 -1</clus>
<clus scale="   55.010">  2  3  1 -1</clus>
</clustering>
</event>
<event>
 6    0  0.4189111E+002  0.1499893E+03  0.7546771E-02  0.1200486E+00
         21   -1    0    0  504  502  0.00000000000E+00  0.00000000000E+00  0.16099063039E+03  0.16099063039E+03  0.00000000000E+00 0. -1.
         -1   -1    0    0    0  501 -0.00000000000E+00 -0.00000000000E+00 -0.68575801904E+03  0.68575801904E+03  0.00000000000E+00 0. -1.
         21    1    1    2  503  502  0.39009658469E+02  0.80799855244E+02 -0.26476701143E+03  0.27955668549E+03  0.00000000000E+00 0. -1.
         21    1    1    2  504  505  0.73559672913E+01 -0.79004647489E+02  0.98958549069E+02  0.12684099895E+03  0.00000000000E+00 0. -1.
         21    1    1    2  505  501 -0.41211018141E+02 -0.73322523258E+02 -0.10703446832E+02  0.84788585359E+02  0.00000000000E+00 0. -1.
         -1    1    1    2    0  503 -0.51546076192E+01  0.71527315503E+02 -0.34825547945E+03  0.35556237964E+03  0.00000000000E+00 0. -1.
<scales pt_clust_3="50.80897" pt_clust_4="79.34636" pt_clust_5="138.80513" pt_clust_6="50.80897"></scales>
<clustering>
<clus scale="   50.809">  3  6 -1 -1</clus>
<clus scale="   79.346">  1  4  2 -1</clus>
<clus scale="  138.805">  1  5  2 -1</clus>
<clus scale="   79.346">  1  3  2 -1</clus>
</clustering>
</event>
<event>
 6    0  0.4189111E+002  0.8195233E+02  0.7546771E-02  0.1323601E+00
         21   -1    0    0  503  502  0.00000000000E+00  0.00000000000E+00  0.31233515708E+03  0.31233515708E+03  0.00000000000E+00 0. -1.
          2   -1    0    0  504    0 -0.00000000000E+00 -0.00000000000E+00 -0.16404569548E+04  0.16404569548E+04  0.00000000000E+00 0. -1.
         21    1    1    2  503  505 -0.10322670286E+02  0.73228071212E+02  0.14122745144E+03  0.15941800706E+03  0.00000000000E+00 0.  1.
         21    1    1    2  504  502 -0.11228867509E+02 -0.42441542140E+02 -0.12945929427E+03  0.13670069802E+03  0.00000000000E+00 0.  1.
         21    1    1    2  505  501  0.42883889830E+02 -0.88134010413E+02  0.14253720073E+03  0.17298406109E+03  0.00000000000E+00 0. -1.
          2    1    1    2  501    0 -0.21332352034E+02  0.57347481340E+02 -0.14824271557E+04  0.14836893458E+04  0.00000000000E+00 0. -1.
<scales pt_clust_3="81.95233" pt_clust_4="43.90184" pt_clust_5="14000.00000" pt_clust_6="35.93796"></scales>
<clustering>
<clus scale="   43.902">  2  4  1 -1</clus>
<clus scale="   35.938">  2  6  1 -1</clus>
<clus scale="   81.952">  1  3  2 -1</clus>
<clus scale="   81.952">  1  3  2 -1</clus>
</clustering>
</event>
<event>
 6    0  0.4189111E+002  0.1207843E+03  0.7546771E-02  0.1241809E+00
         21   -1    0    0  503  502  0.00000000000E+00  0.00000000000E+00  0.26796064504E+03  0.26796064504E+03  0.00000000000E+00 0.  1.
         -3   -1    0    0    0  501 -0.00000000000E+00 -0.00000000000E+00 -0.34666063428E+03  0.34666063428E+03  0.00000000000E+00 0.  1.
         21    1    1    2  503  505  0.10951670238E+03 -0.14197408267E+01  0.81694799154E+02  0.13663807658E+03  0.00000000000E+00 0.  1.
         21    1    1    2  504  502  0.10863437732E+02 -0.41193385212E+02  0.13892902044E+03  0.14531408047E+03  0.00000000000E+00 0.  1.
         21    1    1    2  505  501 -0.15168289524E+02  0.36556376358E+02 -0.89779600137E+02  0.98116371010E+02  0.00000000000E+00 0.  1.
         -3    1    1    2    0  504 -0.10521185059E+03  0.60567496810E+01 -0.20954420870E+03  0.23455275125E+03  0.00000000000E+00 0.  1.
<scales pt_clust_3="120.78432" pt_clust_4="42.10639" pt_clust_5="39.57835" pt_clust_6="14000.00000"></scales>
<clustering>
<clus scale="   39.578">  2  5  1 -1</clus>
<clus scale="   42.106">  1  4  2 -1</clus>
<clus scale="  120.784">  1  3  2 -1</clus>
<clus scale="   42.106">  1  3  2 -1</clus>
</clustering>
</event>
<event>
 6    0  0.4189111E+002  0.1238620E+03  0.7546771E-02  0.1236859E+00
          1   -1    0    0  505    0 -0.00000000000E+00  0.00000000000E+00  0.11797156077E+03  0.11797156077E+03  0.00000000000E+00 0.  1.
         21   -1    0    0  503  502  0.00000000000E+00 -0.00000000000E+00 -0.19458573889E+03  0.19458573889E+03  0.00000000000E+00 0. -1.
         21    1    1    2  503  501  0.62081169426E+02  0.29273995200E+02  0.34741217675E+01  0.68724871148E+02  0.00000000000E+00 0.  1.
         21    1    1    2  504  502 -0.73878045226E+02 -0.95489884486E+02 -0.10552339223E+03  0.16034796510E+03  0.00000000000E+00 0. -1.
         21    1    1    2  505  504 -0.69553294926E+01  0.34724154036E+02 -0.51003025943E+01  0.35779275683E+02  0.00000000000E+00 0.  1.
          1    1    1    2  501    0  0.18752205293E+02  0.31491735250E+02  0.30535394931E+02  0.47705187726E+02  0.00000000000E+00 0.  1.
<scales pt_clust_3="34.06280" pt_clust_4="114.75620" pt_clust_5="35.41389" pt_clust_6="34.06280"></scales>
<clustering>
<clus scale="   34.063">  3  6 -1 -1</clus>
<clus scale="   35.414">  1  5  2 -1</clus>
<clus scale="  114.756">  2  4  1 -1</clus>
<clus scale="  114.756">  2  3  1 -1</clus>
</clustering>
</event>
<event>
 6    0  0.4189111E+002  0.1981565E+03  0.7546771E-02  0.1151304E+00
          2   -1    0    0  505    0 -0.00000000000E+00  0.00000000000E+00  0.74264572448E+03  0.74264572448E+03  0.00000000000E+00 0.  1.
         21   -1    0    0  503  502  0.00000000000E+00 -0.00000000000E+00 -0.15725043815E+04  0.15725043815E+04  0.00000000000E+00 0.  1.
         21    1    1    2  503  501 -0.12141567398E+03 -0.57793385173E+02 -0.13271059328E+04  0.13339010451E+04  0.00000000000E+00 0.  1.
         21    1    1    2  504  502 -0.23724038777E+02 -0.79026225675E+02 -0.21830043497E+03  0.23337320812E+03  0.00000000000E+00 0.  1.
         21    1    1    2  505  504  0.32515161459E+02 -0.79626712182E+01  0.91646137999E+02  0.97568716645E+02  0.00000000000E+00 0. -1.
          2    1    1    2  501    0  0.11262455130E+03  0.14478228207E+03  0.62390157277E+03  0.65030713610E+03  0.00000000000E+00 0.  1.
<scales pt_clust_3="198.15652" pt_clust_4="82.49133" pt_clust_5="33.47596" pt_clust_6="14000.00000"></scales>
<clustering>
<clus scale="   33.476">  1  5  2 -1</clus>
<clus scale="   82.491">  2  4  1 -1</clus>
<clus scale="  198.157">  2  3  1 -1</clus>
<clus scale="   82.491">  2  3  1 -1</clus>
</clustering>
</event>
<event>
 6    0  0.4189111E+002  0.1166474E+03  0.7546771E-02  0.1248733E+00
         -1   -1    0    0    0  501 -0.00000000000E+00  0.00000000000E+00  0.12148030685E+04  0.12148030685E+04  0.00000000000E+00 0.  1.
         21   -1    0    0  505  502  0.00000000000E+00 -0.00000000000E+00 -0.11344130439E+04  0.11344130439E+04  0.00000000000E+00 0.  1.
         21    1    1    2  503  502  0.32768761641E+02 -0.55784904327E+02  0.12775491980E+03  0.14320288693E+03  0.00000000000E+00 0. -1.
         21    1    1    2  504  501 -0.99927678752E+02  0.16607553681E+03 -0.58856811189E+02  0.20256048265E+03  0.00000000000E+00 0.  1.
         21    1    1    2  505  504  0.17593386168E+02 -0.71246347060E+02 -0.99363799713E+03  0.99634433734E+03  0.00000000000E+00 0.  1.
         -1    1    1    2    0  503  0.49565530943E+02 -0.39044285422E+02  0.10051299132E+04  0.10071084055E+04  0.00000000000E+00 0.  1.
<scales pt_clust_3="14000.00000" pt_clust_4="116.64741" pt_clust_5="73.70971" pt_clust_6="63.09674"></scales>
<clustering>
<clus scale="   63.097">  1  6  2 -1</clus>
<clus scale="   73.710">  2  5  1 -1</clus>
<clus scale="  116.647">  2  4  1 -1</clus>
<clus scale="   73.710">  2  3  1 -1</clus>
</clustering>
</event>
<event>
 6    0  0.4189111E+002  0.9441768E+02  0.7546771E-02  0.1292493E+00
          2   -1    0    0  503    0 -0.00000000000E+00  0.00000000000E+00  0.12196587578E+04  0.12196587578E+04  0.00000000000E+00 0.  1.
         21   -1    0    0  505  502  0.00000000000E+00 -0.00000000000E+00 -0.35498642481E+02  0.35498642481E+02  0.00000000000E+00 0. -1.
         21    1    1    2  503  504  0.29101721455E+02  0.53024161751E+02  0.22583144748E+03  0.23379117732E+03  0.00000000000E+00 0.  1.
         21    1    1    2  504  502  0.39259645064E+02 -0.81217898121E+02  0.17480793055E+03  0.19671166536E+03  0.00000000000E+00 0. -1.
         21    1    1    2  505  501 -0.12110579113E+03 -0.36907844062E+01  0.17401813527E+03  0.21204373590E+03  0.00000000000E+00 0. -1.
          2    1    1    2  501    0  0.52744424606E+02  0.31884520777E+02  0.60950260199E+03  0.61261082166E+03  0.00000000000E+00 0.  1.
<scales pt_clust_3="60.48530" pt_clust_4="84.13662" pt_clust_5="94.41768" pt_clust_6="14000.00000"></scales>
<clustering>
<clus scale="   60.485">  1  3  2 -1</clus>
<clus scale="   84.137">  2  4  1 -1</clus>
<clus scale="   94.418">  2  5  1 -1</clus>
<clus scale="   84.137">  2  3  1 -1</clus>
</clustering>
</event>
<event>
 6    0  0.4189111E+002  0.3187037E+03  0.7546771E-02  0.1076247E+00
          2   -1    0    0  503    0 -0.00000000000E+00  0.00000000000E+00  0.74039976453E+03  0.74039976453E+03  0.00000000000E+00 0.  1.
         21   -1    0    0  505  502  0.00000000000E+00 -0.00000000000E+00 -0.20168993877E+03  0.20168993877E+03  0.00000000000E+00 0. -1.
         21    1    1    2  503  502 -0.11306984040E+03 -0.33151599630E+03  0.20922066855E+03  0.40799624111E+03  0.00000000000E+00 0. -1.
         21    1    1    2  504  501  0.44489771652E+02  0.97418526044E+02  0.91433209704E+02  0.14081811260E+03  0.00000000000E+00 0.  1.
         21    1    1    2  505  504 -0.38602478635E+02  0.75737582578E+02 -0.36359876922E+01  0.85085563864E+02  0.00000000000E+00 0.  1.
          2    1    1    2  501    0  0.10718254739E+03  0.15835988768E+03  0.24169193520E+03  0.30818978573E+03  0.00000000000E+00 0.  1.
<scales pt_clust_3="315.21961" pt_clust_4="35.17074" pt_clust_5="85.00784" pt_clust_6="35.17074"></scales>
<clustering>
<clus scale="   35.171">  4  6 -1 -1</clus>
<clus scale="   85.008">  2  5  1 -1</clus>
<clus scale="  315.220">  2  3  1 -1</clus>
<clus scale="   85.008">  2  3  1 -1</clus>
</clustering>
</event>
<event>
 6    0  0.4189111E+002  0.1195645E+03  0.7546771E-02  0.1243817E+00
          4   -1    0    0  505    0 -0.00000000000E+00  0.00000000000E+00  0.10994594296E+04  0.10994594296E+04  0.00000000000E+00 0. -1.
         21   -1    0    0  503  502  0.00000000000E+00 -0.00000000000E+00 -0.72575381409E+02  0.72575381409E+02  0.00000000000E+00 0.  1.
         21    1    1    2  503  504  0.63351897933E+02 -0.94304669107E+01  0.11244339628E+03  0.12940600467E+03  0.00000000000E+00 0.  1.
         21    1    1    2  504  501  0.79953247246E+02 -0.49850766501E+02  0.24557662455E+01  0.94253124371E+02  0.00000000000E+00 0.  1.
         21    1    1    2  505  502 -0.12300920233E+03 -0.36200226026E+02  0.26870416138E+03  0.29773082905E+03  0.00000000000E+00 0.  1.
          4    1    1    2  501    0 -0.20295942850E+02  0.95481459437E+02  0.64328072426E+03  0.65064485289E+03  0.00000000000E+00 0. -1.
<scales pt_clust_3="64.04995" pt_clust_4="14000.00000" pt_clust_5="119.56452" pt_clust_6="96.38976"></scales>
<clustering>
<clus scale="   64.050">  2  3  1 -1</clus>
<clus scale="   96.390">  1  6  2 -1</clus>
<clus scale="  119.565">  1  5  2 -1</clus>
<clus scale="   64.050">  2  3  1 -1</clus>
</clustering>
</event>
<event>
 6    0  0.4189111E+002  0.8772781E+02  0.7546771E-02  0.1308449E+00
         21   -1    0    0  504  502  0.00000000000E+00  0.00000000000E+00  0.66238833028E+02  0.66238833028E+02  0.00000000000E+00 0. -1.
          2   -1    0    0  503    0 -0.00000000000E+00 -0.00000000000E+00 -0.17111077819E+04  0.17111077819E+04  0.00000000000E+00 0.  1.
         21    1    1    2  503  505 -0.85286336576E+02  0.62272809236E+02 -0.60289165668E+03  0.61207026694E+03  0.00000000000E+00 0.  1.
         21    1    1    2  504  501 -0.17085080516E+02 -0.53228417015E+02  0.36878302273E+02  0.66971438186E+02  0.00000000000E+00 0. -1.
         21    1    1    2  505  502  0.29039858449E+02 -0.41640031235E+02 -0.71124859304E+02  0.87383929821E+02  0.00000000000E+00 0.  1.
          2    1    1    2  501    0  0.73331558642E+02  0.32595639014E+02 -0.10077307351E+04  0.10109209800E+04  0.00000000000E+00 0.  1.
<scales pt_clust_3="87.72781" pt_clust_4="14000.00000" pt_clust_5="50.76619" pt_clust_6="80.52535"></scales>
<clustering>
<clus scale="   50.766">  1  5  2 -1</clus>
<clus scale="   80.525">  2  6  1 -1</clus>
<clus scale="   87.728">  2  3  1 -1</clus>
<clus scale="   50.766">  1  3  2 -1</clus>
</clustering>
</event>
<event>
 6    0  0.4189111E+002  0.1403518E+03  0.7546771E-02  0.1212856E+00
         21   -1    0    0  503  502  0.00000000000E+00  0.00000000000E+00  0.26694667159E+03  0.26694667159E+03  0.00000000000E+00 0.  1.
         -1   -1    0    0    0  501 -0.00000000000E+00 -0.00000000000E+00 -0.52593591057E+03  0.52593591057E+03  0.00000000000E+00 0. -1.
         21    1    1    2  503  505  0.27801238734E+02 -0.12948067827E+02  0.45143591472E+02  0.54575683107E+02  0.00000000000E+00 0.  1.
         21    1    1    2  504  501 -0.10495334264E+03 -0.47927175019E+02 -0.10880502276E+03  0.15858988371E+03  0.00000000000E+00 0. -1.
         21    1    1    2  505  504 -0.31093729668E+01 -0.93128807343E+02  0.15946960085E+03  0.18469758134E+03  0.00000000000E+00 0.  1.
         -1    1    1    2    0  502  0.80261476870E+02  0.15400405019E+03 -0.35479740853E+03  0.39501943401E+03  0.00000000000E+00 0. -1.
<scales pt_clust_3="30.66857" pt_clust_4="14000.00000" pt_clust_5="105.11104" pt_clust_6="140.35177"></scales>
<clustering>
<clus scale="   30.669">  1  3  2 -1</clus>
<clus scale="  105.111">  1  5  2 -1</clus>
<clus scale="  140.352">  2  6  1 -1</clus>
<clus scale="   30.669">  1  3  2 -1</clus>
</clustering>
</event>
<event>
 6    0  0.4189111E+002  0.1131432E+03  0.7546771E-02  0.1254857E+00
         21   -1    0    0  505  502  0.00000000000E+00  0.00000000000E+00  0.15478744208E+03  0.15478744208E+03  0.00000000000E+00 0. -1.
          2   -1    0    0  504    0 -0.00000000000E+00 -0.00000000000E+00 -0.19007188646E+04  0.19007188646E+04  0.00000000000E+00 0. -1.
         21    1    1    2  503  502 -0.52139387685E+02  0.12932821411E+03 -0.62093710596E+02  0.15264315120E+03  0.00000000000E+00 0. -1.
         21    1    1    2  504  503 -0.34653084576E+02 -0.28156906867E+02 -0.21589596493E+03  0.22046477122E+03  0.00000000000E+00 0. -1.
         21    1    1    2  505  501  0.53878793540E+02 -0.92309539127E+02  0.80359370049E+02  0.13372211396E+03  0.00000000000E+00 0. -1.
          2    1    1    2  501    0  0.32913678721E+02 -0.88617681190E+01 -0.15483011170E+04  0.15486762703E+04  0.00000000000E+00 0. -1.
<scales pt_clust_3="14000.00000" pt_clust_4="36.54539" pt_clust_5="113.14324" pt_clust_6="34.08579"></scales>
<clustering>
<clus scale="   34.086">  2  6  1 -1</clus>
<clus scale="   36.545">  2  4  1 -1</clus>
<clus scale="  113.143">  1  5  2 -1</clus>
<clus scale="  113.143">  1  3  2 -1</clus>
</clustering>
</event>
<event>
 6    0  0.4189111E+002  0.1378954E+03  0.7546771E-02  0.1216189E+00
         21   -1    0    0  504  502  0.00000000000E+00  0.00000000000E+00  0.51259442841E+03  0.51259442841E+03  0.00000000000E+00 0. -1.
         -1   -1    0    0    0  501 -0.00000000000E+00 -0.00000000000E+00 -0.11473286857E+03  0.11473286857E+03  0.00000000000E+00 0. -1.
         21    1    1    2  503  501 -0.30706283135E+02  0.11429661369E+02  0.14473221352E+02  0.35818809574E+02  0.00000000000E+00 0.  1.
         21    1    1    2  504  503 -0.33438334300E+02  0.21361934691E+02  0.14979028062E+03  0.15495671209E+03  0.00000000000E+00 0. -1.
         21    1    1    2  505  502  0.10028637233E+03 -0.14070640584E+03  0.26692213128E+03  0.31796709466E+03  0.00000000000E+00 0. -1.
         -1    1    1    2    0  505 -0.36141754898E+02  0.10791480978E+03 -0.33324073404E+02  0.11858468065E+03  0.00000000000E+00 0. -1.
<scales pt_clust_3="32.76451" pt_clust_4="40.47488" pt_clust_5="14000.00000" pt_clust_6="137.89542"></scales>
<clustering>
<clus scale="   32.765">  2  3  1 -1</clus>
<clus scale="   40.475">  1  4  2 -1</clus>
<clus scale="  137.895">  2  6  1 -1</clus>
<clus scale="   40.475">  1  3  2 -1</clus>
</clustering>
</event>
<event>
 6    0  0.4189111E+002  0.1155245E+03  0.7546771E-02  0.1250668E+00
         21   -1    0    0  504  502  0.00000000000E+00  0.00000000000E+00  0.97655069702E+03  0.97655069702E+03  0.00000000000E+00 0.  1.
          2   -1    0    0  503    0 -0.00000000000E+00 -0.00000000000E+00 -0.84948297879E+03  0.84948297879E+03  0.00000000000E+00 0. -1.
         21    1    1    2  503  505 -0.24827202632E+02  0.17954258584E+02 -0.62833225137E+02  0.69905361547E+02  0.00000000000E+00 0. -1.
         21    1    1    2  504  501  0.10887306267E+03 -0.35399391439E+02  0.85831129778E+03  0.86591266568E+03  0.00000000000E+00 0.  1.
         21    1    1    2  505  502 -0.14049912553E+02 -0.31133694509E+02  0.10587919511E+03  0.11125246484E+03  0.00000000000E+00 0. -1.
          2    1    1    2  501    0 -0.69995947485E+02  0.48578827364E+02 -0.77428954952E+03  0.77896318374E+03  0.00000000000E+00 0. -1.
<scales pt_clust_3="30.63895" pt_clust_4="115.52451" pt_clust_5="34.13614" pt_clust_6="14000.00000"></scales>
<clustering>
<clus scale="   30.639">  2  3  1 -1</clus>
<clus scale="   34.136">  1  5  2 -1</clus>
<clus scale="  115.525">  1  4  2 -1</clus>
<clus scale="   34.136">  1  3  2 -1</clus>
</clustering>
</event>
<event>
 6    0  0.4189111E+002  0.1104429E+03  0.7546771E-02  0.1259752E+00
         -1   -1    0    0    0  501 -0.00000000000E+00  0.00000000000E+00  0.38093868165E+03  0.38093868165E+03  0.00000000000E+00 0. -1.
         21   -1    0    0  505  502  0.00000000000E+00 -0.00000000000E+00 -0.33721754200E+03  0.33721754200E+03  0.00000000000E+00 0.  1.
         21    1    1    2  503  504  0.84920510349E+02 -0.36420677552E+01 -0.42693383485E+02  0.95118256548E+02  0.00000000000E+00 0.  1.
         21    1    1    2  504  502 -0.12573670001E+03  0.12301018124E+02 -0.22823687894E+03  0.26086990184E+03  0.00000000000E+00 0.  1.
         21    1    1    2  505  501 -0.10602888562E+02  0.59585733745E+02  0.35351891304E+02  0.70090207095E+02  0.00000000000E+00 0. -1.
         -1    1    1    2    0  503  0.51419078220E+02 -0.68244684114E+02  0.27929951077E+03  0.29207785817E+03  0.00000000000E+00 0. -1.
<scales pt_clust_3="110.44290" pt_clust_4="14000.00000" pt_clust_5="60.52174" pt_clust_6="45.25814"></scales>
<clustering>
<clus scale="   60.522">  1  5  2 -1</clus>
<clus scale="   45.258">  1  6  2 -1</clus>
<clus scale="  110.443">  1  3  2 -1</clus>
<clus scale="  110.443">  2  3  1 -1</clus>
</clustering>
</event>
<event>
 6    0  0.4189111E+002  0.1860242E+03  0.7546771E-02  0.1162097E+00
         21   -1    0    0  503  502  0.00000000000E+00  0.00000000000E+00  0.23401266116E+03  0.23401266116E+03  0.00000000000E+00 0.  1.
          2   -1    0    0  505    0 -0.00000000000E+00 -0.00000000000E+00 -0.55803890530E+03  0.55803890530E+03  0.00000000000E+00 0. -1.
         21    1    1    2  503  504  0.46973026454E+02 -0.82003412503E+00  0.47724567608E+02  0.66968440504E+02  0.00000000000E+00 0.  1.
         21    1    1    2  504  501  0.94484369420E+02  0.55073217587E+02  0.25365777933E+02  0.11226654912E+03  0.00000000000E+00 0.  1.
         21    1    1    2  505  502 -0.28415524569E+03 -0.11008859969E+03 -0.20588817167E+03  0.36776846340E+03  0.00000000000E+00 0.  1.
          2    1    1    2  501    0  0.14269784982E+03  0.55835416225E+02 -0.19122841800E+03  0.24504811344E+03  0.00000000000E+00 0. -1.
<scales pt_clust_3="40.55884" pt_clust_4="40.55884" pt_clust_5="175.42986" pt_clust_6="153.23273"></scales>
<clustering>
<clus scale="   40.559">  3  4 -1 -1</clus>
<clus scale="  153.233">  2  6  1 -1</clus>
<clus scale="  175.430">  2  5  1 -1</clus>
<clus scale="  186.024">  1  3  2 -1</clus>
</clustering>
</event>
<event>
 6    0  0.4189111E+002  0.8518156E+02  0.7546771E-02  0.1314958E+00
         21   -1    0    0  505  502  0.00000000000E+00  0.00000000000E+00  0.12831568573E+04  0.12831568573E+04  0.00000000000E+00 0. -1.
         -1   -1    0    0    0  501 -0.00000000000E+00 -0.00000000000E+00 -0.51268491309E+03  0.51268491309E+03  0.00000000000E+00 0. -1.
         21    1    1    2  503  501  0.20112417062E+02 -0.34127127615E+02 -0.44913429981E+02  0.59886445478E+02  0.00000000000E+00 0. -1.
         21    1    1    2  504  502 -0.27891117878E+02 -0.80480172388E+02  0.12109321144E+04  0.12139240332E+04  0.00000000000E+00 0. -1.
         21    1    1    2  505  503 -0.64624337602E+02  0.47939073108E+02  0.29528065959E+02  0.85710946910E+02  0.00000000000E+00 0. -1.
         -1    1    1    2    0  504  0.72403038418E+02  0.66668226895E+02 -0.42507480618E+03  0.43632034482E+03  0.00000000000E+00 0. -1.
<scales pt_clust_3="39.61275" pt_clust_4="14000.00000" pt_clust_5="78.24296" pt_clust_6="85.18156"></scales>
<clustering>
<clus scale="   39.613">  2  3  1 -1</clus>
<clus scale="   78.243">  2  5  1 -1</clus>
<clus scale="   85.182">  2  6  1 -1</clus>
<clus scale="   85.182">  1  3  2 -1</clus>
</clustering>
</event>
<event>
 6    0  0.5124293E+002  0.1433161E+03  0.7546771E-02  0.1208935E+00
         21   -1    0    0  501  502  0.00000000000E+00  0.00000000000E+00  0.37700826495E+03  0.37700826495E+03  0.00000000000E+00 0. -1.
          2   -1    0    0  504    0 -0.00000000000E+00 -0.00000000000E+00 -0.99835903699E+03  0.99835903699E+03  0.00000000000E+00 0. -1.
         21    1    1    2  503  502  0.16171372629E+02 -0.26352617896E+02  0.25671450793E+02  0.40187027117E+02  0.00000000000E+00 0. -1.
         21    1    1    2  504  505  0.30376681492E+02 -0.21779336637E+02 -0.29364828009E+02  0.47532887634E+02  0.00000000000E+00 0. -1.
         21    1    1    2  505  503 -0.14915043110E+03  0.79843074121E+02  0.31034003289E+03  0.35345679170E+03  0.00000000000E+00 0. -1.
          2    1    1    2  501    0  0.10260237698E+03 -0.31711119588E+02 -0.92799742771E+03  0.93419059549E+03  0.00000000000E+00 0. -1.
<scales pt_clust_3="30.91883" pt_clust_4="38.13125" pt_clust_5="14000.00000" pt_clust_6="143.31609"></scales>
<clustering>
<clus scale="   30.919">  1  3  2 -1</clus>
<clus scale="   38.131">  2  4  1 -1</clus>
<clus scale="  143.316">  2  6  1 -1</clus>
<clus scale="   30.919">  1  3  2 -1</clus>
</clustering>
</event>
<event>
 6    0  0.4189111E+002  0.7609404E+02  0.7546771E-02  0.1340516E+00
          1   -1    0    0  504    0 -0.00000000000E+00  0.00000000000E+00  0.15026167363E+04  0.15026167363E+04  0.00000000000E+00 0. -1.
         21   -1    0    0  505  502  0.00000000000E+00 -0.00000000000E+00 -0.60204689652E+02  0.60204689652E+02  0.00000000000E+00 0. -1.
         21    1    1    2  503  502  0.29347975331E+02 -0.22901676394E+02 -0.32731261645E+02  0.49569405146E+02  0.00000000000E+00 0. -1.
         21    1    1    2  504  503 -0.28994040967E+02  0.60480908433E+02  0.72032595451E+03  0.72344182588E+03  0.00000000000E+00 0. -1.
         21    1    1    2  505  501 -0.41241491573E+02  0.47586918251E+02  0.54890704739E+02  0.83536608038E+02  0.00000000000E+00 0. -1.
          1    1    1    2  501    0  0.40887557209E+02 -0.85166150290E+02  0.69992664909E+03  0.70627358693E+03  0.00000000000E+00 0. -1.
<scales pt_clust_3="37.22621" pt_clust_4="14000.00000" pt_clust_5="35.92166" pt_clust_6="76.09404"></scales>
<clustering>
<clus scale="   37.226">  2  3  1 -1</clus>
<clus scale="   35.922">  2  5  1 -1</clus>
<clus scale="   76.094">  2  6  1 -1</clus>
<clus scale="   37.226">  2  3  1 -1</clus>
</clustering>
</event>
<event>
 6    0  0.4189111E+002  0.8616344E+02  0.7546771E-02  0.1312418E+00
         21   -1    0    0  505  502  0.00000000000E+00  0.00000000000E+00  0.12603021812E+04  0.12603021812E+04  0.00000000000E+00 0.  1.
          1   -1    0    0  504    0 -0.00000000000E+00 -0.00000000000E+00 -0.21079778164E+03  0.21079778164E+03  0.00000000000E+00 0.  1.
         21    1    1    2  503  502  0.23002314900E+00 -0.32234613186E+02  0.53312791578E+03  0.53410158002E+03  0.00000000000E+00 0.  1.
         21    1    1    2  504  503  0.64080727846E+02 -0.40983147326E+02  0.59527158641E+03  0.60011183927E+03  0.00000000000E+00 0.  1.
         21    1    1    2  505  501  0.18809093739E+02  0.93766184979E+02  0.10011592415E+03  0.13845243848E+03  0.00000000000E+00 0.  1.
          1    1    1    2  501    0 -0.83119844734E+02 -0.20548424467E+02 -0.17901102679E+03  0.19843410506E+03  0.00000000000E+00 0.  1.
<scales pt_clust_3="32.23543" pt_clust_4="14000.00000" pt_clust_5="86.16344" pt_clust_6="85.72354"></scales>
<clustering>
<clus scale="   32.235">  1  3  2 -1</clus>
<clus scale="   85.724">  2  6  1 -1</clus>
<clus scale="   86.163">  2  5  1 -1</clus>
<clus scale="   32.235">  1  3  2 -1</clus>
</clustering>
</event>
<event>
 6    0  0.4189111E+002  0.7772591E+02  0.7546771E-02  0.1335632E+00
         21   -1    0    0  505  502  0.00000000000E+00  0.00000000000E+00  0.30866629358E+03  0.30866629358E+03  0.00000000000E+00 0.  1.
          2   -1    0    0  504    0 -0.00000000000E+00 -0.00000000000E+00 -0.53438369690E+03  0.53438369690E+03  0.00000000000E+00 0.  1.
         21    1    1    2  503  502 -0.22725878726E+02  0.10323339723E+03  0.97727012765E+02  0.14395891390E+03  0.00000000000E+00 0.  1.
         21    1    1    2  504  503  0.42721313000E+02 -0.77722140681E+02 -0.18886108063E+03  0.20864886655E+03  0.00000000000E+00 0.  1.
         21    1    1    2  505  501 -0.19653481257E+02 -0.68925121610E+02  0.16910480197E+03  0.18366645247E+03  0.00000000000E+00 0.  1.
          2    1    1    2  501    0 -0.34195301661E+00  0.43413865057E+02 -0.30368813743E+03  0.30677575756E+03  0.00000000000E+00 0.  1.
<scales pt_clust_3="14000.00000" pt_clust_4="58.35433" pt_clust_5="77.72591" pt_clust_6="43.41521"></scales>
<clustering>
<clus scale="   43.415">  2  6  1 -1</clus>
<clus scale="   58.354">  2  4  1 -1</clus>
<clus scale="   77.726">  1  5  2 -1</clus>
<clus scale="   77.726">  1  3  2 -1</clus>
</clustering>
</event>
<event>
 6    0  0.4189111E+002  0.1564400E+03  0.7546771E-02  0.1192776E+00
         21   -1    0    0  505  502  0.00000000000E+00  0.00000000000E+00  0.68028561482E+03  0.68028561482E+03  0.00000000000E+00 0.  1.
         -3   -1    0    0    0  501 -0.00000000000E+00 -0.00000000000E+00 -0.32225086927E+03  0.32225086927E+03  0.00000000000E+00 0.  1.
         21    1    1    2  503  502 -0.12941520407E+03  0.88551886672E+02  0.61663168473E+03  0.63625809723E+03  0.00000000000E+00 0.  1.
         21    1    1    2  504  501  0.22316022187E+02 -0.26212254552E+02  0.90480514869E+01  0.35594302503E+02  0.00000000000E+00 0.  1.
         21    1    1    2  505  504 -0.34122105756E+02 -0.99735193475E+01 -0.19881339648E+02  0.40731521646E+02  0.00000000000E+00 0. -1.
         -3    1    1    2    0  503  0.14122128764E+03 -0.52366112772E+02 -0.24776365102E+03  0.28995256270E+03  0.00000000000E+00 0.  1.
<scales pt_clust_3="156.43996" pt_clust_4="34.42509" pt_clust_5="34.30884" pt_clust_6="14000.00000"></scales>
<clustering>
<clus scale="   34.425">  2  4  1 -1</clus>
<clus scale="   34.309">  2  5  1 -1</clus>
<clus scale="  156.440">  1  3  2 -1</clus>
<clus scale="  156.440">  1  3  2 -1</clus>
</clustering>
</event>
<event>
 6    0  0.4189111E+002  0.8002368E+02  0.7546771E-02  0.1328984E+00
          2   -1    0    0  503    0 -0.00000000000E+00  0.00000000000E+00  0.15292141674E+04  0.15292141674E+04  0.00000000000E+00 0.  1.
         21   -1    0    0  505  502  0.00000000000E+00 -0.00000000000E+00 -0.76308224877E+02  0.76308224877E+02  0.00000000000E+00 0.  1.
         21    1    1    2  503  502 -0.73660649183E+02  0.65462722238E+02  0.28820875675E+03  0.30459078566E+03  0.00000000000E+00 0.  1.
         21    1    1    2  504  501  0.15394830269E+02 -0.89015540262E+02  0.58413404885E+03  0.59107812870E+03  0.00000000000E+00 0.  1.
         21    1    1    2  505  504  0.34694737147E+02 -0.10427879882E+02 -0.58848526679E+02  0.69105821440E+02  0.00000000000E+00 0.  1.
          2    1    1    2  501    0  0.23571081766E+02  0.33980697906E+02  0.63941166360E+03  0.64074765647E+03  0.00000000000E+00 0.  1.
<scales pt_clust_3="80.02368" pt_clust_4="14000.00000" pt_clust_5="36.22797" pt_clust_6="42.00413"></scales>
<clustering>
<clus scale="   36.228">  2  5  1 -1</clus>
<clus scale="   42.004">  1  6  2 -1</clus>
<clus scale="   80.024">  2  3  1 -1</clus>
<clus scale="   36.228">  2  3  1 -1</clus>
</clustering>
</event>
<event>
 6    0  0.4189111E+002  0.9625287E+02  0.7546771E-02  0.1288379E+00
         21   -1    0    0  505  502  0.00000000000E+00  0.00000000000E+00  0.53273260150E+03  0.53273260150E+03  0.00000000000E+00 0.  1.
          2   -1    0    0  504    0 -0.00000000000E+00 -0.00000000000E+00 -0.75739129124E+03  0.75739129124E+03  0.00000000000E+00 0.  1.
         21    1    1    2  503  501  0.45337879490E+02 -0.57344354249E+02  0.16035005207E+03  0.17622723251E+03  0.00000000000E+00 0. -1.
         21    1    1    2  504  502 -0.14357198601E+03  0.15849156572E+02 -0.60914191438E+03  0.62603353168E+03  0.00000000000E+00 0.  1.
         21    1    1    2  505  503  0.32749930666E+02 -0.28114121318E+01  0.34329050613E+03  0.34486060024E+03  0.00000000000E+00 0.  1.
          2    1    1    2  501    0  0.65484175853E+02  0.44306609810E+02 -0.11915733357E+03  0.14300252831E+03  0.00000000000E+00 0.  1.
<scales pt_clust_3="96.25287" pt_clust_4="14000.00000" pt_clust_5="32.87038" pt_clust_6="80.69008"></scales>
<clustering>
<clus scale="   32.870">  1  5  2 -1</clus>
<clus scale="   80.690">  2  6  1 -1</clus>
<clus scale="   96.253">  1  3  2 -1</clus>
<clus scale="   32.870">  1  3  2 -1</clus>
</clustering>
</event>
<event>
 6    0  0.4189111E+002  0.1283372E+03  0.7546771E-02  0.1229944E+00
         21   -1    0    0  504  502  0.00000000000E+00  0.00000000000E+00  0.18752290996E+04  0.18752290996E+04  0.00000000000E+00 0. -1.
          2   -1    0    0  505    0 -0.00000000000E+00 -0.00000000000E+00 -0.21869253925E+03  0.21869253925E+03  0.00000000000E+00 0. -1.
         21    1    1    2  503  501 -0.10787209557E+02  0.55363253662E+02 -0.71706913023E+02  0.91232314020E+02  0.00000000000E+00 0. -1.
         21    1    1    2  504  503 -0.45130775868E+02  0.81632578425E+01  0.16356487897E+04  0.16362916577E+04  0.00000000000E+00 0. -1.
         21    1    1    2  505  502  0.10950425036E+03 -0.10732016851E+03  0.19172892450E+03  0.24549700590E+03  0.00000000000E+00 0. -1.
          2    1    1    2  501    0 -0.53586264938E+02  0.43793657010E+02 -0.99134240839E+02  0.12090066125E+03  0.00000000000E+00 0. -1.
<scales pt_clust_3="38.70077" pt_clust_4="45.86312" pt_clust_5="120.96605" pt_clust_6="38.70077"></scales>
<clustering>
<clus scale="   38.701">  3  6 -1 -1</clus>
<clus scale="   45.863">  1  4  2 -1</clus>
<clus scale="  120.966">  1  5  2 -1</clus>
<clus scale="   45.863">  1  3  2 -1</clus>
</clustering>
</event>
<event>
 6    0  0.4189111E+002  0.1136149E+03  0.7546771E-02  0.1254018E+00
          1   -1    0    0  505    0 -0.00000000000E+00  0.00000000000E+00  0.54311611960E+03  0.54311611960E+03  0.00000000000E+00 0. -1.
         21   -1    0    0  504  502  0.00000000000E+00 -0.00000000000E+00 -0.12648758578E+04  0.12648758578E+04  0.00000000000E+00 0. -1.
         21    1    1    2  503  502  0.29039530478E+02 -0.26674463265E+02 -0.11851385927E+04  0.11857943773E+04  0.00000000000E+00 0. -1.
         21    1    1    2  504  501 -0.55824499004E+01 -0.29536980266E+02 -0.14028898502E+02  0.33172382237E+02  0.00000000000E+00 0.  1.
         21    1    1    2  505  503  0.55261226588E+02 -0.35724565443E+02 -0.26386538113E+02  0.70896383079E+02  0.00000000000E+00 0. -1.
          1    1    1    2  501    0 -0.78718307166E+02  0.91936008973E+02  0.50379429114E+03  0.51812883477E+03  0.00000000000E+00 0. -1.
<scales pt_clust_3="59.78515" pt_clust_4="30.05989" pt_clust_5="113.61489" pt_clust_6="14000.00000"></scales>
<clustering>
<clus scale="   30.060">  2  4  1 -1</clus>
<clus scale="   59.785">  2  3  1 -1</clus>
<clus scale="  113.615">  2  5  1 -1</clus>
<clus scale="   30.060">  2  3  1 -1</clus>
</clustering>
</event>
<event>
 6    0  0.4189111E+002  0.1717140E+03  0.7546771E-02  0.1176072E+00
         -1   -1    0    0    0  501 -0.00000000000E+00  0.00000000000E+00  0.46493632722E+03  0.46493632722E+03  0.00000000000E+00 0. -1.
         21   -1    0    0  504  502  0.00000000000E+00 -0.00000000000E+00 -0.93350175840E+03  0.93350175840E+03  0.00000000000E+00 0. -1.
         21    1    1    2  503  505 -0.51444409519E+02  0.13296556990E+03  0.20067623479E+03  0.24616523162E+03  0.00000000000E+00 0. -1.
         21    1    1    2  504  501  0.14673794564E+03 -0.23784521025E+02  0.85042491149E+02  0.17125990025E+03  0.00000000000E+00 0. -1.
         21    1    1    2  505  502 -0.11649220473E+03 -0.13486206357E+03 -0.85580887947E+03  0.87416648766E+03  0.00000000000E+00 0. -1.
         -1    1    1    2    0  503  0.21198668608E+02  0.25681014697E+02  0.10152472236E+03  0.10684646610E+03  0.00000000000E+00 0. -1.
<scales pt_clust_3="153.72207" pt_clust_4="14000.00000" pt_clust_5="171.71397" pt_clust_6="33.30012"></scales>
<clustering>
<clus scale="   33.300">  1  6  2 -1</clus>
<clus scale="  153.722">  1  3  2 -1</clus>
<clus scale="  171.714">  2  5  1 -1</clus>
<clus scale="  171.714">  2  3  1 -1</clus>
</clustering>
</event>
<event>
 6    0  0.4189111E+002  0.3088791E+03  0.7546771E-02  0.1080884E+00
          2   -1    0    0  505    0 -0.00000000000E+00  0.00000000000E+00  0.25743454386E+03  0.25743454386E+03  0.00000000000E+00 0. -1.
         21   -1    0    0  504  502  0.00000000000E+00 -0.00000000000E+00 -0.53431276510E+03  0.53431276510E+03  0.00000000000E+00 0.  1.
         21    1    1    2  503  502  0.71542376531E+02 -0.47246937439E+02 -0.81769473031E+02  0.11847713474E+03  0.00000000000E+00 0.  1.
         21    1    1    2  504  501 -0.96335262402E+02  0.84937893655E+02  0.87897636687E+01  0.12873301249E+03  0.00000000000E+00 0. -1.
         21    1    1    2  505  503  0.19792077309E+03 -0.16004888653E+02 -0.28881527014E+03  0.35048972759E+03  0.00000000000E+00 0.  1.
          2    1    1    2  501    0 -0.17312788722E+03 -0.21686067563E+02  0.84916758258E+02  0.19404743413E+03  0.00000000000E+00 0. -1.
<scales pt_clust_3="50.83748" pt_clust_4="117.62140" pt_clust_5="287.39671" pt_clust_6="117.62140"></scales>
<clustering>
<clus scale="   50.837">  3  5 -1 -1</clus>
<clus scale="  117.621">  4  6 -1 -1</clus>
<clus scale="  287.397">  2  3  1 -1</clus>
<clus scale="  287.397">  2  3  1 -1</clus>
</clustering>
</event>
<event>
 6    0  0.4189111E+002  0.1611280E+03  0.7546771E-02  0.1187429E+00
          2   -1    0    0  505    0 -0.00000000000E+00  0.00000000000E+00  0.22957391335E+03  0.22957391335E+03  0.00000000000E+00 0.  1.
         21   -1    0    0  504  502  0.00000000000E+00 -0.00000000000E+00 -0.62916734225E+03  0.62916734225E+03  0.00000000000E+00 0. -1.
         21    1    1    2  503  502  0.54752400983E+02 -0.45479358794E+02 -0.41345823854E+03  0.41954012026E+03  0.00000000000E+00 0. -1.
         21    1    1    2  504  501 -0.20327204017E+02 -0.30894924016E+02 -0.20053945249E+02  0.42069612230E+02  0.00000000000E+00 0. -1.
         21    1    1    2  505  503  0.56903659518E+02 -0.37892886324E+02 -0.14839593140E+03  0.16338681023E+03  0.00000000000E+00 0. -1.
          2    1    1    2  501    0 -0.91328856484E+02  0.11426716913E+03  0.18231468629E+03  0.23374471289E+03  0.00000000000E+00 0.  1.
<scales pt_clust_3="64.42565" pt_clust_4="36.98231" pt_clust_5="64.42565" pt_clust_6="145.79625"></scales>
<clustering>
<clus scale="   36.982">  2  4  1 -1</clus>
<clus scale="   64.426">  3  5 -1 -1</clus>
<clus scale="  145.796">  1  6  2 -1</clus>
<clus scale="   36.982">  2  3  1 -1</clus>
</clustering>
</event>
<event>
 6    0  0.4189111E+002  0.3061511E+03  0.7546771E-02  0.1082206E+00
          1   -1    0    0  503    0 -0.00000000000E+00  0.00000000000E+00  0.23693982314E+04  0.23693982314E+04  0.00000000000E+00 0. -1.
         21   -1    0    0  505  502  0.00000000000E+00 -0.00000000000E+00 -0.24042246003E+03  0.24042246003E+03  0.00000000000E+00 0.  1.
         21    1    1    2  503  502 -0.17215518387E+02 -0.20509407279E+03  0.50741046804E+03  0.54756308846E+03  0.00000000000E+00 0. -1.
         21    1    1    2  504  501  0.12911144393E+03  0.75941971199E+02  0.97491398723E+03  0.98635400868E+03  0.00000000000E+00 0. -1.
         21    1    1    2  505  504 -0.21540712883E+03  0.18430538526E+03 -0.11451863679E+03  0.30575026469E+03  0.00000000000E+00 0.  1.
          1    1    1    2  501    0  0.10351120328E+03 -0.55153283671E+02  0.76116995290E+03  0.77015332961E+03  0.00000000000E+00 0. -1.
<scales pt_clust_3="205.81534" pt_clust_4="114.64308" pt_clust_5="277.38671" pt_clust_6="114.64308"></scales>
<clustering>
<clus scale="  114.643">  4  6 -1 -1</clus>
<clus scale="  205.815">  1  3  2 -1</clus>
<clus scale="  277.387">  2  5  1 -1</clus>
<clus scale="  277.387">  2  3  1 -1</clus>
</clustering>
</event>
<event>
 6    0  0.4189111E+002  0.1264508E+03  0.7546771E-02  0.1232819E+00
          1   -1    0    0  502    0 -0.00000000000E+00  0.00000000000E+00  0.53955934360E+03  0.53955934360E+03  0.00000000000E+00 0. -1.
         21   -1    0    0  505  502  0.00000000000E+00 -0.00000000000E+00 -0.14869836612E+03  0.14869836612E+03  0.00000000000E+00 0.  1.
         21    1    1    2  503  501  0.19581878273E+02 -0.12404991405E+03  0.14776317610E+03  0.19392211670E+03  0.00000000000E+00 0.  1.
         21    1    1    2  504  503 -0.93484257932E+02  0.16794984005E+02  0.17889856215E+02  0.96651047197E+02  0.00000000000E+00 0.  1.
         21    1    1    2  505  504 -0.36637219652E+02 -0.15834566697E+01 -0.61555297412E+02  0.71650874651E+02  0.00000000000E+00 0.  1.
          1    1    1    2  501    0  0.11053959931E+03  0.10883838672E+03  0.28676324258E+03  0.32603367117E+03  0.00000000000E+00 0. -1.
<scales pt_clust_3="14000.00000" pt_clust_4="112.21058" pt_clust_5="36.67142" pt_clust_6="126.45083"></scales>
<clustering>
<clus scale="   36.671">  2  5  1 -1</clus>
<clus scale="  112.211">  2  4  1 -1</clus>
<clus scale="  126.451">  1  6  2 -1</clus>
<clus scale="   36.671">  2  3  1 -1</clus>
</clustering>
</event>
<event>
 6    0  0.4189111E+002  0.1063183E+03  0.7546771E-02  0.1267544E+00
         21   -1    0    0  504  502  0.00000000000E+00  0.00000000000E+00  0.65045331209E+03  0.65045331209E+03  0.00000000000E+00 0. -1.
          4   -1    0    0  503    0 -0.00000000000E+00 -0.00000000000E+00 -0.72593608042E+02  0.72593608042E+02  0.00000000000E+00 0.  1.
         21    1    1    2  503  502 -0.40170977100E+02 -0.87679139998E+02  0.61219019469E+02  0.11423268944E+03  0.00000000000E+00 0. -1.
         21    1    1    2  504  505  0.71532632634E+02 -0.24394284351E+02  0.47367926809E+03  0.47967077006E+03  0.00000000000E+00 0. -1.
         21    1    1    2  505  501 -0.22863737847E+02  0.56905261823E+02  0.40055788989E+02  0.73249065271E+02  0.00000000000E+00 0.  1.
          4    1    1    2  501    0 -0.84979176866E+01  0.55168162527E+02  0.29056275087E+01  0.55894395361E+02  0.00000000000E+00 0.  1.
<scales pt_clust_3="100.07613" pt_clust_4="75.57777" pt_clust_5="34.24377" pt_clust_6="34.24377"></scales>
<clustering>
<clus scale="   34.244">  5  6 -1 -1</clus>
<clus scale="   75.578">  1  4  2 -1</clus>
<clus scale="  100.076">  1  3  2 -1</clus>
<clus scale="   75.578">  1  3  2 -1</clus>
</clustering>
</event>
<event>
 6    0  0.4189111E+002  0.9802255E+02  0.7546771E-02  0.1284510E+00
         21   -1    0    0  504  502  0.00000000000E+00  0.00000000000E+00  0.12663848930E+04  0.12663848930E+04  0.00000000000E+00 0.  1.
          3   -1    0    0  505    0 -0.00000000000E+00 -0.00000000000E+00 -0.34025496918E+02  0.34025496918E+02  0.00000000000E+00 0.  1.
         21    1    1    2  503  502  0.21500038669E+02  0.89570145478E+02  0.64205096301E+03  0.64862508564E+03  0.00000000000E+00 0.  1.
         21    1    1    2  504  501  0.10137715518E+02 -0.11228579830E+03  0.50797491121E+03  0.52033583789E+03  0.00000000000E+00 0.  1.
         21    1    1    2  505  503  0.27112734284E+02  0.18283494397E+02  0.60205991667E+02  0.68513852324E+02  0.00000000000E+00 0.  1.
          3    1    1    2  501    0 -0.58750488471E+02  0.44321584277E+01  0.22127530191E+02  0.62935614054E+02  0.00000000000E+00 0.  1.
<scales pt_clust_3="98.02255" pt_clust_4="14000.00000" pt_clust_5="32.70148" pt_clust_6="43.64448"></scales>
<clustering>
<clus scale="   32.701">  2  5  1 -1</clus>
<clus scale="   43.644">  2  6  1 -1</clus>
<clus scale="   98.023">  1  3  2 -1</clus>
<clus scale="   98.023">  1  3  2 -1</clus>
</clustering>
</event>
<event>
 6    0  0.4189111E+002  0.9616054E+02  0.7546771E-02  0.1288583E+00
         21   -1    0    0  505  502  0.00000000000E+00  0.00000000000E+00  0.55795656125E+03  0.55795656125E+03  0.00000000000E+00 0.  1.
         -1   -1    0    0    0  501 -0.00000000000E+00 -0.00000000000E+00 -0.82235501235E+02  0.82235501235E+02  0.00000000000E+00 0.  1.
         21    1    1    2  503  501  0.21696021998E+02  0.51275920877E+02  0.11323198154E+03  0.12618010570E+03  0.00000000000E+00 0. -1.
         21    1    1    2  504  502  0.44801788726E+02 -0.37390149325E+01  0.11679997010E+03  0.12515355976E+03  0.00000000000E+00 0.  1.
         21    1    1    2  505  503 -0.22208334281E+00  0.42419486845E+02  0.27099412261E+03  0.27429414262E+03  0.00000000000E+00 0.  1.
         -1    1    1    2    0  504 -0.66275727381E+02 -0.89956392789E+02 -0.25305014225E+02  0.11456425441E+03  0.00000000000E+00 0.  1.
<scales pt_clust_3="14000.00000" pt_clust_4="46.92294" pt_clust_5="42.42007" pt_clust_6="96.16054"></scales>
<clustering>
<clus scale="   42.420">  1  5  2 -1</clus>
<clus scale="   46.923">  1  4  2 -1</clus>
<clus scale="   96.161">  2  6  1 -1</clus>
<clus scale="   42.420">  1  3  2 -1</clus>
</clustering>
</event>
<event>
 6    0  0.4189111E+002  0.1036241E+03  0.7546771E-02  0.1272854E+00
          1   -1    0    0  503    0 -0.00000000000E+00  0.00000000000E+00  0.10323758245E+04  0.10323758245E+04  0.00000000000E+00 0.  1.
         21   -1    0    0  501  502  0.00000000000E+00 -0.00000000000E+00 -0.34388749656E+02  0.34388749656E+02  0.00000000000E+00 0.  1.
         21    1    1    2  503  505  0.88293648321E+01 -0.34494399711E+02  0.17504179816E+03  0.17862657249E+03  0.00000000000E+00 0.  1.
         21    1    1    2  504  502 -0.32378009803E+02 -0.10991828516E+01  0.69480582974E+01  0.33133355336E+02  0.00000000000E+00 0.  1.
         21    1    1    2  505  504 -0.65970675814E+02  0.61228910602E+02  0.10657253437E+03  0.13949485526E+03  0.00000000000E+00 0.  1.
          1    1    1    2  501    0  0.89519320785E+02 -0.25635328040E+02  0.70942468397E+03  0.71550979103E+03  0.00000000000E+00 0.  1.
<scales pt_clust_3="35.12146" pt_clust_4="32.39666" pt_clust_5="103.62410" pt_clust_6="14000.00000"></scales>
<clustering>
<clus scale="   32.397">  2  4  1 -1</clus>
<clus scale="   35.121">  1  3  2 -1</clus>
<clus scale="  103.624">  2  5  1 -1</clus>
<clus scale="   32.397">  2  3  1 -1</clus>
</clustering>
</event>
<event>
 6    0  0.4189111E+002  0.7751414E+02  0.7546771E-02  0.1336258E+00
         21   -1    0    0  503  502  0.00000000000E+00  0.00000000000E+00  0.27453640339E+04  0.27453640339E+04  0.00000000000E+00 0.  1.
         -4   -1    0    0    0  501 -0.00000000000E+00 -0.00000000000E+00 -0.20215741972E+02  0.20215741972E+02  0.00000000000E+00 0.  1.
         21    1    1    2  503  501 -0.59191830007E+02 -0.44245573417E+02  0.44876506225E+03  0.45480921781E+03  0.00000000000E+00 0.  1.
         21    1    1    2  504  502  0.43915873043E+02 -0.67547933091E+02  0.19826381013E+04  0.19842744689E+04  0.00000000000E+00 0.  1.
         21    1    1    2  505  504  0.46937336047E+02  0.66924393761E+02  0.12785422240E+03  0.15175206813E+03  0.00000000000E+00 0.  1.
         -4    1    1    2    0  505 -0.31661379083E+02  0.44869112746E+02  0.16589090591E+03  0.17474402098E+03  0.00000000000E+00 0.  1.
<scales pt_clust_3="74.35905" pt_clust_4="77.51414" pt_clust_5="14000.00000" pt_clust_6="54.91521"></scales>
<clustering>
<clus scale="   54.915">  2  6  1 -1</clus>
<clus scale="   74.359">  2  3  1 -1</clus>
<clus scale="   77.514">  1  4  2 -1</clus>
<clus scale="   77.514">  1  3  2 -1</clus>
</clustering>
</event>
<event>
 6    0  0.4189111E+002  0.1628123E+03  0.7546771E-02  0.1185558E+00
          2   -1    0    0  502    0 -0.00000000000E+00  0.00000000000E+00  0.23390960367E+04  0.23390960367E+04  0.00000000000E+00 0.  1.
         21   -1    0    0  504  502  0.00000000000E+00 -0.00000000000E+00 -0.86596732382E+03  0.86596732382E+03  0.00000000000E+00 0.  1.
         21    1    1    2  503  501 -0.21430600108E+02 -0.10121506840E+03  0.12059370694E+04  0.12103668766E+04  0.00000000000E+00 0.  1.
         21    1    1    2  504  505 -0.29989234944E+02 -0.94971505255E+01 -0.53292585543E+03  0.53385346067E+03  0.00000000000E+00 0.  1.
         21    1    1    2  505  503  0.39030672661E+02  0.16260585459E+03 -0.30851845271E+03  0.35092405591E+03  0.00000000000E+00 0.  1.
          2    1    1    2  501    0  0.12389162390E+02 -0.51893635666E+02  0.11086359516E+04  0.11099189673E+04  0.00000000000E+00 0.  1.
<scales pt_clust_3="39.01265" pt_clust_4="31.45711" pt_clust_5="153.47225" pt_clust_6="39.01265"></scales>
<clustering>
<clus scale="   31.457">  2  4  1 -1</clus>
<clus scale="   39.013">  3  6 -1 -1</clus>
<clus scale="  153.472">  2  5  1 -1</clus>
<clus scale="   31.457">  2  3  1 -1</clus>
</clustering>
</event>
<event>
 6    0  0.4189111E+002  0.8414094E+02  0.7546771E-02  0.1317694E+00
          2   -1    0    0  505    0 -0.00000000000E+00  0.00000000000E+00  0.13883211349E+04  0.13883211349E+04  0.00000000000E+00 0. -1.
         21   -1    0    0  504  502  0.00000000000E+00 -0.00000000000E+00 -0.35340749329E+02  0.35340749329E+02  0.00000000000E+00 0.  1.
         21    1    1    2  503  502  0.40408404931E+02 -0.30670495094E+02  0.43879133750E+02  0.67073816329E+02  0.00000000000E+00 0.  1.
         21    1    1    2  504  501 -0.10755774036E+03  0.81687582186E+02  0.18937742920E+03  0.23260554440E+03  0.00000000000E+00 0.  1.
         21    1    1    2  505  503  0.30912393695E+02 -0.10258949106E+02  0.19925268602E+03  0.20189713967E+03  0.00000000000E+00 0.  1.
          2    1    1    2  501    0  0.36236941735E+02 -0.40758137986E+02  0.92047113657E+03  0.92208538380E+03  0.00000000000E+00 0. -1.
<scales pt_clust_3="52.17194" pt_clust_4="84.14094" pt_clust_5="32.57026" pt_clust_6="14000.00000"></scales>
<clustering>
<clus scale="   32.570">  1  5  2 -1</clus>
<clus scale="   52.172">  2  3  1 -1</clus>
<clus scale="   84.141">  2  4  1 -1</clus>
<clus scale="   52.172">  2  3  1 -1</clus>
</clustering>
</event>
<event>
 6    0  0.4189111E+002  0.1299048E+03  0.7546771E-02  0.1227597E+00
         -2   -1    0    0    0  501 -0.00000000000E+00  0.00000000000E+00  0.16953542041E+03  0.16953542041E+03  0.00000000000E+00 0.  1.
         21   -1    0    0  504  502  0.00000000000E+00 -0.00000000000E+00 -0.19045781835E+03  0.19045781835E+03  0.00000000000E+00 0. -1.
         21    1    1    2  503  501  0.81056213417E+01 -0.13167114795E+03 -0.25461684825E+02  0.13435508809E+03  0.00000000000E+00 0. -1.
         21    1    1    2  504  503  0.29323026084E+02  0.23357715245E+02 -0.69939770046E+02  0.79353602024E+02  0.00000000000E+00 0. -1.
         21    1    1    2  505  502 -0.16195016573E+02  0.59370018694E+02  0.95946587403E+01  0.62282703521E+02  0.00000000000E+00 0. -1.
         -2    1    1    2    0  505 -0.21233630853E+02  0.48943414016E+02  0.64884398197E+02  0.84001845124E+02  0.00000000000E+00 0.  1.
<scales pt_clust_3="118.97863" pt_clust_4="37.48897" pt_clust_5="47.49641" pt_clust_6="47.49641"></scales>
<clustering>
<clus scale="   37.489">  2  4  1 -1</clus>
<clus scale="   47.496">  5  6 -1 -1</clus>
<clus scale="  118.979">  2  3  1 -1</clus>
<clus scale="   37.489">  2  3  1 -1</clus>
</clustering>
</event>
<event>
 6    0  0.4189111E+002  0.1055829E+03  0.7546771E-02  0.1268975E+00
         21   -1    0    0  505  502  0.00000000000E+00  0.00000000000E+00  0.14991383676E+03  0.14991383676E+03  0.00000000000E+00 0. -1.
         -4   -1    0    0    0  501 -0.00000000000E+00 -0.00000000000E+00 -0.68910692496E+03  0.68910692496E+03  0.00000000000E+00 0.  1.
         21    1    1    2  503  504  0.48639764917E+01  0.61402991207E+02 -0.42120641139E+03  0.42568630068E+03  0.00000000000E+00 0.  1.
         21    1    1    2  504  502  0.35269842557E+01 -0.11684763311E+03 -0.10881100102E+03  0.15970486193E+03  0.00000000000E+00 0. -1.
         21    1    1    2  505  501 -0.32915376831E+02  0.28823011479E+02  0.11565671979E+03  0.12365542792E+03  0.00000000000E+00 0. -1.
         -4    1    1    2    0  503  0.24524416083E+02  0.26621630422E+02 -0.12483239557E+03  0.12997417118E+03  0.00000000000E+00 0.  1.
<scales pt_clust_3="34.18092" pt_clust_4="95.70571" pt_clust_5="43.75143" pt_clust_6="34.18092"></scales>
<clustering>
<clus scale="   34.181">  3  6 -1 -1</clus>
<clus scale="   43.751">  1  5  2 -1</clus>
<clus scale="   95.706">  1  4  2 -1</clus>
<clus scale="   43.751">  1  3  2 -1</clus>
</clustering>
</event>
<event>
 6    0  0.4189111E+002  0.9743635E+02  0.7546771E-02  0.1285781E+00
         -2   -1    0    0    0  501 -0.00000000000E+00  0.00000000000E+00  0.21268821263E+03  0.21268821263E+03  0.00000000000E+00 0.  1.
         21   -1    0    0  503  502  0.00000000000E+00 -0.00000000000E+00 -0.38992478308E+03  0.38992478308E+03  0.00000000000E+00 0.  1.
         21    1    1    2  503  505 -0.10875312423E+02 -0.34265090022E+02 -0.61840813631E+02  0.71530797878E+02  0.00000000000E+00 0. -1.
         21    1    1    2  504  502 -0.84971795421E+02  0.44432663987E+02 -0.28282810431E+03  0.29864059374E+03  0.00000000000E+00 0.  1.
         21    1    1    2  505  501 -0.26530333708E+02 -0.21646970516E+02  0.17151787878E+02  0.38296654770E+02  0.00000000000E+00 0.  1.
         -2    1    1    2    0  504  0.12237744155E+03  0.11479396551E+02  0.15028055961E+03  0.19414494931E+03  0.00000000000E+00 0.  1.
<scales pt_clust_3="36.70350" pt_clust_4="97.43635" pt_clust_5="34.24106" pt_clust_6="14000.00000"></scales>
<clustering>
<clus scale="   34.241">  1  5  2 -1</clus>
<clus scale="   36.704">  2  3  1 -1</clus>
<clus scale="   97.436">  2  4  1 -1</clus>
<clus scale="   36.704">  2  3  1 -1</clus>
</clustering>
</event>
<event>
 6    0  0.4189111E+002  0.1059614E+03  0.7546771E-02  0.1268237E+00
          2   -1    0    0  505    0 -0.00000000000E+00  0.00000000000E+00  0.18192459484E+04  0.18192459484E+04  0.00000000000E+00 0.  1.
         21   -1    0    0  503  502  0.00000000000E+00 -0.00000000000E+00 -0.18458136607E+03  0.18458136607E+03  0.00000000000E+00 0. -1.
         21    1    1    2  503  504  0.62659311450E+02 -0.11026284417E+03 -0.61886464934E+02  0.14111703887E+03  0.00000000000E+00 0. -1.
         21    1    1    2  504  501 -0.46045818084E+00  0.48705399602E+02  0.53545615205E+03  0.53766692175E+03  0.00000000000E+00 0. -1.
         21    1    1    2  505  502 -0.47572657123E+02  0.15683197430E+02 -0.73808854868E+02  0.89201274903E+02  0.00000000000E+00 0. -1.
          2    1    1    2  501    0 -0.14626196147E+02  0.45874247141E+02  0.12349037501E+04  0.12358420790E+04  0.00000000000E+00 0.  1.
<scales pt_clust_3="96.12880" pt_clust_4="44.32051" pt_clust_5="50.09112" pt_clust_6="44.32051"></scales>
<clustering>
<clus scale="   44.321">  4  6 -1 -1</clus>
<clus scale="   50.091">  2  5  1 -1</clus>
<clus scale="   96.129">  2  3  1 -1</clus>
<clus scale="   50.091">  2  3  1 -1</clus>
</clustering>
</event>
<event>
 6    0  0.4189111E+002  0.8447949E+02  0.7546771E-02  0.1316799E+00
         21   -1    0    0  505  502  0.00000000000E+00  0.00000000000E+00  0.13259869623E+04  0.13259869623E+04  0.00000000000E+00 0.  1.
         -3   -1    0    0    0  501 -0.00000000000E+00 -0.00000000000E+00 -0.45996111679E+03  0.45996111679E+03  0.00000000000E+00 0.  1.
         21    1    1    2  503  501 -0.65350182955E+02 -0.44137769096E+02 -0.30498390160E+03  0.31501423668E+03  0.00000000000E+00 0. -1.
         21    1    1    2  504  502 -0.91617912015E+02  0.13651316205E+02  0.12207215069E+04  0.12242308597E+04  0.00000000000E+00 0.  1.
         21    1    1    2  505  503  0.31380519503E+02  0.15201987208E+02  0.66389899042E+02  0.74989706721E+02  0.00000000000E+00 0.  1.
         -3    1    1    2    0  504  0.12558757547E+03  0.15284465683E+02 -0.11610165882E+03  0.17171327608E+03  0.00000000000E+00 0.  1.
<scales pt_clust_3="84.47949" pt_clust_4="67.36318" pt_clust_5="34.86886" pt_clust_6="14000.00000"></scales>
<clustering>
<clus scale="   34.869">  1  5  2 -1</clus>
<clus scale="   67.363">  1  4  2 -1</clus>
<clus scale="   84.479">  2  3  1 -1</clus>
<clus scale="   34.869">  1  3  2 -1</clus>
</clustering>
</event>
<event>
 6    0  0.4189111E+002  0.1846904E+03  0.7546771E-02  0.1163339E+00
         21   -1    0    0  503  502  0.00000000000E+00  0.00000000000E+00  0.21284794901E+03  0.21284794901E+03  0.00000000000E+00 0.  1.
          1   -1    0    0  505    0 -0.00000000000E+00 -0.00000000000E+00 -0.40668524397E+03  0.40668524397E+03  0.00000000000E+00 0. -1.
         21    1    1    2  503  501 -0.26795328164E+02  0.96444754349E+02 -0.17526219754E+03  0.20183264885E+03  0.00000000000E+00 0. -1.
         21    1    1    2  504  502 -0.14165592245E+01 -0.14142876794E+03  0.14076986862E+03  0.19955014145E+03  0.00000000000E+00 0.  1.
         21    1    1    2  505  504  0.17771316204E+02 -0.30980626252E+02  0.56953519359E+01  0.36167055676E+02  0.00000000000E+00 0.  1.
          1    1    1    2  501    0  0.10440571184E+02  0.75964639845E+02 -0.16504031797E+03  0.18198334701E+03  0.00000000000E+00 0. -1.
<scales pt_clust_3="34.08299" pt_clust_4="32.24755" pt_clust_5="32.24755" pt_clust_6="177.50751"></scales>
<clustering>
<clus scale="   32.248">  4  5 -1 -1</clus>
<clus scale="   34.083">  3  6 -1 -1</clus>
<clus scale="  177.508">  2  3  1 -1</clus>
<clus scale="  184.690">  1  3  2 -1</clus>
</clustering>
</event>
<event>
 6    0  0.4189111E+002  0.2240899E+03  0.7546771E-02  0.1130870E+00
         21   -1    0    0  503  502  0.00000000000E+00  0.00000000000E+00  0.26247460405E+04  0.26247460405E+04  0.00000000000E+00 0. -1.
         -1   -1    0    0    0  501 -0.00000000000E+00 -0.00000000000E+00 -0.17904667967E+03  0.17904667967E+03  0.00000000000E+00 0. -1.
         21    1    1    2  503  504  0.25177468289E+03  0.13162503217E+03  0.19418176818E+04  0.19624911590E+04  0.00000000000E+00 0. -1.
         21    1    1    2  504  501 -0.99211205362E+02 -0.12758021284E+03  0.91854964470E+02  0.18589488556E+03  0.00000000000E+00 0. -1.
         21    1    1    2  505  502 -0.26033853018E+02 -0.60700597330E+02  0.49129169718E+03  0.49571146420E+03  0.00000000000E+00 0. -1.
         -1    1    1    2    0  505 -0.12652962451E+03  0.56655777999E+02 -0.79264982616E+02  0.15969521135E+03  0.00000000000E+00 0. -1.
<scales pt_clust_3="224.08995" pt_clust_4="14000.00000" pt_clust_5="66.04789" pt_clust_6="138.62072"></scales>
<clustering>
<clus scale="   66.048">  1  5  2 -1</clus>
<clus scale="  138.621">  2  6  1 -1</clus>
<clus scale="  224.090">  1  3  2 -1</clus>
<clus scale="   66.048">  1  3  2 -1</clus>
</clustering>
</event>
<event>
 6    0  0.4189111E+002  0.6527566E+02  0.7546771E-02  0.1376938E+00
          2   -1    0    0  505    0 -0.00000000000E+00  0.00000000000E+00  0.39014692561E+03  0.39014692561E+03  0.00000000000E+00 0.  1.
         21   -1    0    0  501  502  0.00000000000E+00 -0.00000000000E+00 -0.21126113186E+03  0.21126113186E+03  0.00000000000E+00 0.  1.
         21    1    1    2  503  504  0.11310980242E+03  0.64848926335E+01  0.12424288767E+02  0.11397475241E+03  0.00000000000E+00 0.  1.
         21    1    1    2  504  502 -0.53087894261E+02  0.47072234302E+01 -0.14506037075E+03  0.15454123602E+03  0.00000000000E+00 0.  1.
         21    1    1    2  505  503 -0.20277732214E+02 -0.54631528189E+02  0.14524992767E+03  0.15650345614E+03  0.00000000000E+00 0. -1.
          2    1    1    2  501    0 -0.39744175944E+02  0.43439412125E+02  0.16627194806E+03  0.17638861289E+03  0.00000000000E+00 0.  1.
<scales pt_clust_3="65.27566" pt_clust_4="53.29618" pt_clust_5="59.74631" pt_clust_6="14000.00000"></scales>
<clustering>
<clus scale="   53.296">  2  4  1 -1</clus>
<clus scale="   59.746">  1  5  2 -1</clus>
<clus scale="   65.276">  2  3  1 -1</clus>
<clus scale="   53.296">  2  3  1 -1</clus>
</clustering>
</event>
<event>
 6    0  0.4189111E+002  0.1578451E+03  0.7546771E-02  0.1191151E+00
         21   -1    0    0  504  502  0.00000000000E+00  0.00000000000E+00  0.27881022443E+03  0.27881022443E+03  0.00000000000E+00 0.  1.
          2   -1    0    0  503    0 -0.00000000000E+00 -0.00000000000E+00 -0.11952124985E+04  0.11952124985E+04  0.00000000000E+00 0. -1.
         21    1    1    2  503  505  0.40275370530E+02  0.24784329894E+01 -0.41224667149E+03  0.41421681069E+03  0.00000000000E+00 0. -1.
         21    1    1    2  504  501 -0.17655245781E+03  0.39326723422E+01  0.93627302883E+02  0.19988073473E+03  0.00000000000E+00 0. -1.
         21    1    1    2  505  502  0.14247956654E+03  0.28215469458E+02  0.90244639246E+02  0.17099893132E+03  0.00000000000E+00 0.  1.
          2    1    1    2  501    0 -0.62024792644E+01 -0.34626574789E+02 -0.68802754472E+03  0.68892624621E+03  0.00000000000E+00 0. -1.
<scales pt_clust_3="43.63231" pt_clust_4="14000.00000" pt_clust_5="157.84514" pt_clust_6="35.17770"></scales>
<clustering>
<clus scale="   35.178">  2  6  1 -1</clus>
<clus scale="   43.632">  2  3  1 -1</clus>
<clus scale="  157.845">  1  5  2 -1</clus>
<clus scale="  157.845">  1  3  2 -1</clus>
</clustering>
</event>
<event>
 6    0  0.4189111E+002  0.1385199E+03  0.7546771E-02  0.1215335E+00
         21   -1    0    0  505  502  0.00000000000E+00  0.00000000000E+00  0.17243586644E+03  0.17243586644E+03  0.00000000000E+00 0.  1.
          1   -1    0    0  502    0 -0.00000000000E+00 -0.00000000000E+00 -0.29720805312E+04  0.29720805312E+04  0.00000000000E+00 0.  1.
         21    1    1    2  503  504  0.19711215678E+02 -0.10053219150E+03 -0.62758693418E+02  0.12014119673E+03  0.00000000000E+00 0. -1.
         21    1    1    2  504  501  0.10168212361E+02  0.75840494940E+02 -0.11361711271E+04  0.11387449246E+04  0.00000000000E+00 0.  1.
         21    1    1    2  505  503 -0.43276961549E+02 -0.28035133957E+02  0.13735207526E+03  0.14671215599E+03  0.00000000000E+00 0.  1.
          1    1    1    2  501    0  0.13397533511E+02  0.52726830519E+02 -0.17380669195E+04  0.17389181204E+04  0.00000000000E+00 0.  1.
<scales pt_clust_3="128.73388" pt_clust_4="43.12099" pt_clust_5="51.56417" pt_clust_6="43.12099"></scales>
<clustering>
<clus scale="   43.121">  4  6 -1 -1</clus>
<clus scale="   51.564">  1  5  2 -1</clus>
<clus scale="  128.734">  1  3  2 -1</clus>
<clus scale="   51.564">  1  3  2 -1</clus>
</clustering>
</event>
<event>
 6    0  0.4189111E+002  0.1106858E+03  0.7546771E-02  0.1259305E+00
          2   -1    0    0  503    0 -0.00000000000E+00  0.00000000000E+00  0.17957778476E+04  0.17957778476E+04  0.00000000000E+00 0. -1.
         21   -1    0    0  504  502  0.00000000000E+00 -0.00000000000E+00 -0.24967185595E+02  0.24967185595E+02  0.00000000000E+00 0. -1.
         21    1    1    2  503  505  0.10281384412E+02 -0.30835556024E+02  0.26874447482E+03  0.27070303124E+03  0.00000000000E+00 0. -1.
         21    1    1    2  504  501 -0.98191186111E+02 -0.59989912517E+02  0.21228094065E+03  0.24146116954E+03  0.00000000000E+00 0. -1.
         21    1    1    2  505  502  0.42387641882E+02  0.11119068544E+03  0.39815012788E+03  0.41555216886E+03  0.00000000000E+00 0. -1.
          2    1    1    2  501    0  0.45522159817E+02 -0.20365216896E+02  0.89163511868E+03  0.89302866357E+03  0.00000000000E+00 0. -1.
<scales pt_clust_3="32.50444" pt_clust_4="110.68580" pt_clust_5="14000.00000" pt_clust_6="64.26497"></scales>
<clustering>
<clus scale="   32.504">  1  3  2 -1</clus>
<clus scale="   64.265">  1  6  2 -1</clus>
<clus scale="  110.686">  2  4  1 -1</clus>
<clus scale="  110.686">  2  3  1 -1</clus>
</clustering>
</event>
<event>
 6    0  0.4189111E+002  0.1124594E+03  0.7546771E-02  0.1256082E+00
          3   -1    0    0  503    0 -0.00000000000E+00  0.00000000000E+00  0.24845801909E+03  0.24845801909E+03  0.00000000000E+00 0.  1.
         21   -1    0    0  504  502  0.00000000000E+00 -0.00000000000E+00 -0.64352432583E+03  0.64352432583E+03  0.00000000000E+00 0. -1.
         21    1    1    2  503  505  0.88157643548E+01 -0.92438626158E+02  0.95231637574E+02  0.13301008271E+03  0.00000000000E+00 0. -1.
         21    1    1    2  504  501 -0.85577697126E+02  0.24348977333E+01 -0.44869622917E+02  0.96657922765E+02  0.00000000000E+00 0. -1.
         21    1    1    2  505  502  0.16128487982E+03 -0.47703545598E+02 -0.46971675115E+03  0.49892110301E+03  0.00000000000E+00 0. -1.
          3    1    1    2  501    0 -0.84522947046E+02  0.13770727402E+03  0.24288429748E+02  0.16339323644E+03  0.00000000000E+00 0.  1.
<scales pt_clust_3="92.55259" pt_clust_4="85.61233" pt_clust_5="14000.00000" pt_clust_6="112.45939"></scales>
<clustering>
<clus scale="   85.612">  2  4  1 -1</clus>
<clus scale="   92.553">  1  3  2 -1</clus>
<clus scale="  112.459">  1  6  2 -1</clus>
<clus scale="   85.612">  2  3  1 -1</clus>
</clustering>
</event>
<event>
 6    0  0.4189111E+002  0.1092204E+03  0.7546771E-02  0.1262020E+00
         21   -1    0    0  503  502  0.00000000000E+00  0.00000000000E+00  0.15132770005E+03  0.15132770005E+03  0.00000000000E+00 0.  1.
          2   -1    0    0  505    0 -0.00000000000E+00 -0.00000000000E+00 -0.28247881719E+03  0.28247881719E+03  0.00000000000E+00 0.  1.
         21    1    1    2  503  501 -0.50886633013E+02 -0.83552059380E+02  0.35761107661E+02  0.10415974687E+03  0.00000000000E+00 0.  1.
         21    1    1    2  504  502  0.35021443818E+01  0.33551993757E+02  0.13817771251E+02  0.36454521018E+02  0.00000000000E+00 0.  1.
         21    1    1    2  505  504 -0.66876634935E+02  0.84436365620E+02 -0.59385815509E+02  0.12299861472E+03  0.00000000000E+00 0.  1.
          2    1    1    2  501    0  0.11426112357E+03 -0.34436299997E+02 -0.12134418054E+03  0.17019363463E+03  0.00000000000E+00 0.  1.
<scales pt_clust_3="81.32794" pt_clust_4="33.73427" pt_clust_5="109.22038" pt_clust_6="14000.00000"></scales>
<clustering>
<clus scale="   33.734">  1  4  2 -1</clus>
<clus scale="   81.328">  1  3  2 -1</clus>
<clus scale="  109.220">  1  5  2 -1</clus>
<clus scale="   33.734">  1  3  2 -1</clus>
</clustering>
</event>
<event>
 6    0  0.4189111E+002  0.1335542E+03  0.7546771E-02  0.1222275E+00
          1   -1    0    0  504    0 -0.00000000000E+00  0.00000000000E+00  0.82571779089E+03  0.82571779089E+03  0.00000000000E+00 0.  1.
         21   -1    0    0  505  502  0.00000000000E+00 -0.00000000000E+00 -0.75457233046E+02  0.75457233046E+02  0.00000000000E+00 0. -1.
         21    1    1    2  503  501  0.65369528233E+02 -0.25492899251E+02  0.25555470568E+03  0.26501183130E+03  0.00000000000E+00 0.  1.
         21    1    1    2  504  502 -0.15967144758E+03  0.19838042431E+02  0.16083923838E+03  0.22750336196E+03  0.00000000000E+00 0. -1.
         21    1    1    2  505  503  0.44433117050E+02  0.21172553166E+02 -0.18397077344E+02  0.52545516965E+02  0.00000000000E+00 0. -1.
          1    1    1    2  501    0  0.49868802299E+02 -0.15517696346E+02  0.35226369113E+03  0.35611431372E+03  0.00000000000E+00 0.  1.
<scales pt_clust_3="32.19776" pt_clust_4="128.23404" pt_clust_5="49.21970" pt_clust_6="32.19776"></scales>
<clustering>
<clus scale="   32.198">  3  6 -1 -1</clus>
<clus scale="   49.220">  2  5  1 -1</clus>
<clus scale="  128.234">  2  4  1 -1</clus>
<clus scale="   49.220">  2  3  1 -1</clus>
</clustering>
</event>
<event>
 6    0  0.4189111E+002  0.7847120E+02  0.7546771E-02  0.1333447E+00
          2   -1    0    0  505    0 -0.00000000000E+00  0.00000000000E+00  0.12949317263E+04  0.12949317263E+04  0.00000000000E+00 0. -1.
         21   -1    0    0  504  502  0.00000000000E+00 -0.00000000000E+00 -0.34698243462E+02  0.34698243462E+02  0.00000000000E+00 0. -1.
         21    1    1    2  503  502  0.86452354803E+02  0.29925381918E+02  0.65063902788E+02  0.11226241392E+03  0.00000000000E+00 0. -1.
         21    1    1    2  504  501 -0.31424554466E+02  0.23782637749E+02  0.42760797493E+02  0.58151545843E+02  0.00000000000E+00 0. -1.
         21    1    1    2  505  503 -0.83002641451E+02 -0.28728436581E+02  0.82883407312E+03  0.83347506401E+03  0.00000000000E+00 0. -1.
          2    1    1    2  501    0  0.27974841115E+02 -0.24979583087E+02  0.32357470942E+03  0.32574094598E+03  0.00000000000E+00 0. -1.
<scales pt_clust_3="78.47120" pt_clust_4="37.46604" pt_clust_5="14000.00000" pt_clust_6="37.50428"></scales>
<clustering>
<clus scale="   37.504">  1  6  2 -1</clus>
<clus scale="   37.466">  2  4  1 -1</clus>
<clus scale="   78.471">  2  3  1 -1</clus>
<clus scale="   37.466">  2  3  1 -1</clus>
</clustering>
</event>
<event>
 6    0  0.4189111E+002  0.9512394E+02  0.7546771E-02  0.1290897E+00
          1   -1    0    0  505    0 -0.00000000000E+00  0.00000000000E+00  0.25292893424E+03  0.25292893424E+03  0.00000000000E+00 0.  1.
         21   -1    0    0  503  502  0.00000000000E+00 -0.00000000000E+00 -0.67406641103E+03  0.67406641103E+03  0.00000000000E+00 0.  1.
         21    1    1    2  503  504 -0.20937100693E+02  0.73538157154E+02 -0.52136180318E+03  0.52693866110E+03  0.00000000000E+00 0.  1.
         21    1    1    2  504  501  0.44619805855E+02 -0.57736683003E+02  0.50734825327E+02  0.88873360124E+02  0.00000000000E+00 0.  1.
         21    1    1    2  505  502  0.31250592095E+02  0.27592096937E+02 -0.12041223237E+03  0.12742460133E+03  0.00000000000E+00 0.  1.
          1    1    1    2  501    0 -0.54933297258E+02 -0.43393571088E+02  0.16990173342E+03  0.18375872273E+03  0.00000000000E+00 0.  1.
<scales pt_clust_3="95.12394" pt_clust_4="14000.00000" pt_clust_5="41.68841" pt_clust_6="69.48055"></scales>
<clustering>
<clus scale="   41.688">  2  5  1 -1</clus>
<clus scale="   69.481">  1  6  2 -1</clus>
<clus scale="   95.124">  2  3  1 -1</clus>
<clus scale="   41.688">  2  3  1 -1</clus>
</clustering>
</event>
<event>
 6    0  0.4189111E+002  0.9299188E+02  0.7546771E-02  0.1295764E+00
         21   -1    0    0  503  502  0.00000000000E+00  0.00000000000E+00  0.16588665238E+04  0.16588665238E+04  0.00000000000E+00 0.  1.
         -3   -1    0    0    0  501 -0.00000000000E+00 -0.00000000000E+00 -0.27272623084E+02  0.27272623084E+02  0.00000000000E+00 0. -1.
         21    1    1    2  503  505  0.10344231882E+02  0.29198832462E+02  0.10842530762E+04  0.10846954910E+04  0.00000000000E+00 0.  1.
         21    1    1    2  504  502 -0.36318750553E+02 -0.84748906140E+01  0.22144857478E+03  0.22456702047E+03  0.00000000000E+00 0. -1.
         21    1    1    2  505  501  0.10563127066E+03  0.36377720342E+01  0.17173296045E+03  0.20165170079E+03  0.00000000000E+00 0. -1.
         -3    1    1    2    0  504 -0.79656751987E+02 -0.24361713882E+02  0.15415928931E+03  0.17522493465E+03  0.00000000000E+00 0. -1.
<scales pt_clust_3="30.97701" pt_clust_4="32.42910" pt_clust_5="14000.00000" pt_clust_6="92.99188"></scales>
<clustering>
<clus scale="   30.977">  1  3  2 -1</clus>
<clus scale="   32.429">  1  4  2 -1</clus>
<clus scale="   92.992">  2  6  1 -1</clus>
<clus scale="   30.977">  1  3  2 -1</clus>
</clustering>
</event>
<event>
 6    0  0.4189111E+002  0.9162314E+02  0.7546771E-02  0.1298968E+00
         21   -1    0    0  503  502  0.00000000000E+00  0.00000000000E+00  0.55261108229E+03  0.55261108229E+03  0.00000000000E+00 0. -1.
         -4   -1    0    0    0  501 -0.00000000000E+00 -0.00000000000E+00 -0.24370866818E+03  0.24370866818E+03  0.00000000000E+00 0. -1.
         21    1    1    2  503  501  0.37889647342E+00 -0.11103770170E+03  0.35133921006E+03  0.36846811977E+03  0.00000000000E+00 0. -1.
         21    1    1    2  504  502 -0.37310466818E+02  0.24755774897E+02  0.16620892878E+03  0.17213461979E+03  0.00000000000E+00 0. -1.
         21    1    1    2  505  504 -0.30930777823E+02  0.72127553339E+02 -0.10772816075E+03  0.13328335825E+03  0.00000000000E+00 0. -1.
         -4    1    1    2    0  505  0.67862348167E+02  0.14154373461E+02 -0.10091756398E+03  0.12243365267E+03  0.00000000000E+00 0. -1.
<scales pt_clust_3="91.62314" pt_clust_4="44.77633" pt_clust_5="14000.00000" pt_clust_6="68.44565"></scales>
<clustering>
<clus scale="   44.776">  1  4  2 -1</clus>
<clus scale="   68.446">  2  6  1 -1</clus>
<clus scale="   91.623">  1  3  2 -1</clus>
<clus scale="   44.776">  1  3  2 -1</clus>
</clustering>
</event>
<event>
 6    0  0.4189111E+002  0.1568449E+03  0.7546771E-02  0.1192306E+00
          2   -1    0    0  505    0 -0.00000000000E+00  0.00000000000E+00  0.32568658097E+03  0.32568658097E+03  0.00000000000E+00 0. -1.
         21   -1    0    0  504  502  0.00000000000E+00 -0.00000000000E+00 -0.16545661527E+03  0.16545661527E+03  0.00000000000E+00 0. -1.
         21    1    1    2  503  502  0.17427038616E+03  0.13075115969E+02 -0.87968136085E+01  0.17498145638E+03  0.00000000000E+00 0. -1.
         21    1    1    2  504  501 -0.17116668853E+02 -0.28206470635E+02 -0.29796986667E+02  0.44457235100E+02  0.00000000000E+00 0.  1.
         21    1    1    2  505  503 -0.15754352250E+02  0.28146111261E+02  0.81013661901E+02  0.87198719077E+02  0.00000000000E+00 0. -1.
          2    1    1    2  501    0 -0.14139936505E+03 -0.13014756595E+02  0.11781010408E+03  0.18450578568E+03  0.00000000000E+00 0. -1.
<scales pt_clust_3="14000.00000" pt_clust_4="32.52276" pt_clust_5="32.25528" pt_clust_6="156.84494"></scales>
<clustering>
<clus scale="   32.255">  1  5  2 -1</clus>
<clus scale="   32.523">  2  4  1 -1</clus>
<clus scale="  156.845">  1  6  2 -1</clus>
<clus scale="   32.523">  2  3  1 -1</clus>
</clustering>
</event>
<event>
 6    0  0.4189111E+002  0.1337273E+03  0.7546771E-02  0.1222028E+00
         -1   -1    0    0    0  501 -0.00000000000E+00  0.00000000000E+00  0.44121882605E+03  0.44121882605E+03  0.00000000000E+00 0.  1.
         21   -1    0    0  505  502  0.00000000000E+00 -0.00000000000E+00 -0.40049590241E+03  0.40049590241E+03  0.00000000000E+00 0.  1.
         21    1    1    2  503  501 -0.44290324913E+02 -0.53716068998E+01  0.15139626180E+02  0.47113642636E+02  0.00000000000E+00 0.  1.
         21    1    1    2  504  503  0.88950798787E+02 -0.14850320147E+01 -0.82459141036E+02  0.12130111238E+03  0.00000000000E+00 0.  1.
         21    1    1    2  505  504  0.59301281232E+02  0.26205602631E+02 -0.27158660977E+03  0.27921794744E+03  0.00000000000E+00 0.  1.
         -1    1    1    2    0  502 -0.10396175511E+03 -0.19348963717E+02  0.37962904827E+03  0.39408202600E+03  0.00000000000E+00 0.  1.
<scales pt_clust_3="44.61487" pt_clust_4="14000.00000" pt_clust_5="64.43642" pt_clust_6="133.72732"></scales>
<clustering>
<clus scale="   44.615">  1  3  2 -1</clus>
<clus scale="   64.436">  2  5  1 -1</clus>
<clus scale="  133.727">  1  6  2 -1</clus>
<clus scale="   64.436">  2  3  1 -1</clus>
</clustering>
</event>
<event>
 6    0  0.4189111E+002  0.1106511E+03  0.7546771E-02  0.1259369E+00
         21   -1    0    0  503  502  0.00000000000E+00  0.00000000000E+00  0.63988614170E+03  0.63988614170E+03  0.00000000000E+00 0. -1.
          2   -1    0    0  505    0 -0.00000000000E+00 -0.00000000000E+00 -0.90639046905E+03  0.90639046905E+03  0.00000000000E+00 0.  1.
         21    1    1    2  503  504  0.13609354621E+02 -0.42052880044E+02  0.60036156009E+03  0.60198643015E+03  0.00000000000E+00 0. -1.
         21    1    1    2  504  501  0.48180956956E+02  0.19070935338E+02 -0.36461866405E+03  0.36828233105E+03  0.00000000000E+00 0.  1.
         21    1    1    2  505  502 -0.95075786511E+02 -0.27167713097E+02 -0.34989430593E+02  0.10488922761E+03  0.00000000000E+00 0.  1.
          2    1    1    2  501    0  0.33285474934E+02  0.50149657803E+02 -0.46725779279E+03  0.47111862195E+03  0.00000000000E+00 0.  1.
<scales pt_clust_3="44.20022" pt_clust_4="31.42715" pt_clust_5="105.33957" pt_clust_6="31.42715"></scales>
<clustering>
<clus scale="   31.427">  4  6 -1 -1</clus>
<clus scale="   44.200">  1  3  2 -1</clus>
<clus scale="  105.340">  1  5  2 -1</clus>
<clus scale="   44.200">  1  3  2 -1</clus>
</clustering>
</event>
<event>
 6    0  0.4189111E+002  0.1431925E+03  0.7546771E-02  0.1209097E+00
          2   -1    0    0  503    0 -0.00000000000E+00  0.00000000000E+00  0.13238172048E+04  0.13238172048E+04  0.00000000000E+00 0. -1.
         21   -1    0    0  505  502  0.00000000000E+00 -0.00000000000E+00 -0.18231744947E+03  0.18231744947E+03  0.00000000000E+00 0. -1.
         21    1    1    2  503  504  0.39719995384E+02  0.45005305510E+02  0.87567673792E+03  0.87773168161E+03  0.00000000000E+00 0. -1.
         21    1    1    2  504  502 -0.47008666294E+02  0.30312038912E+02  0.58663908102E+02  0.81056082582E+02  0.00000000000E+00 0.  1.
         21    1    1    2  505  501  0.25352148064E+01 -0.17857794789E+03 -0.11271171091E+03  0.21118816388E+03  0.00000000000E+00 0. -1.
          2    1    1    2  501    0  0.47534561034E+01  0.10326060347E+03  0.31987082020E+03  0.33615872618E+03  0.00000000000E+00 0. -1.
<scales pt_clust_3="59.97690" pt_clust_4="55.93420" pt_clust_5="14000.00000" pt_clust_6="143.19246"></scales>
<clustering>
<clus scale="   55.934">  2  4  1 -1</clus>
<clus scale="   59.977">  1  3  2 -1</clus>
<clus scale="  143.192">  1  6  2 -1</clus>
<clus scale="   55.934">  2  3  1 -1</clus>
</clustering>
</event>
<event>
 6    0  0.4189111E+002  0.1903702E+03  0.7546771E-02  0.1158128E+00
          1   -1    0    0  502    0 -0.00000000000E+00  0.00000000000E+00  0.81089013724E+03  0.81089013724E+03  0.00000000000E+00 0.  1.
         21   -1    0    0  504  502  0.00000000000E+00 -0.00000000000E+00 -0.29837537062E+03  0.29837537062E+03  0.00000000000E+00 0.  1.
         21    1    1    2  503  505  0.29696563597E+01  0.14888469809E+03 -0.22489788605E+03  0.26973047906E+03  0.00000000000E+00 0.  1.
         21    1    1    2  504  503 -0.39032033073E+02  0.28372454572E+02 -0.24294952873E+02  0.54025369220E+02  0.00000000000E+00 0. -1.
         21    1    1    2  505  501  0.44513355897E+02 -0.13680104656E+03  0.49017631209E+03  0.51085103712E+03  0.00000000000E+00 0.  1.
          1    1    1    2  501    0 -0.84509791842E+01 -0.40456106100E+02  0.27153129345E+03  0.27465862246E+03  0.00000000000E+00 0.  1.
<scales pt_clust_3="179.26085" pt_clust_4="48.25449" pt_clust_5="34.34679" pt_clust_6="34.34679"></scales>
<clustering>
<clus scale="   34.347">  5  6 -1 -1</clus>
<clus scale="   48.254">  2  4  1 -1</clus>
<clus scale="  179.261">  2  3  1 -1</clus>
<clus scale="   48.254">  2  3  1 -1</clus>
</clustering>
</event>
<event>
 6    0  0.4189111E+002  0.1342410E+03  0.7546771E-02  0.1221295E+00
         21   -1    0    0  504  502  0.00000000000E+00  0.00000000000E+00  0.18529901996E+04  0.18529901996E+04  0.00000000000E+00 0. -1.
          1   -1    0    0  503    0 -0.00000000000E+00 -0.00000000000E+00 -0.23872751616E+03  0.23872751616E+03  0.00000000000E+00 0. -1.
         21    1    1    2  503  502 -0.14739139930E+03 -0.10835015851E+02  0.79546579949E+03  0.80907815464E+03  0.00000000000E+00 0. -1.
         21    1    1    2  504  505  0.24835297980E+02  0.24500570075E+02  0.10311112618E+04  0.10317012669E+04  0.00000000000E+00 0. -1.
         21    1    1    2  505  501  0.48743215271E+02 -0.25983077533E+02 -0.62067951171E+02  0.83087014122E+02  0.00000000000E+00 0. -1.
          1    1    1    2  501    0  0.73812886054E+02  0.12317523309E+02 -0.15024642662E+03  0.16785128013E+03  0.00000000000E+00 0. -1.
<scales pt_clust_3="123.83363" pt_clust_4="34.88653" pt_clust_5="44.48865" pt_clust_6="44.48865"></scales>
<clustering>
<clus scale="   34.887">  1  4  2 -1</clus>
<clus scale="   44.489">  5  6 -1 -1</clus>
<clus scale="  123.834">  1  3  2 -1</clus>
<clus scale="   34.887">  1  3  2 -1</clus>
</clustering>
</event>
<event>
 6    0  0.4189111E+002  0.1278603E+03  0.7546771E-02  0.1230666E+00
         21   -1    0    0  503  502  0.00000000000E+00  0.00000000000E+00  0.26844029299E+03  0.26844029299E+03  0.00000000000E+00 0. -1.
          2   -1    0    0  504    0 -0.00000000000E+00 -0.00000000000E+00 -0.34731463542E+04  0.34731463542E+04  0.00000000000E+00 0.  1.
         21    1    1    2  503  501  0.41818004431E+02 -0.13361428763E+01 -0.12530719728E+02  0.43675504683E+02  0.00000000000E+00 0.  1.
         21    1    1    2  504  505 -0.56004298323E+02  0.34612855176E+02 -0.11917317642E+04  0.11935489638E+04  0.00000000000E+00 0.  1.
         21    1    1    2  505  502  0.87434885301E+02 -0.22295934608E-02  0.24363128706E+03  0.25884563587E+03  0.00000000000E+00 0. -1.
          2    1    1    2  501    0 -0.73248591409E+02 -0.33274482706E+02 -0.22440748644E+04  0.22455165429E+04  0.00000000000E+00 0.  1.
<scales pt_clust_3="41.83934" pt_clust_4="65.70686" pt_clust_5="14000.00000" pt_clust_6="127.86031"></scales>
<clustering>
<clus scale="   41.839">  1  3  2 -1</clus>
<clus scale="   65.707">  2  4  1 -1</clus>
<clus scale="  127.860">  2  6  1 -1</clus>
<clus scale="   41.839">  1  3  2 -1</clus>
</clustering>
</event>
<event>
 6    0  0.4189111E+002  0.1445862E+03  0.7546771E-02  0.1207288E+00
          2   -1    0    0  504    0 -0.00000000000E+00  0.00000000000E+00  0.46045945212E+03  0.46045945212E+03  0.00000000000E+00 0.  1.
         21   -1    0    0  501  502  0.00000000000E+00 -0.00000000000E+00 -0.16641838903E+04  0.16641838903E+04  0.00000000000E+00 0. -1.
         21    1    1    2  503  502  0.41722651984E+02  0.16818241354E+02 -0.10379147411E+04  0.10388891388E+04  0.00000000000E+00 0. -1.
         21    1    1    2  504  505  0.34617897721E+02 -0.14403188797E+03  0.14521857059E+03  0.20744159862E+03  0.00000000000E+00 0.  1.
         21    1    1    2  505  503 -0.86340226007E+02 -0.17451665020E+02 -0.57254553667E+03  0.57928195794E+03  0.00000000000E+00 0.  1.
          2    1    1    2  501    0  0.99996763017E+01  0.14466531164E+03  0.26151726897E+03  0.29903064707E+03  0.00000000000E+00 0.  1.
<scales pt_clust_3="44.98481" pt_clust_4="144.58622" pt_clust_5="47.98304" pt_clust_6="14000.00000"></scales>
<clustering>
<clus scale="   44.985">  2  3  1 -1</clus>
<clus scale="   47.983">  2  5  1 -1</clus>
<clus scale="  144.586">  2  4  1 -1</clus>
<clus scale="   44.985">  2  3  1 -1</clus>
</clustering>
</event>
<event>
 6    0  0.4189111E+002  0.9747239E+02  0.7546771E-02  0.1285703E+00
          4   -1    0    0  504    0 -0.00000000000E+00  0.00000000000E+00  0.97047335588E+03  0.97047335588E+03  0.00000000000E+00 0. -1.
         21   -1    0    0  505  502  0.00000000000E+00 -0.00000000000E+00 -0.26054207852E+03  0.26054207852E+03  0.00000000000E+00 0. -1.
         21    1    1    2  503  502 -0.52346145852E+02  0.71332025206E+02 -0.10238314369E+03  0.13531697941E+03  0.00000000000E+00 0. -1.
         21    1    1    2  504  503  0.66427498644E+02 -0.84318181413E+02  0.74667265653E+02  0.13075690748E+03  0.00000000000E+00 0. -1.
         21    1    1    2  505  501  0.61784656765E+02 -0.47058092626E+02 -0.97250412104E+02  0.12445662115E+03  0.00000000000E+00 0. -1.
          4    1    1    2  501    0 -0.75866009556E+02  0.60044248833E+02  0.83489756750E+03  0.84048492636E+03  0.00000000000E+00 0. -1.
<scales pt_clust_3="34.12771" pt_clust_4="97.47239" pt_clust_5="77.66471" pt_clust_6="14000.00000"></scales>
<clustering>
<clus scale="   77.665">  2  5  1 -1</clus>
<clus scale="   34.128">  2  3  1 -1</clus>
<clus scale="   97.472">  2  4  1 -1</clus>
<clus scale="   77.665">  2  3  1 -1</clus>
</clustering>
</event>
<event>
 6    0  0.4189111E+002  0.1096579E+03  0.7546771E-02  0.1261205E+00
         21   -1    0    0  503  502  0.00000000000E+00  0.00000000000E+00  0.45155746355E+03  0.45155746355E+03  0.00000000000E+00 0. -1.
          2   -1    0    0  505    0 -0.00000000000E+00 -0.00000000000E+00 -0.37400288884E+04  0.37400288884E+04  0.00000000000E+00 0. -1.
         21    1    1    2  503  501  0.74970682887E+02  0.13422136572E+02  0.23791591097E+01  0.76199851974E+02  0.00000000000E+00 0. -1.
         21    1    1    2  504  502 -0.11756924361E+03  0.63989243058E+01  0.40112074645E+03  0.41804464655E+03  0.00000000000E+00 0. -1.
         21    1    1    2  505  504  0.55231177724E+02  0.54453268838E+02 -0.67684789347E+03  0.68127726542E+03  0.00000000000E+00 0. -1.
          2    1    1    2  501    0 -0.12632617000E+02 -0.74274329716E+02 -0.30151234370E+04  0.30160645880E+04  0.00000000000E+00 0. -1.
<scales pt_clust_3="14000.00000" pt_clust_4="109.65790" pt_clust_5="45.96493" pt_clust_6="75.34095"></scales>
<clustering>
<clus scale="   75.341">  2  6  1 -1</clus>
<clus scale="   45.965">  2  5  1 -1</clus>
<clus scale="  109.658">  1  4  2 -1</clus>
<clus scale="  109.658">  1  3  2 -1</clus>
</clustering>
</event>
<event>
 6    0  0.4189111E+002  0.1065214E+03  0.7546771E-02  0.1267151E+00
          2   -1    0    0  503    0 -0.00000000000E+00  0.00000000000E+00  0.19117797646E+04  0.19117797646E+04  0.00000000000E+00 0. -1.
         21   -1    0    0  504  502  0.00000000000E+00 -0.00000000000E+00 -0.54154155845E+03  0.54154155845E+03  0.00000000000E+00 0. -1.
         21    1    1    2  503  505  0.83411947930E+02  0.11815025542E+03  0.44705255937E+03  0.46986490266E+03  0.00000000000E+00 0. -1.
         21    1    1    2  504  501  0.18474545880E+02 -0.10930568368E+03 -0.49748863390E+03  0.50969008446E+03  0.00000000000E+00 0. -1.
         21    1    1    2  505  502 -0.12606085341E+02  0.41045891010E+02 -0.60665216555E+01  0.43364515925E+02  0.00000000000E+00 0.  1.
          2    1    1    2  501    0 -0.89280408469E+02 -0.49890462754E+02  0.14267408024E+04  0.14304018200E+04  0.00000000000E+00 0. -1.
<scales pt_clust_3="106.52138" pt_clust_4="69.58701" pt_clust_5="42.93808" pt_clust_6="14000.00000"></scales>
<clustering>
<clus scale="   42.938">  2  5  1 -1</clus>
<clus scale="   69.587">  2  4  1 -1</clus>
<clus scale="  106.521">  2  3  1 -1</clus>
<clus scale="   42.938">  2  3  1 -1</clus>
</clustering>
</event>
<event>
 6    0  0.4189111E+002  0.7529853E+02  0.7546771E-02  0.1342949E+00
         21   -1    0    0  503  502  0.00000000000E+00  0.00000000000E+00  0.68648975618E+02  0.68648975618E+02  0.00000000000E+00 0. -1.
          2   -1    0    0  504    0 -0.00000000000E+00 -0.00000000000E+00 -0.15387108129E+04  0.15387108129E+04  0.00000000000E+00 0.  1.
         21    1    1    2  503  505 -0.56232596296E+02 -0.24521998064E+02  0.23996300357E+02  0.65873027151E+02  0.00000000000E+00 0. -1.
         21    1    1    2  504  502  0.76214815575E+02  0.22190266855E+02 -0.50050467815E+03  0.50676033675E+03  0.00000000000E+00 0. -1.
         21    1    1    2  505  501  0.71834846985E+02 -0.49058312249E+02 -0.90368072595E+02  0.12543265837E+03  0.00000000000E+00 0. -1.
          2    1    1    2  501    0 -0.91817066264E+02  0.51390043459E+02 -0.90318538692E+03  0.90929376626E+03  0.00000000000E+00 0.  1.
<scales pt_clust_3="61.34683" pt_clust_4="71.36164" pt_clust_5="75.29853" pt_clust_6="14000.00000"></scales>
<clustering>
<clus scale="   61.347">  1  3  2 -1</clus>
<clus scale="   71.362">  2  4  1 -1</clus>
<clus scale="   75.299">  1  5  2 -1</clus>
<clus scale="   61.347">  1  3  2 -1</clus>
</clustering>
</event>
<event>
 6    0  0.4189111E+002  0.7670204E+02  0.7546771E-02  0.1338680E+00
         21   -1    0    0  505  502  0.00000000000E+00  0.00000000000E+00  0.16331454261E+04  0.16331454261E+04  0.00000000000E+00 0.  1.
          1   -1    0    0  504    0 -0.00000000000E+00 -0.00000000000E+00 -0.30527887591E+03  0.30527887591E+03  0.00000000000E+00 0.  1.
         21    1    1    2  503  502 -0.29946018476E+02 -0.33295436898E+02  0.66035761106E+02  0.79787667504E+02  0.00000000000E+00 0. -1.
         21    1    1    2  504  503  0.19406988346E+02 -0.38508342282E+02 -0.10264960885E+03  0.11133941719E+03  0.00000000000E+00 0.  1.
         21    1    1    2  505  501  0.98081903645E+02  0.67639722735E+02  0.15434388119E+04  0.15480305417E+04  0.00000000000E+00 0.  1.
          1    1    1    2  501    0 -0.87542873515E+02  0.41640564444E+01 -0.17895841399E+03  0.19926667561E+03  0.00000000000E+00 0.  1.
<scales pt_clust_3="45.34537" pt_clust_4="43.12219" pt_clust_5="14000.00000" pt_clust_6="76.70204"></scales>
<clustering>
<clus scale="   43.122">  2  4  1 -1</clus>
<clus scale="   45.345">  1  3  2 -1</clus>
<clus scale="   76.702">  2  6  1 -1</clus>
<clus scale="   45.345">  1  3  2 -1</clus>
</clustering>
</event>
<event>
 6    0  0.4189111E+002  0.1091259E+03  0.7546771E-02  0.1262197E+00
          1   -1    0    0  503    0 -0.00000000000E+00  0.00000000000E+00  0.30708624520E+03  0.30708624520E+03  0.00000000000E+00 0. -1.
         21   -1    0    0  505  502  0.00000000000E+00 -0.00000000000E+00 -0.29163935080E+03  0.29163935080E+03  0.00000000000E+00 0. -1.
         21    1    1    2  503  502 -0.90874522192E+02  0.85511366440E+02  0.10811385109E+03  0.16510292963E+03  0.00000000000E+00 0. -1.
         21    1    1    2  504  501  0.23352282999E+02 -0.47699339347E+02  0.71005867939E+02  0.88670115469E+02  0.00000000000E+00 0. -1.
         21    1    1    2  505  504  0.26034860820E+02 -0.21979028366E+02 -0.24763650998E+03  0.24996946362E+03  0.00000000000E+00 0. -1.
          1    1    1    2  501    0  0.41487378372E+02 -0.15832998727E+02  0.83963685347E+02  0.94983087284E+02  0.00000000000E+00 0. -1.
<scales pt_clust_3="102.15704" pt_clust_4="34.63563" pt_clust_5="34.07186" pt_clust_6="34.63563"></scales>
<clustering>
<clus scale="   34.072">  2  5  1 -1</clus>
<clus scale="   34.636">  4  6 -1 -1</clus>
<clus scale="  102.157">  2  3  1 -1</clus>
<clus scale="   34.072">  2  3  1 -1</clus>
</clustering>
</event>
<event>
 6    0  0.4189111E+002  0.1551999E+03  0.7546771E-02  0.1194225E+00
         21   -1    0    0  501  502  0.00000000000E+00  0.00000000000E+00  0.10086894945E+04  0.10086894945E+04  0.00000000000E+00 0. -1.
          2   -1    0    0  503    0 -0.00000000000E+00 -0.00000000000E+00 -0.11599238912E+04  0.11599238912E+04  0.00000000000E+00 0.  1.
         21    1    1    2  503  504  0.22398332745E+02 -0.23197753233E+02 -0.73594540314E+02  0.80349097250E+02  0.00000000000E+00 0. -1.
         21    1    1    2  504  505 -0.11705103652E+03 -0.32072843715E+02  0.32230867781E+03  0.34440164960E+03  0.00000000000E+00 0. -1.
         21    1    1    2  505  502 -0.27725457913E+02 -0.26818820567E+02  0.66633202202E+03  0.66744761122E+03  0.00000000000E+00 0. -1.
          2    1    1    2  501    0  0.12237816169E+03  0.82089417516E+02 -0.10662805563E+04  0.10764150276E+04  0.00000000000E+00 0.  1.
<scales pt_clust_3="32.24626" pt_clust_4="155.19988" pt_clust_5="38.57398" pt_clust_6="14000.00000"></scales>
<clustering>
<clus scale="   32.246">  2  3  1 -1</clus>
<clus scale="   38.574">  1  5  2 -1</clus>
<clus scale="  155.200">  1  4  2 -1</clus>
<clus scale="   38.574">  1  3  2 -1</clus>
</clustering>
</event>
<event>
 6    0  0.4189111E+002  0.5908437E+02  0.7546771E-02  0.1401715E+00
         -3   -1    0    0    0  501 -0.00000000000E+00  0.00000000000E+00  0.74361389531E+02  0.74361389531E+02  0.00000000000E+00 0. -1.
         21   -1    0    0  503  502  0.00000000000E+00 -0.00000000000E+00 -0.73271693238E+03  0.73271693238E+03  0.00000000000E+00 0. -1.
         21    1    1    2  503  505  0.38053625128E+02  0.39305792373E+01 -0.64531882719E+02  0.75019275695E+02  0.00000000000E+00 0.  1.
         21    1    1    2  504  502 -0.77673438867E+02  0.29933077537E+02 -0.59259150534E+03  0.59840942877E+03  0.00000000000E+00 0. -1.
         21    1    1    2  505  501 -0.97877380584E+01  0.41984944553E+02  0.43424952509E+00  0.43112921011E+02  0.00000000000E+00 0. -1.
         -3    1    1    2    0  504  0.49407551797E+02 -0.75848601328E+02 -0.16664043124E+01  0.90536696435E+02  0.00000000000E+00 0. -1.
<scales pt_clust_3="38.25608" pt_clust_4="14000.00000" pt_clust_5="42.97322" pt_clust_6="59.08437"></scales>
<clustering>
<clus scale="   38.256">  2  3  1 -1</clus>
<clus scale="   42.973">  1  5  2 -1</clus>
<clus scale="   59.084">  1  6  2 -1</clus>
<clus scale="   38.256">  2  3  1 -1</clus>
</clustering>
</event>
<event>
 6    0  0.4189111E+002  0.8961766E+02  0.7546771E-02  0.1303780E+00
         21   -1    0    0  503  502  0.00000000000E+00  0.00000000000E+00  0.10758850362E+04  0.10758850362E+04  0.00000000000E+00 0.  1.
         -4   -1    0    0    0  501 -0.00000000000E+00 -0.00000000000E+00 -0.10036684381E+03  0.10036684381E+03  0.00000000000E+00 0. -1.
         21    1    1    2  503  505 -0.48450504456E+02  0.19060216452E+02  0.13929414258E+03  0.14870642687E+03  0.00000000000E+00 0. -1.
         21    1    1    2  504  502  0.12645675360E+03  0.19625999388E+02  0.86059696853E+03  0.87005955694E+03  0.00000000000E+00 0.  1.
         21    1    1    2  505  501 -0.19228653589E+02  0.42476811655E+02  0.16217698098E+02  0.49366328391E+02  0.00000000000E+00 0. -1.
         -4    1    1    2    0  504 -0.58777595552E+02 -0.81163027495E+02 -0.40590616818E+02  0.10811956782E+03  0.00000000000E+00 0. -1.
<scales pt_clust_3="53.97401" pt_clust_4="89.61766" pt_clust_5="46.62639" pt_clust_6="14000.00000"></scales>
<clustering>
<clus scale="   46.626">  2  5  1 -1</clus>
<clus scale="   53.974">  1  3  2 -1</clus>
<clus scale="   89.618">  1  4  2 -1</clus>
<clus scale="   53.974">  1  3  2 -1</clus>
</clustering>
</event>
<event>
 6    0  0.4189111E+002  0.1477803E+03  0.7546771E-02  0.1203227E+00
         21   -1    0    0  504  502  0.00000000000E+00  0.00000000000E+00  0.43392048034E+02  0.43392048034E+02  0.00000000000E+00 0. -1.
          2   -1    0    0  503    0 -0.00000000000E+00 -0.00000000000E+00 -0.19092046230E+04  0.19092046230E+04  0.00000000000E+00 0. -1.
         21    1    1    2  503  502  0.87858600083E+02 -0.80427173773E+02 -0.89447666371E+03  0.90237252053E+03  0.00000000000E+00 0. -1.
         21    1    1    2  504  505 -0.82505047020E+02  0.19057577179E+02 -0.50909383802E+02  0.98803033308E+02  0.00000000000E+00 0. -1.
         21    1    1    2  505  501 -0.68200286861E+02  0.80466377585E-01 -0.74697480099E+02  0.10114840155E+03  0.00000000000E+00 0. -1.
          2    1    1    2  501    0  0.62846733799E+02  0.61289130216E+02 -0.84572904738E+03  0.85027271567E+03  0.00000000000E+00 0. -1.
<scales pt_clust_3="143.92318" pt_clust_4="30.10306" pt_clust_5="30.10306" pt_clust_6="87.78422"></scales>
<clustering>
<clus scale="   30.103">  4  5 -1 -1</clus>
<clus scale="   87.784">  2  6  1 -1</clus>
<clus scale="  143.923">  2  3  1 -1</clus>
<clus scale="  147.780">  1  3  2 -1</clus>
</clustering>
</event>
<event>
 6    0  0.4189111E+002  0.9173133E+02  0.7546771E-02  0.1298712E+00
          1   -1    0    0  505    0 -0.00000000000E+00  0.00000000000E+00  0.10034509837E+03  0.10034509837E+03  0.00000000000E+00 0. -1.
         21   -1    0    0  503  502  0.00000000000E+00 -0.00000000000E+00 -0.64490774818E+03  0.64490774818E+03  0.00000000000E+00 0.  1.
         21    1    1    2  503  501  0.83656024378E+02  0.21457000807E+02 -0.25534899166E+03  0.26955860372E+03  0.00000000000E+00 0.  1.
         21    1    1    2  504  502 -0.10054411182E+03  0.31466279048E+02 -0.34395045600E+03  0.35972372916E+03  0.00000000000E+00 0.  1.
         21    1    1    2  505  504 -0.26453933267E+02 -0.17729074568E+02 -0.71321074003E+01  0.32634301376E+02  0.00000000000E+00 0.  1.
          1    1    1    2  501    0  0.43342020710E+02 -0.35194205287E+02  0.61868905243E+02  0.83336212303E+02  0.00000000000E+00 0. -1.
<scales pt_clust_3="91.73133" pt_clust_4="14000.00000" pt_clust_5="31.84542" pt_clust_6="54.29126"></scales>
<clustering>
<clus scale="   31.845">  1  5  2 -1</clus>
<clus scale="   54.291">  1  6  2 -1</clus>
<clus scale="   91.731">  2  3  1 -1</clus>
<clus scale="   91.731">  2  3  1 -1</clus>
</clustering>
</event>
<event>
 6    0  0.4189111E+002  0.7813704E+02  0.7546771E-02  0.1334423E+00
          1   -1    0    0  505    0 -0.00000000000E+00  0.00000000000E+00  0.68757314819E+03  0.68757314819E+03  0.00000000000E+00 0. -1.
         21   -1    0    0  503  502  0.00000000000E+00 -0.00000000000E+00 -0.53172621606E+02  0.53172621606E+02  0.00000000000E+00 0. -1.
         21    1    1    2  503  501 -0.60713084247E+02 -0.19090250817E+02  0.37571361280E+01  0.63754469231E+02  0.00000000000E+00 0. -1.
         21    1    1    2  504  502  0.48843739367E+02  0.27476792687E+01  0.35712451641E+02  0.60569297659E+02  0.00000000000E+00 0. -1.
         21    1    1    2  505  504  0.75126973118E+02 -0.27336509719E+02  0.37547826044E+03  0.38389486961E+03  0.00000000000E+00 0. -1.
          1    1    1    2  501    0 -0.63257628238E+02  0.43679081268E+02  0.21945267837E+03  0.23252713329E+03  0.00000000000E+00 0. -1.
<scales pt_clust_3="30.06495" pt_clust_4="48.92096" pt_clust_5="78.13704" pt_clust_6="14000.00000"></scales>
<clustering>
<clus scale="   48.921">  2  4  1 -1</clus>
<clus scale="   30.065">  2  3  1 -1</clus>
<clus scale="   78.137">  1  5  2 -1</clus>
<clus scale="   48.921">  2  3  1 -1</clus>
</clustering>
</event>
<event>
 6    0  0.4189111E+002  0.9495913E+02  0.7546771E-02  0.1291268E+00
          2   -1    0    0  504    0 -0.00000000000E+00  0.00000000000E+00  0.10874550449E+03  0.10874550449E+03  0.00000000000E+00 0.  1.
         21   -1    0    0  505  502  0.00000000000E+00 -0.00000000000E+00 -0.26706544041E+03  0.26706544041E+03  0.00000000000E+00 0.  1.
         21    1    1    2  503  502  0.35330282043E+02  0.74175942772E+01 -0.67559936440E+02  0.76600225495E+02  0.00000000000E+00 0.  1.
         21    1    1    2  504  503  0.36042356719E+02  0.79417315011E+01 -0.14724865085E+02  0.39735931207E+02  0.00000000000E+00 0.  1.
         21    1    1    2  505  501 -0.62695958462E+02  0.83272826638E+02 -0.11304848837E+03  0.15376965756E+03  0.00000000000E+00 0.  1.
          2    1    1    2  501    0 -0.86766803004E+01 -0.98632152416E+02  0.37013353977E+02  0.10570513064E+03  0.00000000000E+00 0.  1.
<scales pt_clust_3="36.10055" pt_clust_4="41.94830" pt_clust_5="94.95913" pt_clust_6="14000.00000"></scales>
<clustering>
<clus scale="   36.101">  2  3  1 -1</clus>
<clus scale="   41.948">  1  4  2 -1</clus>
<clus scale="   94.959">  2  5  1 -1</clus>
<clus scale="   36.101">  2  3  1 -1</clus>
</clustering>
</event>
<event>
 6    0  0.4189111E+002  0.1129385E+03  0.7546771E-02  0.1255223E+00
         21   -1    0    0  501  502  0.00000000000E+00  0.00000000000E+00  0.10619407227E+04  0.10619407227E+04  0.00000000000E+00 0. -1.
          2   -1    0    0  503    0 -0.00000000000E+00 -0.00000000000E+00 -0.42860438459E+04  0.42860438459E+04  0.00000000000E+00 0. -1.
         21    1    1    2  503  505  0.77707940887E+02  0.14704591859E+03 -0.11501312157E+03  0.20221039633E+03  0.00000000000E+00 0. -1.
         21    1    1    2  504  502  0.50752191326E+02 -0.38348457575E+02  0.99258462113E+03  0.99462084195E+03  0.00000000000E+00 0. -1.
         21    1    1    2  505  504 -0.84122346570E+02 -0.58472157098E+01 -0.50211703126E+02  0.98142622009E+02  0.00000000000E+00 0. -1.
          2    1    1    2  501    0 -0.44337785643E+02 -0.10285024531E+03 -0.40514629196E+04  0.40530107083E+04  0.00000000000E+00 0. -1.
<scales pt_clust_3="112.93853" pt_clust_4="63.61123" pt_clust_5="69.07389" pt_clust_6="14000.00000"></scales>
<clustering>
<clus scale="   63.611">  1  4  2 -1</clus>
<clus scale="   69.074">  1  5  2 -1</clus>
<clus scale="  112.939">  1  3  2 -1</clus>
<clus scale="   63.611">  1  3  2 -1</clus>
</clustering>
</event>
<event>
 6    0  0.4189111E+002  0.8100192E+02  0.7546771E-02  0.1326232E+00
         21   -1    0    0  505  502  0.00000000000E+00  0.00000000000E+00  0.28498288503E+02  0.28498288503E+02  0.00000000000E+00 0. -1.
          2   -1    0    0  503    0 -0.00000000000E+00 -0.00000000000E+00 -0.15622476185E+04  0.15622476185E+04  0.00000000000E+00 0. -1.
         21    1    1    2  503  504  0.33469298675E+02 -0.21029388468E+02 -0.38458802413E+03  0.38661399023E+03  0.00000000000E+00 0.  1.
         21    1    1    2  504  502  0.53102334200E+02 -0.65743001141E+02 -0.82502683142E+02  0.11810458425E+03  0.00000000000E+00 0. -1.
         21    1    1    2  505  501 -0.81495587302E+02  0.22566604740E+02 -0.20216719292E+03  0.21914003809E+03  0.00000000000E+00 0.  1.
          2    1    1    2  501    0 -0.50760455734E+01  0.64205784869E+02 -0.86449142985E+03  0.86688729448E+03  0.00000000000E+00 0. -1.
<scales pt_clust_3="39.52757" pt_clust_4="81.00192" pt_clust_5="14000.00000" pt_clust_6="52.50835"></scales>
<clustering>
<clus scale="   39.528">  2  3  1 -1</clus>
<clus scale="   52.508">  2  6  1 -1</clus>
<clus scale="   81.002">  1  4  2 -1</clus>
<clus scale="   81.002">  1  3  2 -1</clus>
</clustering>
</event>
<event>
 6    0  0.4189111E+002  0.1133310E+03  0.7546771E-02  0.1254523E+00
         21   -1    0    0  505  502  0.00000000000E+00  0.00000000000E+00  0.10712329020E+04  0.10712329020E+04  0.00000000000E+00 0.  1.
          1   -1    0    0  504    0 -0.00000000000E+00 -0.00000000000E+00 -0.19260617575E+03  0.19260617575E+03  0.00000000000E+00 0.  1.
         21    1    1    2  503  502  0.51714751129E+02 -0.85572255985E+01  0.17727387238E+03  0.18486121124E+03  0.00000000000E+00 0. -1.
         21    1    1    2  504  503  0.43064475917E+02 -0.40273701733E+02  0.10485729252E+03  0.12029784674E+03  0.00000000000E+00 0. -1.
         21    1    1    2  505  501 -0.23221658155E+02  0.11088836691E+03  0.76071355323E+03  0.76910375463E+03  0.00000000000E+00 0.  1.
          1    1    1    2  501    0 -0.71557568891E+02 -0.62057439574E+02 -0.16421799184E+03  0.18957626517E+03  0.00000000000E+00 0.  1.
<scales pt_clust_3="43.78527" pt_clust_4="43.78527" pt_clust_5="103.37996" pt_clust_6="94.71859"></scales>
<clustering>
<clus scale="   43.785">  3  4 -1 -1</clus>
<clus scale="   94.719">  2  6  1 -1</clus>
<clus scale="  103.380">  1  5  2 -1</clus>
<clus scale="  103.380">  1  3  2 -1</clus>
</clustering>
</event>
<event>
 6    0  0.4189111E+002  0.6058705E+03  0.7546771E-02  0.9893301E-01
          2   -1    0    0  505    0 -0.00000000000E+00  0.00000000000E+00  0.14394475480E+04  0.14394475480E+04  0.00000000000E+00 0.  1.
         21   -1    0    0  501  502  0.00000000000E+00 -0.00000000000E+00 -0.89790935503E+03  0.89790935503E+03  0.00000000000E+00 0.  1.
         21    1    1    2  503  504 -0.64154407508E+03  0.34467199940E+02 -0.13011053960E+02  0.64260102370E+03  0.00000000000E+00 0.  1.
         21    1    1    2  504  502  0.57249026695E+03 -0.15123738745E+03 -0.40905553246E+03  0.71968345941E+03  0.00000000000E+00 0.  1.
         21    1    1    2  505  503 -0.47926496899E+01  0.30914286074E+02  0.12496973594E+03  0.12882584165E+03  0.00000000000E+00 0.  1.
          2    1    1    2  501    0  0.73846457814E+02  0.85855901438E+02  0.83863504348E+03  0.84624657830E+03  0.00000000000E+00 0.  1.
<scales pt_clust_3="14000.00000" pt_clust_4="605.87054" pt_clust_5="31.28358" pt_clust_6="127.20246"></scales>
<clustering>
<clus scale="   31.284">  1  5  2 -1</clus>
<clus scale="  127.202">  1  6  2 -1</clus>
<clus scale="  605.871">  2  4  1 -1</clus>
<clus scale="  605.871">  2  3  1 -1</clus>
</clustering>
</event>
<event>
 6    0  0.4189111E+002  0.8509711E+02  0.7546771E-02  0.1315179E+00
         21   -1    0    0  503  502  0.00000000000E+00  0.00000000000E+00  0.32323086959E+03  0.32323086959E+03  0.00000000000E+00 0. -1.
         -2   -1    0    0    0  501 -0.00000000000E+00 -0.00000000000E+00 -0.11087564813E+04  0.11087564813E+04  0.00000000000E+00 0. -1.
         21    1    1    2  503  504  0.22010882709E+02  0.20717902674E+02  0.55869323992E+02  0.63522372532E+02  0.00000000000E+00 0. -1.
         21    1    1    2  504  501  0.72555047380E+02  0.38359952708E+02 -0.91916283928E+03  0.92281961725E+03  0.00000000000E+00 0. -1.
         21    1    1    2  505  502 -0.46947115577E+01  0.61721990386E+02  0.22602074725E+03  0.23434381281E+03  0.00000000000E+00 0. -1.
         -2    1    1    2    0  505 -0.89871218532E+02 -0.12079984577E+03 -0.14825284372E+03  0.21130154833E+03  0.00000000000E+00 0. -1.
<scales pt_clust_3="30.22764" pt_clust_4="14000.00000" pt_clust_5="81.12968" pt_clust_6="85.09711"></scales>
<clustering>
<clus scale="   30.228">  1  3  2 -1</clus>
<clus scale="   81.130">  1  5  2 -1</clus>
<clus scale="   85.097">  1  6  2 -1</clus>
<clus scale="   30.228">  1  3  2 -1</clus>
</clustering>
</event>
<event>
 6    0  0.4189111E+002  0.6970627E+02  0.7546771E-02  0.1361095E+00
         21   -1    0    0  503  502  0.00000000000E+00  0.00000000000E+00  0.19396753215E+03  0.19396753215E+03  0.00000000000E+00 0. -1.
          2   -1    0    0  505    0 -0.00000000000E+00 -0.00000000000E+00 -0.88804111553E+03  0.88804111553E+03  0.00000000000E+00 0.  1.
         21    1    1    2  503  501 -0.97782767423E+01  0.97899756812E+02  0.50052782300E+02  0.11038685654E+03  0.00000000000E+00 0. -1.
         21    1    1    2  504  502  0.31572781141E+02 -0.53848751052E+02  0.90727708102E+02  0.11012740584E+03  0.00000000000E+00 0. -1.
         21    1    1    2  505  504 -0.48769609099E+02  0.16187910932E+02 -0.43310046952E+02  0.67203299019E+02  0.00000000000E+00 0. -1.
          2    1    1    2  501    0  0.26975104700E+02 -0.60238916692E+02 -0.79154402683E+03  0.79429108629E+03  0.00000000000E+00 0.  1.
<scales pt_clust_3="69.70627" pt_clust_4="14000.00000" pt_clust_5="51.38602" pt_clust_6="48.86768"></scales>
<clustering>
<clus scale="   51.386">  2  5  1 -1</clus>
<clus scale="   48.868">  2  6  1 -1</clus>
<clus scale="   69.706">  2  3  1 -1</clus>
<clus scale="   69.706">  1  3  2 -1</clus>
</clustering>
</event>
<event>
 6    0  0.4189111E+002  0.1107324E+03  0.7546771E-02  0.1259220E+00
          1   -1    0    0  503    0 -0.00000000000E+00  0.00000000000E+00  0.10539347934E+03  0.10539347934E+03  0.00000000000E+00 0. -1.
         21   -1    0    0  505  502  0.00000000000E+00 -0.00000000000E+00 -0.60543254125E+03  0.60543254125E+03  0.00000000000E+00 0. -1.
         21    1    1    2  503  502  0.57158949538E+02 -0.10594533275E+03 -0.24591002840E+03  0.27379426786E+03  0.00000000000E+00 0. -1.
         21    1    1    2  504  501 -0.42810668520E+02  0.17960570501E+02  0.27489600619E+01  0.46506905006E+02  0.00000000000E+00 0. -1.
         21    1    1    2  505  504  0.10818198939E+02  0.11177674174E+03 -0.30853283121E+03  0.32833455706E+03  0.00000000000E+00 0. -1.
          1    1    1    2  501    0 -0.25166479957E+02 -0.23791979491E+02  0.51654837649E+02  0.62190290674E+02  0.00000000000E+00 0. -1.
<scales pt_clust_3="14000.00000" pt_clust_4="55.90691" pt_clust_5="110.73237" pt_clust_6="34.63250"></scales>
<clustering>
<clus scale="   34.632">  1  6  2 -1</clus>
<clus scale="   55.907">  1  4  2 -1</clus>
<clus scale="  110.732">  2  5  1 -1</clus>
<clus scale="  110.732">  2  3  1 -1</clus>
</clustering>
</event>
<event>
 6    0  0.4189111E+002  0.1072762E+03  0.7546771E-02  0.1265699E+00
          2   -1    0    0  504    0 -0.00000000000E+00  0.00000000000E+00  0.12228977338E+04  0.12228977338E+04  0.00000000000E+00 0.  1.
         21   -1    0    0  505  502  0.00000000000E+00 -0.00000000000E+00 -0.23478180379E+03  0.23478180379E+03  0.00000000000E+00 0.  1.
         21    1    1    2  503  502 -0.19210480249E+02  0.57113357040E+02 -0.12111525894E+03  0.13527706403E+03  0.00000000000E+00 0.  1.
         21    1    1    2  504  503  0.23050653945E+02  0.57771201034E+02  0.79262129414E+02  0.10075380626E+03  0.00000000000E+00 0.  1.
         21    1    1    2  505  501  0.49019796181E+02 -0.59878858758E+01 -0.85980269389E+02  0.99153426159E+02  0.00000000000E+00 0.  1.
          2    1    1    2  501    0 -0.52859969877E+02 -0.10889667220E+03  0.11159493290E+04  0.11224952412E+04  0.00000000000E+00 0.  1.
<scales pt_clust_3="57.43150" pt_clust_4="14000.00000" pt_clust_5="49.38416" pt_clust_6="107.27617"></scales>
<clustering>
<clus scale="   49.384">  2  5  1 -1</clus>
<clus scale="   57.431">  2  3  1 -1</clus>
<clus scale="  107.276">  1  6  2 -1</clus>
<clus scale="   49.384">  2  3  1 -1</clus>
</clustering>
</event>
<event>
 6    0  0.4189111E+002  0.1090684E+03  0.7546771E-02  0.1262305E+00
          4   -1    0    0  504    0 -0.00000000000E+00  0.00000000000E+00  0.20674119254E+03  0.20674119254E+03  0.00000000000E+00 0. -1.
         21   -1    0    0  503  502  0.00000000000E+00 -0.00000000000E+00 -0.13441647872E+03  0.13441647872E+03  0.00000000000E+00 0.  1.
         21    1    1    2  503  501 -0.45854851609E+02 -0.59005210892E+01 -0.45257666582E+02  0.64697294763E+02  0.00000000000E+00 0.  1.
         21    1    1    2  504  505  0.74548394797E+01  0.43866223809E+02  0.17266051486E+02  0.47727735719E+02  0.00000000000E+00 0.  1.
         21    1    1    2  505  502  0.13377877680E+02  0.60029394736E+02 -0.26122120256E+02  0.66819615460E+02  0.00000000000E+00 0.  1.
          4    1    1    2  501    0  0.25022134450E+02 -0.97995097456E+02  0.12643844918E+03  0.16191302532E+03  0.00000000000E+00 0. -1.
<scales pt_clust_3="46.23293" pt_clust_4="36.23048" pt_clust_5="36.23048" pt_clust_6="100.40688"></scales>
<clustering>
<clus scale="   36.230">  4  5 -1 -1</clus>
<clus scale="   46.233">  2  3  1 -1</clus>
<clus scale="  100.407">  1  6  2 -1</clus>
<clus scale="   46.233">  2  3  1 -1</clus>
</clustering>
</event>
<event>
 6    0  0.4189111E+002  0.1200081E+03  0.7546771E-02  0.1243084E+00
          2   -1    0    0  504    0 -0.00000000000E+00  0.00000000000E+00  0.15674091154E+04  0.15674091154E+04  0.00000000000E+00 0.  1.
         21   -1    0    0  503  502  0.00000000000E+00 -0.00000000000E+00 -0.48224255321E+02  0.48224255321E+02  0.00000000000E+00 0.  1.
         21    1    1    2  503  505  0.12896218571E+03 -0.97176468289E+02  0.15849344959E+03  0.22626242484E+03  0.00000000000E+00 0.  1.
         21    1    1    2  504  502 -0.58700933327E+02  0.15081118932E+02  0.66670201394E+02  0.90100807298E+02  0.00000000000E+00 0. -1.
         21    1    1    2  505  501 -0.54147435873E+02  0.29722533171E+02  0.65799647027E+03  0.66088934677E+03  0.00000000000E+00 0.  1.
          2    1    1    2  501    0 -0.16113816506E+02  0.52372816186E+02  0.63602473884E+03  0.63838079183E+03  0.00000000000E+00 0.  1.
<scales pt_clust_3="111.65233" pt_clust_4="60.60726" pt_clust_5="41.43902" pt_clust_6="41.43902"></scales>
<clustering>
<clus scale="   41.439">  5  6 -1 -1</clus>
<clus scale="   60.607">  2  4  1 -1</clus>
<clus scale="  111.652">  2  3  1 -1</clus>
<clus scale="   60.607">  2  3  1 -1</clus>
</clustering>
</event>
<event>
 6    0  0.4189111E+002  0.1896929E+03  0.7546771E-02  0.1158739E+00
         21   -1    0    0  504  502  0.00000000000E+00  0.00000000000E+00  0.11965917389E+04  0.11965917389E+04  0.00000000000E+00 0.  1.
          1   -1    0    0  505    0 -0.00000000000E+00 -0.00000000000E+00 -0.13692505139E+03  0.13692505139E+03  0.00000000000E+00 0. -1.
         21    1    1    2  503  501 -0.68168832548E+02  0.80108764238E+02  0.11351451229E+02  0.10579820076E+03  0.00000000000E+00 0. -1.
         21    1    1    2  504  503  0.17487304038E+03 -0.12407954973E+03  0.87071878870E+03  0.89673157852E+03  0.00000000000E+00 0.  1.
         21    1    1    2  505  502 -0.64311625144E+02 -0.51453007360E+01  0.23540654201E+03  0.24408748282E+03  0.00000000000E+00 0.  1.
          1    1    1    2  501    0 -0.42392582689E+02  0.49116086229E+02 -0.57810094391E+02  0.86899528232E+02  0.00000000000E+00 0. -1.
<scales pt_clust_3="61.09337" pt_clust_4="173.00951" pt_clust_5="64.51712" pt_clust_6="61.09337"></scales>
<clustering>
<clus scale="   61.093">  3  6 -1 -1</clus>
<clus scale="   64.517">  1  5  2 -1</clus>
<clus scale="  173.010">  1  4  2 -1</clus>
<clus scale="   64.517">  1  3  2 -1</clus>
</clustering>
</event>
<event>
 6    0  0.4189111E+002  0.2314838E+03  0.7546771E-02  0.1125600E+00
         21   -1    0    0  503  502  0.00000000000E+00  0.00000000000E+00  0.46754028508E+03  0.46754028508E+03  0.00000000000E+00 0. -1.
         -1   -1    0    0    0  501 -0.00000000000E+00 -0.00000000000E+00 -0.55234290164E+03  0.55234290164E+03  0.00000000000E+00 0.  1.
         21    1    1    2  503  504 -0.22959469147E+03  0.51197852955E+02  0.17320461058E+03  0.29212117284E+03  0.00000000000E+00 0. -1.
         21    1    1    2  504  501  0.27975468937E+02 -0.14778508582E+02 -0.25939665307E+02  0.40913291415E+02  0.00000000000E+00 0. -1.
         21    1    1    2  505  502  0.22895377856E+03 -0.13136698476E+02  0.16856111308E+03  0.28461422032E+03  0.00000000000E+00 0. -1.
         -1    1    1    2    0  505 -0.27334556036E+02 -0.23282645897E+02 -0.40062867491E+03  0.40223450214E+03  0.00000000000E+00 0.  1.
<scales pt_clust_3="231.48380" pt_clust_4="31.63908" pt_clust_5="14000.00000" pt_clust_6="35.17892"></scales>
<clustering>
<clus scale="   31.639">  2  4  1 -1</clus>
<clus scale="   35.179">  2  6  1 -1</clus>
<clus scale="  231.484">  2  3  1 -1</clus>
<clus scale="  231.484">  1  3  2 -1</clus>
</clustering>
</event>
<event>
 6    0  0.4189111E+002  0.7922873E+02  0.7546771E-02  0.1331255E+00
         21   -1    0    0  503  502  0.00000000000E+00  0.00000000000E+00  0.14117530330E+04  0.14117530330E+04  0.00000000000E+00 0. -1.
         -1   -1    0    0    0  501 -0.00000000000E+00 -0.00000000000E+00 -0.16272882730E+04  0.16272882730E+04  0.00000000000E+00 0.  1.
         21    1    1    2  503  505  0.74234299027E+02  0.20374957561E+02  0.12032153514E+04  0.12056753509E+04  0.00000000000E+00 0. -1.
         21    1    1    2  504  501 -0.24986773603E+02  0.40837044999E+02 -0.49320519270E+03  0.49552332458E+03  0.00000000000E+00 0.  1.
         21    1    1    2  505  504 -0.11006746369E+03  0.99193854510E+00  0.18963969813E+03  0.21926934489E+03  0.00000000000E+00 0. -1.
         -1    1    1    2    0  502  0.60819938264E+02 -0.62203941105E+02 -0.11151850968E+04  0.11185732856E+04  0.00000000000E+00 0.  1.
<scales pt_clust_3="79.22873" pt_clust_4="47.87487" pt_clust_5="14000.00000" pt_clust_6="42.32133"></scales>
<clustering>
<clus scale="   47.875">  2  4  1 -1</clus>
<clus scale="   42.321">  2  6  1 -1</clus>
<clus scale="   79.229">  1  3  2 -1</clus>
<clus scale="   79.229">  1  3  2 -1</clus>
</clustering>
</event>
<event>
 6    0  0.4189111E+002  0.1691863E+03  0.7546771E-02  0.1178699E+00
         21   -1    0    0  505  502  0.00000000000E+00  0.00000000000E+00  0.11114420389E+03  0.11114420389E+03  0.00000000000E+00 0. -1.
          2   -1    0    0  504    0 -0.00000000000E+00 -0.00000000000E+00 -0.23221986540E+04  0.23221986540E+04  0.00000000000E+00 0. -1.
         21    1    1    2  503  501 -0.28266504125E+01 -0.68695266969E+02 -0.63081367623E+03  0.63454938639E+03  0.00000000000E+00 0. -1.
         21    1    1    2  504  502  0.47901999354E+02  0.14333126839E+03 -0.12210048769E+03  0.19428582845E+03  0.00000000000E+00 0. -1.
         21    1    1    2  505  503 -0.52851681351E+02  0.21485763401E+02  0.60297629682E+02  0.83010495697E+02  0.00000000000E+00 0. -1.
          2    1    1    2  501    0  0.77763324095E+01 -0.96121764826E+02 -0.15184379159E+04  0.15214971474E+04  0.00000000000E+00 0. -1.
<scales pt_clust_3="38.37055" pt_clust_4="162.96904" pt_clust_5="57.05207" pt_clust_6="38.37055"></scales>
<clustering>
<clus scale="   38.371">  3  6 -1 -1</clus>
<clus scale="   57.052">  1  5  2 -1</clus>
<clus scale="  162.969">  1  4  2 -1</clus>
<clus scale="   57.052">  1  3  2 -1</clus>
</clustering>
</event>
<event>
 6    0  0.4189111E+002  0.1514539E+03  0.7546771E-02  0.1198698E+00
         21   -1    0    0  504  502  0.00000000000E+00  0.00000000000E+00  0.14337792464E+03  0.14337792464E+03  0.00000000000E+00 0.  1.
          2   -1    0    0  505    0 -0.00000000000E+00 -0.00000000000E+00 -0.29660421329E+03  0.29660421329E+03  0.00000000000E+00 0.  1.
         21    1    1    2  503  501 -0.11190150991E+03 -0.45919608812E+01 -0.12906224986E+03  0.17088036273E+03  0.00000000000E+00 0.  1.
         21    1    1    2  504  503  0.73369930495E+02  0.17001271164E+02 -0.20768724363E+02  0.78125090936E+02  0.00000000000E+00 0.  1.
         21    1    1    2  505  502  0.76951106700E+02  0.32030184765E+02  0.61393512082E+02  0.10352086207E+03  0.00000000000E+00 0.  1.
          2    1    1    2  501    0 -0.38419527281E+02 -0.44439495049E+02 -0.64788826502E+02  0.87455822197E+02  0.00000000000E+00 0.  1.
<scales pt_clust_3="46.70569" pt_clust_4="75.31394" pt_clust_5="137.03810" pt_clust_6="46.70569"></scales>
<clustering>
<clus scale="   46.706">  3  6 -1 -1</clus>
<clus scale="   75.314">  1  4  2 -1</clus>
<clus scale="  137.038">  1  5  2 -1</clus>
<clus scale="   75.314">  1  3  2 -1</clus>
</clustering>
</event>
<event>
 6    0  0.4189111E+002  0.1585047E+03  0.7546771E-02  0.1190395E+00
          2   -1    0    0  503    0 -0.00000000000E+00  0.00000000000E+00  0.98835403461E+03  0.98835403461E+03  0.00000000000E+00 0. -1.
         21   -1    0    0  504  502  0.00000000000E+00 -0.00000000000E+00 -0.41954816398E+03  0.41954816398E+03  0.00000000000E+00 0.  1.
         21    1    1    2  503  502  0.11945059970E+03 -0.18757635816E+03 -0.35010999048E+03  0.41476540519E+03  0.00000000000E+00 0.  1.
         21    1    1    2  504  505 -0.29713605110E+02  0.50023324229E+02  0.53503269459E+01  0.58428223436E+02  0.00000000000E+00 0.  1.
         21    1    1    2  505  501 -0.41184306968E+02  0.10127844797E+03  0.32217992546E+03  0.34022547750E+03  0.00000000000E+00 0.  1.
          2    1    1    2  501    0 -0.48552687624E+02  0.36274585959E+02  0.59138560869E+03  0.59448309247E+03  0.00000000000E+00 0. -1.
<scales pt_clust_3="14000.00000" pt_clust_4="58.18274" pt_clust_5="158.50468" pt_clust_6="60.81886"></scales>
<clustering>
<clus scale="   58.183">  2  4  1 -1</clus>
<clus scale="   60.819">  1  6  2 -1</clus>
<clus scale="  158.505">  1  5  2 -1</clus>
<clus scale="   58.183">  2  3  1 -1</clus>
</clustering>
</event>
<event>
 6    0  0.4189111E+002  0.8708834E+02  0.7546771E-02  0.1310060E+00
          2   -1    0    0  505    0 -0.00000000000E+00  0.00000000000E+00  0.51699750615E+03  0.51699750615E+03  0.00000000000E+00 0. -1.
         21   -1    0    0  504  502  0.00000000000E+00 -0.00000000000E+00 -0.13936383892E+03  0.13936383892E+03  0.00000000000E+00 0. -1.
         21    1    1    2  503  502 -0.37064233049E+02  0.65335600352E+01 -0.55176193201E+02  0.66789647958E+02  0.00000000000E+00 0.  1.
         21    1    1    2  504  501  0.11970263713E+03 -0.32879667175E+02 -0.19465325064E+02  0.12565306495E+03  0.00000000000E+00 0. -1.
         21    1    1    2  505  503 -0.30247918701E+02 -0.45660620171E+01  0.64326307797E+02  0.71229624335E+02  0.00000000000E+00 0. -1.
          2    1    1    2  501    0 -0.52390485385E+02  0.30912169157E+02  0.38794887770E+03  0.39268900783E+03  0.00000000000E+00 0. -1.
<scales pt_clust_3="38.01070" pt_clust_4="87.08834" pt_clust_5="30.59061" pt_clust_6="14000.00000"></scales>
<clustering>
<clus scale="   30.591">  1  5  2 -1</clus>
<clus scale="   38.011">  2  3  1 -1</clus>
<clus scale="   87.088">  2  4  1 -1</clus>
<clus scale="   38.011">  2  3  1 -1</clus>
</clustering>
</event>
<event>
 6    0  0.4189111E+002  0.1045507E+03  0.7546771E-02  0.1271007E+00
         21   -1    0    0  504  502  0.00000000000E+00  0.00000000000E+00  0.11362129171E+03  0.11362129171E+03  0.00000000000E+00 0. -1.
          2   -1    0    0  503    0 -0.00000000000E+00 -0.00000000000E+00 -0.13093471061E+04  0.13093471061E+04  0.00000000000E+00 0. -1.
         21    1    1    2  503  505  0.48740369281E+02 -0.27901167710E+02 -0.77770391219E+03  0.77972910283E+03  0.00000000000E+00 0. -1.
         21    1    1    2  504  501  0.23416898290E+02  0.93638437580E+02  0.54677020306E+02  0.11093279347E+03  0.00000000000E+00 0. -1.
         21    1    1    2  505  502 -0.54499183028E+02  0.12836517404E+02 -0.33415069741E+01  0.56090131027E+02  0.00000000000E+00 0.  1.
          2    1    1    2  501    0 -0.17658084543E+02 -0.78573787273E+02 -0.46935741556E+03  0.47621637051E+03  0.00000000000E+00 0. -1.
<scales pt_clust_3="55.53871" pt_clust_4="14000.00000" pt_clust_5="55.99051" pt_clust_6="104.55068"></scales>
<clustering>
<clus scale="   55.991">  1  5  2 -1</clus>
<clus scale="   55.539">  2  3  1 -1</clus>
<clus scale="  104.551">  2  6  1 -1</clus>
<clus scale="   55.991">  1  3  2 -1</clus>
</clustering>
</event>
<event>
 6    0  0.4189111E+002  0.3387573E+03  0.7546771E-02  0.1067326E+00
          1   -1    0    0  504    0 -0.00000000000E+00  0.00000000000E+00  0.19264789596E+04  0.19264789596E+04  0.00000000000E+00 0.  1.
         21   -1    0    0  503  502  0.00000000000E+00 -0.00000000000E+00 -0.28600530970E+03  0.28600530970E+03  0.00000000000E+00 0.  1.
         21    1    1    2  503  501 -0.13838141600E+03 -0.30847314184E+03 -0.11504381276E+03  0.35712767238E+03  0.00000000000E+00 0.  1.
         21    1    1    2  504  505 -0.29877832421E+02  0.15636528888E+02  0.44227239875E+02  0.55616855833E+02  0.00000000000E+00 0.  1.
         21    1    1    2  505  502  0.59510705391E+02 -0.22264194660E+02  0.78862196427E+01  0.64026641957E+02  0.00000000000E+00 0.  1.
          1    1    1    2  501    0  0.10874854303E+03  0.31510080761E+03  0.17034040031E+04  0.17357130991E+04  0.00000000000E+00 0.  1.
<scales pt_clust_3="14000.00000" pt_clust_4="33.72219" pt_clust_5="62.89799" pt_clust_6="338.75729"></scales>
<clustering>
<clus scale="   33.722">  1  4  2 -1</clus>
<clus scale="   62.898">  2  5  1 -1</clus>
<clus scale="  338.757">  1  6  2 -1</clus>
<clus scale="   62.898">  2  3  1 -1</clus>
</clustering>
</event>
<event>
 6    0  0.4189111E+002  0.8381722E+02  0.7546771E-02  0.1318555E+00
         21   -1    0    0  504  502  0.00000000000E+00  0.00000000000E+00  0.82389527181E+02  0.82389527181E+02  0.00000000000E+00 0.  1.
          2   -1    0    0  503    0 -0.00000000000E+00 -0.00000000000E+00 -0.86278887188E+03  0.86278887188E+03  0.00000000000E+00 0. -1.
         21    1    1    2  503  502  0.67652369548E+02  0.13287770285E+02 -0.29765192982E+03  0.30553245207E+03  0.00000000000E+00 0. -1.
         21    1    1    2  504  505 -0.16764646533E+02  0.97108353947E+02 -0.12591473442E+02  0.99346016443E+02  0.00000000000E+00 0.  1.
         21    1    1    2  505  501 -0.72813919966E+02 -0.60200378484E+02 -0.33528799084E+02  0.10025035101E+03  0.00000000000E+00 0.  1.
          2    1    1    2  501    0  0.21926196951E+02 -0.50195745748E+02 -0.43662714236E+03  0.44004957953E+03  0.00000000000E+00 0. -1.
<scales pt_clust_3="86.18797" pt_clust_4="14000.00000" pt_clust_5="83.81722" pt_clust_6="54.77564"></scales>
<clustering>
<clus scale="   54.776">  2  6  1 -1</clus>
<clus scale="   86.188">  2  3  1 -1</clus>
<clus scale="   83.817">  2  5  1 -1</clus>
<clus scale="   83.817">  1  3  2 -1</clus>
</clustering>
</event>
<event>
 6    0  0.4189111E+002  0.1352830E+03  0.7546771E-02  0.1219821E+00
         21   -1    0    0  505  502  0.00000000000E+00  0.00000000000E+00  0.11380840453E+03  0.11380840453E+03  0.00000000000E+00 0.  1.
          1   -1    0    0  504    0 -0.00000000000E+00 -0.00000000000E+00 -0.55675548963E+03  0.55675548963E+03  0.00000000000E+00 0.  1.
         21    1    1    2  503  502  0.41617177830E+02 -0.11331230084E+03 -0.21819955307E+03  0.24936461652E+03  0.00000000000E+00 0.  1.
         21    1    1    2  504  503 -0.35180205389E+02 -0.98399993402E+00 -0.40064892788E+02  0.53327392035E+02  0.00000000000E+00 0.  1.
         21    1    1    2  505  501  0.71528267024E+01 -0.45647261318E+02  0.59696792790E+02  0.75488690975E+02  0.00000000000E+00 0.  1.
          1    1    1    2  501    0 -0.13589799144E+02  0.15994356209E+03 -0.24437943204E+03  0.29238319463E+03  0.00000000000E+00 0.  1.
<scales pt_clust_3="135.28302" pt_clust_4="35.19396" pt_clust_5="46.13818" pt_clust_6="14000.00000"></scales>
<clustering>
<clus scale="   35.194">  2  4  1 -1</clus>
<clus scale="   46.138">  1  5  2 -1</clus>
<clus scale="  135.283">  2  3  1 -1</clus>
<clus scale="   46.138">  1  3  2 -1</clus>
</clustering>
</event>
<event>
 6    0  0.4189111E+002  0.1185695E+03  0.7546771E-02  0.1245476E+00
         21   -1    0    0  504  502  0.00000000000E+00  0.00000000000E+00  0.77695963003E+03  0.77695963003E+03  0.00000000000E+00 0.  1.
          4   -1    0    0  505    0 -0.00000000000E+00 -0.00000000000E+00 -0.13136732679E+03  0.13136732679E+03  0.00000000000E+00 0.  1.
         21    1    1    2  503  502  0.72939584883E+02 -0.69857825200E+01  0.57851439123E+03  0.58313624914E+03  0.00000000000E+00 0.  1.
         21    1    1    2  504  501 -0.17451833001E+03  0.54811721136E+02  0.70113615354E+02  0.19590020761E+03  0.00000000000E+00 0. -1.
         21    1    1    2  505  503  0.34506369234E+02 -0.54637442663E+01  0.27320949641E+02  0.44350606630E+02  0.00000000000E+00 0. -1.
          4    1    1    2  501    0  0.67072375892E+02 -0.42362194350E+02 -0.30356652982E+02  0.84939893443E+02  0.00000000000E+00 0.  1.
<scales pt_clust_3="73.92929" pt_clust_4="14000.00000" pt_clust_5="34.93626" pt_clust_6="118.56950"></scales>
<clustering>
<clus scale="   34.936">  2  5  1 -1</clus>
<clus scale="   73.929">  1  3  2 -1</clus>
<clus scale="  118.570">  2  6  1 -1</clus>
<clus scale="   73.929">  1  3  2 -1</clus>
</clustering>
</event>
<event>
 6    0  0.4189111E+002  0.7044583E+02  0.7546771E-02  0.1358584E+00
         21   -1    0    0  505  502  0.00000000000E+00  0.00000000000E+00  0.13324637156E+03  0.13324637156E+03  0.00000000000E+00 0.  1.
          1   -1    0    0  503    0 -0.00000000000E+00 -0.00000000000E+00 -0.83537561488E+03  0.83537561488E+03  0.00000000000E+00 0. -1.
         21    1    1    2  503  504  0.29574163978E+02 -0.58129170944E+02 -0.14133095345E+03  0.15565368640E+03  0.00000000000E+00 0.  1.
         21    1    1    2  504  502 -0.23603914679E+02 -0.22028274627E+02  0.72290865892E+01  0.33085485702E+02  0.00000000000E+00 0.  1.
         21    1    1    2  505  501 -0.14633259738E+02 -0.39561928787E+02  0.96123961650E+02  0.10497187482E+03  0.00000000000E+00 0.  1.
          1    1    1    2  501    0  0.86630104399E+01  0.11971937436E+03 -0.66415133812E+03  0.67491093951E+03  0.00000000000E+00 0. -1.
<scales pt_clust_3="65.81470" pt_clust_4="32.28606" pt_clust_5="70.44583" pt_clust_6="14000.00000"></scales>
<clustering>
<clus scale="   32.286">  1  4  2 -1</clus>
<clus scale="   65.815">  2  3  1 -1</clus>
<clus scale="   70.446">  1  5  2 -1</clus>
<clus scale="   32.286">  1  3  2 -1</clus>
</clustering>
</event>
<event>
 6    0  0.4189111E+002  0.1384392E+03  0.7546771E-02  0.1215445E+00
         -1   -1    0    0    0  501 -0.00000000000E+00  0.00000000000E+00  0.53263117816E+03  0.53263117816E+03  0.00000000000E+00 0. -1.
         21   -1    0    0  505  502  0.00000000000E+00 -0.00000000000E+00 -0.49144708214E+03  0.49144708214E+03  0.00000000000E+00 0. -1.
         21    1    1    2  503  502  0.70629592217E+02  0.16227614294E+02  0.34398119021E+03  0.35153226591E+03  0.00000000000E+00 0. -1.
         21    1    1    2  504  501 -0.78528622194E+02 -0.25223271110E+02 -0.40506812882E+03  0.41338014816E+03  0.00000000000E+00 0. -1.
         21    1    1    2  505  504 -0.32023858950E+02 -0.38336773371E+02 -0.64320147426E+02  0.81439039161E+02  0.00000000000E+00 0. -1.
         -1    1    1    2    0  503  0.39922888927E+02  0.47332430187E+02  0.16659118206E+03  0.17772680706E+03  0.00000000000E+00 0. -1.
<scales pt_clust_3="51.88655" pt_clust_4="126.47582" pt_clust_5="49.95233" pt_clust_6="51.88655"></scales>
<clustering>
<clus scale="   49.952">  2  5  1 -1</clus>
<clus scale="   51.887">  3  6 -1 -1</clus>
<clus scale="  126.476">  2  4  1 -1</clus>
<clus scale="   49.952">  2  3  1 -1</clus>
</clustering>
</event>
<event>
 6    0  0.4189111E+002  0.7004808E+02  0.7546771E-02  0.1359930E+00
         21   -1    0    0  505  502  0.00000000000E+00  0.00000000000E+00  0.34459918290E+03  0.34459918290E+03  0.00000000000E+00 0. -1.
          2   -1    0    0  503    0 -0.00000000000E+00 -0.00000000000E+00 -0.29298341622E+04  0.29298341622E+04  0.00000000000E+00 0.  1.
         21    1    1    2  503  504  0.62346148393E+02  0.86566790733E+02 -0.52812517839E+03  0.53879221925E+03  0.00000000000E+00 0. -1.
         21    1    1    2  504  502 -0.56660756531E+02  0.16619988985E+02  0.30998724492E+03  0.31556102005E+03  0.00000000000E+00 0. -1.
         21    1    1    2  505  501  0.20004677510E+02 -0.73594585740E+02 -0.28903724112E+02  0.81558417346E+02  0.00000000000E+00 0. -1.
          2    1    1    2  501    0 -0.25690069372E+02 -0.29592193979E+02 -0.23381933217E+04  0.23385216884E+04  0.00000000000E+00 0.  1.
<scales pt_clust_3="14000.00000" pt_clust_4="59.12514" pt_clust_5="70.04808" pt_clust_6="39.18772"></scales>
<clustering>
<clus scale="   39.188">  2  6  1 -1</clus>
<clus scale="   59.125">  1  4  2 -1</clus>
<clus scale="   70.048">  1  5  2 -1</clus>
<clus scale="   59.125">  1  3  2 -1</clus>
</clustering>
</event>
<event>
 6    0  0.4189111E+002  0.6535608E+02  0.7546771E-02  0.1376637E+00
          2   -1    0    0  503    0 -0.00000000000E+00  0.00000000000E+00  0.11796313200E+04  0.11796313200E+04  0.00000000000E+00 0.  1.
         21   -1    0    0  504  502  0.00000000000E+00 -0.00000000000E+00 -0.53817939018E+02  0.53817939018E+02  0.00000000000E+00 0. -1.
         21    1    1    2  503  505 -0.14644878548E+02 -0.72487717369E+02  0.78846558507E+03  0.79192608271E+03  0.00000000000E+00 0.  1.
         21    1    1    2  504  501 -0.62778257008E+02  0.94922181090E+02  0.11098692518E+03  0.15896360456E+03  0.00000000000E+00 0. -1.
         21    1    1    2  505  502  0.38441293682E+02 -0.42275513898E+02  0.54941721879E+01  0.57403293140E+02  0.00000000000E+00 0.  1.
          2    1    1    2  501    0  0.38981841874E+02  0.19841050178E+02  0.22086669859E+03  0.22515627865E+03  0.00000000000E+00 0.  1.
<scales pt_clust_3="14000.00000" pt_clust_4="65.35608" pt_clust_5="57.53604" pt_clust_6="43.74073"></scales>
<clustering>
<clus scale="   43.741">  1  6  2 -1</clus>
<clus scale="   57.536">  2  5  1 -1</clus>
<clus scale="   65.356">  2  4  1 -1</clus>
<clus scale="   57.536">  2  3  1 -1</clus>
</clustering>
</event>
<event>
 6    0  0.4189111E+002  0.8938216E+02  0.7546771E-02  0.1304355E+00
          2   -1    0    0  504    0 -0.00000000000E+00  0.00000000000E+00  0.15780124341E+03  0.15780124341E+03  0.00000000000E+00 0.  1.
         21   -1    0    0  503  502  0.00000000000E+00 -0.00000000000E+00 -0.14633828755E+04  0.14633828755E+04  0.00000000000E+00 0.  1.
         21    1    1    2  503  501  0.51985210927E+02  0.73141224241E+02 -0.56589905186E+03  0.57296931658E+03  0.00000000000E+00 0.  1.
         21    1    1    2  504  505 -0.13326019782E+02 -0.40616740498E+02 -0.27886776333E+02  0.51038952832E+02  0.00000000000E+00 0.  1.
         21    1    1    2  505  502 -0.93253143165E+02 -0.29200543436E+02 -0.84632782000E+03  0.85195046766E+03  0.00000000000E+00 0.  1.
          2    1    1    2  501    0  0.54593952020E+02 -0.33239403069E+01  0.13453201610E+03  0.14522538185E+03  0.00000000000E+00 0.  1.
<scales pt_clust_3="89.38216" pt_clust_4="42.74696" pt_clust_5="14000.00000" pt_clust_6="59.41450"></scales>
<clustering>
<clus scale="   42.747">  1  4  2 -1</clus>
<clus scale="   59.415">  1  6  2 -1</clus>
<clus scale="   89.382">  1  3  2 -1</clus>
<clus scale="   89.382">  2  3  1 -1</clus>
</clustering>
</event>
<event>
 6    0  0.4189111E+002  0.1082228E+03  0.7546771E-02  0.1263897E+00
         21   -1    0    0  501  502  0.00000000000E+00  0.00000000000E+00  0.24476121090E+03  0.24476121090E+03  0.00000000000E+00 0.  1.
          3   -1    0    0  504    0 -0.00000000000E+00 -0.00000000000E+00 -0.75843007379E+03  0.75843007379E+03  0.00000000000E+00 0.  1.
         21    1    1    2  503  505 -0.12755606250E+03 -0.12659115256E+01  0.23709404257E+02  0.12974701331E+03  0.00000000000E+00 0.  1.
         21    1    1    2  504  503 -0.66769647791E+01  0.31333918501E+02 -0.19644543224E+02  0.37580638442E+02  0.00000000000E+00 0. -1.
         21    1    1    2  505  502  0.82102616661E+02  0.72121321688E+02  0.13468116397E+03  0.17343973199E+03  0.00000000000E+00 0.  1.
          3    1    1    2  501    0  0.52130410614E+02 -0.10218932866E+03 -0.65241488789E+03  0.66242390095E+03  0.00000000000E+00 0.  1.
<scales pt_clust_3="14000.00000" pt_clust_4="32.03742" pt_clust_5="108.22283" pt_clust_6="87.16251"></scales>
<clustering>
<clus scale="   32.037">  2  4  1 -1</clus>
<clus scale="   87.163">  2  6  1 -1</clus>
<clus scale="  108.223">  1  5  2 -1</clus>
<clus scale="  108.223">  1  3  2 -1</clus>
</clustering>
</event>
<event>
 6    0  0.4189111E+002  0.1211274E+03  0.7546771E-02  0.1241249E+00
          1   -1    0    0  503    0 -0.00000000000E+00  0.00000000000E+00  0.43629250786E+03  0.43629250786E+03  0.00000000000E+00 0.  1.
         21   -1    0    0  504  502  0.00000000000E+00 -0.00000000000E+00 -0.22893846601E+03  0.22893846601E+03  0.00000000000E+00 0.  1.
         21    1    1    2  503  505  0.72719762076E+02  0.35973235671E+02 -0.17833223543E+02  0.83067811714E+02  0.00000000000E+00 0.  1.
         21    1    1    2  504  501 -0.71478664785E+02 -0.11731358998E+02  0.19385512307E+03  0.20694596648E+03  0.00000000000E+00 0. -1.
         21    1    1    2  505  502  0.51010430295E+02 -0.46421319524E+02 -0.16075083381E+03  0.17492236414E+03  0.00000000000E+00 0.  1.
          1    1    1    2  501    0 -0.52251527586E+02  0.22179442851E+02  0.19208297614E+03  0.20029483154E+03  0.00000000000E+00 0.  1.
<scales pt_clust_3="114.86216" pt_clust_4="34.03902" pt_clust_5="68.97103" pt_clust_6="34.03902"></scales>
<clustering>
<clus scale="   34.039">  4  6 -1 -1</clus>
<clus scale="   68.971">  2  5  1 -1</clus>
<clus scale="  114.862">  2  3  1 -1</clus>
<clus scale="   68.971">  2  3  1 -1</clus>
</clustering>
</event>
<event>
 6    0  0.4189111E+002  0.5705183E+02  0.7546771E-02  0.1410637E+00
          2   -1    0    0  504    0 -0.00000000000E+00  0.00000000000E+00  0.17695620700E+04  0.17695620700E+04  0.00000000000E+00 0. -1.
         21   -1    0    0  503  502  0.00000000000E+00 -0.00000000000E+00 -0.11756297999E+03  0.11756297999E+03  0.00000000000E+00 0. -1.
         21    1    1    2  503  501 -0.14260242329E+02  0.30306364144E+02  0.25558897787E+00  0.33494709203E+02  0.00000000000E+00 0.  1.
         21    1    1    2  504  505 -0.45748401321E+02 -0.25919767484E+02  0.10514294248E+04  0.10527433618E+04  0.00000000000E+00 0. -1.
         21    1    1    2  505  502 -0.11097437035E+02 -0.78532347651E+02 -0.80122476137E+02  0.11273905232E+03  0.00000000000E+00 0. -1.
          2    1    1    2  501    0  0.71106080686E+02  0.74145750991E+02  0.68043655237E+03  0.68814792661E+03  0.00000000000E+00 0. -1.
<scales pt_clust_3="33.49373" pt_clust_4="52.56486" pt_clust_5="57.05183" pt_clust_6="14000.00000"></scales>
<clustering>
<clus scale="   33.494">  2  3  1 -1</clus>
<clus scale="   52.565">  1  4  2 -1</clus>
<clus scale="   57.052">  2  5  1 -1</clus>
<clus scale="   33.494">  2  3  1 -1</clus>
</clustering>
</event>
<event>
 6    0  0.4189111E+002  0.1751476E+03  0.7546771E-02  0.1172584E+00
         -1   -1    0    0    0  501 -0.00000000000E+00  0.00000000000E+00  0.22798678122E+04  0.22798678122E+04  0.00000000000E+00 0.  1.
         21   -1    0    0  501  502  0.00000000000E+00 -0.00000000000E+00 -0.10965790497E+03  0.10965790497E+03  0.00000000000E+00 0.  1.
         21    1    1    2  503  504  0.11413504070E+03 -0.22531696935E+02 -0.68449124263E+01  0.11653899651E+03  0.00000000000E+00 0.  1.
         21    1    1    2  504  502 -0.70232921431E+02 -0.68852368991E+01  0.35748820466E+02  0.79107824547E+02  0.00000000000E+00 0.  1.
         21    1    1    2  505  503  0.63243266137E+02 -0.11916487716E+03  0.18473355726E+03  0.22874978871E+03  0.00000000000E+00 0.  1.
         -1    1    1    2    0  505 -0.10714538540E+03  0.14858181099E+03  0.19565724419E+04  0.19651291074E+04  0.00000000000E+00 0.  1.
<scales pt_clust_3="70.41886" pt_clust_4="70.56961" pt_clust_5="14000.00000" pt_clust_6="175.14764"></scales>
<clustering>
<clus scale="   70.570">  2  4  1 -1</clus>
<clus scale="   70.419">  2  3  1 -1</clus>
<clus scale="  175.148">  1  6  2 -1</clus>
<clus scale="   70.570">  2  3  1 -1</clus>
</clustering>
</event>
<event>
 6    0  0.4189111E+002  0.8889986E+02  0.7546771E-02  0.1305538E+00
         21   -1    0    0  504  502  0.00000000000E+00  0.00000000000E+00  0.30141474728E+02  0.30141474728E+02  0.00000000000E+00 0. -1.
          1   -1    0    0  503    0 -0.00000000000E+00 -0.00000000000E+00 -0.27130615164E+04  0.27130615164E+04  0.00000000000E+00 0. -1.
         21    1    1    2  503  505  0.33895580478E+02 -0.58074262197E+01 -0.24519660173E+03  0.24759646621E+03  0.00000000000E+00 0. -1.
         21    1    1    2  504  501  0.72406107932E+02 -0.52354154962E+02 -0.60039544681E+02  0.10764919383E+03  0.00000000000E+00 0. -1.
         21    1    1    2  505  502 -0.77967769503E+02 -0.35409304696E+02 -0.46781388749E+03  0.47558661174E+03  0.00000000000E+00 0. -1.
          1    1    1    2  501    0 -0.28333918908E+02  0.93570885878E+02 -0.19098700078E+04  0.19123707193E+04  0.00000000000E+00 0. -1.
<scales pt_clust_3="34.38948" pt_clust_4="88.89986" pt_clust_5="80.27413" pt_clust_6="14000.00000"></scales>
<clustering>
<clus scale="   34.389">  2  3  1 -1</clus>
<clus scale="   80.274">  2  5  1 -1</clus>
<clus scale="   88.900">  1  4  2 -1</clus>
<clus scale="   88.900">  1  3  2 -1</clus>
</clustering>
</event>
<event>
 6    0  0.4189111E+002  0.8855740E+02  0.7546771E-02  0.1306383E+00
         21   -1    0    0  505  502  0.00000000000E+00  0.00000000000E+00  0.90385095287E+03  0.90385095287E+03  0.00000000000E+00 0.  1.
          2   -1    0    0  504    0 -0.00000000000E+00 -0.00000000000E+00 -0.10000655610E+04  0.10000655610E+04  0.00000000000E+00 0.  1.
         21    1    1    2  503  501 -0.13147929235E+03  0.80772176799E+02 -0.36117873562E+03  0.39276077697E+03  0.00000000000E+00 0. -1.
         21    1    1    2  504  502  0.48865633787E+02 -0.41243886577E+01 -0.36060255266E+02  0.60870376679E+02  0.00000000000E+00 0. -1.
         21    1    1    2  505  503  0.41388512067E+02 -0.77992095042E+02  0.87268422199E+03  0.87713940006E+03  0.00000000000E+00 0.  1.
          2    1    1    2  501    0  0.41225146497E+02  0.13443069007E+01 -0.57165983922E+03  0.57314596015E+03  0.00000000000E+00 0.  1.
<scales pt_clust_3="88.55740" pt_clust_4="53.68466" pt_clust_5="14000.00000" pt_clust_6="41.24706"></scales>
<clustering>
<clus scale="   41.247">  2  6  1 -1</clus>
<clus scale="   53.685">  2  4  1 -1</clus>
<clus scale="   88.557">  2  3  1 -1</clus>
<clus scale="   88.557">  1  3  2 -1</clus>
</clustering>
</event>
<event>
 6    0  0.4189111E+002  0.2073716E+03  0.7546771E-02  0.1143664E+00
          1   -1    0    0  503    0 -0.00000000000E+00  0.00000000000E+00  0.12341078530E+03  0.12341078530E+03  0.00000000000E+00 0. -1.
         21   -1    0    0  504  502  0.00000000000E+00 -0.00000000000E+00 -0.21508514189E+04  0.21508514189E+04  0.00000000000E+00 0.  1.
         21    1    1    2  503  505 -0.20430955415E+02 -0.32624321269E+02 -0.22716456922E+02  0.44696842086E+02  0.00000000000E+00 0.  1.
         21    1    1    2  504  501  0.19361713218E+03  0.45331933449E+02 -0.15923835561E+04  0.16047516842E+04  0.00000000000E+00 0.  1.
         21    1    1    2  505  502 -0.24709953801E+03 -0.46423530433E+02 -0.46456422419E+03  0.52823597403E+03  0.00000000000E+00 0.  1.
          1    1    1    2  501    0  0.73913361245E+02  0.33715918252E+02  0.52223603640E+02  0.96577703903E+02  0.00000000000E+00 0. -1.
<scales pt_clust_3="38.49377" pt_clust_4="14000.00000" pt_clust_5="207.37156" pt_clust_6="61.59717"></scales>
<clustering>
<clus scale="   38.494">  1  3  2 -1</clus>
<clus scale="   61.597">  1  6  2 -1</clus>
<clus scale="  207.372">  1  5  2 -1</clus>
<clus scale="  207.372">  2  3  1 -1</clus>
</clustering>
</event>
<event>
 6    0  0.4189111E+002  0.9294952E+02  0.7546771E-02  0.1295862E+00
         21   -1    0    0  504  502  0.00000000000E+00  0.00000000000E+00  0.39359663015E+02  0.39359663015E+02  0.00000000000E+00 0. -1.
          1   -1    0    0  503    0 -0.00000000000E+00 -0.00000000000E+00 -0.11313808301E+04  0.11313808301E+04  0.00000000000E+00 0.  1.
         21    1    1    2  503  505  0.36027332939E+02 -0.52537875774E+02 -0.49096763664E+03  0.49508324283E+03  0.00000000000E+00 0. -1.
         21    1    1    2  504  501  0.99664444512E+01  0.34037806830E+02 -0.33009967515E+02  0.48451628086E+02  0.00000000000E+00 0. -1.
         21    1    1    2  505  502 -0.55654562343E+02 -0.97299056935E+02 -0.11945438201E+03  0.16381051911E+03  0.00000000000E+00 0. -1.
          1    1    1    2  501    0  0.96607849531E+01  0.11579912588E+03 -0.44858918093E+03  0.46339510309E+03  0.00000000000E+00 0.  1.
<scales pt_clust_3="62.27042" pt_clust_4="35.46692" pt_clust_5="14000.00000" pt_clust_6="92.94952"></scales>
<clustering>
<clus scale="   35.467">  1  4  2 -1</clus>
<clus scale="   62.270">  2  3  1 -1</clus>
<clus scale="   92.950">  2  6  1 -1</clus>
<clus scale="   35.467">  1  3  2 -1</clus>
</clustering>
</event>
<event>
 6    0  0.4189111E+002  0.1464168E+03  0.7546771E-02  0.1204946E+00
          1   -1    0    0  504    0 -0.00000000000E+00  0.00000000000E+00  0.33967005662E+03  0.33967005662E+03  0.00000000000E+00 0.  1.
         21   -1    0    0  505  502  0.00000000000E+00 -0.00000000000E+00 -0.93350762638E+03  0.93350762638E+03  0.00000000000E+00 0.  1.
         21    1    1    2  503  502  0.92024271312E+02  0.57936602795E+02 -0.29590867778E+02  0.11269754172E+03  0.00000000000E+00 0.  1.
         21    1    1    2  504  503  0.52878788146E+02 -0.24064376603E+02  0.24564796201E+03  0.25242460597E+03  0.00000000000E+00 0.  1.
         21    1    1    2  505  501 -0.12175503223E+03 -0.92345690731E+02 -0.82849795455E+03  0.84247307089E+03  0.00000000000E+00 0.  1.
          1    1    1    2  501    0 -0.23148027229E+02  0.58473464539E+02  0.18603290558E+02  0.65582464420E+02  0.00000000000E+00 0.  1.
<scales pt_clust_3="14000.00000" pt_clust_4="58.09699" pt_clust_5="146.41676" pt_clust_6="47.31831"></scales>
<clustering>
<clus scale="   58.097">  1  4  2 -1</clus>
<clus scale="   47.318">  1  6  2 -1</clus>
<clus scale="  146.417">  2  5  1 -1</clus>
<clus scale="  146.417">  2  3  1 -1</clus>
</clustering>
</event>
<event>
 6    0  0.4189111E+002  0.9203809E+02  0.7546771E-02  0.1297990E+00
         21   -1    0    0  504  502  0.00000000000E+00  0.00000000000E+00  0.30738316376E+03  0.30738316376E+03  0.00000000000E+00 0.  1.
         -2   -1    0    0    0  501 -0.00000000000E+00 -0.00000000000E+00 -0.10020880924E+03  0.10020880924E+03  0.00000000000E+00 0. -1.
         21    1    1    2  503  501  0.59815873833E+02  0.11171710462E+02  0.19111946158E+02  0.63780971794E+02  0.00000000000E+00 0.  1.
         21    1    1    2  504  503 -0.46991822503E+02 -0.10429068443E+03  0.19099170003E+03  0.22262661054E+03  0.00000000000E+00 0.  1.
         21    1    1    2  505  502 -0.19606322821E+02  0.28859085388E+02  0.32336918809E+02  0.47570274563E+02  0.00000000000E+00 0. -1.
         -2    1    1    2    0  505  0.67822714909E+01  0.64259888582E+02 -0.35266210479E+02  0.73614116097E+02  0.00000000000E+00 0. -1.
<scales pt_clust_3="58.89315" pt_clust_4="14000.00000" pt_clust_5="34.88918" pt_clust_6="92.03809"></scales>
<clustering>
<clus scale="   34.889">  1  5  2 -1</clus>
<clus scale="   58.893">  2  3  1 -1</clus>
<clus scale="   92.038">  2  6  1 -1</clus>
<clus scale="   34.889">  1  3  2 -1</clus>
</clustering>
</event>
<event>
 6    0  0.4189111E+002  0.9899124E+02  0.7546771E-02  0.1282432E+00
         21   -1    0    0  503  502  0.00000000000E+00  0.00000000000E+00  0.19829617154E+03  0.19829617154E+03  0.00000000000E+00 0. -1.
         -1   -1    0    0    0  501 -0.00000000000E+00 -0.00000000000E+00 -0.54836562026E+03  0.54836562026E+03  0.00000000000E+00 0.  1.
         21    1    1    2  503  505  0.34022850481E+02  0.56502619409E+02 -0.92774145869E+02  0.11382944477E+03  0.00000000000E+00 0.  1.
         21    1    1    2  504  502  0.86232992388E+02 -0.52250731719E+02  0.16058619007E+03  0.18961590751E+03  0.00000000000E+00 0. -1.
         21    1    1    2  505  501 -0.41233714025E+02  0.23948829853E+02 -0.65712503546E+02  0.81190508965E+02  0.00000000000E+00 0.  1.
         -1    1    1    2    0  504 -0.79022128844E+02 -0.28200717543E+02 -0.35216898938E+03  0.36202593056E+03  0.00000000000E+00 0.  1.
<scales pt_clust_3="66.60369" pt_clust_4="98.99124" pt_clust_5="47.68402" pt_clust_6="14000.00000"></scales>
<clustering>
<clus scale="   47.684">  2  5  1 -1</clus>
<clus scale="   66.604">  2  3  1 -1</clus>
<clus scale="   98.991">  1  4  2 -1</clus>
<clus scale="   98.991">  1  3  2 -1</clus>
</clustering>
</event>
<event>
 6    0  0.4189111E+002  0.1194267E+03  0.7546771E-02  0.1244046E+00
         21   -1    0    0  503  502  0.00000000000E+00  0.00000000000E+00  0.76614218262E+01  0.76614218262E+01  0.00000000000E+00 0.  1.
          2   -1    0    0  504    0 -0.00000000000E+00 -0.00000000000E+00 -0.41162247379E+04  0.41162247379E+04  0.00000000000E+00 0.  1.
         21    1    1    2  503  501  0.32739924490E+02 -0.34515446649E+02 -0.87644455245E+03  0.87773473911E+03  0.00000000000E+00 0.  1.
         21    1    1    2  504  505  0.23891407096E+02  0.31290632511E+02 -0.10395362069E+04  0.10402814179E+04  0.00000000000E+00 0.  1.
         21    1    1    2  505  502 -0.11567512743E+03  0.18860673147E+02 -0.55941397878E+03  0.57155967296E+03  0.00000000000E+00 0.  1.
          2    1    1    2  501    0  0.59043795848E+02 -0.15635859009E+02 -0.16331685780E+04  0.16343103298E+04  0.00000000000E+00 0.  1.
<scales pt_clust_3="31.48783" pt_clust_4="39.36881" pt_clust_5="113.97269" pt_clust_6="31.48783"></scales>
<clustering>
<clus scale="   31.488">  3  6 -1 -1</clus>
<clus scale="   39.369">  2  4  1 -1</clus>
<clus scale="  113.973">  1  5  2 -1</clus>
<clus scale="  113.973">  1  3  2 -1</clus>
</clustering>
</event>
<event>
 6    0  0.4189111E+002  0.1074168E+03  0.7546771E-02  0.1265430E+00
         21   -1    0    0  504  502  0.00000000000E+00  0.00000000000E+00  0.81610692045E+03  0.81610692045E+03  0.00000000000E+00 0.  1.
          2   -1    0    0  503    0 -0.00000000000E+00 -0.00000000000E+00 -0.10411746928E+04  0.10411746928E+04  0.00000000000E+00 0.  1.
         21    1    1    2  503  505 -0.12144555298E+02  0.87562475236E+02 -0.42597679030E+03  0.43505275906E+03  0.00000000000E+00 0. -1.
         21    1    1    2  504  501  0.36729458566E+01  0.32258775729E+02  0.60089783187E+02  0.68300081891E+02  0.00000000000E+00 0.  1.
         21    1    1    2  505  502 -0.26682958954E+02  0.19238361660E+02  0.73852313838E+03  0.73925538265E+03  0.00000000000E+00 0.  1.
          2    1    1    2  501    0  0.35154568395E+02 -0.13905961262E+03 -0.59770390359E+03  0.61467338963E+03  0.00000000000E+00 0.  1.
<scales pt_clust_3="14000.00000" pt_clust_4="32.46720" pt_clust_5="55.92062" pt_clust_6="107.41681"></scales>
<clustering>
<clus scale="   32.467">  1  4  2 -1</clus>
<clus scale="   55.921">  1  5  2 -1</clus>
<clus scale="  107.417">  1  6  2 -1</clus>
<clus scale="   32.467">  1  3  2 -1</clus>
</clustering>
</event>
<event>
 6    0  0.4189111E+002  0.2178831E+03  0.7546771E-02  0.1135471E+00
         21   -1    0    0  505  502  0.00000000000E+00  0.00000000000E+00  0.40903852985E+03  0.40903852985E+03  0.00000000000E+00 0. -1.
          2   -1    0    0  504    0 -0.00000000000E+00 -0.00000000000E+00 -0.65711005262E+03  0.65711005262E+03  0.00000000000E+00 0. -1.
         21    1    1    2  503  501 -0.21409666486E+02  0.58785321776E+02 -0.10516966817E+03  0.12237134868E+03  0.00000000000E+00 0. -1.
         21    1    1    2  504  502 -0.47779296575E+02 -0.21133517657E+03  0.19242509265E+03  0.28978066588E+03  0.00000000000E+00 0. -1.
         21    1    1    2  505  503  0.73987081111E+02  0.48079422091E+01  0.13879963005E+03  0.15736118257E+03  0.00000000000E+00 0. -1.
          2    1    1    2  501    0 -0.47981180501E+01  0.14774191259E+03 -0.47412657730E+03  0.49663538534E+03  0.00000000000E+00 0. -1.
<scales pt_clust_3="42.38601" pt_clust_4="207.91394" pt_clust_5="74.14314" pt_clust_6="42.38601"></scales>
<clustering>
<clus scale="   42.386">  3  6 -1 -1</clus>
<clus scale="   74.143">  1  5  2 -1</clus>
<clus scale="  207.914">  1  4  2 -1</clus>
<clus scale="   74.143">  1  3  2 -1</clus>
</clustering>
</event>
<event>
 6    0  0.4189111E+002  0.1035909E+03  0.7546771E-02  0.1272921E+00
          2   -1    0    0  503    0 -0.00000000000E+00  0.00000000000E+00  0.69629829046E+03  0.69629829046E+03  0.00000000000E+00 0.  1.
         21   -1    0    0  505  502  0.00000000000E+00 -0.00000000000E+00 -0.25267572957E+03  0.25267572957E+03  0.00000000000E+00 0.  1.
         21    1    1    2  503  502  0.27742903402E+02  0.97430962721E+02  0.31277316620E+03  0.32876969854E+03  0.00000000000E+00 0.  1.
         21    1    1    2  504  501 -0.13276202323E+02  0.34180745755E+02 -0.33153901632E+02  0.49434422440E+02  0.00000000000E+00 0. -1.
         21    1    1    2  505  504 -0.20261816812E+02 -0.22988733555E+02 -0.19410304842E+03  0.19650703930E+03  0.00000000000E+00 0.  1.
          2    1    1    2  501    0  0.57951157334E+01 -0.10862297492E+03  0.35810634474E+03  0.37426285975E+03  0.00000000000E+00 0.  1.
<scales pt_clust_3="103.59095" pt_clust_4="32.97193" pt_clust_5="30.64348" pt_clust_6="14000.00000"></scales>
<clustering>
<clus scale="   30.643">  2  5  1 -1</clus>
<clus scale="   32.972">  2  4  1 -1</clus>
<clus scale="  103.591">  1  3  2 -1</clus>
<clus scale="   30.643">  2  3  1 -1</clus>
</clustering>
</event>
<event>
 6    0  0.4189111E+002  0.9918641E+02  0.7546771E-02  0.1282016E+00
          2   -1    0    0  504    0 -0.00000000000E+00  0.00000000000E+00  0.14406508782E+04  0.14406508782E+04  0.00000000000E+00 0. -1.
         21   -1    0    0  503  502  0.00000000000E+00 -0.00000000000E+00 -0.35576322630E+02  0.35576322630E+02  0.00000000000E+00 0. -1.
         21    1    1    2  503  501 -0.54838318485E+02  0.82767386648E+02  0.79995629435E+02  0.12750287132E+03  0.00000000000E+00 0. -1.
         21    1    1    2  504  505  0.90638468264E+01 -0.35979617114E+02  0.48172057623E+03  0.48314738924E+03  0.00000000000E+00 0. -1.
         21    1    1    2  505  502 -0.64303213174E+02 -0.53167107316E+01  0.16634326817E+03  0.17841875883E+03  0.00000000000E+00 0. -1.
          2    1    1    2  501    0  0.11007768483E+03 -0.41471058802E+02  0.67701508171E+03  0.68715818141E+03  0.00000000000E+00 0. -1.
<scales pt_clust_3="14000.00000" pt_clust_4="37.10372" pt_clust_5="63.77186" pt_clust_6="99.18641"></scales>
<clustering>
<clus scale="   37.104">  1  4  2 -1</clus>
<clus scale="   63.772">  1  5  2 -1</clus>
<clus scale="   99.186">  1  6  2 -1</clus>
<clus scale="   99.186">  2  3  1 -1</clus>
</clustering>
</event>
<event>
 6    0  0.4189111E+002  0.1269589E+03  0.7546771E-02  0.1232039E+00
         21   -1    0    0  504  502  0.00000000000E+00  0.00000000000E+00  0.28686429752E+03  0.28686429752E+03  0.00000000000E+00 0.  1.
         -3   -1    0    0    0  501 -0.00000000000E+00 -0.00000000000E+00 -0.59471748697E+03  0.59471748697E+03  0.00000000000E+00 0.  1.
         21    1    1    2  503  505 -0.83860616806E+02 -0.65817991696E+01  0.90958261180E+01  0.84608848143E+02  0.00000000000E+00 0.  1.
         21    1    1    2  504  501  0.67208740266E+02  0.27181898181E+02 -0.13824026601E+03  0.15609689780E+03  0.00000000000E+00 0.  1.
         21    1    1    2  505  502 -0.75242158100E+02  0.23655592958E+02  0.21770438390E+03  0.23155165343E+03  0.00000000000E+00 0.  1.
         -3    1    1    2    0  503  0.91894034640E+02 -0.44255691970E+02 -0.39641313346E+03  0.40932438512E+03  0.00000000000E+00 0.  1.
<scales pt_clust_3="14000.00000" pt_clust_4="72.49738" pt_clust_5="78.01064" pt_clust_6="126.95891"></scales>
<clustering>
<clus scale="   72.497">  2  4  1 -1</clus>
<clus scale="   78.011">  1  5  2 -1</clus>
<clus scale="  126.959">  2  6  1 -1</clus>
<clus scale="   78.011">  1  3  2 -1</clus>
</clustering>
</event>
<event>
 6    0  0.4189111E+002  0.1460177E+03  0.7546771E-02  0.1205454E+00
          1   -1    0    0  503    0 -0.00000000000E+00  0.00000000000E+00  0.19768037662E+04  0.19768037662E+04  0.00000000000E+00 0. -1.
         21   -1    0    0  505  502  0.00000000000E+00 -0.00000000000E+00 -0.11745006712E+03  0.11745006712E+03  0.00000000000E+00 0. -1.
         21    1    1    2  503  504  0.73497575659E+02 -0.93359452477E+02  0.48498345455E+03  0.49932637842E+03  0.00000000000E+00 0. -1.
         21    1    1    2  504  502 -0.12279573403E+03  0.30720952198E+02 -0.59592601393E+02  0.13990656647E+03  0.00000000000E+00 0. -1.
         21    1    1    2  505  501 -0.20959403512E+02  0.32464905434E+02  0.29853989735E+02  0.48831622782E+02  0.00000000000E+00 0. -1.
          1    1    1    2  501    0  0.70257561885E+02  0.30173594845E+02  0.14041088561E+04  0.14061892656E+04  0.00000000000E+00 0. -1.
<scales pt_clust_3="146.01765" pt_clust_4="14000.00000" pt_clust_5="38.64281" pt_clust_6="76.40164"></scales>
<clustering>
<clus scale="   38.643">  2  5  1 -1</clus>
<clus scale="   76.402">  1  6  2 -1</clus>
<clus scale="  146.018">  1  3  2 -1</clus>
<clus scale="   38.643">  2  3  1 -1</clus>
</clustering>
</event>
<event>
 6    0  0.4189111E+002  0.1236792E+03  0.7546771E-02  0.1237148E+00
         21   -1    0    0  504  502  0.00000000000E+00  0.00000000000E+00  0.76141401730E+03  0.76141401730E+03  0.00000000000E+00 0. -1.
          2   -1    0    0  505    0 -0.00000000000E+00 -0.00000000000E+00 -0.11496917433E+03  0.11496917433E+03  0.00000000000E+00 0. -1.
         21    1    1    2  503  501  0.89829729219E+02  0.42624938219E+02  0.49739751889E+02  0.11117692444E+03  0.00000000000E+00 0. -1.
         21    1    1    2  504  503 -0.62898462257E+02  0.84565194521E+01  0.18051115418E+03  0.19134264046E+03  0.00000000000E+00 0. -1.
         21    1    1    2  505  502 -0.51497914048E+02 -0.10381425671E+03  0.47631214345E+03  0.49020678600E+03  0.00000000000E+00 0. -1.
          2    1    1    2  501    0  0.24566647086E+02  0.52732799039E+02 -0.60118206544E+02  0.83656840734E+02  0.00000000000E+00 0. -1.
<scales pt_clust_3="14000.00000" pt_clust_4="61.68334" pt_clust_5="123.67917" pt_clust_6="58.17446"></scales>
<clustering>
<clus scale="   58.174">  2  6  1 -1</clus>
<clus scale="   61.683">  1  4  2 -1</clus>
<clus scale="  123.679">  1  5  2 -1</clus>
<clus scale="   61.683">  1  3  2 -1</clus>
</clustering>
</event>
<event>
 6    0  0.7305116E+002  0.1000059E+03  0.7546771E-02  0.1280283E+00
         21   -1    0    0  505  502  0.00000000000E+00  0.00000000000E+00  0.25290128223E+03  0.25290128223E+03  0.00000000000E+00 0.  1.
         -4   -1    0    0    0  501 -0.00000000000E+00 -0.00000000000E+00 -0.25523228075E+04  0.25523228075E+04  0.00000000000E+00 0. -1.
         21    1    1    2  503  502  0.61978301398E+02  0.60988399863E+00  0.23186992334E+03  0.24001113131E+03  0.00000000000E+00 0.  1.
         21    1    1    2  504  501  0.18078372669E+02  0.34256765534E+02 -0.12024563557E+03  0.12633038596E+03  0.00000000000E+00 0.  1.
         21    1    1    2  505  504  0.36073582467E+02  0.20502707691E+02 -0.23131646527E+02  0.47505130731E+02  0.00000000000E+00 0. -1.
         -4    1    1    2    0  503 -0.11613025653E+03 -0.55369357224E+02 -0.23879141665E+04  0.23913774417E+04  0.00000000000E+00 0. -1.
<scales pt_clust_3="100.00593" pt_clust_4="38.73440" pt_clust_5="41.96869" pt_clust_6="14000.00000"></scales>
<clustering>
<clus scale="   38.734">  2  4  1 -1</clus>
<clus scale="   41.969">  1  5  2 -1</clus>
<clus scale="  100.006">  1  3  2 -1</clus>
<clus scale="   41.969">  1  3  2 -1</clus>
</clustering>
</event>
<event>
 6    0  0.4189111E+002  0.1653565E+03  0.7546771E-02  0.1182779E+00
          1   -1    0    0  503    0 -0.00000000000E+00  0.00000000000E+00  0.10851694684E+04  0.10851694684E+04  0.00000000000E+00 0.  1.
         21   -1    0    0  505  502  0.00000000000E+00 -0.00000000000E+00 -0.85127615087E+02  0.85127615087E+02  0.00000000000E+00 0.  1.
         21    1    1    2  503  502  0.16077497612E+03 -0.90918086975E+02  0.12556348998E+03  0.22334028186E+03  0.00000000000E+00 0.  1.
         21    1    1    2  504  501 -0.46812490714E+02  0.88006266393E+02  0.45371011084E+03  0.46453135189E+03  0.00000000000E+00 0.  1.
         21    1    1    2  505  504 -0.58183963010E+02 -0.12633167478E+02  0.18959796975E+01  0.59569834741E+02  0.00000000000E+00 0.  1.
          1    1    1    2  501    0 -0.55778522396E+02  0.15544988059E+02  0.41887227279E+03  0.42285561498E+03  0.00000000000E+00 0.  1.
<scales pt_clust_3="150.11638" pt_clust_4="52.84709" pt_clust_5="59.53965" pt_clust_6="52.84709"></scales>
<clustering>
<clus scale="   52.847">  4  6 -1 -1</clus>
<clus scale="   59.540">  2  5  1 -1</clus>
<clus scale="  150.116">  2  3  1 -1</clus>
<clus scale="   59.540">  2  3  1 -1</clus>
</clustering>
</event>
<event>
 6    0  0.4189111E+002  0.9890432E+02  0.7546771E-02  0.1282617E+00
          2   -1    0    0  504    0 -0.00000000000E+00  0.00000000000E+00  0.23901868299E+04  0.23901868299E+04  0.00000000000E+00 0.  1.
         21   -1    0    0  505  502  0.00000000000E+00 -0.00000000000E+00 -0.33468319644E+02  0.33468319644E+02  0.00000000000E+00 0. -1.
         21    1    1    2  503  502  0.13181359855E+03 -0.17262678368E+02  0.14995770220E+03  0.20039994330E+03  0.00000000000E+00 0. -1.
         21    1    1    2  504  503  0.29783144321E+02 -0.39971526273E+02  0.23221319782E+03  0.23750311123E+03  0.00000000000E+00 0. -1.
         21    1    1    2  505  501 -0.43171065573E+02  0.13387908718E+02  0.14570238862E+03  0.15255216502E+03  0.00000000000E+00 0. -1.
          2    1    1    2  501    0 -0.11842567730E+03  0.43846295923E+02  0.18288452216E+04  0.18331999300E+04  0.00000000000E+00 0.  1.
<scales pt_clust_3="98.90432" pt_clust_4="46.69021" pt_clust_5="45.19930" pt_clust_6="14000.00000"></scales>
<clustering>
<clus scale="   45.199">  2  5  1 -1</clus>
<clus scale="   46.690">  1  4  2 -1</clus>
<clus scale="   98.904">  2  3  1 -1</clus>
<clus scale="   45.199">  2  3  1 -1</clus>
</clustering>
</event>
<event>
 6    0  0.4189111E+002  0.3229736E+03  0.7546771E-02  0.1074289E+00
          2   -1    0    0  503    0 -0.00000000000E+00  0.00000000000E+00  0.26459682797E+04  0.26459682797E+04  0.00000000000E+00 0. -1.
         21   -1    0    0  504  502  0.00000000000E+00 -0.00000000000E+00 -0.11855690581E+03  0.11855690581E+03  0.00000000000E+00 0. -1.
         21    1    1    2  503  505 -0.76564399316E+02  0.49339481242E+02  0.91171392907E+02  0.12887480179E+03  0.00000000000E+00 0.  1.
         21    1    1    2  504  501  0.99829573767E+02 -0.72579254009E+02  0.76446527685E+03  0.77436480513E+03  0.00000000000E+00 0.  1.
         21    1    1    2  505  502 -0.11306151164E+03  0.18432612735E+03  0.40969258707E+02  0.22008522621E+03  0.00000000000E+00 0. -1.
          2    1    1    2  501    0  0.89796337193E+02 -0.16108635458E+03  0.16308054454E+04  0.16412003523E+04  0.00000000000E+00 0. -1.
<scales pt_clust_3="76.11622" pt_clust_4="68.81357" pt_clust_5="76.11622" pt_clust_6="312.46311"></scales>
<clustering>
<clus scale="   68.814">  4  6 -1 -1</clus>
<clus scale="   76.116">  3  5 -1 -1</clus>
<clus scale="  312.463">  1  4  2 -1</clus>
<clus scale="  322.974">  2  3  1 -1</clus>
</clustering>
</event>
<event>
 6    0  0.4189111E+002  0.8886301E+02  0.7546771E-02  0.1305629E+00
         21   -1    0    0  505  502  0.00000000000E+00  0.00000000000E+00  0.17484467528E+03  0.17484467528E+03  0.00000000000E+00 0. -1.
          2   -1    0    0  504    0 -0.00000000000E+00 -0.00000000000E+00 -0.17444823488E+04  0.17444823488E+04  0.00000000000E+00 0.  1.
         21    1    1    2  503  502 -0.85478785862E+02 -0.42755981602E+02 -0.33072244233E+03  0.34425576343E+03  0.00000000000E+00 0. -1.
         21    1    1    2  504  503  0.10101225266E+02 -0.38182678625E+02 -0.77894646324E+03  0.77994714199E+03  0.00000000000E+00 0. -1.
         21    1    1    2  505  501  0.34398832851E+02 -0.15683519352E+02  0.16098438219E+03  0.16536391320E+03  0.00000000000E+00 0. -1.
          2    1    1    2  501    0  0.40978727744E+02  0.96622179579E+02 -0.62095315011E+03  0.62976020543E+03  0.00000000000E+00 0.  1.
<scales pt_clust_3="14000.00000" pt_clust_4="40.54281" pt_clust_5="37.80546" pt_clust_6="88.86301"></scales>
<clustering>
<clus scale="   37.805">  1  5  2 -1</clus>
<clus scale="   40.543">  2  4  1 -1</clus>
<clus scale="   88.863">  2  6  1 -1</clus>
<clus scale="   37.805">  1  3  2 -1</clus>
</clustering>
</event>
<event>
 6    0  0.4189111E+002  0.2172560E+03  0.7546771E-02  0.1135946E+00
         21   -1    0    0  503  502  0.00000000000E+00  0.00000000000E+00  0.13032208033E+03  0.13032208033E+03  0.00000000000E+00 0. -1.
          2   -1    0    0  502    0 -0.00000000000E+00 -0.00000000000E+00 -0.19204074733E+04  0.19204074733E+04  0.00000000000E+00 0. -1.
         21    1    1    2  503  505 -0.10244792011E+03 -0.13535030301E+03  0.50687051824E+02  0.17715659198E+03  0.00000000000E+00 0. -1.
         21    1    1    2  504  501  0.43222638407E+02  0.53090872771E+02 -0.44927722705E+03  0.45446327023E+03  0.00000000000E+00 0. -1.
         21    1    1    2  505  504 -0.33080830203E+02 -0.15336944480E+02 -0.21063374539E+02  0.42109725004E+02  0.00000000000E+00 0. -1.
          2    1    1    2  501    0  0.92306111903E+02  0.97596374715E+02 -0.13704318432E+04  0.13769999664E+04  0.00000000000E+00 0. -1.
<scales pt_clust_3="36.27364" pt_clust_4="30.63719" pt_clust_5="36.27364" pt_clust_6="207.16295"></scales>
<clustering>
<clus scale="   30.637">  4  6 -1 -1</clus>
<clus scale="   36.274">  3  5 -1 -1</clus>
<clus scale="  207.163">  2  4  1 -1</clus>
<clus scale="  217.256">  1  3  2 -1</clus>
</clustering>
</event>
<event>
 6    0  0.4189111E+002  0.6997602E+02  0.7546771E-02  0.1360175E+00
          1   -1    0    0  505    0 -0.00000000000E+00  0.00000000000E+00  0.17034411758E+03  0.17034411758E+03  0.00000000000E+00 0. -1.
         21   -1    0    0  503  502  0.00000000000E+00 -0.00000000000E+00 -0.17716192314E+04  0.17716192314E+04  0.00000000000E+00 0. -1.
         21    1    1    2  503  501 -0.30387824215E+02 -0.22239330109E+02 -0.15778471078E+04  0.15782963928E+04  0.00000000000E+00 0. -1.
         21    1    1    2  504  502  0.73648887314E+02 -0.32439485018E+02 -0.15425167717E+03  0.17398292646E+03  0.00000000000E+00 0. -1.
         21    1    1    2  505  504  0.37563959323E+02  0.40158971760E+02  0.46989452576E+02  0.72331201471E+02  0.00000000000E+00 0. -1.
          1    1    1    2  501    0 -0.80825022422E+02  0.14519843367E+02  0.83834218611E+02  0.11735282830E+03  0.00000000000E+00 0. -1.
<scales pt_clust_3="37.65644" pt_clust_4="69.97602" pt_clust_5="52.56877" pt_clust_6="14000.00000"></scales>
<clustering>
<clus scale="   37.656">  2  3  1 -1</clus>
<clus scale="   52.569">  1  5  2 -1</clus>
<clus scale="   69.976">  2  4  1 -1</clus>
<clus scale="   37.656">  2  3  1 -1</clus>
</clustering>
</event>
<event>
 6    0  0.4189111E+002  0.1204393E+03  0.7546771E-02  0.1242374E+00
         21   -1    0    0  505  502  0.00000000000E+00  0.00000000000E+00  0.22164757753E+03  0.22164757753E+03  0.00000000000E+00 0. -1.
          1   -1    0    0  504    0 -0.00000000000E+00 -0.00000000000E+00 -0.11927116838E+04  0.11927116838E+04  0.00000000000E+00 0. -1.
         21    1    1    2  503  501 -0.49392320362E+02  0.39816969893E+02 -0.41412417160E+03  0.41895563239E+03  0.00000000000E+00 0.  1.
         21    1    1    2  504  502  0.14359359863E+03 -0.52425968864E+02  0.16674070896E+03  0.22620801887E+03  0.00000000000E+00 0. -1.
         21    1    1    2  505  503 -0.54308926486E+02 -0.11907478474E+02 -0.13161866878E+02  0.57135648062E+02  0.00000000000E+00 0. -1.
          1    1    1    2  501    0 -0.39892351779E+02  0.24516477445E+02 -0.71051877678E+03  0.71205996205E+03  0.00000000000E+00 0. -1.
<scales pt_clust_3="40.87678" pt_clust_4="110.64198" pt_clust_5="55.59899" pt_clust_6="40.87678"></scales>
<clustering>
<clus scale="   40.877">  3  6 -1 -1</clus>
<clus scale="   55.599">  1  5  2 -1</clus>
<clus scale="  110.642">  1  4  2 -1</clus>
<clus scale="   55.599">  1  3  2 -1</clus>
</clustering>
</event>
<event>
 6    0  0.4189111E+002  0.1246649E+03  0.7546771E-02  0.1235594E+00
         -2   -1    0    0    0  501 -0.00000000000E+00  0.00000000000E+00  0.80597564306E+03  0.80597564306E+03  0.00000000000E+00 0. -1.
         21   -1    0    0  505  502  0.00000000000E+00 -0.00000000000E+00 -0.62076093430E+03  0.62076093430E+03  0.00000000000E+00 0. -1.
         21    1    1    2  503  504 -0.63135062613E+02  0.53817705424E+02 -0.62184603154E+02  0.10367886196E+03  0.00000000000E+00 0. -1.
         21    1    1    2  504  502 -0.39110538399E+02  0.34316349176E+02 -0.51759228320E+03  0.52020093970E+03  0.00000000000E+00 0. -1.
         21    1    1    2  505  501  0.43375271563E+02  0.24719582830E+02  0.32918568788E+02  0.59800536197E+02  0.00000000000E+00 0. -1.
         -2    1    1    2    0  503  0.58870329450E+02 -0.11285363743E+03  0.73207302633E+03  0.74305623949E+03  0.00000000000E+00 0. -1.
<scales pt_clust_3="124.66494" pt_clust_4="52.00328" pt_clust_5="49.92466" pt_clust_6="14000.00000"></scales>
<clustering>
<clus scale="   49.925">  1  5  2 -1</clus>
<clus scale="   52.003">  2  4  1 -1</clus>
<clus scale="  124.665">  2  3  1 -1</clus>
<clus scale="   52.003">  2  3  1 -1</clus>
</clustering>
</event>
<event>
 6    0  0.4189111E+002  0.1304177E+03  0.7546771E-02  0.1226837E+00
         21   -1    0    0  505  502  0.00000000000E+00  0.00000000000E+00  0.15282079429E+03  0.15282079429E+03  0.00000000000E+00 0. -1.
          2   -1    0    0  502    0 -0.00000000000E+00 -0.00000000000E+00 -0.51764984065E+03  0.51764984065E+03  0.00000000000E+00 0.  1.
         21    1    1    2  503  501 -0.43288510093E+02 -0.41849765352E+02 -0.10317309760E+03  0.11945704682E+03  0.00000000000E+00 0.  1.
         21    1    1    2  504  503  0.11998107589E+03 -0.24144459662E+02  0.63107187529E+02  0.13769869507E+03  0.00000000000E+00 0. -1.
         21    1    1    2  505  504 -0.33712839405E+02  0.10838358674E+03 -0.37143583616E+02  0.11942865325E+03  0.00000000000E+00 0. -1.
          2    1    1    2  501    0 -0.42979726396E+02 -0.42389361722E+02 -0.28761955267E+03  0.29388623981E+03  0.00000000000E+00 0.  1.
<scales pt_clust_3="59.88358" pt_clust_4="115.81637" pt_clust_5="113.50576" pt_clust_6="59.88358"></scales>
<clustering>
<clus scale="   59.884">  3  6 -1 -1</clus>
<clus scale="  113.506">  1  5  2 -1</clus>
<clus scale="  115.816">  1  4  2 -1</clus>
<clus scale="  113.506">  1  3  2 -1</clus>
</clustering>
</event>
<event>
 6    0  0.4189111E+002  0.1947561E+03  0.7546771E-02  0.1154240E+00
          1   -1    0    0  502    0 -0.00000000000E+00  0.00000000000E+00  0.35994382823E+04  0.35994382823E+04  0.00000000000E+00 0. -1.
         21   -1    0    0  505  502  0.00000000000E+00 -0.00000000000E+00 -0.77948106530E+02  0.77948106530E+02  0.00000000000E+00 0.  1.
         21    1    1    2  503  501 -0.13409815234E+03  0.70458802851E+02  0.30682973077E+03  0.34218597436E+03  0.00000000000E+00 0.  1.
         21    1    1    2  504  503 -0.37706246020E+02 -0.63612299754E+02  0.10809566663E+03  0.13096930485E+03  0.00000000000E+00 0.  1.
         21    1    1    2  505  504 -0.34134185986E+02 -0.71469991265E+01 -0.38778292276E+02  0.52153410255E+02  0.00000000000E+00 0.  1.
          1    1    1    2  501    0  0.20593858434E+03  0.30049602892E+00  0.31453430706E+04  0.31520776993E+04  0.00000000000E+00 0. -1.
<scales pt_clust_3="194.75605" pt_clust_4="82.73786" pt_clust_5="34.87438" pt_clust_6="14000.00000"></scales>
<clustering>
<clus scale="   34.874">  2  5  1 -1</clus>
<clus scale="   82.738">  2  4  1 -1</clus>
<clus scale="  194.756">  2  3  1 -1</clus>
<clus scale="   34.874">  2  3  1 -1</clus>
</clustering>
</event>
<event>
 6    0  0.4189111E+002  0.1304957E+03  0.7546771E-02  0.1226722E+00
          1   -1    0    0  505    0 -0.00000000000E+00  0.00000000000E+00  0.23265833508E+04  0.23265833508E+04  0.00000000000E+00 0.  1.
         21   -1    0    0  503  502  0.00000000000E+00 -0.00000000000E+00 -0.17074560845E+04  0.17074560845E+04  0.00000000000E+00 0.  1.
         21    1    1    2  503  504  0.13768086035E+03 -0.46588501112E+01 -0.12089240264E+04  0.12167477248E+04  0.00000000000E+00 0.  1.
         21    1    1    2  504  501 -0.95353554225E+02  0.10920724117E+03 -0.48096522512E+03  0.50234059123E+03  0.00000000000E+00 0.  1.
         21    1    1    2  505  502 -0.60836775464E+02 -0.33449034188E+02  0.54484137776E+03  0.54924682799E+03  0.00000000000E+00 0. -1.
          1    1    1    2  501    0  0.18509469340E+02 -0.71099356869E+02  0.17641751401E+04  0.17657042912E+04  0.00000000000E+00 0.  1.
<scales pt_clust_3="130.49572" pt_clust_4="14000.00000" pt_clust_5="69.42587" pt_clust_6="112.35061"></scales>
<clustering>
<clus scale="   69.426">  1  5  2 -1</clus>
<clus scale="  112.351">  1  6  2 -1</clus>
<clus scale="  130.496">  2  3  1 -1</clus>
<clus scale="  130.496">  2  3  1 -1</clus>
</clustering>
</event>
<event>
 6    0  0.4189111E+002  0.9477038E+02  0.7546771E-02  0.1291694E+00
          2   -1    0    0  504    0 -0.00000000000E+00  0.00000000000E+00  0.12704404306E+04  0.12704404306E+04  0.00000000000E+00 0. -1.
         21   -1    0    0  505  502  0.00000000000E+00 -0.00000000000E+00 -0.13716695910E+03  0.13716695910E+03  0.00000000000E+00 0.  1.
         21    1    1    2  503  502 -0.49976888237E+02 -0.57179223268E+02 -0.94157978594E+02  0.12096643280E+03  0.00000000000E+00 0.  1.
         21    1    1    2  504  503  0.51160038752E+02 -0.70487602882E+02  0.73694504432E+02  0.11409089231E+03  0.00000000000E+00 0.  1.
         21    1    1    2  505  501  0.69405542526E+01  0.31262658562E+02  0.27632713243E+02  0.42297658976E+02  0.00000000000E+00 0. -1.
          2    1    1    2  501    0 -0.81237047676E+01  0.96404167588E+02  0.11261042324E+04  0.11302524056E+04  0.00000000000E+00 0. -1.
<scales pt_clust_3="54.17036" pt_clust_4="14000.00000" pt_clust_5="32.02382" pt_clust_6="94.77038"></scales>
<clustering>
<clus scale="   32.024">  2  5  1 -1</clus>
<clus scale="   54.170">  2  3  1 -1</clus>
<clus scale="   94.770">  1  6  2 -1</clus>
<clus scale="   32.024">  2  3  1 -1</clus>
</clustering>
</event>
<event>
 6    0  0.4189111E+002  0.6411928E+02  0.7546771E-02  0.1381315E+00
         21   -1    0    0  503  502  0.00000000000E+00  0.00000000000E+00  0.11974703902E+03  0.11974703902E+03  0.00000000000E+00 0.  1.
          2   -1    0    0  505    0 -0.00000000000E+00 -0.00000000000E+00 -0.21652325180E+04  0.21652325180E+04  0.00000000000E+00 0.  1.
         21    1    1    2  503  501 -0.86564900347E+02  0.31803695443E+01  0.85840702883E+02  0.12195172403E+03  0.00000000000E+00 0.  1.
         21    1    1    2  504  502  0.47491853693E+02 -0.35273150445E+02 -0.74830104358E+02  0.95389809874E+02  0.00000000000E+00 0.  1.
         21    1    1    2  505  504  0.65978120112E+02  0.84793895973E+02 -0.57442323123E+03  0.58438443315E+03  0.00000000000E+00 0.  1.
          2    1    1    2  501    0 -0.26905073458E+02 -0.52701115072E+02 -0.14820728463E+04  0.14832535900E+04  0.00000000000E+00 0.  1.
<scales pt_clust_3="51.37478" pt_clust_4="59.15802" pt_clust_5="14000.00000" pt_clust_6="64.11928"></scales>
<clustering>
<clus scale="   59.158">  1  4  2 -1</clus>
<clus scale="   51.375">  1  3  2 -1</clus>
<clus scale="   64.119">  2  6  1 -1</clus>
<clus scale="   59.158">  1  3  2 -1</clus>
</clustering>
</event>
<event>
 6    0  0.4189111E+002  0.2376497E+03  0.7546771E-02  0.1121369E+00
         21   -1    0    0  505  502  0.00000000000E+00  0.00000000000E+00  0.24955888972E+03  0.24955888972E+03  0.00000000000E+00 0. -1.
          1   -1    0    0  504    0 -0.00000000000E+00 -0.00000000000E+00 -0.43197474451E+03  0.43197474451E+03  0.00000000000E+00 0. -1.
         21    1    1    2  503  501 -0.69911811587E+02 -0.91139319908E+02 -0.63839609712E+02  0.13141359443E+03  0.00000000000E+00 0. -1.
         21    1    1    2  504  502  0.17178934067E+03  0.23504570307E+03 -0.40947702931E+02  0.29399791576E+03  0.00000000000E+00 0. -1.
         21    1    1    2  505  503 -0.14702460913E+02 -0.10642682728E+03  0.31062471633E+02  0.11183786955E+03  0.00000000000E+00 0. -1.
          1    1    1    2  501    0 -0.87175068168E+02 -0.37479555875E+02 -0.10869101378E+03  0.14428425449E+03  0.00000000000E+00 0. -1.
<scales pt_clust_3="64.41918" pt_clust_4="226.83470" pt_clust_5="107.43757" pt_clust_6="64.41918"></scales>
<clustering>
<clus scale="   64.419">  3  6 -1 -1</clus>
<clus scale="  107.438">  1  5  2 -1</clus>
<clus scale="  226.835">  1  4  2 -1</clus>
<clus scale="  107.438">  1  3  2 -1</clus>
</clustering>
</event>
<event>
 6    0  0.4189111E+002  0.9606358E+02  0.7546771E-02  0.1288798E+00
          1   -1    0    0  504    0 -0.00000000000E+00  0.00000000000E+00  0.11385686390E+04  0.11385686390E+04  0.00000000000E+00 0.  1.
         21   -1    0    0  505  502  0.00000000000E+00 -0.00000000000E+00 -0.48965965937E+02  0.48965965937E+02  0.00000000000E+00 0.  1.
         21    1    1    2  503  501 -0.10170216370E+03 -0.11286159705E+03  0.60720543815E+03  0.62592293000E+03  0.00000000000E+00 0.  1.
         21    1    1    2  504  502  0.81527054104E+02 -0.20914063339E+02  0.20709966170E+03  0.22354938710E+03  0.00000000000E+00 0.  1.
         21    1    1    2  505  503 -0.18958148467E+02  0.93695633547E+02  0.54014273102E+02  0.10979902020E+03  0.00000000000E+00 0.  1.
          1    1    1    2  501    0  0.39133258067E+02  0.40080026841E+02  0.22128330008E+03  0.22826326760E+03  0.00000000000E+00 0.  1.
<scales pt_clust_3="14000.00000" pt_clust_4="91.47028" pt_clust_5="96.06358" pt_clust_6="56.01625"></scales>
<clustering>
<clus scale="   56.016">  1  6  2 -1</clus>
<clus scale="   91.470">  1  4  2 -1</clus>
<clus scale="   96.064">  2  5  1 -1</clus>
<clus scale="   96.064">  2  3  1 -1</clus>
</clustering>
</event>
<event>
 6    0  0.4189111E+002  0.7291981E+02  0.7546771E-02  0.1350436E+00
         21   -1    0    0  505  502  0.00000000000E+00  0.00000000000E+00  0.39619393910E+02  0.39619393910E+02  0.00000000000E+00 0.  1.
          2   -1    0    0  504    0 -0.00000000000E+00 -0.00000000000E+00 -0.21074107430E+04  0.21074107430E+04  0.00000000000E+00 0.  1.
         21    1    1    2  503  502 -0.39786756922E+02  0.50042037739E+02 -0.28432132023E+03  0.29142032308E+03  0.00000000000E+00 0.  1.
         21    1    1    2  504  503  0.14995189224E+02  0.49823233738E+02 -0.14767500090E+04  0.14776663356E+04  0.00000000000E+00 0.  1.
         21    1    1    2  505  501 -0.26666131290E+02 -0.74276746290E+02 -0.14641773928E+02  0.80265180129E+02  0.00000000000E+00 0.  1.
          2    1    1    2  501    0  0.51457698988E+02 -0.25588525187E+02 -0.29207824595E+03  0.29767829811E+03  0.00000000000E+00 0.  1.
<scales pt_clust_3="14000.00000" pt_clust_4="52.03086" pt_clust_5="72.91981" pt_clust_6="58.51837"></scales>
<clustering>
<clus scale="   52.031">  2  4  1 -1</clus>
<clus scale="   58.518">  2  6  1 -1</clus>
<clus scale="   72.920">  1  5  2 -1</clus>
<clus scale="   72.920">  1  3  2 -1</clus>
</clustering>
</event>
<event>
 6    0  0.4189111E+002  0.8812373E+02  0.7546771E-02  0.1307460E+00
         21   -1    0    0  504  502  0.00000000000E+00  0.00000000000E+00  0.16343022915E+04  0.16343022915E+04  0.00000000000E+00 0.  1.
         -1   -1    0    0    0  501 -0.00000000000E+00 -0.00000000000E+00 -0.25765749864E+03  0.25765749864E+03  0.00000000000E+00 0. -1.
         21    1    1    2  503  502  0.30265182235E+02  0.30224172561E+02  0.49253199921E+02  0.65233117089E+02  0.00000000000E+00 0.  1.
         21    1    1    2  504  505 -0.37172201435E+02 -0.72563875412E+02  0.86288517082E+03  0.86672839264E+03  0.00000000000E+00 0.  1.
         21    1    1    2  505  501 -0.32681211071E+02  0.12063703225E+03  0.69876184129E+03  0.70985172110E+03  0.00000000000E+00 0.  1.
         -1    1    1    2    0  503  0.39588230271E+02 -0.78297329399E+02 -0.23425541913E+03  0.25014655936E+03  0.00000000000E+00 0. -1.
<scales pt_clust_3="42.77244" pt_clust_4="59.65096" pt_clust_5="14000.00000" pt_clust_6="88.12373"></scales>
<clustering>
<clus scale="   42.772">  1  3  2 -1</clus>
<clus scale="   59.651">  1  4  2 -1</clus>
<clus scale="   88.124">  2  6  1 -1</clus>
<clus scale="   42.772">  1  3  2 -1</clus>
</clustering>
</event>
<event>
 6    0  0.4189111E+002  0.9770686E+02  0.7546771E-02  0.1285193E+00
         -1   -1    0    0    0  501 -0.00000000000E+00  0.00000000000E+00  0.64022464307E+03  0.64022464307E+03  0.00000000000E+00 0. -1.
         21   -1    0    0  503  502  0.00000000000E+00 -0.00000000000E+00 -0.14183351053E+04  0.14183351053E+04  0.00000000000E+00 0. -1.
         21    1    1    2  503  501 -0.29499744641E+02  0.18688314810E+02  0.96333702171E+02  0.10246789848E+03  0.00000000000E+00 0.  1.
         21    1    1    2  504  502 -0.60466182034E+02 -0.21717581508E+02 -0.66381926775E+03  0.66692115933E+03  0.00000000000E+00 0.  1.
         21    1    1    2  505  504  0.84487518125E+02 -0.73335076120E+02 -0.74297127701E+03  0.75134711856E+03  0.00000000000E+00 0. -1.
         -1    1    1    2    0  505  0.54784085512E+01  0.76364342818E+02  0.53234638041E+03  0.53782357196E+03  0.00000000000E+00 0. -1.
<scales pt_clust_3="34.92117" pt_clust_4="64.30961" pt_clust_5="14000.00000" pt_clust_6="97.70686"></scales>
<clustering>
<clus scale="   34.921">  1  3  2 -1</clus>
<clus scale="   64.310">  2  4  1 -1</clus>
<clus scale="   97.707">  1  6  2 -1</clus>
<clus scale="   64.310">  2  3  1 -1</clus>
</clustering>
</event>
<event>
 6    0  0.4189111E+002  0.1236701E+03  0.7546771E-02  0.1237162E+00
          2   -1    0    0  502    0 -0.00000000000E+00  0.00000000000E+00  0.18381418126E+04  0.18381418126E+04  0.00000000000E+00 0. -1.
         21   -1    0    0  503  502  0.00000000000E+00 -0.00000000000E+00 -0.24455400732E+03  0.24455400732E+03  0.00000000000E+00 0. -1.
         21    1    1    2  503  504  0.64320667301E+02 -0.26471298200E+02 -0.17739535642E+03  0.19054393286E+03  0.00000000000E+00 0. -1.
         21    1    1    2  504  505 -0.24961384613E+02 -0.82221693256E+02 -0.26803406392E+02  0.90010555813E+02  0.00000000000E+00 0. -1.
         21    1    1    2  505  501 -0.47472547687E+02  0.73554321524E+02  0.11328510938E+04  0.11362286221E+04  0.00000000000E+00 0. -1.
          2    1    1    2  501    0  0.81132649983E+01  0.35138669931E+02  0.66493547431E+03  0.66591270914E+03  0.00000000000E+00 0. -1.
<scales pt_clust_3="69.55486" pt_clust_4="113.93324" pt_clust_5="30.87136" pt_clust_6="30.87136"></scales>
<clustering>
<clus scale="   30.871">  5  6 -1 -1</clus>
<clus scale="   69.555">  2  3  1 -1</clus>
<clus scale="  113.933">  2  4  1 -1</clus>
<clus scale="   69.555">  2  3  1 -1</clus>
</clustering>
</event>
<event>
 6    0  0.4189111E+002  0.1350736E+03  0.7546771E-02  0.1220116E+00
          2   -1    0    0  505    0 -0.00000000000E+00  0.00000000000E+00  0.24768575171E+04  0.24768575171E+04  0.00000000000E+00 0. -1.
         21   -1    0    0  503  502  0.00000000000E+00 -0.00000000000E+00 -0.77395959931E+03  0.77395959931E+03  0.00000000000E+00 0.  1.
         21    1    1    2  503  501  0.82451353408E+02  0.39109250104E+02  0.53466434663E+03  0.54239627827E+03  0.00000000000E+00 0. -1.
         21    1    1    2  504  502  0.27945559057E+02  0.28687302206E+02 -0.45662341325E+03  0.45837632695E+03  0.00000000000E+00 0.  1.
         21    1    1    2  505  504 -0.16360498750E+03 -0.13612032060E+02 -0.29023416128E+03  0.33344826844E+03  0.00000000000E+00 0. -1.
          2    1    1    2  501    0  0.53208075037E+02 -0.54184520251E+02  0.19150911457E+04  0.19165962428E+04  0.00000000000E+00 0. -1.
<scales pt_clust_3="14000.00000" pt_clust_4="40.04891" pt_clust_5="135.07359" pt_clust_6="75.93912"></scales>
<clustering>
<clus scale="   40.049">  2  4  1 -1</clus>
<clus scale="   75.939">  1  6  2 -1</clus>
<clus scale="  135.074">  2  5  1 -1</clus>
<clus scale="   40.049">  2  3  1 -1</clus>
</clustering>
</event>
<event>
 6    0  0.4189111E+002  0.1221792E+03  0.7546771E-02  0.1239545E+00
         21   -1    0    0  501  502  0.00000000000E+00  0.00000000000E+00  0.40359319329E+03  0.40359319329E+03  0.00000000000E+00 0.  1.
          2   -1    0    0  505    0 -0.00000000000E+00 -0.00000000000E+00 -0.59724864156E+03  0.59724864156E+03  0.00000000000E+00 0. -1.
         21    1    1    2  503  504 -0.98859855516E+02 -0.51969808469E+02  0.27411996508E+03  0.29599980959E+03  0.00000000000E+00 0.  1.
         21    1    1    2  504  502 -0.23988607493E+02  0.42904904981E+02  0.91466776901E+02  0.10383860283E+03  0.00000000000E+00 0.  1.
         21    1    1    2  505  503 -0.53187876377E+01 -0.40634082056E+02 -0.22120067824E+02  0.46569469903E+02  0.00000000000E+00 0.  1.
          2    1    1    2  501    0  0.12816725065E+03  0.49698985545E+02 -0.53712212243E+03  0.55443395252E+03  0.00000000000E+00 0. -1.
<scales pt_clust_3="14000.00000" pt_clust_4="48.79522" pt_clust_5="40.98070" pt_clust_6="122.17924"></scales>
<clustering>
<clus scale="   40.981">  2  5  1 -1</clus>
<clus scale="   48.795">  1  4  2 -1</clus>
<clus scale="  122.179">  2  6  1 -1</clus>
<clus scale="   48.795">  1  3  2 -1</clus>
</clustering>
</event>
<event>
 6    0  0.4189111E+002  0.9300232E+02  0.7546771E-02  0.1295740E+00
          3   -1    0    0  504    0 -0.00000000000E+00  0.00000000000E+00  0.30502202594E+03  0.30502202594E+03  0.00000000000E+00 0.  1.
         21   -1    0    0  503  502  0.00000000000E+00 -0.00000000000E+00 -0.93318785019E+03  0.93318785019E+03  0.00000000000E+00 0. -1.
         21    1    1    2  503  505 -0.94182619738E+02  0.15387991850E+02 -0.86880288737E+03  0.87402838241E+03  0.00000000000E+00 0. -1.
         21    1    1    2  504  502 -0.35112728836E+02 -0.18216295508E+01 -0.19191169289E+02  0.40056498090E+02  0.00000000000E+00 0.  1.
         21    1    1    2  505  501  0.59399920465E+02 -0.15279720022E+02  0.69110070623E+01  0.61721814732E+02  0.00000000000E+00 0. -1.
          3    1    1    2  501    0  0.69895428109E+02  0.17133577224E+01  0.25291722535E+03  0.26240318089E+03  0.00000000000E+00 0.  1.
<scales pt_clust_3="93.00232" pt_clust_4="35.15995" pt_clust_5="14000.00000" pt_clust_6="39.18455"></scales>
<clustering>
<clus scale="   35.160">  1  4  2 -1</clus>
<clus scale="   39.185">  1  6  2 -1</clus>
<clus scale="   93.002">  2  3  1 -1</clus>
<clus scale="   93.002">  2  3  1 -1</clus>
</clustering>
</event>
<event>
 6    0  0.4189111E+002  0.1192355E+03  0.7546771E-02  0.1244364E+00
          1   -1    0    0  503    0 -0.00000000000E+00  0.00000000000E+00  0.14430729990E+04  0.14430729990E+04  0.00000000000E+00 0. -1.
         21   -1    0    0  505  502  0.00000000000E+00 -0.00000000000E+00 -0.12611389690E+04  0.12611389690E+04  0.00000000000E+00 0. -1.
         21    1    1    2  503  504 -0.11835435004E+03  0.15726668121E+02  0.13915259543E+04  0.13966386655E+04  0.00000000000E+00 0. -1.
         21    1    1    2  504  502  0.54544301477E+02  0.65451973711E+02 -0.11831534530E+04  0.11862171535E+04  0.00000000000E+00 0. -1.
         21    1    1    2  505  501  0.43532084994E+02 -0.10362398655E+02 -0.86581412302E+01  0.45578340682E+02  0.00000000000E+00 0.  1.
          1    1    1    2  501    0  0.20277963570E+02 -0.70816243177E+02 -0.17780330145E+02  0.75777808390E+02  0.00000000000E+00 0. -1.
<scales pt_clust_3="119.23552" pt_clust_4="14000.00000" pt_clust_5="44.74843" pt_clust_6="74.50889"></scales>
<clustering>
<clus scale="   44.748">  2  5  1 -1</clus>
<clus scale="   74.509">  2  6  1 -1</clus>
<clus scale="  119.236">  1  3  2 -1</clus>
<clus scale="   44.748">  2  3  1 -1</clus>
</clustering>
</event>
<event>
 6    0  0.4189111E+002  0.9545923E+02  0.7546771E-02  0.1290145E+00
          2   -1    0    0  505    0 -0.00000000000E+00  0.00000000000E+00  0.71895973650E+03  0.71895973650E+03  0.00000000000E+00 0.  1.
         21   -1    0    0  503  502  0.00000000000E+00 -0.00000000000E+00 -0.47199734576E+03  0.47199734576E+03  0.00000000000E+00 0. -1.
         21    1    1    2  503  501 -0.47295765850E+02  0.26324972235E+02 -0.96634755728E+02  0.11076176978E+03  0.00000000000E+00 0.  1.
         21    1    1    2  504  502  0.37775863904E+02 -0.71910582175E+02 -0.34659637935E+03  0.35598763729E+03  0.00000000000E+00 0. -1.
         21    1    1    2  505  504 -0.45118071278E+02 -0.46873156435E+02  0.73185284676E+02  0.97922515507E+02  0.00000000000E+00 0.  1.
          2    1    1    2  501    0  0.54637973225E+02  0.92458766375E+02  0.61700824115E+03  0.62628515969E+03  0.00000000000E+00 0.  1.
<scales pt_clust_3="54.12849" pt_clust_4="47.37268" pt_clust_5="14000.00000" pt_clust_6="95.45923"></scales>
<clustering>
<clus scale="   54.128">  2  3  1 -1</clus>
<clus scale="   47.373">  2  4  1 -1</clus>
<clus scale="   95.459">  1  6  2 -1</clus>
<clus scale="   54.128">  2  3  1 -1</clus>
</clustering>
</event>
<event>
 6    0  0.4189111E+002  0.1175390E+03  0.7546771E-02  0.1247213E+00
         -2   -1    0    0    0  501 -0.00000000000E+00  0.00000000000E+00  0.12654484680E+03  0.12654484680E+03  0.00000000000E+00 0. -1.
         21   -1    0    0  503  502  0.00000000000E+00 -0.00000000000E+00 -0.14779385707E+04  0.14779385707E+04  0.00000000000E+00 0.  1.
         21    1    1    2  503  505 -0.21156681017E+02 -0.12690663695E+03 -0.13605056363E+04  0.13665754593E+04  0.00000000000E+00 0.  1.
         21    1    1    2  504  502  0.31046206372E+02  0.64516619739E+02 -0.83624254273E+02  0.11008758811E+03  0.00000000000E+00 0.  1.
         21    1    1    2  505  501  0.19459483911E+02  0.31413551314E+02  0.16531807167E+02  0.40481889388E+02  0.00000000000E+00 0.  1.
         -2    1    1    2    0  504 -0.29349009265E+02  0.30976465896E+02  0.76204359544E+02  0.87338480624E+02  0.00000000000E+00 0. -1.
<scales pt_clust_3="14000.00000" pt_clust_4="117.53896" pt_clust_5="36.95244" pt_clust_6="58.66340"></scales>
<clustering>
<clus scale="   36.952">  1  5  2 -1</clus>
<clus scale="   58.663">  1  6  2 -1</clus>
<clus scale="  117.539">  1  4  2 -1</clus>
<clus scale="  117.539">  2  3  1 -1</clus>
</clustering>
</event>
<event>
 6    0  0.4189111E+002  0.1826452E+03  0.7546771E-02  0.1165267E+00
          2   -1    0    0  505    0 -0.00000000000E+00  0.00000000000E+00  0.11144900484E+04  0.11144900484E+04  0.00000000000E+00 0.  1.
         21   -1    0    0  504  502  0.00000000000E+00 -0.00000000000E+00 -0.10548248951E+03  0.10548248951E+03  0.00000000000E+00 0. -1.
         21    1    1    2  503  501  0.46359063322E+02  0.14083657705E+02  0.23790875915E+03  0.24279227716E+03  0.00000000000E+00 0.  1.
         21    1    1    2  504  503  0.48484521017E+02 -0.39546035854E+01 -0.37397436617E+02  0.61359236740E+02  0.00000000000E+00 0. -1.
         21    1    1    2  505  502 -0.19762462500E+03  0.65231278060E+02  0.18192342146E+03  0.27641769719E+03  0.00000000000E+00 0. -1.
          2    1    1    2  501    0  0.10278104066E+03 -0.75360332179E+02  0.62657281491E+03  0.63940332684E+03  0.00000000000E+00 0.  1.
<scales pt_clust_3="43.34948" pt_clust_4="48.64553" pt_clust_5="168.57094" pt_clust_6="43.34948"></scales>
<clustering>
<clus scale="   43.349">  3  6 -1 -1</clus>
<clus scale="   48.646">  2  4  1 -1</clus>
<clus scale="  168.571">  2  5  1 -1</clus>
<clus scale="   48.646">  2  3  1 -1</clus>
</clustering>
</event>
<event>
 6    0  0.4189111E+002  0.9512946E+02  0.7546771E-02  0.1290885E+00
         -3   -1    0    0    0  501 -0.00000000000E+00  0.00000000000E+00  0.73389247637E+03  0.73389247637E+03  0.00000000000E+00 0.  1.
         21   -1    0    0  505  502  0.00000000000E+00 -0.00000000000E+00 -0.68162725069E+03  0.68162725069E+03  0.00000000000E+00 0.  1.
         21    1    1    2  503  504  0.53669614841E+02  0.84500809923E+02 -0.11746237993E+03  0.15433154290E+03  0.00000000000E+00 0.  1.
         21    1    1    2  504  502 -0.65150160609E+02  0.11540222925E+02 -0.53786969820E+03  0.54192391755E+03  0.00000000000E+00 0.  1.
         21    1    1    2  505  501 -0.29779706986E+02 -0.22805497663E+02  0.12116062807E+03  0.12683382619E+03  0.00000000000E+00 0. -1.
         -3    1    1    2    0  503  0.41260252754E+02 -0.73235535185E+02  0.58643667574E+03  0.59243044041E+03  0.00000000000E+00 0.  1.
<scales pt_clust_3="95.12946" pt_clust_4="66.24865" pt_clust_5="37.50895" pt_clust_6="14000.00000"></scales>
<clustering>
<clus scale="   37.509">  1  5  2 -1</clus>
<clus scale="   66.249">  2  4  1 -1</clus>
<clus scale="   95.129">  2  3  1 -1</clus>
<clus scale="   66.249">  2  3  1 -1</clus>
</clustering>
</event>
<event>
 6    0  0.4189111E+002  0.1100228E+03  0.7546771E-02  0.1260528E+00
         21   -1    0    0  504  502  0.00000000000E+00  0.00000000000E+00  0.10111965287E+03  0.10111965287E+03  0.00000000000E+00 0. -1.
         -2   -1    0    0    0  501 -0.00000000000E+00 -0.00000000000E+00 -0.69830654043E+03  0.69830654043E+03  0.00000000000E+00 0. -1.
         21    1    1    2  503  501  0.45447978733E+02 -0.19791894295E+02 -0.59603841682E+02  0.77523259696E+02  0.00000000000E+00 0. -1.
         21    1    1    2  504  503  0.26002265014E+02 -0.11523382964E+03  0.32807957967E+02  0.12260226501E+03  0.00000000000E+00 0. -1.
         21    1    1    2  505  502 -0.63598222246E+02  0.63173681966E+02 -0.16751236890E+03  0.18998958313E+03  0.00000000000E+00 0. -1.
         -2    1    1    2    0  505 -0.78520215006E+01  0.71852041968E+02 -0.40287863495E+03  0.40931108546E+03  0.00000000000E+00 0. -1.
<scales pt_clust_3="49.57053" pt_clust_4="110.02278" pt_clust_5="14000.00000" pt_clust_6="62.86379"></scales>
<clustering>
<clus scale="   49.571">  2  3  1 -1</clus>
<clus scale="   62.864">  2  6  1 -1</clus>
<clus scale="  110.023">  1  4  2 -1</clus>
<clus scale="  110.023">  1  3  2 -1</clus>
</clustering>
</event>
<event>
 6    0  0.4189111E+002  0.1180767E+03  0.7546771E-02  0.1246304E+00
         21   -1    0    0  501  502  0.00000000000E+00  0.00000000000E+00  0.29936019667E+02  0.29936019667E+02  0.00000000000E+00 0. -1.
          2   -1    0    0  503    0 -0.00000000000E+00 -0.00000000000E+00 -0.15973975331E+04  0.15973975331E+04  0.00000000000E+00 0.  1.
         21    1    1    2  503  504 -0.54975850007E+01  0.38936053037E+02 -0.51083099387E+03  0.51234221373E+03  0.00000000000E+00 0.  1.
         21    1    1    2  504  505 -0.83093121188E+02  0.43016463484E+02 -0.18547014857E+03  0.20773555047E+03  0.00000000000E+00 0. -1.
         21    1    1    2  505  502 -0.13558558132E+02  0.30635908967E+02 -0.13325930859E+02  0.36055150119E+02  0.00000000000E+00 0. -1.
          2    1    1    2  501    0  0.10214926432E+03 -0.11258842549E+03 -0.85783444012E+03  0.87120063844E+03  0.00000000000E+00 0.  1.
<scales pt_clust_3="40.63532" pt_clust_4="14000.00000" pt_clust_5="33.50214" pt_clust_6="118.07674"></scales>
<clustering>
<clus scale="   33.502">  1  5  2 -1</clus>
<clus scale="   40.635">  2  3  1 -1</clus>
<clus scale="  118.077">  2  6  1 -1</clus>
<clus scale="   33.502">  1  3  2 -1</clus>
</clustering>
</event>
<event>
 6    0  0.4189111E+002  0.1351548E+03  0.7546771E-02  0.1220001E+00
          1   -1    0    0  505    0 -0.00000000000E+00  0.00000000000E+00  0.23592347718E+04  0.23592347718E+04  0.00000000000E+00 0.  1.
         21   -1    0    0  503  502  0.00000000000E+00 -0.00000000000E+00 -0.77637832745E+03  0.77637832745E+03  0.00000000000E+00 0.  1.
         21    1    1    2  503  504  0.17314362109E+02 -0.15185314894E+03 -0.66150984447E+03  0.67893625644E+03  0.00000000000E+00 0.  1.
         21    1    1    2  504  501 -0.67729562838E+02  0.74004219820E+02 -0.75922996208E+02  0.12581025231E+03  0.00000000000E+00 0.  1.
         21    1    1    2  505  502 -0.24816431542E+02  0.36972436834E+02  0.10665695234E+03  0.11557907182E+03  0.00000000000E+00 0. -1.
          1    1    1    2  501    0  0.75231632272E+02  0.40876492287E+02  0.22136323327E+04  0.22152875187E+04  0.00000000000E+00 0.  1.
<scales pt_clust_3="135.15476" pt_clust_4="14000.00000" pt_clust_5="44.52883" pt_clust_6="92.48715"></scales>
<clustering>
<clus scale="   44.529">  1  5  2 -1</clus>
<clus scale="   92.487">  1  6  2 -1</clus>
<clus scale="  135.155">  2  3  1 -1</clus>
<clus scale="  135.155">  2  3  1 -1</clus>
</clustering>
</event>
<event>
 6    0  0.4189111E+002  0.8763975E+02  0.7546771E-02  0.1308670E+00
          2   -1    0    0  503    0 -0.00000000000E+00  0.00000000000E+00  0.26156630592E+04  0.26156630592E+04  0.00000000000E+00 0.  1.
         21   -1    0    0  504  502  0.00000000000E+00 -0.00000000000E+00 -0.80172681308E+02  0.80172681308E+02  0.00000000000E+00 0. -1.
         21    1    1    2  503  505 -0.27655252039E+02 -0.24398990201E+02  0.59090143125E+03  0.59205120145E+03  0.00000000000E+00 0.  1.
         21    1    1    2  504  501 -0.66744541703E+02  0.30557944494E+02 -0.32837351335E+02  0.80417121694E+02  0.00000000000E+00 0. -1.
         21    1    1    2  505  502  0.15256050366E+03 -0.12587243398E+02  0.23813825924E+03  0.28309534875E+03  0.00000000000E+00 0. -1.
          2    1    1    2  501    0 -0.58160709916E+02  0.64282891053E+01  0.17392880387E+04  0.17402720686E+04  0.00000000000E+00 0.  1.
<scales pt_clust_3="36.87985" pt_clust_4="73.58445" pt_clust_5="87.63975" pt_clust_6="14000.00000"></scales>
<clustering>
<clus scale="   36.880">  1  3  2 -1</clus>
<clus scale="   73.584">  2  4  1 -1</clus>
<clus scale="   87.640">  2  5  1 -1</clus>
<clus scale="   73.584">  2  3  1 -1</clus>
</clustering>
</event>
<event>
 6    0  0.4189111E+002  0.1313119E+03  0.7546771E-02  0.1225522E+00
         21   -1    0    0  504  502  0.00000000000E+00  0.00000000000E+00  0.64716776545E+03  0.64716776545E+03  0.00000000000E+00 0. -1.
          1   -1    0    0  505    0 -0.00000000000E+00 -0.00000000000E+00 -0.65051428051E+03  0.65051428051E+03  0.00000000000E+00 0. -1.
         21    1    1    2  503  502  0.14963557862E+03 -0.45513174760E+02  0.58609885710E+03  0.60660870894E+03  0.00000000000E+00 0. -1.
         21    1    1    2  504  501 -0.33063222664E+02 -0.12993435045E+02  0.25170345970E+02  0.43537941654E+02  0.00000000000E+00 0. -1.
         21    1    1    2  505  503 -0.17476549267E+02 -0.51602214555E+02 -0.13553161028E+03  0.14607202233E+03  0.00000000000E+00 0.  1.
          1    1    1    2  501    0 -0.99095806693E+02  0.11010882436E+03 -0.47908410785E+03  0.50146337304E+03  0.00000000000E+00 0. -1.
<scales pt_clust_3="131.31188" pt_clust_4="35.52472" pt_clust_5="54.67891" pt_clust_6="14000.00000"></scales>
<clustering>
<clus scale="   35.525">  1  4  2 -1</clus>
<clus scale="   54.679">  2  5  1 -1</clus>
<clus scale="  131.312">  1  3  2 -1</clus>
<clus scale="   35.525">  1  3  2 -1</clus>
</clustering>
</event>
<event>
 6    0  0.4189111E+002  0.7855210E+02  0.7546771E-02  0.1333211E+00
         21   -1    0    0  501  502  0.00000000000E+00  0.00000000000E+00  0.21001258322E+03  0.21001258322E+03  0.00000000000E+00 0.  1.
          2   -1    0    0  503    0 -0.00000000000E+00 -0.00000000000E+00 -0.29252291617E+03  0.29252291617E+03  0.00000000000E+00 0. -1.
         21    1    1    2  503  504 -0.72748129311E+01 -0.45367849944E+02 -0.32820351853E+02  0.56465389465E+02  0.00000000000E+00 0.  1.
         21    1    1    2  504  505  0.20418662386E+02 -0.55114166815E+02  0.13700499670E+03  0.14908005325E+03  0.00000000000E+00 0.  1.
         21    1    1    2  505  502 -0.40048909586E+02 -0.21125494881E+02  0.24740977612E+02  0.51597651751E+02  0.00000000000E+00 0.  1.
          2    1    1    2  501    0  0.26905060132E+02  0.12160751164E+03 -0.21143595541E+03  0.24539240491E+03  0.00000000000E+00 0. -1.
<scales pt_clust_3="47.88353" pt_clust_4="78.55210" pt_clust_5="45.27915" pt_clust_6="14000.00000"></scales>
<clustering>
<clus scale="   45.279">  1  5  2 -1</clus>
<clus scale="   47.884">  2  3  1 -1</clus>
<clus scale="   78.552">  1  4  2 -1</clus>
<clus scale="   45.279">  1  3  2 -1</clus>
</clustering>
</event>
<event>
 6    0  0.4189111E+002  0.5669748E+02  0.7546771E-02  0.1412238E+00
         21   -1    0    0  504  502  0.00000000000E+00  0.00000000000E+00  0.22350796082E+03  0.22350796082E+03  0.00000000000E+00 0. -1.
          2   -1    0    0  503    0 -0.00000000000E+00 -0.00000000000E+00 -0.26331181924E+03  0.26331181924E+03  0.00000000000E+00 0.  1.
         21    1    1    2  503  505  0.37630812624E+02  0.20605940760E+02 -0.29848140871E+02  0.52264656956E+02  0.00000000000E+00 0. -1.
         21    1    1    2  504  501  0.76094526017E+02  0.55762954159E+02  0.15530678042E+03  0.18171428120E+03  0.00000000000E+00 0. -1.
         21    1    1    2  505  502 -0.29459450427E+02 -0.49875231223E+02  0.78880171327E+01  0.58460403038E+02  0.00000000000E+00 0. -1.
          2    1    1    2  501    0 -0.84265888213E+02 -0.26493663695E+02 -0.17315051511E+03  0.19438043887E+03  0.00000000000E+00 0.  1.
<scales pt_clust_3="42.90318" pt_clust_4="56.69748" pt_clust_5="53.78777" pt_clust_6="14000.00000"></scales>
<clustering>
<clus scale="   42.903">  2  3  1 -1</clus>
<clus scale="   53.788">  1  5  2 -1</clus>
<clus scale="   56.697">  1  4  2 -1</clus>
<clus scale="   53.788">  1  3  2 -1</clus>
</clustering>
</event>
<event>
 6    0  0.4189111E+002  0.7710519E+02  0.7546771E-02  0.1337473E+00
          2   -1    0    0  504    0 -0.00000000000E+00  0.00000000000E+00  0.15507077360E+04  0.15507077360E+04  0.00000000000E+00 0. -1.
         21   -1    0    0  505  502  0.00000000000E+00 -0.00000000000E+00 -0.16613998469E+02  0.16613998469E+02  0.00000000000E+00 0. -1.
         21    1    1    2  503  502 -0.36865673976E+02 -0.58131144175E+02  0.20652128676E+03  0.21769095003E+03  0.00000000000E+00 0. -1.
         21    1    1    2  504  503 -0.19558527288E+02 -0.32342910791E+02  0.48057938024E+03  0.48206341967E+03  0.00000000000E+00 0.  1.
         21    1    1    2  505  501  0.80021614794E+02  0.43537092755E+02  0.21644780339E+03  0.23483736686E+03  0.00000000000E+00 0. -1.
          2    1    1    2  501    0 -0.23597413530E+02  0.46936962211E+02  0.63054526712E+03  0.63272999790E+03  0.00000000000E+00 0. -1.
<scales pt_clust_3="77.10519" pt_clust_4="37.79682" pt_clust_5="14000.00000" pt_clust_6="44.83533"></scales>
<clustering>
<clus scale="   37.797">  1  4  2 -1</clus>
<clus scale="   44.835">  1  6  2 -1</clus>
<clus scale="   77.105">  2  3  1 -1</clus>
<clus scale="   77.105">  2  3  1 -1</clus>
</clustering>
</event>
<event>
 6    0  0.4189111E+002  0.1188260E+03  0.7546771E-02  0.1245047E+00
         21   -1    0    0  504  502  0.00000000000E+00  0.00000000000E+00  0.15321541325E+03  0.15321541325E+03  0.00000000000E+00 0. -1.
         -2   -1    0    0    0  501 -0.00000000000E+00 -0.00000000000E+00 -0.56499680458E+03  0.56499680458E+03  0.00000000000E+00 0.  1.
         21    1    1    2  503  502 -0.37303011179E+01 -0.10096853777E+03  0.43530009337E+02  0.11001555562E+03  0.00000000000E+00 0. -1.
         21    1    1    2  504  505 -0.66922515116E+01  0.19201065096E+03 -0.68672503823E+02  0.20403134341E+03  0.00000000000E+00 0. -1.
         21    1    1    2  505  501 -0.24505726779E+02 -0.34017437913E+02 -0.80006579270E+02  0.90325906880E+02  0.00000000000E+00 0.  1.
         -2    1    1    2    0  503  0.34928279409E+02 -0.57024675274E+02 -0.30663231758E+03  0.31383941192E+03  0.00000000000E+00 0.  1.
<scales pt_clust_3="118.82596" pt_clust_4="14000.00000" pt_clust_5="41.92513" pt_clust_6="81.29061"></scales>
<clustering>
<clus scale="   41.925">  2  5  1 -1</clus>
<clus scale="   81.291">  2  6  1 -1</clus>
<clus scale="  118.826">  1  3  2 -1</clus>
<clus scale="  118.826">  1  3  2 -1</clus>
</clustering>
</event>
<event>
 6    0  0.4189111E+002  0.1165774E+03  0.7546771E-02  0.1248852E+00
         21   -1    0    0  504  502  0.00000000000E+00  0.00000000000E+00  0.25365971386E+03  0.25365971386E+03  0.00000000000E+00 0. -1.
          2   -1    0    0  505    0 -0.00000000000E+00 -0.00000000000E+00 -0.29530515992E+04  0.29530515992E+04  0.00000000000E+00 0. -1.
         21    1    1    2  503  501 -0.35669248380E+02 -0.57658353429E+02 -0.12478769457E+03  0.14201672337E+03  0.00000000000E+00 0. -1.
         21    1    1    2  504  503 -0.11296833972E+02 -0.60967201727E+02 -0.21590453532E+03  0.22463166855E+03  0.00000000000E+00 0. -1.
         21    1    1    2  505  502  0.82168349735E+02  0.16566626619E+02  0.23222513684E+03  0.24688986410E+03  0.00000000000E+00 0. -1.
          2    1    1    2  501    0 -0.35202267383E+02  0.10205892854E+03 -0.25909247922E+04  0.25931730570E+04  0.00000000000E+00 0. -1.
<scales pt_clust_3="43.63566" pt_clust_4="43.63566" pt_clust_5="83.82178" pt_clust_6="107.27665"></scales>
<clustering>
<clus scale="   43.636">  3  4 -1 -1</clus>
<clus scale="   83.822">  1  5  2 -1</clus>
<clus scale="  107.277">  2  6  1 -1</clus>
<clus scale="   83.822">  1  3  2 -1</clus>
</clustering>
</event>
<event>
 6    0  0.4189111E+002  0.1176656E+03  0.7546771E-02  0.1246999E+00
         21   -1    0    0  504  502  0.00000000000E+00  0.00000000000E+00  0.97044149002E+02  0.97044149002E+02  0.00000000000E+00 0. -1.
          2   -1    0    0  505    0 -0.00000000000E+00 -0.00000000000E+00 -0.14528495665E+04  0.14528495665E+04  0.00000000000E+00 0.  1.
         21    1    1    2  503  501  0.13280195450E+03  0.59393330242E+02 -0.43584485160E+02  0.15186683029E+03  0.00000000000E+00 0.  1.
         21    1    1    2  504  503 -0.21938762870E+02 -0.21896899693E+02  0.33020943986E+02  0.45289803203E+02  0.00000000000E+00 0. -1.
         21    1    1    2  505  502 -0.11148777085E+02 -0.28310579612E+02 -0.13628554530E+03  0.13964073190E+03  0.00000000000E+00 0. -1.
          2    1    1    2  501    0 -0.99714414541E+02 -0.91858509371E+01 -0.12089563310E+04  0.12130963501E+04  0.00000000000E+00 0.  1.
<scales pt_clust_3="117.66559" pt_clust_4="31.12668" pt_clust_5="30.42670" pt_clust_6="14000.00000"></scales>
<clustering>
<clus scale="   30.427">  2  5  1 -1</clus>
<clus scale="   31.127">  1  4  2 -1</clus>
<clus scale="  117.666">  1  3  2 -1</clus>
<clus scale="   31.127">  1  3  2 -1</clus>
</clustering>
</event>
<event>
 6    0  0.4189111E+002  0.1031725E+03  0.7546771E-02  0.1273763E+00
          1   -1    0    0  505    0 -0.00000000000E+00  0.00000000000E+00  0.11497051001E+04  0.11497051001E+04  0.00000000000E+00 0.  1.
         21   -1    0    0  503  502  0.00000000000E+00 -0.00000000000E+00 -0.73713047948E+02  0.73713047948E+02  0.00000000000E+00 0.  1.
         21    1    1    2  503  501 -0.11393478474E+03 -0.33524743669E+02  0.63041868201E+03  0.64150819031E+03  0.00000000000E+00 0.  1.
         21    1    1    2  504  502  0.46849886462E+01 -0.42701897107E+02 -0.41054367509E+02  0.59421058781E+02  0.00000000000E+00 0.  1.
         21    1    1    2  505  504  0.47767564183E+02 -0.11158954166E+00  0.32192781077E+02  0.57603192565E+02  0.00000000000E+00 0.  1.
          1    1    1    2  501    0  0.61482231912E+02  0.76338230318E+02  0.45443495661E+03  0.46488570642E+03  0.00000000000E+00 0.  1.
<scales pt_clust_3="103.17255" pt_clust_4="42.95813" pt_clust_5="55.40480" pt_clust_6="14000.00000"></scales>
<clustering>
<clus scale="   42.958">  2  4  1 -1</clus>
<clus scale="   55.405">  2  5  1 -1</clus>
<clus scale="  103.173">  2  3  1 -1</clus>
<clus scale="   42.958">  2  3  1 -1</clus>
</clustering>
</event>
<event>
 6    0  0.4189111E+002  0.1629699E+03  0.7546771E-02  0.1185384E+00
          1   -1    0    0  504    0 -0.00000000000E+00  0.00000000000E+00  0.73156915517E+03  0.73156915517E+03  0.00000000000E+00 0.  1.
         21   -1    0    0  505  502  0.00000000000E+00 -0.00000000000E+00 -0.18901908156E+03  0.18901908156E+03  0.00000000000E+00 0.  1.
         21    1    1    2  503  502 -0.10030174725E+03 -0.12571434280E+03 -0.58628434253E+02  0.17117777248E+03  0.00000000000E+00 0.  1.
         21    1    1    2  504  503  0.38145182555E+02 -0.73012431857E+00  0.26169551282E+03  0.26446196222E+03  0.00000000000E+00 0.  1.
         21    1    1    2  505  501  0.23118966393E+02 -0.21646205568E+02 -0.54061150760E+02  0.62655030477E+02  0.00000000000E+00 0. -1.
          1    1    1    2  501    0  0.39037598307E+02  0.14809067268E+03  0.39354414581E+03  0.42229347155E+03  0.00000000000E+00 0.  1.
<scales pt_clust_3="162.96993" pt_clust_4="38.40191" pt_clust_5="31.67088" pt_clust_6="14000.00000"></scales>
<clustering>
<clus scale="   31.671">  2  5  1 -1</clus>
<clus scale="   38.402">  1  4  2 -1</clus>
<clus scale="  162.970">  2  3  1 -1</clus>
<clus scale="   31.671">  2  3  1 -1</clus>
</clustering>
</event>
<event>
 6    0  0.4189111E+002  0.1081190E+03  0.7546771E-02  0.1264093E+00
         21   -1    0    0  504  502  0.00000000000E+00  0.00000000000E+00  0.67076151582E+03  0.67076151582E+03  0.00000000000E+00 0.  1.
          2   -1    0    0  505    0 -0.00000000000E+00 -0.00000000000E+00 -0.42459882123E+04  0.42459882123E+04  0.00000000000E+00 0. -1.
         21    1    1    2  503  502  0.59328943704E+02 -0.12570308707E+03  0.63971657186E+03  0.65464378250E+03  0.00000000000E+00 0.  1.
         21    1    1    2  504  501 -0.10472099852E+02  0.30122309742E+02 -0.26468980314E+01  0.32000382633E+02  0.00000000000E+00 0.  1.
         21    1    1    2  505  503 -0.48868231273E+02 -0.92844135659E+02 -0.41229294787E+03  0.42543344064E+03  0.00000000000E+00 0.  1.
          2    1    1    2  501    0  0.11387421597E-01  0.18842491298E+03 -0.38000034224E+04  0.38046721224E+04  0.00000000000E+00 0. -1.
<scales pt_clust_3="108.11896" pt_clust_4="31.89073" pt_clust_5="104.70184" pt_clust_6="14000.00000"></scales>
<clustering>
<clus scale="   31.891">  1  4  2 -1</clus>
<clus scale="  104.702">  2  5  1 -1</clus>
<clus scale="  108.119">  1  3  2 -1</clus>
<clus scale="   31.891">  1  3  2 -1</clus>
</clustering>
</event>
<event>
 6    0  0.4189111E+002  0.1727272E+03  0.7546771E-02  0.1175033E+00
          1   -1    0    0  502    0 -0.00000000000E+00  0.00000000000E+00  0.14709498776E+04  0.14709498776E+04  0.00000000000E+00 0. -1.
         21   -1    0    0  505  502  0.00000000000E+00 -0.00000000000E+00 -0.29374558849E+02  0.29374558849E+02  0.00000000000E+00 0.  1.
         21    1    1    2  503  504 -0.11117287735E+03  0.98235116682E+02  0.43448868481E+03  0.45911868186E+03  0.00000000000E+00 0.  1.
         21    1    1    2  504  501  0.98028372887E+02 -0.51848502181E+02  0.70431747458E+03  0.71299434365E+03  0.00000000000E+00 0. -1.
         21    1    1    2  505  503 -0.48321215387E+02 -0.39295593291E+02  0.11912448714E+03  0.13442368446E+03  0.00000000000E+00 0. -1.
          1    1    1    2  501    0  0.61465719851E+02 -0.70910212098E+01  0.18364467223E+03  0.19378772649E+03  0.00000000000E+00 0. -1.
<scales pt_clust_3="158.01889" pt_clust_4="52.09830" pt_clust_5="62.28229" pt_clust_6="52.09830"></scales>
<clustering>
<clus scale="   52.098">  4  6 -1 -1</clus>
<clus scale="   62.282">  2  5  1 -1</clus>
<clus scale="  158.019">  2  3  1 -1</clus>
<clus scale="   62.282">  2  3  1 -1</clus>
</clustering>
</event>
<event>
 6    0  0.4189111E+002  0.1713176E+03  0.7546771E-02  0.1176481E+00
          1   -1    0    0  504    0 -0.00000000000E+00  0.00000000000E+00  0.25196124427E+04  0.25196124427E+04  0.00000000000E+00 0. -1.
         21   -1    0    0  505  502  0.00000000000E+00 -0.00000000000E+00 -0.11721153929E+03  0.11721153929E+03  0.00000000000E+00 0. -1.
         21    1    1    2  503  502 -0.51800938763E+01 -0.35837916633E+02 -0.63974809251E+02  0.73511671590E+02  0.00000000000E+00 0. -1.
         21    1    1    2  504  503  0.32175865531E+02 -0.39910547441E+02  0.15047726400E+04  0.15056456543E+04  0.00000000000E+00 0. -1.
         21    1    1    2  505  501  0.20268787011E+02  0.20855664332E+03  0.22406059548E+03  0.30677328379E+03  0.00000000000E+00 0. -1.
          1    1    1    2  501    0 -0.47264558665E+02 -0.13280817924E+03  0.73754247716E+03  0.75089337232E+03  0.00000000000E+00 0. -1.
<scales pt_clust_3="36.21035" pt_clust_4="51.48791" pt_clust_5="171.31760" pt_clust_6="14000.00000"></scales>
<clustering>
<clus scale="   36.210">  2  3  1 -1</clus>
<clus scale="   51.488">  1  4  2 -1</clus>
<clus scale="  171.318">  2  5  1 -1</clus>
<clus scale="   36.210">  2  3  1 -1</clus>
</clustering>
</event>
<event>
 6    0  0.4189111E+002  0.6866564E+02  0.7546771E-02  0.1364690E+00
          2   -1    0    0  505    0 -0.00000000000E+00  0.00000000000E+00  0.37182290145E+03  0.37182290145E+03  0.00000000000E+00 0.  1.
         21   -1    0    0  504  502  0.00000000000E+00 -0.00000000000E+00 -0.14353818940E+04  0.14353818940E+04  0.00000000000E+00 0. -1.
         21    1    1    2  503  502 -0.95247723163E+02 -0.31218451539E+02 -0.25369868666E+03  0.27278149515E+03  0.00000000000E+00 0. -1.
         21    1    1    2  504  501  0.66010451106E+02 -0.84307469138E+00 -0.11566988768E+04  0.11585811935E+04  0.00000000000E+00 0. -1.
         21    1    1    2  505  503  0.64411553010E+02  0.67322976105E+02  0.19655295672E+03  0.21751849592E+03  0.00000000000E+00 0.  1.
          2    1    1    2  501    0 -0.35174280953E+02 -0.35261449875E+02  0.15028561423E+03  0.15832361079E+03  0.00000000000E+00 0.  1.
<scales pt_clust_3="14000.00000" pt_clust_4="68.66564" pt_clust_5="45.78871" pt_clust_6="49.80562"></scales>
<clustering>
<clus scale="   49.806">  1  6  2 -1</clus>
<clus scale="   45.789">  1  5  2 -1</clus>
<clus scale="   68.666">  2  4  1 -1</clus>
<clus scale="   68.666">  2  3  1 -1</clus>
</clustering>
</event>
<event>
 6    0  0.4189111E+002  0.1426557E+03  0.7546771E-02  0.1209800E+00
          3   -1    0    0  503    0 -0.00000000000E+00  0.00000000000E+00  0.22444399004E+03  0.22444399004E+03  0.00000000000E+00 0.  1.
         21   -1    0    0  504  502  0.00000000000E+00 -0.00000000000E+00 -0.12938754310E+04  0.12938754310E+04  0.00000000000E+00 0. -1.
         21    1    1    2  503  505  0.31978928090E+02  0.43596889449E+01 -0.72192497931E+01  0.33072288960E+02  0.00000000000E+00 0. -1.
         21    1    1    2  504  501 -0.60308411584E+02 -0.12686656386E+03 -0.99773372190E+03  0.10075737240E+04  0.00000000000E+00 0. -1.
         21    1    1    2  505  502 -0.42993363487E+02  0.18989417539E+03 -0.22000149889E+03  0.29378374132E+03  0.00000000000E+00 0.  1.
          3    1    1    2  501    0  0.71322846981E+02 -0.67387300474E+02  0.15552302965E+03  0.18388966670E+03  0.00000000000E+00 0.  1.
<scales pt_clust_3="32.27474" pt_clust_4="142.65569" pt_clust_5="14000.00000" pt_clust_6="116.13380"></scales>
<clustering>
<clus scale="   32.275">  1  3  2 -1</clus>
<clus scale="  116.134">  1  6  2 -1</clus>
<clus scale="  142.656">  2  4  1 -1</clus>
<clus scale="  142.656">  2  3  1 -1</clus>
</clustering>
</event>
<event>
 6    0  0.4189111E+002  0.8625518E+02  0.7546771E-02  0.1312182E+00
          2   -1    0    0  504    0 -0.00000000000E+00  0.00000000000E+00  0.17224294669E+04  0.17224294669E+04  0.00000000000E+00 0. -1.
         21   -1    0    0  505  502  0.00000000000E+00 -0.00000000000E+00 -0.98746208660E+02  0.98746208660E+02  0.00000000000E+00 0. -1.
         21    1    1    2  503  502  0.53125021432E+02 -0.94083983788E+01 -0.75253337347E+02  0.92595089741E+02  0.00000000000E+00 0. -1.
         21    1    1    2  504  503  0.38375337200E+02 -0.30723290388E+01  0.14971152421E+03  0.15458216647E+03  0.00000000000E+00 0. -1.
         21    1    1    2  505  501  0.27590923827E+02 -0.22511161163E+02  0.22254960479E+02  0.41991602976E+02  0.00000000000E+00 0. -1.
          2    1    1    2  501    0 -0.11909128246E+03  0.34991888581E+02  0.15269701109E+04  0.15320068164E+04  0.00000000000E+00 0. -1.
<scales pt_clust_3="86.25518" pt_clust_4="39.30486" pt_clust_5="35.60915" pt_clust_6="14000.00000"></scales>
<clustering>
<clus scale="   35.609">  2  5  1 -1</clus>
<clus scale="   39.305">  1  4  2 -1</clus>
<clus scale="   86.255">  2  3  1 -1</clus>
<clus scale="   35.609">  2  3  1 -1</clus>
</clustering>
</event>
<event>
 6    0  0.4189111E+002  0.1076561E+03  0.7546771E-02  0.1264973E+00
         21   -1    0    0  505  502  0.00000000000E+00  0.00000000000E+00  0.15329734921E+04  0.15329734921E+04  0.00000000000E+00 0. -1.
         -3   -1    0    0    0  501 -0.00000000000E+00 -0.00000000000E+00 -0.90644926086E+02  0.90644926086E+02  0.00000000000E+00 0. -1.
         21    1    1    2  503  504 -0.28469388111E+02 -0.39542632802E+02 -0.70789303507E+01  0.49236542560E+02  0.00000000000E+00 0.  1.
         21    1    1    2  504  502  0.10363300884E+03  0.71824426294E+02  0.10097161934E+04  0.10175585191E+04  0.00000000000E+00 0. -1.
         21    1    1    2  505  501 -0.33800605596E+02  0.93108341740E+00  0.48553545647E+03  0.48671144156E+03  0.00000000000E+00 0.  1.
         -3    1    1    2    0  503 -0.41363015135E+02 -0.33212876909E+02 -0.45844153442E+02  0.70111914953E+02  0.00000000000E+00 0. -1.
<scales pt_clust_3="34.23703" pt_clust_4="101.57044" pt_clust_5="33.81343" pt_clust_6="34.23703"></scales>
<clustering>
<clus scale="   33.813">  1  5  2 -1</clus>
<clus scale="   34.237">  3  6 -1 -1</clus>
<clus scale="  101.570">  1  4  2 -1</clus>
<clus scale="   33.813">  1  3  2 -1</clus>
</clustering>
</event>
<event>
 6    0  0.4189111E+002  0.8757465E+02  0.7546771E-02  0.1308834E+00
          1   -1    0    0  504    0 -0.00000000000E+00  0.00000000000E+00  0.38419254875E+03  0.38419254875E+03  0.00000000000E+00 0.  1.
         21   -1    0    0  503  502  0.00000000000E+00 -0.00000000000E+00 -0.10027711045E+03  0.10027711045E+03  0.00000000000E+00 0.  1.
         21    1    1    2  503  505  0.36807151690E+02 -0.29298725547E+02 -0.28812586997E+02  0.55166537898E+02  0.00000000000E+00 0.  1.
         21    1    1    2  504  502  0.50027739298E+02  0.28350478143E+02  0.78790710284E+02  0.97542300246E+02  0.00000000000E+00 0.  1.
         21    1    1    2  505  501 -0.11140464604E+03  0.66639777621E+02  0.57661578568E+02  0.14204475620E+03  0.00000000000E+00 0.  1.
          1    1    1    2  501    0  0.24569755051E+02 -0.65691530218E+02  0.17627573645E+03  0.18971606486E+03  0.00000000000E+00 0.  1.
<scales pt_clust_3="47.04447" pt_clust_4="60.73676" pt_clust_5="87.57465" pt_clust_6="14000.00000"></scales>
<clustering>
<clus scale="   47.044">  2  3  1 -1</clus>
<clus scale="   60.737">  1  4  2 -1</clus>
<clus scale="   87.575">  2  5  1 -1</clus>
<clus scale="   47.044">  2  3  1 -1</clus>
</clustering>
</event>
<event>
 6    0  0.4189111E+002  0.7463954E+02  0.7546771E-02  0.1344991E+00
         21   -1    0    0  505  502  0.00000000000E+00  0.00000000000E+00  0.22812128289E+03  0.22812128289E+03  0.00000000000E+00 0. -1.
          4   -1    0    0  503    0 -0.00000000000E+00 -0.00000000000E+00 -0.86769228403E+03  0.86769228403E+03  0.00000000000E+00 0.  1.
         21    1    1    2  503  504  0.35237014541E+02  0.51302299823E+02 -0.13083576411E+03  0.14488467942E+03  0.00000000000E+00 0.  1.
         21    1    1    2  504  502  0.30953934388E+02 -0.25122778485E+02  0.15188380947E+03  0.15702863316E+03  0.00000000000E+00 0. -1.
         21    1    1    2  505  501 -0.93977597661E+02  0.55444874080E+02  0.17337060702E+02  0.11048301497E+03  0.00000000000E+00 0.  1.
          4    1    1    2  501    0  0.27786648732E+02 -0.81624395417E+02 -0.67795610720E+03  0.68341723936E+03  0.00000000000E+00 0.  1.
<scales pt_clust_3="62.05029" pt_clust_4="39.86603" pt_clust_5="14000.00000" pt_clust_6="74.63954"></scales>
<clustering>
<clus scale="   39.866">  1  4  2 -1</clus>
<clus scale="   62.050">  2  3  1 -1</clus>
<clus scale="   74.640">  2  6  1 -1</clus>
<clus scale="   39.866">  1  3  2 -1</clus>
</clustering>
</event>
<event>
 6    0  0.4189111E+002  0.2113832E+03  0.7546771E-02  0.1140475E+00
         21   -1    0    0  503  502  0.00000000000E+00  0.00000000000E+00  0.17676341989E+04  0.17676341989E+04  0.00000000000E+00 0. -1.
          2   -1    0    0  504    0 -0.00000000000E+00 -0.00000000000E+00 -0.44268377670E+02  0.44268377670E+02  0.00000000000E+00 0. -1.
         21    1    1    2  503  501 -0.18900332326E+03 -0.61860962378E+02  0.12877227664E+04  0.13029884719E+04  0.00000000000E+00 0. -1.
         21    1    1    2  504  505  0.85751357053E+02  0.28179862731E+01  0.10758730670E+03  0.13760910161E+03  0.00000000000E+00 0. -1.
         21    1    1    2  505  502  0.81678096359E+02  0.27838068596E+02  0.32140821363E+03  0.33279048856E+03  0.00000000000E+00 0. -1.
          2    1    1    2  501    0  0.21573869851E+02  0.31204907509E+02  0.66475345470E+01  0.38514514518E+02  0.00000000000E+00 0. -1.
<scales pt_clust_3="190.83148" pt_clust_4="87.85676" pt_clust_5="87.85676" pt_clust_6="37.93650"></scales>
<clustering>
<clus scale="   37.937">  2  6  1 -1</clus>
<clus scale="   87.857">  4  5 -1 -1</clus>
<clus scale="  190.831">  1  3  2 -1</clus>
<clus scale="  190.831">  1  3  2 -1</clus>
</clustering>
</event>
<event>
 6    0  0.4189111E+002  0.9950922E+02  0.7546771E-02  0.1281331E+00
         21   -1    0    0  504  502  0.00000000000E+00  0.00000000000E+00  0.95286920636E+02  0.95286920636E+02  0.00000000000E+00 0. -1.
          1   -1    0    0  502    0 -0.00000000000E+00 -0.00000000000E+00 -0.62726924546E+03  0.62726924546E+03  0.00000000000E+00 0.  1.
         21    1    1    2  503  505 -0.52327218766E+02  0.77298493320E+02 -0.15034799761E+03  0.17696811939E+03  0.00000000000E+00 0.  1.
         21    1    1    2  504  503  0.65938488982E+02 -0.38495090653E+02  0.55003594363E+02  0.94101815745E+02  0.00000000000E+00 0. -1.
         21    1    1    2  505  501  0.46820768863E+01  0.36214082006E+02 -0.11248510787E+03  0.11826360840E+03  0.00000000000E+00 0.  1.
          1    1    1    2  501    0 -0.18293347102E+02 -0.75017484672E+02 -0.32415281370E+03  0.33322262256E+03  0.00000000000E+00 0.  1.
<scales pt_clust_3="33.82863" pt_clust_4="76.35284" pt_clust_5="33.82863" pt_clust_6="83.52675"></scales>
<clustering>
<clus scale="   33.829">  3  5 -1 -1</clus>
<clus scale="   76.353">  1  4  2 -1</clus>
<clus scale="   83.527">  2  6  1 -1</clus>
<clus scale="   76.353">  1  3  2 -1</clus>
</clustering>
</event>
<event>
 6    0  0.4189111E+002  0.1010324E+03  0.7546771E-02  0.1278140E+00
         21   -1    0    0  503  502  0.00000000000E+00  0.00000000000E+00  0.35379402798E+03  0.35379402798E+03  0.00000000000E+00 0.  1.
          2   -1    0    0  504    0 -0.00000000000E+00 -0.00000000000E+00 -0.15474924429E+04  0.15474924429E+04  0.00000000000E+00 0. -1.
         21    1    1    2  503  505 -0.23757871144E+02  0.29166422743E+02  0.31282267844E+03  0.31507641106E+03  0.00000000000E+00 0.  1.
         21    1    1    2  504  502  0.15747323003E+02 -0.27812373121E+02 -0.39204467212E+03  0.39334530787E+03  0.00000000000E+00 0. -1.
         21    1    1    2  505  501  0.66140383850E+02  0.64979840715E+02 -0.20015194801E+02  0.94855353555E+02  0.00000000000E+00 0.  1.
          2    1    1    2  501    0 -0.58129835709E+02 -0.66333890336E+02 -0.10944612265E+04  0.10980093984E+04  0.00000000000E+00 0. -1.
<scales pt_clust_3="37.58729" pt_clust_4="31.96101" pt_clust_5="101.03238" pt_clust_6="14000.00000"></scales>
<clustering>
<clus scale="   31.961">  2  4  1 -1</clus>
<clus scale="   37.587">  1  3  2 -1</clus>
<clus scale="  101.032">  1  5  2 -1</clus>
<clus scale="   37.587">  1  3  2 -1</clus>
</clustering>
</event>
<event>
 6    0  0.4189111E+002  0.7346064E+02  0.7546771E-02  0.1348705E+00
         21   -1    0    0  504  502  0.00000000000E+00  0.00000000000E+00  0.56983386754E+02  0.56983386754E+02  0.00000000000E+00 0.  1.
          1   -1    0    0  503    0 -0.00000000000E+00 -0.00000000000E+00 -0.11403211433E+04  0.11403211433E+04  0.00000000000E+00 0.  1.
         21    1    1    2  503  502 -0.30110547424E+02  0.85287363189E+02 -0.38048987935E+03  0.39109222400E+03  0.00000000000E+00 0.  1.
         21    1    1    2  504  505 -0.97916957454E+01 -0.43648355322E+02  0.36116329589E+02  0.57493003843E+02  0.00000000000E+00 0.  1.
         21    1    1    2  505  501  0.13651555894E+01 -0.71278080001E+02 -0.40329346292E+03  0.40954614584E+03  0.00000000000E+00 0.  1.
          1    1    1    2  501    0  0.38537087580E+02  0.29639072133E+02 -0.33567074387E+03  0.33917315637E+03  0.00000000000E+00 0.  1.
<scales pt_clust_3="73.46064" pt_clust_4="44.73317" pt_clust_5="14000.00000" pt_clust_6="42.98629"></scales>
<clustering>
<clus scale="   44.733">  1  4  2 -1</clus>
<clus scale="   42.986">  2  6  1 -1</clus>
<clus scale="   73.461">  1  3  2 -1</clus>
<clus scale="   44.733">  1  3  2 -1</clus>
</clustering>
</event>
<event>
 6    0  0.4189111E+002  0.8709989E+02  0.7546771E-02  0.1310031E+00
         21   -1    0    0  505  502  0.00000000000E+00  0.00000000000E+00  0.11822023155E+04  0.11822023155E+04  0.00000000000E+00 0.  1.
          2   -1    0    0  504    0 -0.00000000000E+00 -0.00000000000E+00 -0.44302206112E+03  0.44302206112E+03  0.00000000000E+00 0. -1.
         21    1    1    2  503  502 -0.63663981217E+01 -0.52774770992E+02  0.80235750899E+03  0.80411645905E+03  0.00000000000E+00 0.  1.
         21    1    1    2  504  503  0.16561315237E+02 -0.44407697754E+02  0.69041957993E-01  0.47395416961E+02  0.00000000000E+00 0. -1.
         21    1    1    2  505  501 -0.51293183401E+02 -0.16876454051E+02  0.34430350743E+03  0.34851213837E+03  0.00000000000E+00 0.  1.
          2    1    1    2  501    0  0.41098266286E+02  0.11405892280E+03 -0.40754980396E+03  0.42520036226E+03  0.00000000000E+00 0. -1.
<scales pt_clust_3="53.24570" pt_clust_4="47.39537" pt_clust_5="14000.00000" pt_clust_6="87.09989"></scales>
<clustering>
<clus scale="   47.395">  2  4  1 -1</clus>
<clus scale="   53.246">  1  3  2 -1</clus>
<clus scale="   87.100">  2  6  1 -1</clus>
<clus scale="   53.246">  1  3  2 -1</clus>
</clustering>
</event>
<event>
 6    0  0.4189111E+002  0.9011746E+02  0.7546771E-02  0.1302568E+00
          2   -1    0    0  503    0 -0.00000000000E+00  0.00000000000E+00  0.56447629886E+03  0.56447629886E+03  0.00000000000E+00 0.  1.
         21   -1    0    0  505  502  0.00000000000E+00 -0.00000000000E+00 -0.98639255713E+03  0.98639255713E+03  0.00000000000E+00 0.  1.
         21    1    1    2  503  502  0.73587678728E+02  0.56017310737E+02 -0.90896993653E+03  0.91366264621E+03  0.00000000000E+00 0.  1.
         21    1    1    2  504  501 -0.35407398132E+02  0.39039352894E+02  0.96738856225E+02  0.11016424656E+03  0.00000000000E+00 0.  1.
         21    1    1    2  505  504  0.78718411192E+01 -0.96800476724E+02 -0.31972469409E+02  0.10224743017E+03  0.00000000000E+00 0. -1.
          2    1    1    2  501    0 -0.46052121716E+02  0.17438130928E+01  0.42228729144E+03  0.42479453305E+03  0.00000000000E+00 0.  1.
<scales pt_clust_3="14000.00000" pt_clust_4="80.09902" pt_clust_5="90.11746" pt_clust_6="46.08513"></scales>
<clustering>
<clus scale="   46.085">  1  6  2 -1</clus>
<clus scale="   80.099">  1  4  2 -1</clus>
<clus scale="   90.117">  1  5  2 -1</clus>
<clus scale="   90.117">  2  3  1 -1</clus>
</clustering>
</event>
<event>
 6    0  0.4189111E+002  0.1126776E+03  0.7546771E-02  0.1255690E+00
         21   -1    0    0  503  502  0.00000000000E+00  0.00000000000E+00  0.62898106817E+03  0.62898106817E+03  0.00000000000E+00 0. -1.
          2   -1    0    0  504    0 -0.00000000000E+00 -0.00000000000E+00 -0.26287942602E+04  0.26287942602E+04  0.00000000000E+00 0. -1.
         21    1    1    2  503  501 -0.14065076483E+03  0.72419361510E+02  0.16138873179E+03  0.22599452276E+03  0.00000000000E+00 0. -1.
         21    1    1    2  504  505  0.33651543114E+02  0.76436372931E+01 -0.64076395773E+03  0.64169252846E+03  0.00000000000E+00 0.  1.
         21    1    1    2  505  502  0.94298609751E+02 -0.43719484611E+02  0.42842085147E+03  0.44084923399E+03  0.00000000000E+00 0. -1.
          2    1    1    2  501    0  0.12700611963E+02 -0.36343514192E+02 -0.19488588175E+04  0.19492390431E+04  0.00000000000E+00 0. -1.
<scales pt_clust_3="112.67758" pt_clust_4="34.50872" pt_clust_5="14000.00000" pt_clust_6="54.04349"></scales>
<clustering>
<clus scale="   34.509">  2  4  1 -1</clus>
<clus scale="   54.043">  2  6  1 -1</clus>
<clus scale="  112.678">  2  3  1 -1</clus>
<clus scale="  112.678">  1  3  2 -1</clus>
</clustering>
</event>
<event>
 6    0  0.4189111E+002  0.7242067E+02  0.7546771E-02  0.1352050E+00
          1   -1    0    0  505    0 -0.00000000000E+00  0.00000000000E+00  0.79604358717E+03  0.79604358717E+03  0.00000000000E+00 0. -1.
         21   -1    0    0  504  502  0.00000000000E+00 -0.00000000000E+00 -0.37027794667E+03  0.37027794667E+03  0.00000000000E+00 0.  1.
         21    1    1    2  503  501  0.34296976985E+02 -0.95221442294E+02  0.48862271920E+02  0.11238739840E+03  0.00000000000E+00 0.  1.
         21    1    1    2  504  503 -0.92091359890E+01  0.30419629879E+02 -0.33180970158E+03  0.33332842683E+03  0.00000000000E+00 0.  1.
         21    1    1    2  505  502 -0.62647175659E+02  0.26114246450E+02  0.51762348069E+03  0.52205429817E+03  0.00000000000E+00 0. -1.
          1    1    1    2  501    0  0.37559334663E+02  0.38687565965E+02  0.19108958948E+03  0.19855141044E+03  0.00000000000E+00 0. -1.
<scales pt_clust_3="72.42067" pt_clust_4="31.78305" pt_clust_5="14000.00000" pt_clust_6="55.51353"></scales>
<clustering>
<clus scale="   31.783">  2  4  1 -1</clus>
<clus scale="   55.514">  1  6  2 -1</clus>
<clus scale="   72.421">  2  3  1 -1</clus>
<clus scale="   31.783">  2  3  1 -1</clus>
</clustering>
</event>
<event>
 6    0  0.4189111E+002  0.1290588E+03  0.7546771E-02  0.1228859E+00
         21   -1    0    0  504  502  0.00000000000E+00  0.00000000000E+00  0.17395236601E+03  0.17395236601E+03  0.00000000000E+00 0. -1.
          2   -1    0    0  505    0 -0.00000000000E+00 -0.00000000000E+00 -0.29378407384E+04  0.29378407384E+04  0.00000000000E+00 0. -1.
         21    1    1    2  503  502 -0.74599914031E+02 -0.48326900587E+02  0.11404331000E+03  0.14459084705E+03  0.00000000000E+00 0. -1.
         21    1    1    2  504  501  0.15799098196E+03 -0.65274049470E+02 -0.15462874121E+03  0.23050357811E+03  0.00000000000E+00 0. -1.
         21    1    1    2  505  503 -0.24597308852E+02  0.10311719914E+03 -0.43911646139E+03  0.45173161393E+03  0.00000000000E+00 0. -1.
          2    1    1    2  501    0 -0.58793759082E+02  0.10483750917E+02 -0.22841864798E+04  0.22849670653E+04  0.00000000000E+00 0. -1.
<scales pt_clust_3="89.91101" pt_clust_4="14000.00000" pt_clust_5="129.05882" pt_clust_6="59.72114"></scales>
<clustering>
<clus scale="   59.721">  2  6  1 -1</clus>
<clus scale="   89.911">  1  3  2 -1</clus>
<clus scale="  129.059">  2  5  1 -1</clus>
<clus scale="   89.911">  1  3  2 -1</clus>
</clustering>
</event>
<event>
 6    0  0.4189111E+002  0.1592830E+03  0.7546771E-02  0.1189509E+00
          2   -1    0    0  504    0 -0.00000000000E+00  0.00000000000E+00  0.28763876333E+04  0.28763876333E+04  0.00000000000E+00 0.  1.
         21   -1    0    0  505  502  0.00000000000E+00 -0.00000000000E+00 -0.28699639314E+03  0.28699639314E+03  0.00000000000E+00 0. -1.
         21    1    1    2  503  501  0.21480433903E+02 -0.26389946072E+02  0.51249633159E+03  0.51362469585E+03  0.00000000000E+00 0.  1.
         21    1    1    2  504  502  0.24907269063E+02  0.21628156689E+02 -0.65887600461E+02  0.73683954213E+02  0.00000000000E+00 0.  1.
         21    1    1    2  505  503 -0.17081795718E+03  0.32468285980E+01 -0.18103775389E+03  0.24892566103E+03  0.00000000000E+00 0. -1.
          2    1    1    2  501    0  0.12443025421E+03  0.15149607844E+01  0.23238202629E+04  0.23271497154E+04  0.00000000000E+00 0.  1.
<scales pt_clust_3="30.48538" pt_clust_4="32.98711" pt_clust_5="148.23074" pt_clust_6="30.48538"></scales>
<clustering>
<clus scale="   30.485">  3  6 -1 -1</clus>
<clus scale="   32.987">  2  4  1 -1</clus>
<clus scale="  148.231">  2  5  1 -1</clus>
<clus scale="   32.987">  2  3  1 -1</clus>
</clustering>
</event>
<event>
 6    0  0.4189111E+002  0.1082605E+03  0.7546771E-02  0.1263825E+00
          4   -1    0    0  503    0 -0.00000000000E+00  0.00000000000E+00  0.44054455904E+02  0.44054455904E+02  0.00000000000E+00 0. -1.
         21   -1    0    0  505  502  0.00000000000E+00 -0.00000000000E+00 -0.17086033138E+04  0.17086033138E+04  0.00000000000E+00 0. -1.
         21    1    1    2  503  504  0.31281341852E+02 -0.19922661652E+02 -0.31426416620E+02  0.48611258540E+02  0.00000000000E+00 0. -1.
         21    1    1    2  504  502  0.61580970202E+02 -0.81710075183E+02 -0.24479148489E+03  0.26531419742E+03  0.00000000000E+00 0. -1.
         21    1    1    2  505  501 -0.52817008044E+02  0.30360309786E+02 -0.13446748183E+04  0.13460541415E+04  0.00000000000E+00 0. -1.
          4    1    1    2  501    0 -0.40045304009E+02  0.71272427048E+02 -0.43656138124E+02  0.92678172330E+02  0.00000000000E+00 0. -1.
<scales pt_clust_3="34.58670" pt_clust_4="34.58670" pt_clust_5="60.92114" pt_clust_6="91.76111"></scales>
<clustering>
<clus scale="   34.587">  3  4 -1 -1</clus>
<clus scale="   60.921">  2  5  1 -1</clus>
<clus scale="   91.761">  1  6  2 -1</clus>
<clus scale="   60.921">  2  3  1 -1</clus>
</clustering>
</event>
<event>
 6    0  0.4189111E+002  0.8918973E+02  0.7546771E-02  0.1304826E+00
          2   -1    0    0  503    0 -0.00000000000E+00  0.00000000000E+00  0.28702506981E+03  0.28702506981E+03  0.00000000000E+00 0.  1.
         21   -1    0    0  504  502  0.00000000000E+00 -0.00000000000E+00 -0.22209261265E+04  0.22209261265E+04  0.00000000000E+00 0. -1.
         21    1    1    2  503  505  0.25445908389E+02  0.29445847549E+02  0.17183342171E+02  0.42541972683E+02  0.00000000000E+00 0. -1.
         21    1    1    2  504  501  0.22328999221E+02  0.12578237105E+03 -0.22217965320E+03  0.25628809448E+03  0.00000000000E+00 0. -1.
         21    1    1    2  505  502  0.41848797306E+02 -0.77897946322E+02 -0.19533620023E+04  0.19553625045E+04  0.00000000000E+00 0. -1.
          2    1    1    2  501    0 -0.89623704916E+02 -0.77330272281E+02  0.22445725668E+03  0.25375862463E+03  0.00000000000E+00 0.  1.
<scales pt_clust_3="38.91725" pt_clust_4="89.18973" pt_clust_5="14000.00000" pt_clust_6="82.74333"></scales>
<clustering>
<clus scale="   38.917">  1  3  2 -1</clus>
<clus scale="   82.743">  1  6  2 -1</clus>
<clus scale="   89.190">  1  4  2 -1</clus>
<clus scale="   89.190">  2  3  1 -1</clus>
</clustering>
</event>
<event>
 6    0  0.4189111E+002  0.2070023E+03  0.7546771E-02  0.1143962E+00
          1   -1    0    0  504    0 -0.00000000000E+00  0.00000000000E+00  0.28253110391E+03  0.28253110391E+03  0.00000000000E+00 0.  1.
         21   -1    0    0  505  502  0.00000000000E+00 -0.00000000000E+00 -0.82459425547E+03  0.82459425547E+03  0.00000000000E+00 0.  1.
         21    1    1    2  503  501  0.12023078919E+02 -0.82559845850E+02  0.60001299224E+02  0.10276594028E+03  0.00000000000E+00 0.  1.
         21    1    1    2  504  502 -0.35936355081E+02  0.77149405219E+02 -0.10524314522E+03  0.13534981329E+03  0.00000000000E+00 0.  1.
         21    1    1    2  505  503 -0.24146473762E+02  0.12044551978E+03 -0.65567080613E+03  0.66707899191E+03  0.00000000000E+00 0.  1.
          1    1    1    2  501    0  0.48059749924E+02 -0.11503507915E+03  0.15884950058E+03  0.20193061390E+03  0.00000000000E+00 0.  1.
<scales pt_clust_3="39.15226" pt_clust_4="85.10847" pt_clust_5="201.39345" pt_clust_6="39.15226"></scales>
<clustering>
<clus scale="   39.152">  3  6 -1 -1</clus>
<clus scale="   85.108">  2  4  1 -1</clus>
<clus scale="  201.393">  2  5  1 -1</clus>
<clus scale="   85.108">  2  3  1 -1</clus>
</clustering>
</event>
<event>
 6    0  0.4189111E+002  0.9518848E+02  0.7546771E-02  0.1290752E+00
         21   -1    0    0  504  502  0.00000000000E+00  0.00000000000E+00  0.22936323422E+03  0.22936323422E+03  0.00000000000E+00 0.  1.
         -2   -1    0    0    0  501 -0.00000000000E+00 -0.00000000000E+00 -0.38529031384E+03  0.38529031384E+03  0.00000000000E+00 0.  1.
         21    1    1    2  503  501  0.18232401607E+01 -0.30319487145E+02 -0.27700355216E+02  0.41108456362E+02  0.00000000000E+00 0.  1.
         21    1    1    2  504  503 -0.24668296981E+02 -0.10081973032E+03  0.13092526871E+03  0.16707653601E+03  0.00000000000E+00 0.  1.
         21    1    1    2  505  502 -0.34668875861E+02  0.28660966545E+02  0.55002761521E+02  0.71054104256E+02  0.00000000000E+00 0.  1.
         -2    1    1    2    0  505  0.57513932682E+02  0.10247825092E+03 -0.31415475464E+03  0.33541445143E+03  0.00000000000E+00 0.  1.
<scales pt_clust_3="30.37426" pt_clust_4="95.18848" pt_clust_5="44.51091" pt_clust_6="14000.00000"></scales>
<clustering>
<clus scale="   30.374">  2  3  1 -1</clus>
<clus scale="   44.511">  1  5  2 -1</clus>
<clus scale="   95.188">  1  4  2 -1</clus>
<clus scale="   44.511">  1  3  2 -1</clus>
</clustering>
</event>
<event>
 6    0  0.4189111E+002  0.1552909E+03  0.7546771E-02  0.1194118E+00
         21   -1    0    0  504  502  0.00000000000E+00  0.00000000000E+00  0.40999283055E+03  0.40999283055E+03  0.00000000000E+00 0. -1.
          3   -1    0    0  503    0 -0.00000000000E+00 -0.00000000000E+00 -0.99777288912E+03  0.99777288912E+03  0.00000000000E+00 0. -1.
         21    1    1    2  503  502  0.27771304323E+02 -0.38678485691E+02  0.43571625160E+02  0.64542676721E+02  0.00000000000E+00 0. -1.
         21    1    1    2  504  505  0.34697385661E+02 -0.11119053937E+03  0.33555790621E+03  0.35519903299E+03  0.00000000000E+00 0. -1.
         21    1    1    2  505  501 -0.64016217162E+02  0.81291240762E+02 -0.29496233515E+03  0.31258458222E+03  0.00000000000E+00 0. -1.
          3    1    1    2  501    0  0.15475271788E+01  0.68577784295E+02 -0.67194725479E+03  0.67543942775E+03  0.00000000000E+00 0. -1.
<scales pt_clust_3="47.61586" pt_clust_4="14000.00000" pt_clust_5="155.29093" pt_clust_6="68.40877"></scales>
<clustering>
<clus scale="   47.616">  1  3  2 -1</clus>
<clus scale="   68.409">  2  6  1 -1</clus>
<clus scale="  155.291">  2  5  1 -1</clus>
<clus scale="   47.616">  1  3  2 -1</clus>
</clustering>
</event>
<event>
 6    0  0.4189111E+002  0.2333854E+03  0.7546771E-02  0.1124279E+00
          4   -1    0    0  502    0 -0.00000000000E+00  0.00000000000E+00  0.38367297032E+03  0.38367297032E+03  0.00000000000E+00 0. -1.
         21   -1    0    0  504  502  0.00000000000E+00 -0.00000000000E+00 -0.46071165970E+03  0.46071165970E+03  0.00000000000E+00 0.  1.
         21    1    1    2  503  505  0.37174921714E+02  0.54755990942E+02  0.34186181742E+01  0.66271262993E+02  0.00000000000E+00 0.  1.
         21    1    1    2  504  503 -0.20099641232E+03 -0.15787620403E+03 -0.35139818544E+03  0.43451713234E+03  0.00000000000E+00 0.  1.
         21    1    1    2  505  501  0.77845892827E+02  0.25100691716E+02  0.55437986800E+02  0.98809909093E+02  0.00000000000E+00 0.  1.
          4    1    1    2  501    0  0.85975597781E+02  0.78019521377E+02  0.21550289109E+03  0.24478632559E+03  0.00000000000E+00 0. -1.
<scales pt_clust_3="58.16301" pt_clust_4="224.24966" pt_clust_5="58.16301" pt_clust_6="116.09845"></scales>
<clustering>
<clus scale="   58.163">  3  5 -1 -1</clus>
<clus scale="  116.098">  1  6  2 -1</clus>
<clus scale="  224.250">  2  4  1 -1</clus>
<clus scale="  224.250">  2  3  1 -1</clus>
</clustering>
</event>
<event>
 6    0  0.4189111E+002  0.7130443E+02  0.7546771E-02  0.1355713E+00
          2   -1    0    0  504    0 -0.00000000000E+00  0.00000000000E+00  0.13630700286E+04  0.13630700286E+04  0.00000000000E+00 0.  1.
         21   -1    0    0  505  502  0.00000000000E+00 -0.00000000000E+00 -0.23149443632E+02  0.23149443632E+02  0.00000000000E+00 0. -1.
         21    1    1    2  503  501  0.10009427102E+03 -0.32334829585E+02  0.30837663369E+03  0.32582288517E+03  0.00000000000E+00 0. -1.
         21    1    1    2  504  502 -0.41308718465E+02 -0.51657055195E+02  0.97339648043E+02  0.11768546492E+03  0.00000000000E+00 0. -1.
         21    1    1    2  505  503 -0.33865700802E+02  0.19592270552E+02  0.13572787903E+03  0.14125438012E+03  0.00000000000E+00 0.  1.
          2    1    1    2  501    0 -0.24919851750E+02  0.64399614228E+02  0.79847642415E+03  0.80145674197E+03  0.00000000000E+00 0.  1.
<scales pt_clust_3="14000.00000" pt_clust_4="71.25172" pt_clust_5="39.12471" pt_clust_6="71.30443"></scales>
<clustering>
<clus scale="   39.125">  2  5  1 -1</clus>
<clus scale="   71.304">  1  6  2 -1</clus>
<clus scale="   71.252">  2  4  1 -1</clus>
<clus scale="   39.125">  2  3  1 -1</clus>
</clustering>
</event>
<event>
 6    0  0.4189111E+002  0.1265175E+03  0.7546771E-02  0.1232717E+00
         21   -1    0    0  501  502  0.00000000000E+00  0.00000000000E+00  0.58662292324E+02  0.58662292324E+02  0.00000000000E+00 0. -1.
          2   -1    0    0  505    0 -0.00000000000E+00 -0.00000000000E+00 -0.18787789980E+04  0.18787789980E+04  0.00000000000E+00 0.  1.
         21    1    1    2  503  504  0.36915189716E+02 -0.43115972974E+02 -0.44445697873E+03  0.44806665163E+03  0.00000000000E+00 0. -1.
         21    1    1    2  504  502 -0.12301858450E+03  0.47951622640E+02 -0.29649493088E+02  0.13532192242E+03  0.00000000000E+00 0. -1.
         21    1    1    2  505  503  0.41129716053E+02  0.10939547201E+01 -0.11382884869E+03  0.12103659395E+03  0.00000000000E+00 0. -1.
          2    1    1    2  501    0  0.44973678733E+02 -0.59296043856E+01 -0.12321813852E+04  0.12330161223E+04  0.00000000000E+00 0.  1.
<scales pt_clust_3="63.84245" pt_clust_4="126.51745" pt_clust_5="41.14426" pt_clust_6="14000.00000"></scales>
<clustering>
<clus scale="   41.144">  2  5  1 -1</clus>
<clus scale="   63.842">  2  3  1 -1</clus>
<clus scale="  126.517">  1  4  2 -1</clus>
<clus scale="  126.517">  1  3  2 -1</clus>
</clustering>
</event>
<event>
 6    0  0.4189111E+002  0.1188024E+03  0.7546771E-02  0.1245086E+00
          2   -1    0    0  503    0 -0.00000000000E+00  0.00000000000E+00  0.28110984428E+04  0.28110984428E+04  0.00000000000E+00 0.  1.
         21   -1    0    0  504  502  0.00000000000E+00 -0.00000000000E+00 -0.94769161524E+02  0.94769161524E+02  0.00000000000E+00 0. -1.
         21    1    1    2  503  505 -0.49778572226E+02 -0.89693442759E+01  0.55078797825E+03  0.55310555265E+03  0.00000000000E+00 0. -1.
         21    1    1    2  504  501  0.39908613458E+02 -0.23922855770E+02 -0.60333863351E+02  0.76191702456E+02  0.00000000000E+00 0. -1.
         21    1    1    2  505  502  0.74744377552E+02 -0.26959954286E+02  0.40080861381E+02  0.88994587250E+02  0.00000000000E+00 0. -1.
          2    1    1    2  501    0 -0.64874418784E+02  0.59852154331E+02  0.21857943050E+04  0.21875757619E+04  0.00000000000E+00 0.  1.
<scales pt_clust_3="49.06686" pt_clust_4="46.52957" pt_clust_5="118.80235" pt_clust_6="14000.00000"></scales>
<clustering>
<clus scale="   46.530">  2  4  1 -1</clus>
<clus scale="   49.067">  1  3  2 -1</clus>
<clus scale="  118.802">  2  5  1 -1</clus>
<clus scale="   46.530">  2  3  1 -1</clus>
</clustering>
</event>
<event>
 6    0  0.4189111E+002  0.1123681E+03  0.7546771E-02  0.1256246E+00
         21   -1    0    0  504  502  0.00000000000E+00  0.00000000000E+00  0.40112763550E+03  0.40112763550E+03  0.00000000000E+00 0. -1.
          3   -1    0    0  503    0 -0.00000000000E+00 -0.00000000000E+00 -0.10708121161E+03  0.10708121161E+03  0.00000000000E+00 0.  1.
         21    1    1    2  503  502 -0.67082623056E+02 -0.11116144393E+03  0.30524635010E+03  0.33171113816E+03  0.00000000000E+00 0. -1.
         21    1    1    2  504  505  0.16252706052E+02  0.28811156995E+02  0.43023803019E+02  0.54270441749E+02  0.00000000000E+00 0. -1.
         21    1    1    2  505  501  0.37601247142E+02  0.34761880250E+02 -0.51703518607E+02  0.72770158317E+02  0.00000000000E+00 0.  1.
          3    1    1    2  501    0  0.13228669862E+02  0.47588406689E+02 -0.25202106155E+01  0.49457108883E+02  0.00000000000E+00 0.  1.
<scales pt_clust_3="99.96279" pt_clust_4="33.07920" pt_clust_5="51.01879" pt_clust_6="51.01879"></scales>
<clustering>
<clus scale="   33.079">  1  4  2 -1</clus>
<clus scale="   51.019">  5  6 -1 -1</clus>
<clus scale="   99.963">  1  3  2 -1</clus>
<clus scale="   33.079">  1  3  2 -1</clus>
</clustering>
</event>
<event>
 6    0  0.4189111E+002  0.5269325E+02  0.7546771E-02  0.1431334E+00
          1   -1    0    0  505    0 -0.00000000000E+00  0.00000000000E+00  0.28919988862E+04  0.28919988862E+04  0.00000000000E+00 0.  1.
         21   -1    0    0  501  502  0.00000000000E+00 -0.00000000000E+00 -0.21243162774E+03  0.21243162774E+03  0.00000000000E+00 0. -1.
         21    1    1    2  503  502  0.52123223165E+02 -0.43206082462E+01 -0.19964302289E+03  0.20638031553E+03  0.00000000000E+00 0. -1.
         21    1    1    2  504  503 -0.76061840399E+02  0.35622587030E+02  0.21749521953E+03  0.23314918569E+03  0.00000000000E+00 0.  1.
         21    1    1    2  505  504 -0.24191065659E+02  0.38307516867E+02  0.83906356078E+03  0.84028586358E+03  0.00000000000E+00 0.  1.
          1    1    1    2  501    0  0.48129682894E+02 -0.69609495650E+02  0.18226515011E+04  0.18246151492E+04  0.00000000000E+00 0.  1.
<scales pt_clust_3="52.69325" pt_clust_4="14000.00000" pt_clust_5="45.30644" pt_clust_6="44.43703"></scales>
<clustering>
<clus scale="   45.306">  1  5  2 -1</clus>
<clus scale="   44.437">  1  6  2 -1</clus>
<clus scale="   52.693">  2  3  1 -1</clus>
<clus scale="   52.693">  2  3  1 -1</clus>
</clustering>
</event>
<event>
 6    0  0.4189111E+002  0.1376133E+03  0.7546771E-02  0.1216577E+00
         21   -1    0    0  504  502  0.00000000000E+00  0.00000000000E+00  0.24406240471E+03  0.24406240471E+03  0.00000000000E+00 0. -1.
          2   -1    0    0  503    0 -0.00000000000E+00 -0.00000000000E+00 -0.21171915576E+04  0.21171915576E+04  0.00000000000E+00 0. -1.
         21    1    1    2  503  505  0.45214668323E+02 -0.26804792067E+02 -0.12802707924E+04  0.12813493532E+04  0.00000000000E+00 0. -1.
         21    1    1    2  504  501  0.15099527357E+02  0.53595237791E+02 -0.20165754043E+02  0.59220797668E+02  0.00000000000E+00 0.  1.
         21    1    1    2  505  502 -0.15141276927E+03 -0.85290267759E+02  0.18585728574E+03  0.25444682575E+03  0.00000000000E+00 0. -1.
          2    1    1    2  501    0  0.91098573590E+02  0.58499822034E+02 -0.75854989213E+03  0.76623698562E+03  0.00000000000E+00 0. -1.
<scales pt_clust_3="52.56294" pt_clust_4="55.09184" pt_clust_5="14000.00000" pt_clust_6="137.61327"></scales>
<clustering>
<clus scale="   52.563">  2  3  1 -1</clus>
<clus scale="   55.092">  1  4  2 -1</clus>
<clus scale="  137.613">  2  6  1 -1</clus>
<clus scale="   55.092">  1  3  2 -1</clus>
</clustering>
</event>
<event>
 6    0  0.4189111E+002  0.9458237E+02  0.7546771E-02  0.1292119E+00
          1   -1    0    0  505    0 -0.00000000000E+00  0.00000000000E+00  0.12678272163E+04  0.12678272163E+04  0.00000000000E+00 0.  1.
         21   -1    0    0  503  502  0.00000000000E+00 -0.00000000000E+00 -0.36148279963E+02  0.36148279963E+02  0.00000000000E+00 0.  1.
         21    1    1    2  503  504 -0.32892405555E+02 -0.10488762039E+03  0.71554593988E+02  0.13116166809E+03  0.00000000000E+00 0.  1.
         21    1    1    2  504  501 -0.33714119001E+02  0.49870324584E+02  0.24683390875E+03  0.25406823808E+03  0.00000000000E+00 0.  1.
         21    1    1    2  505  502  0.24331545912E+02  0.42289281115E+02  0.30729662258E+03  0.31114565990E+03  0.00000000000E+00 0. -1.
          1    1    1    2  501    0  0.42274978643E+02  0.12728014695E+02  0.60599381102E+03  0.60759993019E+03  0.00000000000E+00 0.  1.
<scales pt_clust_3="94.58237" pt_clust_4="57.48457" pt_clust_5="14000.00000" pt_clust_6="44.14948"></scales>
<clustering>
<clus scale="   44.149">  1  6  2 -1</clus>
<clus scale="   57.485">  1  4  2 -1</clus>
<clus scale="   94.582">  2  3  1 -1</clus>
<clus scale="   94.582">  2  3  1 -1</clus>
</clustering>
</event>
<event>
 6    0  0.4189111E+002  0.6946669E+02  0.7546771E-02  0.1361916E+00
         21   -1    0    0  503  502  0.00000000000E+00  0.00000000000E+00  0.14211312607E+03  0.14211312607E+03  0.00000000000E+00 0. -1.
          1   -1    0    0  505    0 -0.00000000000E+00 -0.00000000000E+00 -0.75723880799E+03  0.75723880799E+03  0.00000000000E+00 0.  1.
         21    1    1    2  503  501  0.35266779112E+02 -0.27910909722E+02  0.43082353643E+02  0.62280444651E+02  0.00000000000E+00 0. -1.
         21    1    1    2  504  502 -0.99679731633E+02  0.42796150726E+00  0.56353603850E+02  0.11450747013E+03  0.00000000000E+00 0. -1.
         21    1    1    2  505  504  0.71819527671E+01  0.46390671113E+02 -0.32034682593E+03  0.32376807084E+03  0.00000000000E+00 0.  1.
          1    1    1    2  501    0  0.57230999753E+02 -0.18907722898E+02 -0.39421481349E+03  0.39879594844E+03  0.00000000000E+00 0.  1.
<scales pt_clust_3="44.97516" pt_clust_4="14000.00000" pt_clust_5="46.52495" pt_clust_6="69.46669"></scales>
<clustering>
<clus scale="   44.975">  1  3  2 -1</clus>
<clus scale="   46.525">  2  5  1 -1</clus>
<clus scale="   69.467">  2  6  1 -1</clus>
<clus scale="   44.975">  1  3  2 -1</clus>
</clustering>
</event>
<event>
 6    0  0.4189111E+002  0.1268225E+03  0.7546771E-02  0.1232248E+00
         21   -1    0    0  504  502  0.00000000000E+00  0.00000000000E+00  0.20131985561E+04  0.20131985561E+04  0.00000000000E+00 0. -1.
         -3   -1    0    0    0  501 -0.00000000000E+00 -0.00000000000E+00 -0.15528845513E+03  0.15528845513E+03  0.00000000000E+00 0.  1.
         21    1    1    2  503  501 -0.88956529219E+02 -0.46578234978E+02 -0.30629804887E+02  0.10498086022E+03  0.00000000000E+00 0. -1.
         21    1    1    2  504  505 -0.20588084570E+02  0.22781411786E+02  0.17775434632E+04  0.17778086583E+04  0.00000000000E+00 0. -1.
         21    1    1    2  505  503  0.10269868415E+03  0.92882002595E+02  0.15156062125E+03  0.20529176322E+03  0.00000000000E+00 0. -1.
         -3    1    1    2    0  502  0.68459296415E+01 -0.69085179403E+02 -0.40564178538E+02  0.80405729561E+02  0.00000000000E+00 0.  1.
<scales pt_clust_3="14000.00000" pt_clust_4="30.70606" pt_clust_5="126.82249" pt_clust_6="67.35201"></scales>
<clustering>
<clus scale="   30.706">  1  4  2 -1</clus>
<clus scale="   67.352">  2  6  1 -1</clus>
<clus scale="  126.822">  1  5  2 -1</clus>
<clus scale="   30.706">  1  3  2 -1</clus>
</clustering>
</event>
<event>
 6    0  0.4189111E+002  0.7232630E+02  0.7546771E-02  0.1352356E+00
         -1   -1    0    0    0  501 -0.00000000000E+00  0.00000000000E+00  0.66223109035E+02  0.66223109035E+02  0.00000000000E+00 0.  1.
         21   -1    0    0  505  502  0.00000000000E+00 -0.00000000000E+00 -0.11894700147E+04  0.11894700147E+04  0.00000000000E+00 0.  1.
         21    1    1    2  503  502 -0.10940338599E+03 -0.39290561534E+02 -0.12487010407E+03  0.17060302454E+03  0.00000000000E+00 0. -1.
         21    1    1    2  504  501  0.86139325301E+01  0.72079958709E+02 -0.60316642974E+03  0.60751910443E+03  0.00000000000E+00 0.  1.
         21    1    1    2  505  504  0.38248829966E+02 -0.48398789969E+02 -0.40733654195E+03  0.41198115766E+03  0.00000000000E+00 0.  1.
         -1    1    1    2    0  503  0.62540623490E+02  0.15609392794E+02  0.12126170094E+02  0.65589837102E+02  0.00000000000E+00 0.  1.
<scales pt_clust_3="14000.00000" pt_clust_4="51.55775" pt_clust_5="61.68805" pt_clust_6="72.32630"></scales>
<clustering>
<clus scale="   61.688">  2  5  1 -1</clus>
<clus scale="   51.558">  2  4  1 -1</clus>
<clus scale="   72.326">  1  6  2 -1</clus>
<clus scale="   61.688">  2  3  1 -1</clus>
</clustering>
</event>
<event>
 6    0  0.4189111E+002  0.1354247E+03  0.7546771E-02  0.1219621E+00
          1   -1    0    0  504    0 -0.00000000000E+00  0.00000000000E+00  0.86941233491E+03  0.86941233491E+03  0.00000000000E+00 0.  1.
         21   -1    0    0  503  502  0.00000000000E+00 -0.00000000000E+00 -0.78205685554E+02  0.78205685554E+02  0.00000000000E+00 0.  1.
         21    1    1    2  503  501  0.31794732739E+02  0.13522114181E+02  0.12293990961E+03  0.12770267803E+03  0.00000000000E+00 0. -1.
         21    1    1    2  504  505 -0.12470274276E+03 -0.64952160053E+01  0.86878894148E+02  0.15212134673E+03  0.00000000000E+00 0.  1.
         21    1    1    2  505  502  0.42689606497E+01  0.32629370439E+02 -0.32513313744E+02  0.46260300592E+02  0.00000000000E+00 0.  1.
          1    1    1    2  501    0  0.88639049370E+02 -0.39656268615E+02  0.61390115934E+03  0.62153369511E+03  0.00000000000E+00 0.  1.
<scales pt_clust_3="34.59309" pt_clust_4="122.90960" pt_clust_5="32.90744" pt_clust_6="34.59309"></scales>
<clustering>
<clus scale="   32.907">  2  5  1 -1</clus>
<clus scale="   34.593">  3  6 -1 -1</clus>
<clus scale="  122.910">  2  4  1 -1</clus>
<clus scale="   32.907">  2  3  1 -1</clus>
</clustering>
</event>
<event>
 6    0  0.4189111E+002  0.1103100E+03  0.7546771E-02  0.1259997E+00
         21   -1    0    0  505  502  0.00000000000E+00  0.00000000000E+00  0.13032816703E+03  0.13032816703E+03  0.00000000000E+00 0.  1.
          2   -1    0    0  504    0 -0.00000000000E+00 -0.00000000000E+00 -0.30117194329E+04  0.30117194329E+04  0.00000000000E+00 0.  1.
         21    1    1    2  503  502 -0.54112595649E+02 -0.88128572024E+02  0.30058111821E+02  0.10769544234E+03  0.00000000000E+00 0.  1.
         21    1    1    2  504  503  0.11418674163E+03 -0.30401988173E+02 -0.11137863507E+04  0.11200370208E+04  0.00000000000E+00 0.  1.
         21    1    1    2  505  501  0.22739486886E+02  0.45526542805E+02  0.45250370996E+02  0.68098064869E+02  0.00000000000E+00 0.  1.
          2    1    1    2  501    0 -0.82813632863E+02  0.73004017392E+02 -0.18429133980E+04  0.18462170720E+04  0.00000000000E+00 0.  1.
<scales pt_clust_3="56.16259" pt_clust_4="110.30996" pt_clust_5="50.88959" pt_clust_6="14000.00000"></scales>
<clustering>
<clus scale="   50.890">  1  5  2 -1</clus>
<clus scale="   56.163">  1  3  2 -1</clus>
<clus scale="  110.310">  1  4  2 -1</clus>
<clus scale="   50.890">  1  3  2 -1</clus>
</clustering>
</event>
<event>
 6    0  0.4189111E+002  0.8140314E+02  0.7546771E-02  0.1325116E+00
         21   -1    0    0  501  502  0.00000000000E+00  0.00000000000E+00  0.15471544322E+03  0.15471544322E+03  0.00000000000E+00 0.  1.
          2   -1    0    0  505    0 -0.00000000000E+00 -0.00000000000E+00 -0.10486734634E+04  0.10486734634E+04  0.00000000000E+00 0.  1.
         21    1    1    2  503  502 -0.51269867048E+01  0.64357742202E+02  0.36108495583E+02  0.73973160182E+02  0.00000000000E+00 0.  1.
         21    1    1    2  504  503  0.12465974139E+01 -0.10835980113E+03  0.67122613553E+02  0.12747096044E+03  0.00000000000E+00 0.  1.
         21    1    1    2  505  504 -0.31497811998E+02 -0.28234172621E+01 -0.18898575399E+03  0.19161341043E+03  0.00000000000E+00 0. -1.
          2    1    1    2  501    0  0.35378201289E+02  0.46825476189E+02 -0.80820337530E+03  0.81033137555E+03  0.00000000000E+00 0.  1.
<scales pt_clust_3="81.40314" pt_clust_4="14000.00000" pt_clust_5="31.62410" pt_clust_6="44.52764"></scales>
<clustering>
<clus scale="   31.624">  2  5  1 -1</clus>
<clus scale="   44.528">  2  6  1 -1</clus>
<clus scale="   81.403">  1  3  2 -1</clus>
<clus scale="   81.403">  1  3  2 -1</clus>
</clustering>
</event>
<event>
 6    0  0.4189111E+002  0.1932075E+03  0.7546771E-02  0.1155600E+00
         21   -1    0    0  504  502  0.00000000000E+00  0.00000000000E+00  0.14096796598E+03  0.14096796598E+03  0.00000000000E+00 0.  1.
          1   -1    0    0  505    0 -0.00000000000E+00 -0.00000000000E+00 -0.13228239524E+04  0.13228239524E+04  0.00000000000E+00 0. -1.
         21    1    1    2  503  501  0.51619231191E+02 -0.10886971317E+03  0.74727321645E+02  0.14177916657E+03  0.00000000000E+00 0.  1.
         21    1    1    2  504  503  0.49182515417E+02 -0.35970595168E+02 -0.13571575454E+02  0.62425885655E+02  0.00000000000E+00 0. -1.
         21    1    1    2  505  502 -0.29170387844E+02  0.17821207639E+02 -0.73986398464E+02  0.81501497694E+02  0.00000000000E+00 0.  1.
          1    1    1    2  501    0 -0.71631358765E+02  0.12701910070E+03 -0.11690253342E+04  0.11780853685E+04  0.00000000000E+00 0. -1.
<scales pt_clust_3="58.41172" pt_clust_4="58.41172" pt_clust_5="34.18343" pt_clust_6="174.66875"></scales>
<clustering>
<clus scale="   34.183">  2  5  1 -1</clus>
<clus scale="   58.412">  3  4 -1 -1</clus>
<clus scale="  174.669">  2  6  1 -1</clus>
<clus scale="  193.208">  1  3  2 -1</clus>
</clustering>
</event>
<event>
 6    0  0.4189111E+002  0.1476980E+03  0.7546771E-02  0.1203331E+00
          2   -1    0    0  502    0 -0.00000000000E+00  0.00000000000E+00  0.11410558000E+04  0.11410558000E+04  0.00000000000E+00 0. -1.
         21   -1    0    0  504  502  0.00000000000E+00 -0.00000000000E+00 -0.79697140058E+02  0.79697140058E+02  0.00000000000E+00 0. -1.
         21    1    1    2  503  501  0.54124012905E+01 -0.56588985785E+02  0.41759374637E+03  0.42144530417E+03  0.00000000000E+00 0. -1.
         21    1    1    2  504  505  0.13455682725E+01  0.45491556086E+02 -0.32137020130E+02  0.55714273683E+02  0.00000000000E+00 0. -1.
         21    1    1    2  505  503  0.48245807412E+02  0.90936091549E+02  0.58050745734E+02  0.11818172346E+03  0.00000000000E+00 0. -1.
          2    1    1    2  501    0 -0.55003776975E+02 -0.79838661850E+02  0.61785118799E+03  0.62541163877E+03  0.00000000000E+00 0. -1.
<scales pt_clust_3="39.72549" pt_clust_4="45.51145" pt_clust_5="138.28685" pt_clust_6="39.72549"></scales>
<clustering>
<clus scale="   39.725">  3  6 -1 -1</clus>
<clus scale="   45.511">  2  4  1 -1</clus>
<clus scale="  138.287">  2  5  1 -1</clus>
<clus scale="   45.511">  2  3  1 -1</clus>
</clustering>
</event>
<event>
 6    0  0.4189111E+002  0.1198872E+03  0.7546771E-02  0.1243283E+00
         21   -1    0    0  503  502  0.00000000000E+00  0.00000000000E+00  0.47800532571E+03  0.47800532571E+03  0.00000000000E+00 0.  1.
          1   -1    0    0  502    0 -0.00000000000E+00 -0.00000000000E+00 -0.32496898902E+03  0.32496898902E+03  0.00000000000E+00 0. -1.
         21    1    1    2  503  504  0.44490448604E+02  0.11040652744E+03  0.39030166420E+03  0.40804949503E+03  0.00000000000E+00 0.  1.
         21    1    1    2  504  505 -0.66738460652E+02 -0.10830400540E+03  0.77033485469E+01  0.12744850448E+03  0.00000000000E+00 0. -1.
         21    1    1    2  505  501  0.41638323030E+02  0.22691622637E+02 -0.46110721373E+02  0.66142711679E+02  0.00000000000E+00 0. -1.
          1    1    1    2  501    0 -0.19390310981E+02 -0.24794144678E+02 -0.19885795469E+03  0.20133360354E+03  0.00000000000E+00 0. -1.
<scales pt_clust_3="119.88716" pt_clust_4="14000.00000" pt_clust_5="34.88932" pt_clust_6="31.47592"></scales>
<clustering>
<clus scale="   31.476">  2  6  1 -1</clus>
<clus scale="   34.889">  2  5  1 -1</clus>
<clus scale="  119.887">  1  3  2 -1</clus>
<clus scale="  119.887">  1  3  2 -1</clus>
</clustering>
</event>
<event>
 6    0  0.4189111E+002  0.1595616E+03  0.7546771E-02  0.1189193E+00
         -4   -1    0    0    0  501 -0.00000000000E+00  0.00000000000E+00  0.19149195477E+04  0.19149195477E+04  0.00000000000E+00 0. -1.
         21   -1    0    0  503  502  0.00000000000E+00 -0.00000000000E+00 -0.79338280288E+03  0.79338280288E+03  0.00000000000E+00 0. -1.
         21    1    1    2  503  501 -0.46434967111E+02  0.11125964669E+02  0.59514117319E+01  0.48118734002E+02  0.00000000000E+00 0.  1.
         21    1    1    2  504  502 -0.11589687764E+03  0.10141011199E+03 -0.62135225832E+03  0.64015211160E+03  0.00000000000E+00 0. -1.
         21    1    1    2  505  504  0.94492464711E+02 -0.98543677179E+02 -0.10782372168E+03  0.17397021916E+03  0.00000000000E+00 0.  1.
         -4    1    1    2    0  505  0.67839380041E+02 -0.13992399479E+02  0.18447613131E+04  0.18460612859E+04  0.00000000000E+00 0. -1.
<scales pt_clust_3="47.74927" pt_clust_4="14000.00000" pt_clust_5="159.56164" pt_clust_6="69.22720"></scales>
<clustering>
<clus scale="   47.749">  2  3  1 -1</clus>
<clus scale="   69.227">  1  6  2 -1</clus>
<clus scale="  159.562">  1  5  2 -1</clus>
<clus scale="   47.749">  2  3  1 -1</clus>
</clustering>
</event>
<event>
 6    0  0.4189111E+002  0.1017571E+03  0.7546771E-02  0.1276644E+00
          2   -1    0    0  503    0 -0.00000000000E+00  0.00000000000E+00  0.12301523147E+04  0.12301523147E+04  0.00000000000E+00 0. -1.
         21   -1    0    0  505  502  0.00000000000E+00 -0.00000000000E+00 -0.95810496888E+02  0.95810496888E+02  0.00000000000E+00 0.  1.
         21    1    1    2  503  504  0.30584908473E+02  0.98424345346E+01  0.75776670314E+02  0.82306827832E+02  0.00000000000E+00 0.  1.
         21    1    1    2  504  502  0.23466184716E+02  0.24018740621E+02  0.13086818493E+02  0.36039236180E+02  0.00000000000E+00 0.  1.
         21    1    1    2  505  501  0.76016861241E+02  0.85805507087E+00 -0.58210226810E+02  0.95748263466E+02  0.00000000000E+00 0.  1.
          2    1    1    2  501    0 -0.13006795443E+03 -0.34719230226E+02  0.11036885558E+04  0.11118684841E+04  0.00000000000E+00 0. -1.
<scales pt_clust_3="32.12958" pt_clust_4="34.18699" pt_clust_5="101.75714" pt_clust_6="14000.00000"></scales>
<clustering>
<clus scale="   32.130">  1  3  2 -1</clus>
<clus scale="   34.187">  2  4  1 -1</clus>
<clus scale="  101.757">  2  5  1 -1</clus>
<clus scale="   34.187">  2  3  1 -1</clus>
</clustering>
</event>
<event>
 6    0  0.4189111E+002  0.8454813E+02  0.7546771E-02  0.1316618E+00
          2   -1    0    0  505    0 -0.00000000000E+00  0.00000000000E+00  0.42636495764E+04  0.42636495764E+04  0.00000000000E+00 0. -1.
         21   -1    0    0  503  502  0.00000000000E+00 -0.00000000000E+00 -0.81337409087E+03  0.81337409087E+03  0.00000000000E+00 0. -1.
         21    1    1    2  503  504 -0.52387870279E+02  0.11627782189E+02 -0.80106329484E+03  0.80285870277E+03  0.00000000000E+00 0. -1.
         21    1    1    2  504  501  0.75595143973E+02 -0.91825062408E+02  0.33333703627E+03  0.35392096240E+03  0.00000000000E+00 0. -1.
         21    1    1    2  505  502 -0.47290195539E+02  0.81449681993E+00  0.17929007828E+04  0.17935245309E+04  0.00000000000E+00 0.  1.
          2    1    1    2  501    0  0.24082921846E+02  0.79382783400E+02  0.21251009613E+04  0.21267194712E+04  0.00000000000E+00 0. -1.
<scales pt_clust_3="53.67962" pt_clust_4="84.54813" pt_clust_5="47.29721" pt_clust_6="14000.00000"></scales>
<clustering>
<clus scale="   47.297">  1  5  2 -1</clus>
<clus scale="   53.680">  2  3  1 -1</clus>
<clus scale="   84.548">  2  4  1 -1</clus>
<clus scale="   53.680">  2  3  1 -1</clus>
</clustering>
</event>
<event>
 6    0  0.4189111E+002  0.7488048E+02  0.7546771E-02  0.1344242E+00
          2   -1    0    0  503    0 -0.00000000000E+00  0.00000000000E+00  0.21834480819E+04  0.21834480819E+04  0.00000000000E+00 0. -1.
         21   -1    0    0  505  502  0.00000000000E+00 -0.00000000000E+00 -0.38554554144E+03  0.38554554144E+03  0.00000000000E+00 0.  1.
         21    1    1    2  503  504 -0.32140652700E+02  0.47068957387E+02  0.42546506817E+03  0.42926568991E+03  0.00000000000E+00 0.  1.
         21    1    1    2  504  502  0.29471090529E+02 -0.86381186379E+01 -0.29087512986E+03  0.29249188612E+03  0.00000000000E+00 0.  1.
         21    1    1    2  505  501 -0.74562785451E+02  0.38053913337E+01 -0.75509362293E+02  0.10618735222E+03  0.00000000000E+00 0.  1.
          2    1    1    2  501    0  0.77232347623E+02 -0.42236230083E+02  0.17388219645E+04  0.17410486951E+04  0.00000000000E+00 0. -1.
<scales pt_clust_3="14000.00000" pt_clust_4="30.71095" pt_clust_5="46.26276" pt_clust_6="74.88048"></scales>
<clustering>
<clus scale="   30.711">  2  4  1 -1</clus>
<clus scale="   46.263">  2  5  1 -1</clus>
<clus scale="   74.880">  1  6  2 -1</clus>
<clus scale="   30.711">  2  3  1 -1</clus>
</clustering>
</event>
<event>
 6    0  0.4189111E+002  0.7377223E+02  0.7546771E-02  0.1347716E+00
          2   -1    0    0  505    0 -0.00000000000E+00  0.00000000000E+00  0.25675265668E+04  0.25675265668E+04  0.00000000000E+00 0. -1.
         21   -1    0    0  504  502  0.00000000000E+00 -0.00000000000E+00 -0.54848037177E+02  0.54848037177E+02  0.00000000000E+00 0.  1.
         21    1    1    2  503  501 -0.99634628084E+02  0.45505038349E+02  0.46993153405E+02  0.11918944624E+03  0.00000000000E+00 0.  1.
         21    1    1    2  504  503  0.46250062343E+02  0.32163869806E+01  0.14353002051E+02  0.48532690836E+02  0.00000000000E+00 0.  1.
         21    1    1    2  505  502 -0.28603240102E+02 -0.29599430168E+02  0.60258026809E+03  0.60398447919E+03  0.00000000000E+00 0. -1.
          2    1    1    2  501    0  0.81987805843E+02 -0.19121995161E+02  0.18487521061E+04  0.18506679877E+04  0.00000000000E+00 0. -1.
<scales pt_clust_3="14000.00000" pt_clust_4="45.87425" pt_clust_5="41.16153" pt_clust_6="73.77223"></scales>
<clustering>
<clus scale="   41.162">  1  5  2 -1</clus>
<clus scale="   45.874">  2  4  1 -1</clus>
<clus scale="   73.772">  1  6  2 -1</clus>
<clus scale="   45.874">  2  3  1 -1</clus>
</clustering>
</event>
<event>
 6    0  0.4189111E+002  0.1411648E+03  0.7546771E-02  0.1211770E+00
         21   -1    0    0  504  502  0.00000000000E+00  0.00000000000E+00  0.68927208200E+02  0.68927208200E+02  0.00000000000E+00 0.  1.
          1   -1    0    0  505    0 -0.00000000000E+00 -0.00000000000E+00 -0.15982076325E+04  0.15982076325E+04  0.00000000000E+00 0. -1.
         21    1    1    2  503  501  0.34895282233E+02 -0.73752532455E+02 -0.64008138992E+03  0.64526064694E+03  0.00000000000E+00 0. -1.
         21    1    1    2  504  503  0.28862705946E+02  0.27675375756E+02 -0.34384582373E+02  0.52737858534E+02  0.00000000000E+00 0.  1.
         21    1    1    2  505  502 -0.84575915658E+02  0.93601418656E+02 -0.14229776266E+02  0.12695195003E+03  0.00000000000E+00 0.  1.
          1    1    1    2  501    0  0.20817927478E+02 -0.47524261957E+02 -0.84058467570E+03  0.84218438516E+03  0.00000000000E+00 0. -1.
<scales pt_clust_3="38.31589" pt_clust_4="39.98728" pt_clust_5="132.73587" pt_clust_6="38.31589"></scales>
<clustering>
<clus scale="   38.316">  3  6 -1 -1</clus>
<clus scale="   39.987">  1  4  2 -1</clus>
<clus scale="  132.736">  1  5  2 -1</clus>
<clus scale="   39.987">  1  3  2 -1</clus>
</clustering>
</event>
<event>
 6    0  0.4189111E+002  0.7903474E+02  0.7546771E-02  0.1331813E+00
          2   -1    0    0  504    0 -0.00000000000E+00  0.00000000000E+00  0.14324994067E+04  0.14324994067E+04  0.00000000000E+00 0.  1.
         21   -1    0    0  503  502  0.00000000000E+00 -0.00000000000E+00 -0.12552588642E+03  0.12552588642E+03  0.00000000000E+00 0.  1.
         21    1    1    2  503  501 -0.64090146950E+02  0.42954707220E+02  0.18388647401E+02  0.79314539409E+02  0.00000000000E+00 0.  1.
         21    1    1    2  504  505  0.46174142589E+02  0.94061770494E+01  0.30242755050E+03  0.30607670757E+03  0.00000000000E+00 0.  1.
         21    1    1    2  505  502  0.40995409523E+02  0.35371727549E+02 -0.83291699227E+02  0.99344299644E+02  0.00000000000E+00 0.  1.
          2    1    1    2  501    0 -0.23079405161E+02 -0.87732611818E+02  0.10694490216E+04  0.10732897465E+04  0.00000000000E+00 0.  1.
<scales pt_clust_3="14000.00000" pt_clust_4="47.12247" pt_clust_5="54.43860" pt_clust_6="79.03474"></scales>
<clustering>
<clus scale="   47.122">  1  4  2 -1</clus>
<clus scale="   54.439">  2  5  1 -1</clus>
<clus scale="   79.035">  1  6  2 -1</clus>
<clus scale="   54.439">  2  3  1 -1</clus>
</clustering>
</event>
<event>
 6    0  0.4189111E+002  0.1555988E+03  0.7546771E-02  0.1193757E+00
         21   -1    0    0  504  502  0.00000000000E+00  0.00000000000E+00  0.38710324056E+03  0.38710324056E+03  0.00000000000E+00 0. -1.
          2   -1    0    0  505    0 -0.00000000000E+00 -0.00000000000E+00 -0.11366320715E+04  0.11366320715E+04  0.00000000000E+00 0. -1.
         21    1    1    2  503  501 -0.70455836651E+02 -0.20996239348E+03  0.22910875901E+03  0.31865193401E+03  0.00000000000E+00 0. -1.
         21    1    1    2  504  503  0.43857430007E+02  0.11205955592E+03  0.26144546956E+02  0.12314363798E+03  0.00000000000E+00 0. -1.
         21    1    1    2  505  502  0.80551415960E+02 -0.47606804511E+02 -0.35126872975E+02  0.99944162681E+02  0.00000000000E+00 0.  1.
          2    1    1    2  501    0 -0.53953009316E+02  0.14550964206E+03 -0.96965526390E+03  0.98199557736E+03  0.00000000000E+00 0. -1.
<scales pt_clust_3="155.59885" pt_clust_4="118.78593" pt_clust_5="93.56783" pt_clust_6="14000.00000"></scales>
<clustering>
<clus scale="   93.568">  1  5  2 -1</clus>
<clus scale="  118.786">  1  4  2 -1</clus>
<clus scale="  155.599">  1  3  2 -1</clus>
<clus scale="   93.568">  1  3  2 -1</clus>
</clustering>
</event>
<event>
 6    0  0.4189111E+002  0.1254468E+03  0.7546771E-02  0.1234373E+00
         21   -1    0    0  504  502  0.00000000000E+00  0.00000000000E+00  0.11459333429E+03  0.11459333429E+03  0.00000000000E+00 0.  1.
          2   -1    0    0  505    0 -0.00000000000E+00 -0.00000000000E+00 -0.19979246417E+04  0.19979246417E+04  0.00000000000E+00 0. -1.
         21    1    1    2  503  502 -0.67555365431E+02  0.69536961684E+02  0.76649142766E+02  0.12358886489E+03  0.00000000000E+00 0.  1.
         21    1    1    2  504  501  0.36898277503E+01  0.43870705419E+02 -0.31060788344E+02  0.53879738263E+02  0.00000000000E+00 0.  1.
         21    1    1    2  505  503  0.59260291977E+02 -0.23506167740E+02 -0.83884993393E+03  0.84126900203E+03  0.00000000000E+00 0. -1.
          2    1    1    2  501    0  0.46052457033E+01 -0.89901499364E+02 -0.10900697279E+04  0.10937803708E+04  0.00000000000E+00 0. -1.
<scales pt_clust_3="125.44678" pt_clust_4="44.02560" pt_clust_5="63.60455" pt_clust_6="14000.00000"></scales>
<clustering>
<clus scale="   44.026">  1  4  2 -1</clus>
<clus scale="   63.605">  2  5  1 -1</clus>
<clus scale="  125.447">  1  3  2 -1</clus>
<clus scale="   44.026">  1  3  2 -1</clus>
</clustering>
</event>
<event>
 6    0  0.4189111E+002  0.6896955E+02  0.7546771E-02  0.1363633E+00
          2   -1    0    0  503    0 -0.00000000000E+00  0.00000000000E+00  0.39118985588E+04  0.39118985588E+04  0.00000000000E+00 0.  1.
         21   -1    0    0  504  502  0.00000000000E+00 -0.00000000000E+00 -0.25015356512E+02  0.25015356512E+02  0.00000000000E+00 0.  1.
         21    1    1    2  503  505 -0.21764388257E+02 -0.28270118393E+02  0.10645517826E+04  0.10651494665E+04  0.00000000000E+00 0.  1.
         21    1    1    2  504  501  0.31091552829E+02  0.12312910194E+02  0.95862961273E+02  0.10152831998E+03  0.00000000000E+00 0.  1.
         21    1    1    2  505  502 -0.76520526409E+02 -0.59178003905E+02  0.90901244626E+02  0.13274209349E+03  0.00000000000E+00 0.  1.
          2    1    1    2  501    0  0.67193361838E+02  0.75135212104E+02  0.26355672138E+04  0.26374940353E+04  0.00000000000E+00 0.  1.
<scales pt_clust_3="35.29136" pt_clust_4="33.44088" pt_clust_5="68.96955" pt_clust_6="14000.00000"></scales>
<clustering>
<clus scale="   33.441">  2  4  1 -1</clus>
<clus scale="   35.291">  1  3  2 -1</clus>
<clus scale="   68.970">  2  5  1 -1</clus>
<clus scale="   33.441">  2  3  1 -1</clus>
</clustering>
</event>
<event>
 6    0  0.4189111E+002  0.2329182E+03  0.7546771E-02  0.1124602E+00
          2   -1    0    0  504    0 -0.00000000000E+00  0.00000000000E+00  0.14648875160E+04  0.14648875160E+04  0.00000000000E+00 0.  1.
         21   -1    0    0  505  502  0.00000000000E+00 -0.00000000000E+00 -0.66375809346E+02  0.66375809346E+02  0.00000000000E+00 0.  1.
         21    1    1    2  503  501  0.10729831705E+03  0.76525982912E+02  0.37999926364E+03  0.40220466838E+03  0.00000000000E+00 0.  1.
         21    1    1    2  504  502  0.11961965002E+02  0.51127185928E+02  0.48647444322E+03  0.48929997103E+03  0.00000000000E+00 0.  1.
         21    1    1    2  505  503 -0.19505693534E+03 -0.12082420279E+03  0.21752442505E+03  0.31616858082E+03  0.00000000000E+00 0.  1.
          2    1    1    2  501    0  0.75796653286E+02 -0.68289660452E+01  0.31451357474E+03  0.32359010511E+03  0.00000000000E+00 0.  1.
<scales pt_clust_3="57.24677" pt_clust_4="52.50788" pt_clust_5="219.55037" pt_clust_6="57.24677"></scales>
<clustering>
<clus scale="   52.508">  1  4  2 -1</clus>
<clus scale="   57.247">  3  6 -1 -1</clus>
<clus scale="  219.550">  2  5  1 -1</clus>
<clus scale="  219.550">  2  3  1 -1</clus>
</clustering>
</event>
<event>
 6    0  0.4189111E+002  0.8583722E+02  0.7546771E-02  0.1313258E+00
         -2   -1    0    0    0  501 -0.00000000000E+00  0.00000000000E+00  0.65701090243E+03  0.65701090243E+03  0.00000000000E+00 0. -1.
         21   -1    0    0  505  502  0.00000000000E+00 -0.00000000000E+00 -0.10992694792E+04  0.10992694792E+04  0.00000000000E+00 0. -1.
         21    1    1    2  503  501  0.58328325192E+02  0.46668476265E+02 -0.28861723943E+02  0.80082078554E+02  0.00000000000E+00 0.  1.
         21    1    1    2  504  502 -0.93110681601E+02  0.91241991627E+01 -0.81371815777E+03  0.81907880593E+03  0.00000000000E+00 0. -1.
         21    1    1    2  505  503  0.39910817343E+02  0.31867026373E+02 -0.22242486045E+03  0.22821305672E+03  0.00000000000E+00 0. -1.
         -2    1    1    2    0  504 -0.51284609336E+01 -0.87659701800E+02  0.62274616534E+03  0.62890644048E+03  0.00000000000E+00 0. -1.
<scales pt_clust_3="85.83722" pt_clust_4="68.03983" pt_clust_5="51.07231" pt_clust_6="14000.00000"></scales>
<clustering>
<clus scale="   51.072">  2  5  1 -1</clus>
<clus scale="   68.040">  2  4  1 -1</clus>
<clus scale="   85.837">  2  3  1 -1</clus>
<clus scale="   51.072">  2  3  1 -1</clus>
</clustering>
</event>
<event>
 6    0  0.4189111E+002  0.1310332E+03  0.7546771E-02  0.1225931E+00
         21   -1    0    0  504  502  0.00000000000E+00  0.00000000000E+00  0.17220776514E+03  0.17220776514E+03  0.00000000000E+00 0.  1.
          4   -1    0    0  503    0 -0.00000000000E+00 -0.00000000000E+00 -0.43249904036E+03  0.43249904036E+03  0.00000000000E+00 0.  1.
         21    1    1    2  503  502 -0.28514906967E+02  0.85198567733E+02 -0.94470934430E+02  0.13037121352E+03  0.00000000000E+00 0. -1.
         21    1    1    2  504  505  0.36262166122E+02  0.55256512513E+01  0.40052774189E+02  0.54311161227E+02  0.00000000000E+00 0.  1.
         21    1    1    2  505  501  0.82077484609E+01 -0.15455903841E+03  0.44582605068E+02  0.16106977421E+03  0.00000000000E+00 0.  1.
          4    1    1    2  501    0 -0.15955007616E+02  0.63834819427E+02 -0.25045572005E+03  0.25895465654E+03  0.00000000000E+00 0.  1.
<scales pt_clust_3="131.03322" pt_clust_4="36.68075" pt_clust_5="14000.00000" pt_clust_6="65.69360"></scales>
<clustering>
<clus scale="   36.681">  1  4  2 -1</clus>
<clus scale="   65.694">  2  6  1 -1</clus>
<clus scale="  131.033">  2  3  1 -1</clus>
<clus scale="   36.681">  1  3  2 -1</clus>
</clustering>
</event>
<event>
 6    0  0.4189111E+002  0.1575386E+03  0.7546771E-02  0.1191504E+00
          2   -1    0    0  504    0 -0.00000000000E+00  0.00000000000E+00  0.18094004533E+04  0.18094004533E+04  0.00000000000E+00 0.  1.
         21   -1    0    0  501  502  0.00000000000E+00 -0.00000000000E+00 -0.68049129589E+02  0.68049129589E+02  0.00000000000E+00 0. -1.
         21    1    1    2  503  502  0.87724581521E+01  0.30059885768E+02 -0.15207400220E+01  0.31350684277E+02  0.00000000000E+00 0.  1.
         21    1    1    2  504  505  0.31014911433E+02  0.39574518947E+02  0.15456748438E+03  0.16253976286E+03  0.00000000000E+00 0.  1.
         21    1    1    2  505  503 -0.12215064548E+03 -0.14218376933E+03  0.14734998400E+03  0.23843032995E+03  0.00000000000E+00 0. -1.
          2    1    1    2  501    0  0.82363275897E+02  0.72549364617E+02  0.14409545953E+04  0.14451288058E+04  0.00000000000E+00 0.  1.
<scales pt_clust_3="31.31378" pt_clust_4="52.53275" pt_clust_5="157.53859" pt_clust_6="14000.00000"></scales>
<clustering>
<clus scale="   31.314">  2  3  1 -1</clus>
<clus scale="   52.533">  1  4  2 -1</clus>
<clus scale="  157.539">  2  5  1 -1</clus>
<clus scale="   31.314">  2  3  1 -1</clus>
</clustering>
</event>
<event>
 6    0  0.4189111E+002  0.9208169E+02  0.7546771E-02  0.1297887E+00
          2   -1    0    0  505    0 -0.00000000000E+00  0.00000000000E+00  0.82489249261E+03  0.82489249261E+03  0.00000000000E+00 0.  1.
         21   -1    0    0  503  502  0.00000000000E+00 -0.00000000000E+00 -0.61764694306E+02  0.61764694306E+02  0.00000000000E+00 0. -1.
         21    1    1    2  503  504 -0.36237194804E+02 -0.27842338494E+01 -0.29505246178E+02  0.46812880678E+02  0.00000000000E+00 0. -1.
         21    1    1    2  504  501 -0.40742471603E+02 -0.53178086069E+02  0.82089722454E+02  0.10595555843E+03  0.00000000000E+00 0. -1.
         21    1    1    2  505  502 -0.18072661970E+02 -0.41775367497E+02  0.22555314630E+03  0.23010003096E+03  0.00000000000E+00 0. -1.
          2    1    1    2  501    0  0.95052328377E+02  0.97737687415E+02  0.48499017572E+03  0.50378871684E+03  0.00000000000E+00 0.  1.
<scales pt_clust_3="36.34400" pt_clust_4="14000.00000" pt_clust_5="47.25045" pt_clust_6="92.08169"></scales>
<clustering>
<clus scale="   36.344">  2  3  1 -1</clus>
<clus scale="   47.250">  1  5  2 -1</clus>
<clus scale="   92.082">  1  6  2 -1</clus>
<clus scale="   36.344">  2  3  1 -1</clus>
</clustering>
</event>
<event>
 6    0  0.4189111E+002  0.8306112E+02  0.7546771E-02  0.1320582E+00
          1   -1    0    0  505    0 -0.00000000000E+00  0.00000000000E+00  0.16131469892E+03  0.16131469892E+03  0.00000000000E+00 0. -1.
         21   -1    0    0  504  502  0.00000000000E+00 -0.00000000000E+00 -0.55848426484E+03  0.55848426484E+03  0.00000000000E+00 0. -1.
         21    1    1    2  503  501  0.57661330083E+02 -0.99039958486E+02 -0.29710419397E+02  0.11839109504E+03  0.00000000000E+00 0. -1.
         21    1    1    2  504  503 -0.44053018699E+02 -0.45200297357E+01 -0.79046249505E+02  0.90605787266E+02  0.00000000000E+00 0.  1.
         21    1    1    2  505  502  0.41814157753E+02  0.49060761327E+02 -0.38299289706E+03  0.38837989300E+03  0.00000000000E+00 0. -1.
          1    1    1    2  501    0 -0.55422469138E+02  0.54499226894E+02  0.94580000047E+02  0.12242218846E+03  0.00000000000E+00 0. -1.
<scales pt_clust_3="83.06112" pt_clust_4="44.28430" pt_clust_5="45.76773" pt_clust_6="14000.00000"></scales>
<clustering>
<clus scale="   44.284">  2  4  1 -1</clus>
<clus scale="   45.768">  2  5  1 -1</clus>
<clus scale="   83.061">  2  3  1 -1</clus>
<clus scale="   44.284">  2  3  1 -1</clus>
</clustering>
</event>
<event>
 6    0  0.4189111E+002  0.1355287E+03  0.7546771E-02  0.1219475E+00
         -3   -1    0    0    0  501 -0.00000000000E+00  0.00000000000E+00  0.13366948246E+04  0.13366948246E+04  0.00000000000E+00 0.  1.
         21   -1    0    0  504  502  0.00000000000E+00 -0.00000000000E+00 -0.54083995654E+02  0.54083995654E+02  0.00000000000E+00 0.  1.
         21    1    1    2  503  502  0.26674659760E+02 -0.10122927797E+03  0.26133679514E+03  0.28152411031E+03  0.00000000000E+00 0. -1.
         21    1    1    2  504  505 -0.22156915561E+02  0.15105710089E+03  0.10935610258E+03  0.18779758733E+03  0.00000000000E+00 0.  1.
         21    1    1    2  505  501 -0.43346295559E+02  0.63171490939E+01  0.14410429853E+03  0.15061492810E+03  0.00000000000E+00 0. -1.
         -3    1    1    2    0  503  0.38828551360E+02 -0.56144972009E+02  0.76781363270E+03  0.77084219452E+03  0.00000000000E+00 0.  1.
<scales pt_clust_3="135.52869" pt_clust_4="14000.00000" pt_clust_5="43.80420" pt_clust_6="53.16508"></scales>
<clustering>
<clus scale="   43.804">  1  5  2 -1</clus>
<clus scale="   53.165">  1  6  2 -1</clus>
<clus scale="  135.529">  1  3  2 -1</clus>
<clus scale="  135.529">  2  3  1 -1</clus>
</clustering>
</event>
<event>
 6    0  0.4189111E+002  0.1153985E+03  0.7546771E-02  0.1250887E+00
         21   -1    0    0  504  502  0.00000000000E+00  0.00000000000E+00  0.85029827672E+02  0.85029827672E+02  0.00000000000E+00 0.  1.
          1   -1    0    0  503    0 -0.00000000000E+00 -0.00000000000E+00 -0.77733867392E+03  0.77733867392E+03  0.00000000000E+00 0.  1.
         21    1    1    2  503  502 -0.19305229538E+02  0.40510908680E+02 -0.45380329339E+01  0.45104538048E+02  0.00000000000E+00 0.  1.
         21    1    1    2  504  505  0.54373723046E+01 -0.64977613848E+02 -0.88322689582E+02  0.10978411913E+03  0.00000000000E+00 0.  1.
         21    1    1    2  505  501 -0.20182961612E+02 -0.88833528532E+02  0.53161317788E+01  0.91252446477E+02  0.00000000000E+00 0.  1.
          1    1    1    2  501    0  0.34050818845E+02  0.11330023370E+03 -0.60476425551E+03  0.61622739793E+03  0.00000000000E+00 0.  1.
<scales pt_clust_3="44.87567" pt_clust_4="58.30654" pt_clust_5="115.39848" pt_clust_6="14000.00000"></scales>
<clustering>
<clus scale="   44.876">  1  3  2 -1</clus>
<clus scale="   58.307">  1  4  2 -1</clus>
<clus scale="  115.398">  1  5  2 -1</clus>
<clus scale="   44.876">  1  3  2 -1</clus>
</clustering>
</event>
<event>
 6    0  0.4189111E+002  0.9699400E+02  0.7546771E-02  0.1286747E+00
         21   -1    0    0  501  502  0.00000000000E+00  0.00000000000E+00  0.32865381890E+03  0.32865381890E+03  0.00000000000E+00 0. -1.
          2   -1    0    0  504    0 -0.00000000000E+00 -0.00000000000E+00 -0.13189286802E+04  0.13189286802E+04  0.00000000000E+00 0.  1.
         21    1    1    2  503  505 -0.11025435205E+03  0.46251324541E+02 -0.47440837694E+02  0.12863063495E+03  0.00000000000E+00 0. -1.
         21    1    1    2  504  503  0.40488625723E+02 -0.30635786639E+02 -0.29089305627E+03  0.29529078960E+03  0.00000000000E+00 0. -1.
         21    1    1    2  505  502  0.84093936058E+02 -0.44205322377E+02  0.27768387653E+03  0.29348634703E+03  0.00000000000E+00 0. -1.
          2    1    1    2  501    0 -0.14328209735E+02  0.28589784475E+02 -0.92962484383E+03  0.93017472748E+03  0.00000000000E+00 0.  1.
<scales pt_clust_3="96.99400" pt_clust_4="31.05590" pt_clust_5="14000.00000" pt_clust_6="31.97926"></scales>
<clustering>
<clus scale="   31.979">  2  6  1 -1</clus>
<clus scale="   31.056">  2  4  1 -1</clus>
<clus scale="   96.994">  2  3  1 -1</clus>
<clus scale="   96.994">  1  3  2 -1</clus>
</clustering>
</event>
<event>
 6    0  0.4189111E+002  0.1003165E+03  0.7546771E-02  0.1279632E+00
          3   -1    0    0  504    0 -0.00000000000E+00  0.00000000000E+00  0.48537322339E+03  0.48537322339E+03  0.00000000000E+00 0.  1.
         21   -1    0    0  503  502  0.00000000000E+00 -0.00000000000E+00 -0.29934996880E+03  0.29934996880E+03  0.00000000000E+00 0. -1.
         21    1    1    2  503  501 -0.93831728238E+01 -0.38929732981E+02 -0.22782672305E+02  0.46071880790E+02  0.00000000000E+00 0. -1.
         21    1    1    2  504  505 -0.42444411613E+01 -0.62716152775E+02  0.19251135708E+03  0.20251408273E+03  0.00000000000E+00 0.  1.
         21    1    1    2  505  502  0.20974990074E+02 -0.59985914535E+02 -0.23157373629E+03  0.24013466116E+03  0.00000000000E+00 0. -1.
          3    1    1    2  501    0 -0.73473760893E+01  0.16163180029E+03  0.24786830611E+03  0.29600256751E+03  0.00000000000E+00 0.  1.
<scales pt_clust_3="40.04458" pt_clust_4="63.60496" pt_clust_5="14000.00000" pt_clust_6="100.31653"></scales>
<clustering>
<clus scale="   40.045">  2  3  1 -1</clus>
<clus scale="   63.605">  1  4  2 -1</clus>
<clus scale="  100.317">  1  6  2 -1</clus>
<clus scale="   40.045">  2  3  1 -1</clus>
</clustering>
</event>
<event>
 6    0  0.4189111E+002  0.1767205E+03  0.7546771E-02  0.1171015E+00
          2   -1    0    0  504    0 -0.00000000000E+00  0.00000000000E+00  0.47172982297E+04  0.47172982297E+04  0.00000000000E+00 0.  1.
         21   -1    0    0  505  502  0.00000000000E+00 -0.00000000000E+00 -0.33574213350E+02  0.33574213350E+02  0.00000000000E+00 0.  1.
         21    1    1    2  503  502  0.36491635150E+02 -0.15957422022E+02  0.64283245628E+02  0.75621520892E+02  0.00000000000E+00 0.  1.
         21    1    1    2  504  503 -0.40178393589E+02 -0.21249746380E+01  0.85451260366E+03  0.85545929690E+03  0.00000000000E+00 0.  1.
         21    1    1    2  505  501 -0.66607548435E+02 -0.15812676916E+03  0.27122751862E+03  0.32094393201E+03  0.00000000000E+00 0.  1.
          2    1    1    2  501    0  0.70294306874E+02  0.17620916582E+03  0.34937006484E+04  0.34988476932E+04  0.00000000000E+00 0.  1.
<scales pt_clust_3="39.82812" pt_clust_4="39.63187" pt_clust_5="176.72054" pt_clust_6="14000.00000"></scales>
<clustering>
<clus scale="   39.828">  2  3  1 -1</clus>
<clus scale="   39.632">  1  4  2 -1</clus>
<clus scale="  176.721">  2  5  1 -1</clus>
<clus scale="   39.828">  2  3  1 -1</clus>
</clustering>
</event>
<event>
 6    0  0.4189111E+002  0.1111406E+03  0.7546771E-02  0.1258472E+00
          1   -1    0    0  503    0 -0.00000000000E+00  0.00000000000E+00  0.12596954290E+04  0.12596954290E+04  0.00000000000E+00 0.  1.
         21   -1    0    0  501  502  0.00000000000E+00 -0.00000000000E+00 -0.34974930175E+02  0.34974930175E+02  0.00000000000E+00 0.  1.
         21    1    1    2  503  504 -0.44835072921E+02  0.16748328010E+02  0.25208646788E+03  0.25658970662E+03  0.00000000000E+00 0. -1.
         21    1    1    2  504  505  0.54081768086E+01 -0.11787303313E+03  0.11475908788E+03  0.16459935774E+03  0.00000000000E+00 0.  1.
         21    1    1    2  505  502  0.38133186970E+02  0.84251772807E+01  0.69885304008E+02  0.80056725370E+02  0.00000000000E+00 0.  1.
          1    1    1    2  501    0  0.12937091426E+01  0.92699527843E+02  0.78798963903E+03  0.79342456942E+03  0.00000000000E+00 0.  1.
<scales pt_clust_3="45.42041" pt_clust_4="111.14059" pt_clust_5="39.05283" pt_clust_6="14000.00000"></scales>
<clustering>
<clus scale="   39.053">  2  5  1 -1</clus>
<clus scale="   45.420">  1  3  2 -1</clus>
<clus scale="  111.141">  2  4  1 -1</clus>
<clus scale="   39.053">  2  3  1 -1</clus>
</clustering>
</event>
<event>
 6    0  0.4189111E+002  0.1704729E+03  0.7546771E-02  0.1177356E+00
          2   -1    0    0  504    0 -0.00000000000E+00  0.00000000000E+00  0.80222344889E+03  0.80222344889E+03  0.00000000000E+00 0.  1.
         21   -1    0    0  505  502  0.00000000000E+00 -0.00000000000E+00 -0.94945653244E+02  0.94945653244E+02  0.00000000000E+00 0.  1.
         21    1    1    2  503  502  0.35401878237E+02  0.13094738210E+03  0.12643903488E+03  0.18543823608E+03  0.00000000000E+00 0.  1.
         21    1    1    2  504  503  0.31061263647E+02  0.26399815572E+02  0.10150956586E+03  0.10938895887E+03  0.00000000000E+00 0.  1.
         21    1    1    2  505  501 -0.49234006913E+02 -0.20737545095E+03  0.13134906602E+03  0.25036202236E+03  0.00000000000E+00 0.  1.
          2    1    1    2  501    0 -0.17229134971E+02  0.50028253282E+02  0.34798012889E+03  0.35197988482E+03  0.00000000000E+00 0.  1.
<scales pt_clust_3="170.47294" pt_clust_4="40.76460" pt_clust_5="14000.00000" pt_clust_6="63.30944"></scales>
<clustering>
<clus scale="   40.765">  1  4  2 -1</clus>
<clus scale="   63.309">  1  6  2 -1</clus>
<clus scale="  170.473">  2  3  1 -1</clus>
<clus scale="  170.473">  2  3  1 -1</clus>
</clustering>
</event>
<event>
 6    0  0.4189111E+002  0.1405583E+03  0.7546771E-02  0.1212580E+00
         21   -1    0    0  505  502  0.00000000000E+00  0.00000000000E+00  0.90611837131E+03  0.90611837131E+03  0.00000000000E+00 0.  1.
          1   -1    0    0  504    0 -0.00000000000E+00 -0.00000000000E+00 -0.29591636596E+04  0.29591636596E+04  0.00000000000E+00 0. -1.
         21    1    1    2  503  502 -0.50609346829E+02 -0.13955278674E+03  0.65751098815E+03  0.67406007582E+03  0.00000000000E+00 0.  1.
         21    1    1    2  504  503 -0.29635614223E+02  0.18089621117E+02 -0.37717005312E+03  0.37876477264E+03  0.00000000000E+00 0. -1.
         21    1    1    2  505  501 -0.17782785178E+02  0.13250970268E+03  0.21985254832E+03  0.25731341153E+03  0.00000000000E+00 0.  1.
          1    1    1    2  501    0  0.98027746230E+02 -0.11046537055E+02 -0.25532387716E+04  0.25551437709E+04  0.00000000000E+00 0. -1.
<scales pt_clust_3="14000.00000" pt_clust_4="34.72037" pt_clust_5="140.55831" pt_clust_6="69.04321"></scales>
<clustering>
<clus scale="   34.720">  2  4  1 -1</clus>
<clus scale="   69.043">  2  6  1 -1</clus>
<clus scale="  140.558">  2  5  1 -1</clus>
<clus scale="  140.558">  1  3  2 -1</clus>
</clustering>
</event>
<event>
 6    0  0.4189111E+002  0.1556636E+03  0.7546771E-02  0.1193681E+00
          2   -1    0    0  503    0 -0.00000000000E+00  0.00000000000E+00  0.17918832048E+04  0.17918832048E+04  0.00000000000E+00 0.  1.
         21   -1    0    0  505  502  0.00000000000E+00 -0.00000000000E+00 -0.15350514148E+03  0.15350514148E+03  0.00000000000E+00 0. -1.
         21    1    1    2  503  504  0.19143371439E+03  0.13456143392E+03  0.64213370710E+03  0.68343934939E+03  0.00000000000E+00 0. -1.
         21    1    1    2  504  502 -0.95642740275E+02  0.74013483717E+01 -0.99390734265E+02  0.13813338403E+03  0.00000000000E+00 0. -1.
         21    1    1    2  505  501 -0.11790370645E+02 -0.29579039679E+02  0.17005515768E+02  0.36098753369E+02  0.00000000000E+00 0. -1.
          2    1    1    2  501    0 -0.84000603465E+02 -0.11238374262E+03  0.10786295747E+04  0.10877168595E+04  0.00000000000E+00 0.  1.
<scales pt_clust_3="155.66362" pt_clust_4="106.73214" pt_clust_5="31.84231" pt_clust_6="14000.00000"></scales>
<clustering>
<clus scale="   31.842">  2  5  1 -1</clus>
<clus scale="  106.732">  2  4  1 -1</clus>
<clus scale="  155.664">  2  3  1 -1</clus>
<clus scale="   31.842">  2  3  1 -1</clus>
</clustering>
</event>
<event>
 6    0  0.4189111E+002  0.1052451E+03  0.7546771E-02  0.1269637E+00
         21   -1    0    0  504  502  0.00000000000E+00  0.00000000000E+00  0.59007207416E+03  0.59007207416E+03  0.00000000000E+00 0. -1.
          2   -1    0    0  505    0 -0.00000000000E+00 -0.00000000000E+00 -0.21288283092E+04  0.21288283092E+04  0.00000000000E+00 0.  1.
         21    1    1    2  503  502  0.10851920601E+03  0.39828901073E+02  0.56762637869E+03  0.57927753730E+03  0.00000000000E+00 0. -1.
         21    1    1    2  504  501 -0.28124614806E+01 -0.36986037753E+02 -0.10319106091E+02  0.38501439957E+02  0.00000000000E+00 0. -1.
         21    1    1    2  505  503 -0.72530893420E+02  0.14267369983E+02 -0.19056696405E+04  0.19071027940E+04  0.00000000000E+00 0.  1.
          2    1    1    2  501    0 -0.33175851113E+02 -0.17110233303E+02 -0.19039386715E+03  0.19401861206E+03  0.00000000000E+00 0.  1.
<scales pt_clust_3="105.24509" pt_clust_4="37.09282" pt_clust_5="14000.00000" pt_clust_6="37.38958"></scales>
<clustering>
<clus scale="   37.093">  1  4  2 -1</clus>
<clus scale="   37.390">  2  6  1 -1</clus>
<clus scale="  105.245">  1  3  2 -1</clus>
<clus scale="   37.093">  1  3  2 -1</clus>
</clustering>
</event>
<event>
 6    0  0.4189111E+002  0.1397498E+03  0.7546771E-02  0.1213666E+00
          1   -1    0    0  503    0 -0.00000000000E+00  0.00000000000E+00  0.72127968306E+03  0.72127968306E+03  0.00000000000E+00 0. -1.
         21   -1    0    0  504  502  0.00000000000E+00 -0.00000000000E+00 -0.12842174431E+04  0.12842174431E+04  0.00000000000E+00 0. -1.
         21    1    1    2  503  505 -0.19946348116E+02  0.27263505717E+02  0.37635121896E+02  0.50572304152E+02  0.00000000000E+00 0. -1.
         21    1    1    2  504  501  0.37915631383E+02 -0.72551042907E+02 -0.20492713150E+03  0.22067255868E+03  0.00000000000E+00 0.  1.
         21    1    1    2  505  502  0.44297525347E+02 -0.45903835288E+02 -0.10594286772E+04  0.10613475185E+04  0.00000000000E+00 0. -1.
          1    1    1    2  501    0 -0.62266808614E+02  0.91191372477E+02  0.66378292675E+03  0.67290474490E+03  0.00000000000E+00 0. -1.
<scales pt_clust_3="33.78099" pt_clust_4="14000.00000" pt_clust_5="63.74469" pt_clust_6="139.74981"></scales>
<clustering>
<clus scale="   33.781">  1  3  2 -1</clus>
<clus scale="   63.745">  2  5  1 -1</clus>
<clus scale="  139.750">  1  6  2 -1</clus>
<clus scale="   63.745">  2  3  1 -1</clus>
</clustering>
</event>
<event>
 6    0  0.4189111E+002  0.5762203E+02  0.7546771E-02  0.1408091E+00
          2   -1    0    0  505    0 -0.00000000000E+00  0.00000000000E+00  0.29649076162E+04  0.29649076162E+04  0.00000000000E+00 0.  1.
         21   -1    0    0  504  502  0.00000000000E+00 -0.00000000000E+00 -0.13643584800E+03  0.13643584800E+03  0.00000000000E+00 0. -1.
         21    1    1    2  503  501 -0.27211470619E+02  0.59951271333E+02  0.24156629284E+03  0.25037750079E+03  0.00000000000E+00 0.  1.
         21    1    1    2  504  503  0.54533161791E+02 -0.99438425887E+01 -0.12004622583E+03  0.13222648024E+03  0.00000000000E+00 0. -1.
         21    1    1    2  505  502  0.44112356185E+02  0.28161044797E+02  0.13775383662E+03  0.14736032002E+03  0.00000000000E+00 0. -1.
          2    1    1    2  501    0 -0.71434047358E+02 -0.78168473542E+02  0.25691978646E+04  0.25713791632E+04  0.00000000000E+00 0.  1.
<scales pt_clust_3="14000.00000" pt_clust_4="55.51515" pt_clust_5="52.33493" pt_clust_6="57.62203"></scales>
<clustering>
<clus scale="   52.335">  1  5  2 -1</clus>
<clus scale="   55.515">  2  4  1 -1</clus>
<clus scale="   57.622">  1  6  2 -1</clus>
<clus scale="   55.515">  2  3  1 -1</clus>
</clustering>
</event>
<event>
 6    0  0.4189111E+002  0.2159376E+03  0.7546771E-02  0.1136948E+00
         -2   -1    0    0    0  501 -0.00000000000E+00  0.00000000000E+00  0.16854007369E+04  0.16854007369E+04  0.00000000000E+00 0.  1.
         21   -1    0    0  503  502  0.00000000000E+00 -0.00000000000E+00 -0.11843669049E+03  0.11843669049E+03  0.00000000000E+00 0. -1.
         21    1    1    2  503  504  0.25939532014E+02  0.30699918211E+02 -0.53462913313E+02  0.66885180714E+02  0.00000000000E+00 0. -1.
         21    1    1    2  504  501 -0.13978276459E+03 -0.19658611297E+03  0.10517767434E+04  0.10790827767E+04  0.00000000000E+00 0.  1.
         21    1    1    2  505  502  0.16942382126E+03  0.88314840321E+02  0.19807610765E+03  0.27520553529E+03  0.00000000000E+00 0. -1.
         -2    1    1    2    0  505 -0.55580588681E+02  0.77571354436E+02  0.37057410863E+03  0.38266393461E+03  0.00000000000E+00 0.  1.
<scales pt_clust_3="40.19135" pt_clust_4="215.93759" pt_clust_5="14000.00000" pt_clust_6="96.53444"></scales>
<clustering>
<clus scale="   40.191">  2  3  1 -1</clus>
<clus scale="   96.534">  1  6  2 -1</clus>
<clus scale="  215.938">  1  4  2 -1</clus>
<clus scale="   40.191">  2  3  1 -1</clus>
</clustering>
</event>
<event>
 6    0  0.4189111E+002  0.9800976E+02  0.7546771E-02  0.1284538E+00
         21   -1    0    0  503  502  0.00000000000E+00  0.00000000000E+00  0.14349639653E+03  0.14349639653E+03  0.00000000000E+00 0. -1.
          3   -1    0    0  504    0 -0.00000000000E+00 -0.00000000000E+00 -0.50399117573E+03  0.50399117573E+03  0.00000000000E+00 0.  1.
         21    1    1    2  503  501 -0.27844600868E+02 -0.56008613754E+02  0.78083893947E+02  0.10004689454E+03  0.00000000000E+00 0. -1.
         21    1    1    2  504  505 -0.14248878761E+02 -0.36096779821E+02 -0.13216330983E+03  0.13774305254E+03  0.00000000000E+00 0. -1.
         21    1    1    2  505  502 -0.60509555808E+02  0.80799246869E+01  0.14252397401E+02  0.62688295229E+02  0.00000000000E+00 0. -1.
          3    1    1    2  501    0  0.10260303544E+03  0.84025468889E+02 -0.32066776072E+03  0.34700932994E+03  0.00000000000E+00 0.  1.
<scales pt_clust_3="98.00976" pt_clust_4="38.80732" pt_clust_5="61.70948" pt_clust_6="14000.00000"></scales>
<clustering>
<clus scale="   38.807">  2  4  1 -1</clus>
<clus scale="   61.709">  1  5  2 -1</clus>
<clus scale="   98.010">  1  3  2 -1</clus>
<clus scale="   61.709">  1  3  2 -1</clus>
</clustering>
</event>
<event>
 6    0  0.4189111E+002  0.8679547E+02  0.7546771E-02  0.1310803E+00
          2   -1    0    0  504    0 -0.00000000000E+00  0.00000000000E+00  0.16803330579E+03  0.16803330579E+03  0.00000000000E+00 0. -1.
         21   -1    0    0  505  502  0.00000000000E+00 -0.00000000000E+00 -0.30291797270E+03  0.30291797270E+03  0.00000000000E+00 0. -1.
         21    1    1    2  503  501 -0.28436874911E+02  0.27462862973E+02 -0.23345137879E+02  0.45911438226E+02  0.00000000000E+00 0. -1.
         21    1    1    2  504  502  0.21660542993E+02 -0.86733382323E+02 -0.21811739869E+03  0.23572666023E+03  0.00000000000E+00 0. -1.
         21    1    1    2  505  503 -0.30833104400E+02 -0.20107267232E+02 -0.14641718843E+02  0.39615179580E+02  0.00000000000E+00 0.  1.
          2    1    1    2  501    0  0.37609436319E+02  0.79377786582E+02  0.12121958851E+03  0.14969800046E+03  0.00000000000E+00 0. -1.
<scales pt_clust_3="40.81347" pt_clust_4="86.79547" pt_clust_5="36.81009" pt_clust_6="14000.00000"></scales>
<clustering>
<clus scale="   36.810">  2  5  1 -1</clus>
<clus scale="   40.813">  2  3  1 -1</clus>
<clus scale="   86.795">  2  4  1 -1</clus>
<clus scale="   36.810">  2  3  1 -1</clus>
</clustering>
</event>
<event>
 6    0  0.4189111E+002  0.1027335E+03  0.7546771E-02  0.1274651E+00
         21   -1    0    0  504  502  0.00000000000E+00  0.00000000000E+00  0.39645628461E+03  0.39645628461E+03  0.00000000000E+00 0. -1.
         -1   -1    0    0    0  501 -0.00000000000E+00 -0.00000000000E+00 -0.96833936332E+02  0.96833936332E+02  0.00000000000E+00 0.  1.
         21    1    1    2  503  502 -0.40884000915E+02 -0.45028176886E+02  0.11374759909E+03  0.12898664483E+03  0.00000000000E+00 0. -1.
         21    1    1    2  504  501  0.12767695849E+03 -0.35827708860E+02  0.18493467149E+03  0.22756507459E+03  0.00000000000E+00 0. -1.
         21    1    1    2  505  503 -0.45583587256E+02  0.70107221953E+02  0.25690413726E+02  0.87480759910E+02  0.00000000000E+00 0.  1.
         -1    1    1    2    0  505 -0.41209370324E+02  0.10748663793E+02 -0.24750336029E+02  0.49257741619E+02  0.00000000000E+00 0.  1.
<scales pt_clust_3="63.51621" pt_clust_4="102.73348" pt_clust_5="14000.00000" pt_clust_6="42.58810"></scales>
<clustering>
<clus scale="   42.588">  2  6  1 -1</clus>
<clus scale="   63.516">  1  3  2 -1</clus>
<clus scale="  102.733">  1  4  2 -1</clus>
<clus scale="   63.516">  1  3  2 -1</clus>
</clustering>
</event>
<event>
 6    0  0.4189111E+002  0.3460511E+03  0.7546771E-02  0.1064248E+00
         21   -1    0    0  504  502  0.00000000000E+00  0.00000000000E+00  0.52859390232E+02  0.52859390232E+02  0.00000000000E+00 0.  1.
          2   -1    0    0  503    0 -0.00000000000E+00 -0.00000000000E+00 -0.49007647708E+04  0.49007647708E+04  0.00000000000E+00 0.  1.
         21    1    1    2  503  505  0.38491493355E+02  0.27889748495E+03 -0.15626923003E+04  0.15878515761E+04  0.00000000000E+00 0.  1.
         21    1    1    2  504  501 -0.11348545720E+02 -0.83996318474E+02 -0.52350177945E+03  0.53031903992E+03  0.00000000000E+00 0. -1.
         21    1    1    2  505  502  0.11213608157E+03  0.10159019515E+03 -0.18964543628E+03  0.24261174753E+03  0.00000000000E+00 0.  1.
          2    1    1    2  501    0 -0.13927902920E+03 -0.29649136162E+03 -0.25720658645E+04  0.25928417975E+04  0.00000000000E+00 0.  1.
<scales pt_clust_3="340.02400" pt_clust_4="32.70982" pt_clust_5="151.31116" pt_clust_6="32.70982"></scales>
<clustering>
<clus scale="   32.710">  4  6 -1 -1</clus>
<clus scale="  151.311">  1  5  2 -1</clus>
<clus scale="  340.024">  2  3  1 -1</clus>
<clus scale="  151.311">  1  3  2 -1</clus>
</clustering>
</event>
<event>
 6    0  0.4189111E+002  0.1120999E+03  0.7546771E-02  0.1256730E+00
          2   -1    0    0  505    0 -0.00000000000E+00  0.00000000000E+00  0.28476426286E+04  0.28476426286E+04  0.00000000000E+00 0. -1.
         21   -1    0    0  503  502  0.00000000000E+00 -0.00000000000E+00 -0.28177140618E+03  0.28177140618E+03  0.00000000000E+00 0.  1.
         21    1    1    2  503  501  0.78951319701E+02 -0.23259544516E+02  0.42505024024E+03  0.43294575182E+03  0.00000000000E+00 0. -1.
         21    1    1    2  504  502  0.11905696491E+02 -0.40532999900E+02 -0.26980567027E+03  0.27309296842E+03  0.00000000000E+00 0.  1.
         21    1    1    2  505  504 -0.14075002818E+03  0.77030878919E+02  0.10905878128E+04  0.11023275848E+04  0.00000000000E+00 0. -1.
          2    1    1    2  501    0  0.49893011987E+02 -0.13238334503E+02  0.13200388396E+04  0.13210477297E+04  0.00000000000E+00 0. -1.
<scales pt_clust_3="112.09992" pt_clust_4="42.24535" pt_clust_5="14000.00000" pt_clust_6="52.71939"></scales>
<clustering>
<clus scale="   42.245">  2  4  1 -1</clus>
<clus scale="   52.719">  1  6  2 -1</clus>
<clus scale="  112.100">  2  3  1 -1</clus>
<clus scale="   42.245">  2  3  1 -1</clus>
</clustering>
</event>
<event>
 6    0  0.4189111E+002  0.1594015E+03  0.7546771E-02  0.1189374E+00
          2   -1    0    0  503    0 -0.00000000000E+00  0.00000000000E+00  0.24604554556E+04  0.24604554556E+04  0.00000000000E+00 0. -1.
         21   -1    0    0  505  502  0.00000000000E+00 -0.00000000000E+00 -0.11739390850E+03  0.11739390850E+03  0.00000000000E+00 0. -1.
         21    1    1    2  503  502 -0.17775237414E+01  0.35981323286E+02  0.50710658654E+02  0.62204389855E+02  0.00000000000E+00 0.  1.
         21    1    1    2  504  501  0.66383780478E+01 -0.56501730130E+02  0.57256154885E+03  0.57538095275E+03  0.00000000000E+00 0. -1.
         21    1    1    2  505  504 -0.68016456199E+02  0.93345763103E+02 -0.78335702743E+02  0.13955698523E+03  0.00000000000E+00 0. -1.
          2    1    1    2  501    0  0.63155601893E+02 -0.72825356259E+02  0.17981250424E+04  0.18007070363E+04  0.00000000000E+00 0. -1.
<scales pt_clust_3="36.02520" pt_clust_4="48.73221" pt_clust_5="146.17225" pt_clust_6="48.73221"></scales>
<clustering>
<clus scale="   36.025">  2  3  1 -1</clus>
<clus scale="   48.732">  4  6 -1 -1</clus>
<clus scale="  146.172">  2  5  1 -1</clus>
<clus scale="   36.025">  2  3  1 -1</clus>
</clustering>
</event>
<event>
 6    0  0.4189111E+002  0.8650713E+02  0.7546771E-02  0.1311538E+00
         -1   -1    0    0    0  501 -0.00000000000E+00  0.00000000000E+00  0.15074410405E+03  0.15074410405E+03  0.00000000000E+00 0. -1.
         21   -1    0    0  505  502  0.00000000000E+00 -0.00000000000E+00 -0.24336254754E+03  0.24336254754E+03  0.00000000000E+00 0. -1.
         21    1    1    2  503  502  0.20142578206E+02 -0.28961575922E+02 -0.87537604024E+02  0.94378644062E+02  0.00000000000E+00 0. -1.
         21    1    1    2  504  503 -0.92659124142E+02  0.79574808410E+01 -0.36474093886E+02  0.99896918435E+02  0.00000000000E+00 0. -1.
         21    1    1    2  505  501 -0.13811199732E+01  0.76920815131E+02  0.65545705721E+02  0.10106907950E+03  0.00000000000E+00 0.  1.
         -1    1    1    2    0  504  0.73897665909E+02 -0.55916720050E+02 -0.34152451308E+02  0.98762009590E+02  0.00000000000E+00 0. -1.
<scales pt_clust_3="35.27742" pt_clust_4="86.50713" pt_clust_5="73.55189" pt_clust_6="14000.00000"></scales>
<clustering>
<clus scale="   35.277">  2  3  1 -1</clus>
<clus scale="   73.552">  1  5  2 -1</clus>
<clus scale="   86.507">  2  4  1 -1</clus>
<clus scale="   35.277">  2  3  1 -1</clus>
</clustering>
</event>
<event>
 6    0  0.4189111E+002  0.7099004E+02  0.7546771E-02  0.1356758E+00
          2   -1    0    0  503    0 -0.00000000000E+00  0.00000000000E+00  0.91255604414E+03  0.91255604414E+03  0.00000000000E+00 0.  1.
         21   -1    0    0  504  502  0.00000000000E+00 -0.00000000000E+00 -0.96113601385E+02  0.96113601385E+02  0.00000000000E+00 0.  1.
         21    1    1    2  503  505 -0.71539997922E+02  0.53130029084E+02  0.23108383243E+03  0.24767016152E+03  0.00000000000E+00 0.  1.
         21    1    1    2  504  501  0.81758529745E+02 -0.32972604239E+02 -0.37328534197E+02  0.95734368341E+02  0.00000000000E+00 0.  1.
         21    1    1    2  505  502 -0.58758931998E+02  0.25965410060E+02  0.33811707252E+02  0.72595083556E+02  0.00000000000E+00 0.  1.
          2    1    1    2  501    0  0.48540400175E+02 -0.46122834904E+02  0.58887543726E+03  0.59267003211E+03  0.00000000000E+00 0.  1.
<scales pt_clust_3="70.99004" pt_clust_4="32.53036" pt_clust_5="64.24029" pt_clust_6="14000.00000"></scales>
<clustering>
<clus scale="   64.240">  2  5  1 -1</clus>
<clus scale="   32.530">  2  4  1 -1</clus>
<clus scale="   70.990">  2  3  1 -1</clus>
<clus scale="   64.240">  2  3  1 -1</clus>
</clustering>
</event>
<event>
 6    0  0.4189111E+002  0.9844325E+02  0.7546771E-02  0.1283604E+00
          2   -1    0    0  504    0 -0.00000000000E+00  0.00000000000E+00  0.21898297231E+03  0.21898297231E+03  0.00000000000E+00 0. -1.
         21   -1    0    0  501  502  0.00000000000E+00 -0.00000000000E+00 -0.12639192467E+03  0.12639192467E+03  0.00000000000E+00 0.  1.
         21    1    1    2  503  502  0.22681367938E+01 -0.42219122066E+02 -0.15616432250E+02  0.45071850070E+02  0.00000000000E+00 0.  1.
         21    1    1    2  504  505  0.23503270372E+02  0.30167710844E+02  0.18716069466E+02  0.42576821770E+02  0.00000000000E+00 0.  1.
         21    1    1    2  505  503  0.90916709718E+02  0.18841932812E+02 -0.22836559017E+02  0.95615767350E+02  0.00000000000E+00 0.  1.
          2    1    1    2  501    0 -0.11668811688E+03 -0.67905215902E+01  0.11232796944E+03  0.16211045779E+03  0.00000000000E+00 0. -1.
<scales pt_clust_3="40.07097" pt_clust_4="38.24257" pt_clust_5="98.44325" pt_clust_6="14000.00000"></scales>
<clustering>
<clus scale="   38.243">  1  4  2 -1</clus>
<clus scale="   40.071">  2  3  1 -1</clus>
<clus scale="   98.443">  2  5  1 -1</clus>
<clus scale="   40.071">  2  3  1 -1</clus>
</clustering>
</event>
<event>
 6    0  0.4189111E+002  0.1289694E+03  0.7546771E-02  0.1228993E+00
         -1   -1    0    0    0  501 -0.00000000000E+00  0.00000000000E+00  0.35972665238E+03  0.35972665238E+03  0.00000000000E+00 0.  1.
         21   -1    0    0  504  502  0.00000000000E+00 -0.00000000000E+00 -0.56903890992E+03  0.56903890992E+03  0.00000000000E+00 0.  1.
         21    1    1    2  503  505  0.85777850741E+02 -0.33147169923E+02  0.25752444281E+03  0.27345093380E+03  0.00000000000E+00 0.  1.
         21    1    1    2  504  501 -0.76403033641E+02 -0.62119553386E+02 -0.47756518262E+03  0.48761128588E+03  0.00000000000E+00 0.  1.
         21    1    1    2  505  502 -0.41901681139E+02  0.82603865965E+02 -0.44194802097E+02  0.10262714108E+03  0.00000000000E+00 0.  1.
         -1    1    1    2    0  503  0.32526864038E+02  0.12662857343E+02  0.54923284375E+02  0.65076201539E+02  0.00000000000E+00 0.  1.
<scales pt_clust_3="31.18063" pt_clust_4="118.62409" pt_clust_5="92.62370" pt_clust_6="31.18063"></scales>
<clustering>
<clus scale="   31.181">  3  6 -1 -1</clus>
<clus scale="   92.624">  2  5  1 -1</clus>
<clus scale="  118.624">  2  4  1 -1</clus>
<clus scale="   92.624">  2  3  1 -1</clus>
</clustering>
</event>
<event>
 6    0  0.4189111E+002  0.9373433E+02  0.7546771E-02  0.1294052E+00
          2   -1    0    0  504    0 -0.00000000000E+00  0.00000000000E+00  0.63808024561E+03  0.63808024561E+03  0.00000000000E+00 0. -1.
         21   -1    0    0  503  502  0.00000000000E+00 -0.00000000000E+00 -0.29143804102E+02  0.29143804102E+02  0.00000000000E+00 0. -1.
         21    1    1    2  503  501  0.30928031494E+02 -0.13293441522E+02  0.37624939790E+02  0.50486580532E+02  0.00000000000E+00 0. -1.
         21    1    1    2  504  505 -0.17735933254E+02  0.10248047950E+03  0.20613841299E+03  0.23088927502E+03  0.00000000000E+00 0. -1.
         21    1    1    2  505  502 -0.35367621545E+02 -0.38090463539E+01  0.85865010118E+02  0.92941796036E+02  0.00000000000E+00 0. -1.
          2    1    1    2  501    0  0.22175523305E+02 -0.85377991625E+02  0.27930807861E+03  0.29290639812E+03  0.00000000000E+00 0. -1.
<scales pt_clust_3="33.66391" pt_clust_4="93.73433" pt_clust_5="31.11016" pt_clust_6="14000.00000"></scales>
<clustering>
<clus scale="   33.664">  2  3  1 -1</clus>
<clus scale="   31.110">  2  5  1 -1</clus>
<clus scale="   93.734">  2  4  1 -1</clus>
<clus scale="   33.664">  2  3  1 -1</clus>
</clustering>
</event>
<event>
 6    0  0.4189111E+002  0.2474165E+03  0.7546771E-02  0.1114949E+00
          1   -1    0    0  504    0 -0.00000000000E+00  0.00000000000E+00  0.93955394718E+03  0.93955394718E+03  0.00000000000E+00 0. -1.
         21   -1    0    0  505  502  0.00000000000E+00 -0.00000000000E+00 -0.12357465594E+03  0.12357465594E+03  0.00000000000E+00 0. -1.
         21    1    1    2  503  502  0.42257208950E+02  0.16624025982E+02 -0.17119897193E+02  0.48529587140E+02  0.00000000000E+00 0. -1.
         21    1    1    2  504  503  0.66959759926E+02 -0.23214793363E+03  0.14190553178E+03  0.28020252049E+03  0.00000000000E+00 0. -1.
         21    1    1    2  505  501 -0.72290356309E+02  0.86094653692E+02  0.27955937810E+03  0.30131649622E+03  0.00000000000E+00 0. -1.
          1    1    1    2  501    0 -0.36926612567E+02  0.12942925395E+03  0.41163427855E+03  0.43307999928E+03  0.00000000000E+00 0. -1.
<scales pt_clust_3="45.40958" pt_clust_4="240.84077" pt_clust_5="51.29381" pt_clust_6="51.29381"></scales>
<clustering>
<clus scale="   45.410">  2  3  1 -1</clus>
<clus scale="   51.294">  5  6 -1 -1</clus>
<clus scale="  240.841">  2  4  1 -1</clus>
<clus scale="   45.410">  2  3  1 -1</clus>
</clustering>
</event>
<event>
 6    0  0.4189111E+002  0.7658103E+02  0.7546771E-02  0.1339044E+00
         -2   -1    0    0    0  501 -0.00000000000E+00  0.00000000000E+00  0.34982971384E+02  0.34982971384E+02  0.00000000000E+00 0. -1.
         21   -1    0    0  504  502  0.00000000000E+00 -0.00000000000E+00 -0.59726034935E+03  0.59726034935E+03  0.00000000000E+00 0. -1.
         21    1    1    2  503  501 -0.27372711928E+02 -0.15129901589E+02 -0.23772634096E+02  0.39285078748E+02  0.00000000000E+00 0. -1.
         21    1    1    2  504  503 -0.94631017188E+02  0.43977120167E+02 -0.29071827944E+03  0.30887883468E+03  0.00000000000E+00 0. -1.
         21    1    1    2  505  502  0.57307685439E+02 -0.21445527134E+02 -0.17985259215E+03  0.18997640997E+03  0.00000000000E+00 0. -1.
         -2    1    1    2    0  505  0.64696043677E+02 -0.74016914444E+01 -0.67933872279E+02  0.94102997330E+02  0.00000000000E+00 0. -1.
<scales pt_clust_3="31.27586" pt_clust_4="76.58103" pt_clust_5="14000.00000" pt_clust_6="53.58918"></scales>
<clustering>
<clus scale="   31.276">  1  3  2 -1</clus>
<clus scale="   53.589">  1  6  2 -1</clus>
<clus scale="   76.581">  1  4  2 -1</clus>
<clus scale="   76.581">  2  3  1 -1</clus>
</clustering>
</event>
<event>
 6    0  0.4189111E+002  0.8916321E+02  0.7546771E-02  0.1304891E+00
          2   -1    0    0  504    0 -0.00000000000E+00  0.00000000000E+00  0.21857207643E+04  0.21857207643E+04  0.00000000000E+00 0.  1.
         21   -1    0    0  505  502  0.00000000000E+00 -0.00000000000E+00 -0.42133164702E+02  0.42133164702E+02  0.00000000000E+00 0.  1.
         21    1    1    2  503  502 -0.10566258466E+02  0.36119482128E+02 -0.20716950511E+02  0.42958757496E+02  0.00000000000E+00 0.  1.
         21    1    1    2  504  503  0.62427514456E+02  0.71282276351E+02  0.16551394110E+04  0.16578494586E+04  0.00000000000E+00 0.  1.
         21    1    1    2  505  501 -0.34386512534E+02 -0.28468422255E+02  0.93738608957E+02  0.10382586440E+03  0.00000000000E+00 0.  1.
          2    1    1    2  501    0 -0.17474743456E+02 -0.78933336224E+02  0.41542653017E+03  0.42321984853E+03  0.00000000000E+00 0.  1.
<scales pt_clust_3="37.63327" pt_clust_4="89.16321" pt_clust_5="41.00357" pt_clust_6="14000.00000"></scales>
<clustering>
<clus scale="   37.633">  2  3  1 -1</clus>
<clus scale="   41.004">  2  5  1 -1</clus>
<clus scale="   89.163">  1  4  2 -1</clus>
<clus scale="   37.633">  2  3  1 -1</clus>
</clustering>
</event>
<event>
 6    0  0.4189111E+002  0.8174112E+02  0.7546771E-02  0.1324182E+00
         21   -1    0    0  503  502  0.00000000000E+00  0.00000000000E+00  0.14476584536E+03  0.14476584536E+03  0.00000000000E+00 0. -1.
         -2   -1    0    0    0  501 -0.00000000000E+00 -0.00000000000E+00 -0.10410232389E+04  0.10410232389E+04  0.00000000000E+00 0. -1.
         21    1    1    2  503  501  0.86891212093E+02 -0.66849816020E+02 -0.47451659371E+03  0.48701640459E+03  0.00000000000E+00 0. -1.
         21    1    1    2  504  502  0.26990918836E+02  0.29104913190E+02  0.12389914849E+03  0.13010228541E+03  0.00000000000E+00 0. -1.
         21    1    1    2  505  504 -0.86995832392E+02 -0.23610086090E+02 -0.25671044661E+03  0.27207712954E+03  0.00000000000E+00 0. -1.
         -2    1    1    2    0  505 -0.26886298537E+02  0.61354988920E+02 -0.28892950172E+03  0.29659326472E+03  0.00000000000E+00 0. -1.
<scales pt_clust_3="81.74112" pt_clust_4="39.69390" pt_clust_5="14000.00000" pt_clust_6="70.83721"></scales>
<clustering>
<clus scale="   39.694">  1  4  2 -1</clus>
<clus scale="   70.837">  2  6  1 -1</clus>
<clus scale="   81.741">  2  3  1 -1</clus>
<clus scale="   39.694">  1  3  2 -1</clus>
</clustering>
</event>
<event>
 6    0  0.4189111E+002  0.8154607E+02  0.7546771E-02  0.1324720E+00
          1   -1    0    0  504    0 -0.00000000000E+00  0.00000000000E+00  0.96414777504E+02  0.96414777504E+02  0.00000000000E+00 0. -1.
         21   -1    0    0  505  502  0.00000000000E+00 -0.00000000000E+00 -0.32061352140E+04  0.32061352140E+04  0.00000000000E+00 0. -1.
         21    1    1    2  503  501  0.52124450091E+02  0.28406783688E+02 -0.22451725734E+03  0.23223243206E+03  0.00000000000E+00 0. -1.
         21    1    1    2  504  502 -0.22556879314E+02 -0.35410956026E+02  0.73592956642E+02  0.84727043371E+02  0.00000000000E+00 0. -1.
         21    1    1    2  505  503 -0.56972206993E+02 -0.64117025197E+02 -0.28576765659E+04  0.28589634801E+04  0.00000000000E+00 0. -1.
          1    1    1    2  501    0  0.27404636216E+02  0.71121197535E+02 -0.10111956997E+03  0.12662703604E+03  0.00000000000E+00 0. -1.
<scales pt_clust_3="14000.00000" pt_clust_4="41.98510" pt_clust_5="81.54607" pt_clust_6="46.21091"></scales>
<clustering>
<clus scale="   41.985">  1  4  2 -1</clus>
<clus scale="   46.211">  1  6  2 -1</clus>
<clus scale="   81.546">  2  5  1 -1</clus>
<clus scale="   81.546">  2  3  1 -1</clus>
</clustering>
</event>
<event>
 6    0  0.4189111E+002  0.1144294E+03  0.7546771E-02  0.1252580E+00
         -1   -1    0    0    0  501 -0.00000000000E+00  0.00000000000E+00  0.11490905578E+03  0.11490905578E+03  0.00000000000E+00 0.  1.
         21   -1    0    0  503  502  0.00000000000E+00 -0.00000000000E+00 -0.11479905488E+04  0.11479905488E+04  0.00000000000E+00 0. -1.
         21    1    1    2  503  504  0.29691375106E+01  0.81141879198E+02 -0.89631163210E+03  0.89998186770E+03  0.00000000000E+00 0. -1.
         21    1    1    2  504  501 -0.31838066470E+01  0.42604169264E+02 -0.31922322383E+02  0.53331852863E+02  0.00000000000E+00 0.  1.
         21    1    1    2  505  502  0.15299026415E+01  0.34403905735E+02 -0.14283866128E+03  0.14693145507E+03  0.00000000000E+00 0.  1.
         -1    1    1    2    0  505 -0.13152335050E+01 -0.15814995420E+03  0.37991122752E+02  0.16265442896E+03  0.00000000000E+00 0.  1.
<scales pt_clust_3="114.42944" pt_clust_4="44.17640" pt_clust_5="34.43791" pt_clust_6="14000.00000"></scales>
<clustering>
<clus scale="   34.438">  2  5  1 -1</clus>
<clus scale="   44.176">  1  4  2 -1</clus>
<clus scale="  114.429">  2  3  1 -1</clus>
<clus scale="   34.438">  2  3  1 -1</clus>
</clustering>
</event>
<event>
 6    0  0.4189111E+002  0.2456620E+03  0.7546771E-02  0.1116077E+00
         21   -1    0    0  503  502  0.00000000000E+00  0.00000000000E+00  0.70675985202E+02  0.70675985202E+02  0.00000000000E+00 0. -1.
          1   -1    0    0  504    0 -0.00000000000E+00 -0.00000000000E+00 -0.18218287426E+04  0.18218287426E+04  0.00000000000E+00 0. -1.
         21    1    1    2  503  505 -0.55908764229E+02  0.14365958837E+01  0.99819293961E+01  0.56811025689E+02  0.00000000000E+00 0. -1.
         21    1    1    2  504  502 -0.18021024881E+03  0.77032358636E+02 -0.35647242775E+03  0.40679516934E+03  0.00000000000E+00 0. -1.
         21    1    1    2  505  501  0.48652094201E+02 -0.49192974798E+02 -0.48089288543E+03  0.48584456598E+03  0.00000000000E+00 0. -1.
          1    1    1    2  501    0  0.18746691884E+03 -0.29275979721E+02 -0.92376937364E+03  0.94305396681E+03  0.00000000000E+00 0. -1.
<scales pt_clust_3="55.92722" pt_clust_4="231.48310" pt_clust_5="49.66876" pt_clust_6="49.66876"></scales>
<clustering>
<clus scale="   49.669">  5  6 -1 -1</clus>
<clus scale="   55.927">  1  3  2 -1</clus>
<clus scale="  231.483">  1  4  2 -1</clus>
<clus scale="   55.927">  1  3  2 -1</clus>
</clustering>
</event>
<event>
 6    0  0.4189111E+002  0.7937375E+02  0.7546771E-02  0.1330838E+00
         21   -1    0    0  504  502  0.00000000000E+00  0.00000000000E+00  0.14383852276E+03  0.14383852276E+03  0.00000000000E+00 0. -1.
          1   -1    0    0  503    0 -0.00000000000E+00 -0.00000000000E+00 -0.25430726786E+04  0.25430726786E+04  0.00000000000E+00 0. -1.
         21    1    1    2  503  502  0.15975408445E+02  0.10632473194E+03 -0.40736757627E+03  0.42131758151E+03  0.00000000000E+00 0. -1.
         21    1    1    2  504  505 -0.51318655663E+02 -0.91622062942E+01  0.12155811185E+03  0.13226460222E+03  0.00000000000E+00 0. -1.
         21    1    1    2  505  501  0.68580380518E+02 -0.56208628354E+02 -0.19538903436E+03  0.21456829506E+03  0.00000000000E+00 0. -1.
          1    1    1    2  501    0 -0.33237133300E+02 -0.40953897289E+02 -0.19180356571E+04  0.19187607226E+04  0.00000000000E+00 0. -1.
<scales pt_clust_3="79.37375" pt_clust_4="52.13013" pt_clust_5="14000.00000" pt_clust_6="53.59394"></scales>
<clustering>
<clus scale="   52.130">  1  4  2 -1</clus>
<clus scale="   53.594">  2  6  1 -1</clus>
<clus scale="   79.374">  2  3  1 -1</clus>
<clus scale="   52.130">  1  3  2 -1</clus>
</clustering>
</event>
<event>
 6    0  0.4189111E+002  0.1056282E+03  0.7546771E-02  0.1268887E+00
         21   -1    0    0  504  502  0.00000000000E+00  0.00000000000E+00  0.14300410509E+03  0.14300410509E+03  0.00000000000E+00 0.  1.
         -4   -1    0    0    0  501 -0.00000000000E+00 -0.00000000000E+00 -0.27088973695E+03  0.27088973695E+03  0.00000000000E+00 0.  1.
         21    1    1    2  503  502  0.29442984452E+02  0.10842823953E+02  0.28370026336E+02  0.42300290295E+02  0.00000000000E+00 0.  1.
         21    1    1    2  504  505 -0.11297513644E+03  0.61355439680E+02  0.33105821982E+02  0.13275491283E+03  0.00000000000E+00 0.  1.
         21    1    1    2  505  501  0.30596274468E+01 -0.58787792658E+02 -0.49458000581E+02  0.76886017631E+02  0.00000000000E+00 0.  1.
         -4    1    1    2    0  503  0.80472524537E+02 -0.13410470975E+02 -0.13990347960E+03  0.16195262128E+03  0.00000000000E+00 0.  1.
<scales pt_clust_3="31.37604" pt_clust_4="14000.00000" pt_clust_5="57.80922" pt_clust_6="105.62816"></scales>
<clustering>
<clus scale="   31.376">  1  3  2 -1</clus>
<clus scale="   57.809">  2  5  1 -1</clus>
<clus scale="  105.628">  2  6  1 -1</clus>
<clus scale="   31.376">  1  3  2 -1</clus>
</clustering>
</event>
<event>
 6    0  0.4189111E+002  0.1463876E+03  0.7546771E-02  0.1204983E+00
          1   -1    0    0  505    0 -0.00000000000E+00  0.00000000000E+00  0.79517716851E+03  0.79517716851E+03  0.00000000000E+00 0.  1.
         21   -1    0    0  504  502  0.00000000000E+00 -0.00000000000E+00 -0.26839195563E+03  0.26839195563E+03  0.00000000000E+00 0.  1.
         21    1    1    2  503  502  0.76175158168E+02  0.82052556467E+02 -0.36935426428E+02  0.11789615121E+03  0.00000000000E+00 0.  1.
         21    1    1    2  504  501 -0.13267417549E+03 -0.13160955184E+03 -0.13614213853E+03  0.23121027845E+03  0.00000000000E+00 0.  1.
         21    1    1    2  505  503  0.20081711213E+02 -0.41033917556E+02  0.19964957436E+03  0.20480969229E+03  0.00000000000E+00 0.  1.
          1    1    1    2  501    0  0.36417306109E+02  0.90590912932E+02  0.50021320349E+03  0.50965300218E+03  0.00000000000E+00 0.  1.
<scales pt_clust_3="146.38760" pt_clust_4="14000.00000" pt_clust_5="45.68432" pt_clust_6="77.20675"></scales>
<clustering>
<clus scale="   45.684">  1  5  2 -1</clus>
<clus scale="   77.207">  1  6  2 -1</clus>
<clus scale="  146.388">  2  3  1 -1</clus>
<clus scale="  146.388">  2  3  1 -1</clus>
</clustering>
</event>
<event>
 6    0  0.4189111E+002  0.6596217E+02  0.7546771E-02  0.1374388E+00
         21   -1    0    0  503  502  0.00000000000E+00  0.00000000000E+00  0.86593606596E+03  0.86593606596E+03  0.00000000000E+00 0. -1.
          2   -1    0    0  504    0 -0.00000000000E+00 -0.00000000000E+00 -0.21269769411E+03  0.21269769411E+03  0.00000000000E+00 0.  1.
         21    1    1    2  503  505 -0.33787808673E+02 -0.30148719918E+02  0.65001854960E+03  0.65159395036E+03  0.00000000000E+00 0. -1.
         21    1    1    2  504  502  0.13598791260E+03 -0.15920585439E+02  0.15513343196E+03  0.20691195984E+03  0.00000000000E+00 0. -1.
         21    1    1    2  505  501 -0.40128892793E+02  0.32471190344E+02  0.39872805444E+01  0.51774555964E+02  0.00000000000E+00 0.  1.
          2    1    1    2  501    0 -0.62071211130E+02  0.13598115013E+02 -0.15590089026E+03  0.16835329390E+03  0.00000000000E+00 0.  1.
<scales pt_clust_3="45.28312" pt_clust_4="65.96217" pt_clust_5="52.88517" pt_clust_6="14000.00000"></scales>
<clustering>
<clus scale="   45.283">  1  3  2 -1</clus>
<clus scale="   52.885">  1  5  2 -1</clus>
<clus scale="   65.962">  1  4  2 -1</clus>
<clus scale="   45.283">  1  3  2 -1</clus>
</clustering>
</event>
<event>
 6    0  0.4688236E+002  0.7831242E+02  0.7546771E-02  0.1333910E+00
         21   -1    0    0  503  502  0.00000000000E+00  0.00000000000E+00  0.67155708059E+03  0.67155708059E+03  0.00000000000E+00 0. -1.
          2   -1    0    0  505    0 -0.00000000000E+00 -0.00000000000E+00 -0.23533496155E+04  0.23533496155E+04  0.00000000000E+00 0. -1.
         21    1    1    2  503  501  0.19442668957E+02 -0.78269459115E+02  0.76184371271E+02  0.11094225540E+03  0.00000000000E+00 0. -1.
         21    1    1    2  504  502 -0.29935054142E+02  0.42581689175E+02  0.55043543315E+03  0.55289101438E+03  0.00000000000E+00 0. -1.
         21    1    1    2  505  504  0.86739580405E+02  0.18097612701E+02 -0.50862492522E+02  0.10216785962E+03  0.00000000000E+00 0. -1.
          2    1    1    2  501    0 -0.76247195220E+02  0.17590157239E+02 -0.22575498468E+04  0.22589055667E+04  0.00000000000E+00 0. -1.
<scales pt_clust_3="45.20948" pt_clust_4="52.05101" pt_clust_5="78.31242" pt_clust_6="14000.00000"></scales>
<clustering>
<clus scale="   52.051">  1  4  2 -1</clus>
<clus scale="   45.209">  1  3  2 -1</clus>
<clus scale="   78.312">  1  5  2 -1</clus>
<clus scale="   52.051">  1  3  2 -1</clus>
</clustering>
</event>
<event>
 6    0  0.4189111E+002  0.1452456E+03  0.7546771E-02  0.1206440E+00
          2   -1    0    0  503    0 -0.00000000000E+00  0.00000000000E+00  0.20547660711E+04  0.20547660711E+04  0.00000000000E+00 0. -1.
         21   -1    0    0  505  502  0.00000000000E+00 -0.00000000000E+00 -0.28909186614E+03  0.28909186614E+03  0.00000000000E+00 0. -1.
         21    1    1    2  503  502 -0.23603553721E+02 -0.87416715072E+02 -0.15792366309E+03  0.18204036142E+03  0.00000000000E+00 0. -1.
         21    1    1    2  504  501  0.19039148291E+03  0.19636485967E+01  0.29779413617E+03  0.35346021024E+03  0.00000000000E+00 0. -1.
         21    1    1    2  505  504 -0.27413579355E+02  0.66032647147E+02 -0.73907653184E+02  0.10283071536E+03  0.00000000000E+00 0. -1.
          2    1    1    2  501    0 -0.13937434984E+03  0.19420419329E+02  0.16997113851E+04  0.17055266502E+04  0.00000000000E+00 0. -1.
<scales pt_clust_3="56.42742" pt_clust_4="145.24558" pt_clust_5="71.49696" pt_clust_6="14000.00000"></scales>
<clustering>
<clus scale="   71.497">  2  5  1 -1</clus>
<clus scale="   56.427">  2  3  1 -1</clus>
<clus scale="  145.246">  2  4  1 -1</clus>
<clus scale="   71.497">  2  3  1 -1</clus>
</clustering>
</event>
<event>
 6    0  0.4189111E+002  0.7714200E+02  0.7546771E-02  0.1337363E+00
          2   -1    0    0  504    0 -0.00000000000E+00  0.00000000000E+00  0.53364450957E+03  0.53364450957E+03  0.00000000000E+00 0. -1.
         21   -1    0    0  501  502  0.00000000000E+00 -0.00000000000E+00 -0.96246103671E+03  0.96246103671E+03  0.00000000000E+00 0.  1.
         21    1    1    2  503  502  0.18977840958E+00  0.48675162529E+02 -0.74471551801E+03  0.74630456935E+03  0.00000000000E+00 0.  1.
         21    1    1    2  504  505  0.33053948631E+02 -0.70980286659E+01  0.47657753108E+02  0.58431215650E+02  0.00000000000E+00 0. -1.
         21    1    1    2  505  503 -0.10774348349E+01 -0.12353717629E+03 -0.18896325030E+03  0.22576471105E+03  0.00000000000E+00 0.  1.
          2    1    1    2  501    0 -0.32166292206E+02  0.81960042423E+02  0.45720448805E+03  0.46560505024E+03  0.00000000000E+00 0. -1.
<scales pt_clust_3="48.66404" pt_clust_4="33.80748" pt_clust_5="77.14200" pt_clust_6="14000.00000"></scales>
<clustering>
<clus scale="   33.807">  1  4  2 -1</clus>
<clus scale="   48.664">  2  3  1 -1</clus>
<clus scale="   77.142">  2  5  1 -1</clus>
<clus scale="   48.664">  2  3  1 -1</clus>
</clustering>
</event>
<event>
 6    0  0.4189111E+002  0.1269029E+03  0.7546771E-02  0.1232125E+00
          2   -1    0    0  504    0 -0.00000000000E+00  0.00000000000E+00  0.12127250825E+04  0.12127250825E+04  0.00000000000E+00 0.  1.
         21   -1    0    0  505  502  0.00000000000E+00 -0.00000000000E+00 -0.38296541443E+02  0.38296541443E+02  0.00000000000E+00 0.  1.
         21    1    1    2  503  501 -0.87577044102E+02 -0.71940735596E+02  0.26664626007E+03  0.28973338796E+03  0.00000000000E+00 0.  1.
         21    1    1    2  504  502  0.30049900373E+02 -0.13497399021E+02  0.15989736560E+02  0.36617590964E+02  0.00000000000E+00 0.  1.
         21    1    1    2  505  503 -0.47362288301E+02  0.37154273848E+01  0.38693535492E+02  0.61271367233E+02  0.00000000000E+00 0. -1.
          2    1    1    2  501    0  0.10488943203E+03  0.81722707232E+02  0.85309900896E+03  0.86339927781E+03  0.00000000000E+00 0.  1.
<scales pt_clust_3="126.90291" pt_clust_4="32.94201" pt_clust_5="35.28180" pt_clust_6="14000.00000"></scales>
<clustering>
<clus scale="   32.942">  2  4  1 -1</clus>
<clus scale="   35.282">  2  5  1 -1</clus>
<clus scale="  126.903">  2  3  1 -1</clus>
<clus scale="   32.942">  2  3  1 -1</clus>
</clustering>
</event>
<event>
 6    0  0.4189111E+002  0.2011592E+03  0.7546771E-02  0.1148765E+00
         21   -1    0    0  505  502  0.00000000000E+00  0.00000000000E+00  0.89702683641E+02  0.89702683641E+02  0.00000000000E+00 0.  1.
          2   -1    0    0  504    0 -0.00000000000E+00 -0.00000000000E+00 -0.15911335300E+04  0.15911335300E+04  0.00000000000E+00 0. -1.
         21    1    1    2  503  502 -0.63099986062E+02 -0.19812013784E+03 -0.76435094133E+02  0.22152995480E+03  0.00000000000E+00 0.  1.
         21    1    1    2  504  503  0.56487470598E+02  0.69877000213E+02 -0.24042269544E+03  0.25666457094E+03  0.00000000000E+00 0.  1.
         21    1    1    2  505  501 -0.41065146892E+02  0.68122221380E+01 -0.78063387115E+02  0.88468328048E+02  0.00000000000E+00 0.  1.
          2    1    1    2  501    0  0.47677662357E+02  0.12143091549E+03 -0.11065096697E+04  0.11141733599E+04  0.00000000000E+00 0. -1.
<scales pt_clust_3="201.15922" pt_clust_4="87.95035" pt_clust_5="41.62635" pt_clust_6="14000.00000"></scales>
<clustering>
<clus scale="   41.626">  1  5  2 -1</clus>
<clus scale="   87.950">  2  4  1 -1</clus>
<clus scale="  201.159">  1  3  2 -1</clus>
<clus scale="   41.626">  1  3  2 -1</clus>
</clustering>
</event>
<event>
 6    0  0.4189111E+002  0.8007090E+02  0.7546771E-02  0.1328850E+00
         21   -1    0    0  505  502  0.00000000000E+00  0.00000000000E+00  0.27093740212E+02  0.27093740212E+02  0.00000000000E+00 0. -1.
          2   -1    0    0  504    0 -0.00000000000E+00 -0.00000000000E+00 -0.10869401573E+04  0.10869401573E+04  0.00000000000E+00 0.  1.
         21    1    1    2  503  502  0.52622847573E+01  0.58437456089E+02 -0.15249950503E+03  0.16339745087E+03  0.00000000000E+00 0. -1.
         21    1    1    2  504  503 -0.10076573892E+03 -0.96626205262E+02 -0.30402370113E+03  0.33454561502E+03  0.00000000000E+00 0. -1.
         21    1    1    2  505  501  0.57257232482E+02 -0.36222785986E+01 -0.17820014804E+03  0.18720791740E+03  0.00000000000E+00 0. -1.
          2    1    1    2  501    0  0.38246221683E+02  0.41811027771E+02 -0.42512306290E+03  0.42888291424E+03  0.00000000000E+00 0.  1.
<scales pt_clust_3="80.07090" pt_clust_4="14000.00000" pt_clust_5="68.31028" pt_clust_6="56.66512"></scales>
<clustering>
<clus scale="   56.665">  2  6  1 -1</clus>
<clus scale="   68.310">  2  5  1 -1</clus>
<clus scale="   80.071">  1  3  2 -1</clus>
<clus scale="   80.071">  1  3  2 -1</clus>
</clustering>
</event>
<event>
 6    0  0.4189111E+002  0.7327258E+02  0.7546771E-02  0.1349305E+00
         21   -1    0    0  505  502  0.00000000000E+00  0.00000000000E+00  0.56273862400E+03  0.56273862400E+03  0.00000000000E+00 0.  1.
          2   -1    0    0  503    0 -0.00000000000E+00 -0.00000000000E+00 -0.25100052061E+03  0.25100052061E+03  0.00000000000E+00 0. -1.
         21    1    1    2  503  502  0.17501547061E+02 -0.29084911004E+02 -0.26048234161E+02  0.42787225904E+02  0.00000000000E+00 0. -1.
         21    1    1    2  504  501  0.99994751447E+02  0.79976105628E+01  0.32398943165E+03  0.33916377152E+03  0.00000000000E+00 0. -1.
         21    1    1    2  505  504 -0.37748852365E+02  0.28951932856E+02  0.21238173185E+03  0.21764464224E+03  0.00000000000E+00 0.  1.
          2    1    1    2  501    0 -0.79747446143E+02 -0.78646324149E+01 -0.19858482596E+03  0.21414350494E+03  0.00000000000E+00 0. -1.
<scales pt_clust_3="33.94460" pt_clust_4="73.27258" pt_clust_5="47.18945" pt_clust_6="14000.00000"></scales>
<clustering>
<clus scale="   33.945">  2  3  1 -1</clus>
<clus scale="   47.189">  1  5  2 -1</clus>
<clus scale="   73.273">  1  4  2 -1</clus>
<clus scale="   47.189">  1  3  2 -1</clus>
</clustering>
</event>
<event>
 6    0  0.4189111E+002  0.2844223E+03  0.7546771E-02  0.1093298E+00
          2   -1    0    0  502    0 -0.00000000000E+00  0.00000000000E+00  0.19857386890E+04  0.19857386890E+04  0.00000000000E+00 0. -1.
         21   -1    0    0  505  502  0.00000000000E+00 -0.00000000000E+00 -0.14541099874E+03  0.14541099874E+03  0.00000000000E+00 0.  1.
         21    1    1    2  503  504 -0.52534502586E+02 -0.74527057856E+02  0.47492099650E+02  0.10280883155E+03  0.00000000000E+00 0.  1.
         21    1    1    2  504  501  0.44545792157E+02  0.74358419174E+02  0.81993045616E+03  0.82449951791E+03  0.00000000000E+00 0. -1.
         21    1    1    2  505  503 -0.13822938190E+03 -0.11407564748E+03 -0.31906342063E+02  0.18204018796E+03  0.00000000000E+00 0.  1.
          2    1    1    2  501    0  0.14621809233E+03  0.11424428617E+03  0.10048114765E+04  0.10218011503E+04  0.00000000000E+00 0. -1.
<scales pt_clust_3="67.41967" pt_clust_4="57.91887" pt_clust_5="67.41967" pt_clust_6="281.32372"></scales>
<clustering>
<clus scale="   57.919">  4  6 -1 -1</clus>
<clus scale="   67.420">  3  5 -1 -1</clus>
<clus scale="  281.324">  1  4  2 -1</clus>
<clus scale="  284.422">  2  3  1 -1</clus>
</clustering>
</event>
<event>
 6    0  0.4189111E+002  0.1394927E+03  0.7546771E-02  0.1214013E+00
          2   -1    0    0  504    0 -0.00000000000E+00  0.00000000000E+00  0.22921547733E+04  0.22921547733E+04  0.00000000000E+00 0. -1.
         21   -1    0    0  505  502  0.00000000000E+00 -0.00000000000E+00 -0.76924466389E+02  0.76924466389E+02  0.00000000000E+00 0.  1.
         21    1    1    2  503  502 -0.57597721540E+02 -0.77432891455E+02 -0.87324980168E+01  0.96899983113E+02  0.00000000000E+00 0.  1.
         21    1    1    2  504  503  0.46900687793E+02 -0.52286808617E+02  0.51329372850E+03  0.51807724963E+03  0.00000000000E+00 0.  1.
         21    1    1    2  505  501 -0.86514191637E+02  0.39024811346E+02  0.99679909901E+02  0.13763620778E+03  0.00000000000E+00 0. -1.
          2    1    1    2  501    0  0.97211225385E+02  0.90694888726E+02  0.16109891666E+04  0.16164657992E+04  0.00000000000E+00 0. -1.
<scales pt_clust_3="139.49273" pt_clust_4="70.23948" pt_clust_5="90.63675" pt_clust_6="14000.00000"></scales>
<clustering>
<clus scale="   70.239">  1  4  2 -1</clus>
<clus scale="   90.637">  2  5  1 -1</clus>
<clus scale="  139.493">  2  3  1 -1</clus>
<clus scale="   90.637">  2  3  1 -1</clus>
</clustering>
</event>
<event>
 6    0  0.4189111E+002  0.1230297E+03  0.7546771E-02  0.1238181E+00
         21   -1    0    0  504  502  0.00000000000E+00  0.00000000000E+00  0.77769490071E+03  0.77769490071E+03  0.00000000000E+00 0.  1.
          2   -1    0    0  505    0 -0.00000000000E+00 -0.00000000000E+00 -0.22736127546E+04  0.22736127546E+04  0.00000000000E+00 0. -1.
         21    1    1    2  503  501  0.32029335978E+02 -0.46525476000E+02 -0.75374187668E+03  0.75585535319E+03  0.00000000000E+00 0. -1.
         21    1    1    2  504  503 -0.92868808255E+01  0.10093402444E+03  0.50101241191E+03  0.51116275327E+03  0.00000000000E+00 0.  1.
         21    1    1    2  505  502 -0.70141963926E+02 -0.15899250617E+02  0.26514193821E+03  0.27472336753E+03  0.00000000000E+00 0. -1.
          2    1    1    2  501    0  0.47399508773E+02 -0.38509297825E+02 -0.15083303273E+04  0.15095661813E+04  0.00000000000E+00 0. -1.
<scales pt_clust_3="38.75868" pt_clust_4="116.24147" pt_clust_5="71.92135" pt_clust_6="38.75868"></scales>
<clustering>
<clus scale="   38.759">  3  6 -1 -1</clus>
<clus scale="   71.921">  1  5  2 -1</clus>
<clus scale="  116.241">  1  4  2 -1</clus>
<clus scale="   71.921">  1  3  2 -1</clus>
</clustering>
</event>
<event>
 6    0  0.4189111E+002  0.2799548E+03  0.7546771E-02  0.1095714E+00
          2   -1    0    0  504    0 -0.00000000000E+00  0.00000000000E+00  0.21596735003E+04  0.21596735003E+04  0.00000000000E+00 0.  1.
         21   -1    0    0  505  502  0.00000000000E+00 -0.00000000000E+00 -0.56669834814E+02  0.56669834814E+02  0.00000000000E+00 0.  1.
         21    1    1    2  503  502  0.52191780100E+02  0.27998134864E+02  0.23520241122E+02  0.63726597338E+02  0.00000000000E+00 0.  1.
         21    1    1    2  504  503 -0.22568128918E+03  0.17177192252E+03  0.11261956815E+04  0.11613588380E+04  0.00000000000E+00 0.  1.
         21    1    1    2  505  501  0.46300957594E+02 -0.33098607502E+02  0.13434143596E+03  0.14590036980E+03  0.00000000000E+00 0. -1.
          2    1    1    2  501    0  0.12718855148E+03 -0.16667144988E+03  0.81894630694E+03  0.84535752997E+03  0.00000000000E+00 0.  1.
<scales pt_clust_3="59.22734" pt_clust_4="273.03235" pt_clust_5="32.23624" pt_clust_6="32.23624"></scales>
<clustering>
<clus scale="   32.236">  5  6 -1 -1</clus>
<clus scale="   59.227">  2  3  1 -1</clus>
<clus scale="  273.032">  1  4  2 -1</clus>
<clus scale="   59.227">  2  3  1 -1</clus>
</clustering>
</event>
<event>
 6    0  0.4189111E+002  0.1228401E+03  0.7546771E-02  0.1238484E+00
         21   -1    0    0  504  502  0.00000000000E+00  0.00000000000E+00  0.49721775152E+03  0.49721775152E+03  0.00000000000E+00 0. -1.
          1   -1    0    0  505    0 -0.00000000000E+00 -0.00000000000E+00 -0.13659053743E+04  0.13659053743E+04  0.00000000000E+00 0. -1.
         21    1    1    2  503  502  0.34374974489E+02  0.13931141186E+03  0.11339370973E+02  0.14393710321E+03  0.00000000000E+00 0. -1.
         21    1    1    2  504  501 -0.11532196237E+03 -0.52712267375E+02  0.40512922992E+03  0.42450845819E+03  0.00000000000E+00 0. -1.
         21    1    1    2  505  503  0.30942457625E+01 -0.35057867753E+02 -0.10313610569E+03  0.10897561537E+03  0.00000000000E+00 0.  1.
          1    1    1    2  501    0  0.77852742115E+02 -0.51541276732E+02 -0.11820201180E+04  0.11857019491E+04  0.00000000000E+00 0. -1.
<scales pt_clust_3="14000.00000" pt_clust_4="122.84014" pt_clust_5="35.19415" pt_clust_6="116.87551"></scales>
<clustering>
<clus scale="   35.194">  2  5  1 -1</clus>
<clus scale="  116.876">  2  6  1 -1</clus>
<clus scale="  122.840">  1  4  2 -1</clus>
<clus scale="  122.840">  1  3  2 -1</clus>
</clustering>
</event>
<event>
 6    0  0.4189111E+002  0.2054668E+03  0.7546771E-02  0.1145207E+00
         21   -1    0    0  505  502  0.00000000000E+00  0.00000000000E+00  0.56086086513E+03  0.56086086513E+03  0.00000000000E+00 0. -1.
          3   -1    0    0  504    0 -0.00000000000E+00 -0.00000000000E+00 -0.23971874511E+03  0.23971874511E+03  0.00000000000E+00 0.  1.
         21    1    1    2  503  502 -0.17567788069E+02  0.66025745772E+02  0.14305334722E+03  0.15853165751E+03  0.00000000000E+00 0. -1.
         21    1    1    2  504  503  0.14435292738E+03  0.10054322020E+03  0.61329555100E+02  0.18630088862E+03  0.00000000000E+00 0. -1.
         21    1    1    2  505  501  0.52207288468E+02 -0.32580705017E+02  0.20600970905E+03  0.21500489188E+03  0.00000000000E+00 0. -1.
          3    1    1    2  501    0 -0.17899242778E+03 -0.13398826096E+03 -0.89250491362E+02  0.24074217222E+03  0.00000000000E+00 0.  1.
<scales pt_clust_3="52.23354" pt_clust_4="205.46681" pt_clust_5="61.53945" pt_clust_6="14000.00000"></scales>
<clustering>
<clus scale="   61.539">  1  5  2 -1</clus>
<clus scale="   52.234">  1  3  2 -1</clus>
<clus scale="  205.467">  1  4  2 -1</clus>
<clus scale="   61.539">  1  3  2 -1</clus>
</clustering>
</event>
<event>
 6    0  0.4189111E+002  0.6923073E+02  0.7546771E-02  0.1362729E+00
         21   -1    0    0  504  502  0.00000000000E+00  0.00000000000E+00  0.78767583445E+03  0.78767583445E+03  0.00000000000E+00 0.  1.
          2   -1    0    0  505    0 -0.00000000000E+00 -0.00000000000E+00 -0.16657290359E+04  0.16657290359E+04  0.00000000000E+00 0.  1.
         21    1    1    2  503  502 -0.64651155012E+02 -0.19922156735E+02  0.69311657308E+03  0.69641025844E+03  0.00000000000E+00 0.  1.
         21    1    1    2  504  501  0.11257952508E+03 -0.30119766859E+02  0.54380904900E+02  0.12860261522E+03  0.00000000000E+00 0.  1.
         21    1    1    2  505  503 -0.36292499393E+01  0.34061619002E+02 -0.29075798282E+03  0.29276879942E+03  0.00000000000E+00 0.  1.
          2    1    1    2  501    0 -0.44299120128E+02  0.15980304591E+02 -0.13347926966E+04  0.13356231972E+04  0.00000000000E+00 0.  1.
<scales pt_clust_3="67.64319" pt_clust_4="14000.00000" pt_clust_5="34.25442" pt_clust_6="69.23073"></scales>
<clustering>
<clus scale="   34.254">  2  5  1 -1</clus>
<clus scale="   67.643">  1  3  2 -1</clus>
<clus scale="   69.231">  2  6  1 -1</clus>
<clus scale="   67.643">  1  3  2 -1</clus>
</clustering>
</event>
<event>
 6    0  0.4189111E+002  0.1763417E+03  0.7546771E-02  0.1171391E+00
         21   -1    0    0  504  502  0.00000000000E+00  0.00000000000E+00  0.18589239574E+03  0.18589239574E+03  0.00000000000E+00 0.  1.
          2   -1    0    0  505    0 -0.00000000000E+00 -0.00000000000E+00 -0.77401652857E+03  0.77401652857E+03  0.00000000000E+00 0. -1.
         21    1    1    2  503  502  0.15040858599E+03 -0.14647007434E+03  0.69906902152E+02  0.22127629874E+03  0.00000000000E+00 0.  1.
         21    1    1    2  504  501 -0.19908588869E+02  0.43954812173E+02 -0.16941570246E+02  0.51140925161E+02  0.00000000000E+00 0.  1.
         21    1    1    2  505  503  0.35789782726E+02 -0.17538689147E+02 -0.68156224857E+02  0.78954323195E+02  0.00000000000E+00 0.  1.
          2    1    1    2  501    0 -0.16628977984E+03  0.12005395131E+03 -0.57293323988E+03  0.60853737721E+03  0.00000000000E+00 0. -1.
<scales pt_clust_3="176.34167" pt_clust_4="46.77547" pt_clust_5="39.85617" pt_clust_6="14000.00000"></scales>
<clustering>
<clus scale="   39.856">  2  5  1 -1</clus>
<clus scale="   46.775">  1  4  2 -1</clus>
<clus scale="  176.342">  1  3  2 -1</clus>
<clus scale="   46.775">  1  3  2 -1</clus>
</clustering>
</event>
<event>
 6    0  0.4189111E+002  0.1449084E+03  0.7546771E-02  0.1206873E+00
         21   -1    0    0  503  502  0.00000000000E+00  0.00000000000E+00  0.53097467199E+03  0.53097467199E+03  0.00000000000E+00 0. -1.
         -1   -1    0    0    0  501 -0.00000000000E+00 -0.00000000000E+00 -0.52893224151E+03  0.52893224151E+03  0.00000000000E+00 0.  1.
         21    1    1    2  503  501 -0.32591489312E+02  0.14698606950E+02  0.70245318396E+01  0.36436221942E+02  0.00000000000E+00 0.  1.
         21    1    1    2  504  502  0.31588675536E+02  0.12258013107E+03  0.49080181821E+03  0.50686305617E+03  0.00000000000E+00 0. -1.
         21    1    1    2  505  504  0.19483485864E+02 -0.80168866568E+02 -0.23687016734E+03  0.25082689163E+03  0.00000000000E+00 0. -1.
         -1    1    1    2    0  505 -0.18480672088E+02 -0.57109871451E+02 -0.25891375223E+03  0.26578074375E+03  0.00000000000E+00 0.  1.
<scales pt_clust_3="35.75268" pt_clust_4="136.97863" pt_clust_5="40.39239" pt_clust_6="40.39239"></scales>
<clustering>
<clus scale="   35.753">  1  3  2 -1</clus>
<clus scale="   40.392">  5  6 -1 -1</clus>
<clus scale="  136.979">  1  4  2 -1</clus>
<clus scale="   35.753">  1  3  2 -1</clus>
</clustering>
</event>
<event>
 6    0  0.4189111E+002  0.1612169E+03  0.7546771E-02  0.1187330E+00
         -1   -1    0    0    0  501 -0.00000000000E+00  0.00000000000E+00  0.21221645108E+04  0.21221645108E+04  0.00000000000E+00 0.  1.
         21   -1    0    0  504  502  0.00000000000E+00 -0.00000000000E+00 -0.33632593123E+03  0.33632593123E+03  0.00000000000E+00 0.  1.
         21    1    1    2  503  505  0.68803119008E+02  0.93254715813E+02  0.29437925417E+02  0.11956965610E+03  0.00000000000E+00 0.  1.
         21    1    1    2  504  503  0.74957629079E+02  0.11540780787E+02 -0.26979058067E+03  0.28024773540E+03  0.00000000000E+00 0.  1.
         21    1    1    2  505  501 -0.16969887594E+03  0.14410917278E+02  0.17296993357E+04  0.17380636279E+04  0.00000000000E+00 0.  1.
         -1    1    1    2    0  502  0.25938127849E+02 -0.11920641388E+03  0.29649189921E+03  0.32060942264E+03  0.00000000000E+00 0.  1.
<scales pt_clust_3="161.21689" pt_clust_4="75.84086" pt_clust_5="14000.00000" pt_clust_6="123.81091"></scales>
<clustering>
<clus scale="   75.841">  2  4  1 -1</clus>
<clus scale="  123.811">  2  6  1 -1</clus>
<clus scale="  161.217">  2  3  1 -1</clus>
<clus scale="   75.841">  2  3  1 -1</clus>
</clustering>
</event>
<event>
 6    0  0.4189111E+002  0.9512082E+02  0.7546771E-02  0.1290904E+00
         21   -1    0    0  504  502  0.00000000000E+00  0.00000000000E+00  0.11743177071E+03  0.11743177071E+03  0.00000000000E+00 0. -1.
          3   -1    0    0  503    0 -0.00000000000E+00 -0.00000000000E+00 -0.31757895156E+04  0.31757895156E+04  0.00000000000E+00 0.  1.
         21    1    1    2  503  505  0.61369981792E+01 -0.38980727607E+02 -0.87011692412E+03  0.87101126371E+03  0.00000000000E+00 0.  1.
         21    1    1    2  504  501  0.15022848196E+02  0.32779883066E+02  0.10553618520E+03  0.11152619911E+03  0.00000000000E+00 0. -1.
         21    1    1    2  505  502  0.79129068461E+02  0.15057782498E+01 -0.20887975915E+03  0.22337061272E+03  0.00000000000E+00 0.  1.
          3    1    1    2  501    0 -0.10028891484E+03  0.46950662914E+01 -0.20848972468E+04  0.20873132108E+04  0.00000000000E+00 0.  1.
<scales pt_clust_3="37.96462" pt_clust_4="36.05838" pt_clust_5="95.12082" pt_clust_6="14000.00000"></scales>
<clustering>
<clus scale="   36.058">  1  4  2 -1</clus>
<clus scale="   37.965">  2  3  1 -1</clus>
<clus scale="   95.121">  1  5  2 -1</clus>
<clus scale="   36.058">  1  3  2 -1</clus>
</clustering>
</event>
<event>
 6    0  0.4189111E+002  0.1290592E+03  0.7546771E-02  0.1228858E+00
         -1   -1    0    0    0  501 -0.00000000000E+00  0.00000000000E+00  0.36291619975E+03  0.36291619975E+03  0.00000000000E+00 0. -1.
         21   -1    0    0  505  502  0.00000000000E+00 -0.00000000000E+00 -0.12889239692E+03  0.12889239692E+03  0.00000000000E+00 0. -1.
         21    1    1    2  503  501  0.12586249802E+02  0.29509906206E+02  0.24280968872E+02  0.40234483938E+02  0.00000000000E+00 0. -1.
         21    1    1    2  504  502  0.69844802191E+02  0.20306623596E+02  0.17226126205E+03  0.18698822893E+03  0.00000000000E+00 0. -1.
         21    1    1    2  505  503 -0.93539847946E+02 -0.79825677276E+02 -0.77419536458E+02  0.14531216925E+03  0.00000000000E+00 0. -1.
         -1    1    1    2    0  504  0.11108795952E+02  0.30009147474E+02  0.11490110836E+03  0.11927371455E+03  0.00000000000E+00 0. -1.
<scales pt_clust_3="32.08190" pt_clust_4="31.45477" pt_clust_5="120.03034" pt_clust_6="31.45477"></scales>
<clustering>
<clus scale="   31.455">  4  6 -1 -1</clus>
<clus scale="   32.082">  1  3  2 -1</clus>
<clus scale="  120.030">  2  5  1 -1</clus>
<clus scale="  120.030">  2  3  1 -1</clus>
</clustering>
</event>
<event>
 6    0  0.4189111E+002  0.1374175E+03  0.7546771E-02  0.1216847E+00
          2   -1    0    0  504    0 -0.00000000000E+00  0.00000000000E+00  0.41643335753E+03  0.41643335753E+03  0.00000000000E+00 0.  1.
         21   -1    0    0  505  502  0.00000000000E+00 -0.00000000000E+00 -0.14221044933E+03  0.14221044933E+03  0.00000000000E+00 0.  1.
         21    1    1    2  503  502 -0.61423740307E+02  0.62731331022E+02 -0.43688003154E+02  0.98064965124E+02  0.00000000000E+00 0.  1.
         21    1    1    2  504  503 -0.18926988941E+01  0.11778617269E+03  0.86364528414E+02  0.14606846530E+03  0.00000000000E+00 0. -1.
         21    1    1    2  505  501  0.11138256452E+02 -0.33303871355E+02 -0.11306901186E+00  0.35117252009E+02  0.00000000000E+00 0. -1.
          2    1    1    2  501    0  0.52178182749E+02 -0.14721363235E+03  0.23165945194E+03  0.27939312443E+03  0.00000000000E+00 0.  1.
<scales pt_clust_3="70.36970" pt_clust_4="137.41750" pt_clust_5="35.11707" pt_clust_6="14000.00000"></scales>
<clustering>
<clus scale="   35.117">  2  5  1 -1</clus>
<clus scale="   70.370">  2  3  1 -1</clus>
<clus scale="  137.417">  2  4  1 -1</clus>
<clus scale="   35.117">  2  3  1 -1</clus>
</clustering>
</event>
<event>
 6    0  0.4189111E+002  0.8936915E+02  0.7546771E-02  0.1304387E+00
         21   -1    0    0  501  502  0.00000000000E+00  0.00000000000E+00  0.12877399686E+04  0.12877399686E+04  0.00000000000E+00 0.  1.
          2   -1    0    0  505    0 -0.00000000000E+00 -0.00000000000E+00 -0.85258199208E+03  0.85258199208E+03  0.00000000000E+00 0. -1.
         21    1    1    2  503  502 -0.24670548007E+02  0.82987238025E+02  0.11259660424E+04  0.11292896201E+04  0.00000000000E+00 0.  1.
         21    1    1    2  504  503  0.79147249658E+02 -0.15159564250E+03  0.10928096676E+03  0.20294791364E+03  0.00000000000E+00 0.  1.
         21    1    1    2  505  504 -0.32158320708E+02  0.36847230350E+02 -0.17258271312E+03  0.17937856295E+03  0.00000000000E+00 0.  1.
          2    1    1    2  501    0 -0.22318380943E+02  0.31761174129E+02 -0.62750631951E+03  0.62870586393E+03  0.00000000000E+00 0. -1.
<scales pt_clust_3="14000.00000" pt_clust_4="89.36915" pt_clust_5="79.23569" pt_clust_6="38.81858"></scales>
<clustering>
<clus scale="   38.819">  2  6  1 -1</clus>
<clus scale="   79.236">  2  5  1 -1</clus>
<clus scale="   89.369">  2  4  1 -1</clus>
<clus scale="   89.369">  1  3  2 -1</clus>
</clustering>
</event>
<event>
 6    0  0.4189111E+002  0.2238290E+03  0.7546771E-02  0.1131060E+00
         21   -1    0    0  505  502  0.00000000000E+00  0.00000000000E+00  0.62673530690E+02  0.62673530690E+02  0.00000000000E+00 0.  1.
          2   -1    0    0  503    0 -0.00000000000E+00 -0.00000000000E+00 -0.18005156183E+04  0.18005156183E+04  0.00000000000E+00 0.  1.
         21    1    1    2  503  502  0.81717885051E+02 -0.21444804703E+03 -0.30015161139E+03  0.37783166547E+03  0.00000000000E+00 0.  1.
         21    1    1    2  504  501 -0.62281807030E+02  0.52342253406E+02 -0.38012995717E+03  0.38873836872E+03  0.00000000000E+00 0.  1.
         21    1    1    2  505  504 -0.10594927171E+02  0.32894381696E+02 -0.36164516696E+01  0.34747252432E+02  0.00000000000E+00 0.  1.
          2    1    1    2  501    0 -0.88411508504E+01  0.12921141192E+03 -0.10539440674E+04  0.10618718624E+04  0.00000000000E+00 0.  1.
<scales pt_clust_3="201.04198" pt_clust_4="78.41364" pt_clust_5="34.55854" pt_clust_6="78.41364"></scales>
<clustering>
<clus scale="   34.559">  1  5  2 -1</clus>
<clus scale="   78.414">  4  6 -1 -1</clus>
<clus scale="  201.042">  1  3  2 -1</clus>
<clus scale="   34.559">  1  3  2 -1</clus>
</clustering>
</event>
<event>
 6    0  0.4189111E+002  0.1786552E+03  0.7546771E-02  0.1169111E+00
          2   -1    0    0  505    0 -0.00000000000E+00  0.00000000000E+00  0.39034997514E+04  0.39034997514E+04  0.00000000000E+00 0.  1.
         21   -1    0    0  504  502  0.00000000000E+00 -0.00000000000E+00 -0.33511325025E+02  0.33511325025E+02  0.00000000000E+00 0. -1.
         21    1    1    2  503  502  0.12180712799E+02 -0.11070883576E+03  0.15344208811E+03  0.18960298121E+03  0.00000000000E+00 0. -1.
         21    1    1    2  504  501 -0.11048408813E+02  0.65358462836E+02  0.12212961951E+04  0.12230936972E+04  0.00000000000E+00 0. -1.
         21    1    1    2  505  503  0.55962396314E+02 -0.35316524938E+02  0.67405845423E+02  0.94459487253E+02  0.00000000000E+00 0. -1.
          2    1    1    2  501    0 -0.57094700300E+02  0.80666897863E+02  0.24278442977E+04  0.24298549107E+04  0.00000000000E+00 0.  1.
<scales pt_clust_3="59.46132" pt_clust_4="35.13300" pt_clust_5="59.46132" pt_clust_6="166.75490"></scales>
<clustering>
<clus scale="   35.133">  4  6 -1 -1</clus>
<clus scale="   59.461">  3  5 -1 -1</clus>
<clus scale="  166.755">  1  4  2 -1</clus>
<clus scale="  178.655">  2  3  1 -1</clus>
</clustering>
</event>
<event>
 6    0  0.4189111E+002  0.2051732E+03  0.7546771E-02  0.1145446E+00
          2   -1    0    0  504    0 -0.00000000000E+00  0.00000000000E+00  0.25845540715E+04  0.25845540715E+04  0.00000000000E+00 0.  1.
         21   -1    0    0  505  502  0.00000000000E+00 -0.00000000000E+00 -0.65666618201E+02  0.65666618201E+02  0.00000000000E+00 0. -1.
         21    1    1    2  503  501  0.10554037815E+03 -0.18329583428E+03  0.64896616373E+03  0.68256370835E+03  0.00000000000E+00 0. -1.
         21    1    1    2  504  502 -0.41081367258E+02 -0.81046513732E+01  0.11560891177E+03  0.12295846694E+03  0.00000000000E+00 0. -1.
         21    1    1    2  505  503  0.11388518721E+03  0.80792500261E+02  0.87622002915E+02  0.16484804931E+03  0.00000000000E+00 0. -1.
          2    1    1    2  501    0 -0.17834419810E+03  0.11060798539E+03  0.16666903749E+04  0.16798504651E+04  0.00000000000E+00 0.  1.
<scales pt_clust_3="205.17316" pt_clust_4="41.87319" pt_clust_5="116.33364" pt_clust_6="14000.00000"></scales>
<clustering>
<clus scale="   41.873">  2  4  1 -1</clus>
<clus scale="  116.334">  2  5  1 -1</clus>
<clus scale="  205.173">  2  3  1 -1</clus>
<clus scale="   41.873">  2  3  1 -1</clus>
</clustering>
</event>
<event>
 6    0  0.4189111E+002  0.1236926E+03  0.7546771E-02  0.1237127E+00
         21   -1    0    0  504  502  0.00000000000E+00  0.00000000000E+00  0.13727025094E+04  0.13727025094E+04  0.00000000000E+00 0. -1.
          2   -1    0    0  505    0 -0.00000000000E+00 -0.00000000000E+00 -0.26743467269E+04  0.26743467269E+04  0.00000000000E+00 0. -1.
         21    1    1    2  503  502  0.70556834735E+02  0.48901244157E+01  0.13437590629E+04  0.13456190395E+04  0.00000000000E+00 0. -1.
         21    1    1    2  504  501 -0.39548852822E+00  0.48162209723E+02 -0.56677380758E+01  0.48496165946E+02  0.00000000000E+00 0. -1.
         21    1    1    2  505  503 -0.17371366378E+02  0.91972824950E+02 -0.58810069945E+03  0.59550247489E+03  0.00000000000E+00 0. -1.
          2    1    1    2  501    0 -0.52789979829E+02 -0.14502515909E+03 -0.20516348429E+04  0.20574315559E+04  0.00000000000E+00 0. -1.
<scales pt_clust_3="87.82104" pt_clust_4="48.16383" pt_clust_5="14000.00000" pt_clust_6="123.69258"></scales>
<clustering>
<clus scale="   48.164">  1  4  2 -1</clus>
<clus scale="   87.821">  1  3  2 -1</clus>
<clus scale="  123.693">  2  6  1 -1</clus>
<clus scale="   48.164">  1  3  2 -1</clus>
</clustering>
</event>
<event>
 6    0  0.4189111E+002  0.1208118E+03  0.7546771E-02  0.1241764E+00
          1   -1    0    0  505    0 -0.00000000000E+00  0.00000000000E+00  0.37742333666E+04  0.37742333666E+04  0.00000000000E+00 0. -1.
         21   -1    0    0  503  502  0.00000000000E+00 -0.00000000000E+00 -0.14624725609E+03  0.14624725609E+03  0.00000000000E+00 0.  1.
         21    1    1    2  503  501  0.94566264098E+02  0.89439720621E+02 -0.99920519609E+02  0.16409251101E+03  0.00000000000E+00 0.  1.
         21    1    1    2  504  502  0.16749586943E+02 -0.29921223568E+02  0.12207224551E+02  0.36398414990E+02  0.00000000000E+00 0. -1.
         21    1    1    2  505  504 -0.49558811776E+02 -0.39198342885E+02  0.31392098097E+04  0.31398456674E+04  0.00000000000E+00 0. -1.
          1    1    1    2  501    0 -0.61757039265E+02 -0.20320154168E+02  0.57648959589E+03  0.58014402930E+03  0.00000000000E+00 0. -1.
<scales pt_clust_3="14000.00000" pt_clust_4="34.29035" pt_clust_5="63.19982" pt_clust_6="120.81184"></scales>
<clustering>
<clus scale="   34.290">  2  4  1 -1</clus>
<clus scale="   63.200">  1  5  2 -1</clus>
<clus scale="  120.812">  1  6  2 -1</clus>
<clus scale="   34.290">  2  3  1 -1</clus>
</clustering>
</event>
<event>
 6    0  0.4189111E+002  0.1004357E+03  0.7546771E-02  0.1279382E+00
         -2   -1    0    0    0  501 -0.00000000000E+00  0.00000000000E+00  0.78545276774E+03  0.78545276774E+03  0.00000000000E+00 0.  1.
         21   -1    0    0  504  502  0.00000000000E+00 -0.00000000000E+00 -0.97629455875E+02  0.97629455875E+02  0.00000000000E+00 0.  1.
         21    1    1    2  503  501  0.40834631728E+02  0.10480782932E+03  0.24098106297E+03  0.26593988220E+03  0.00000000000E+00 0.  1.
         21    1    1    2  504  505  0.29034202425E+02  0.15470808117E+02 -0.33073794908E+02  0.46649830909E+02  0.00000000000E+00 0.  1.
         21    1    1    2  505  503 -0.10141836564E+03 -0.22412448265E+02  0.28769328458E+02  0.10777605015E+03  0.00000000000E+00 0.  1.
         -2    1    1    2    0  502  0.31549531482E+02 -0.97866189171E+02  0.45114671534E+03  0.46271646036E+03  0.00000000000E+00 0.  1.
<scales pt_clust_3="100.43569" pt_clust_4="32.89880" pt_clust_5="82.41773" pt_clust_6="14000.00000"></scales>
<clustering>
<clus scale="   32.899">  2  4  1 -1</clus>
<clus scale="   82.418">  2  5  1 -1</clus>
<clus scale="  100.436">  2  3  1 -1</clus>
<clus scale="   32.899">  2  3  1 -1</clus>
</clustering>
</event>
<event>
 6    0  0.4189111E+002  0.1815189E+03  0.7546771E-02  0.1166341E+00
         21   -1    0    0  505  502  0.00000000000E+00  0.00000000000E+00  0.93480049149E+02  0.93480049149E+02  0.00000000000E+00 0. -1.
         -1   -1    0    0    0  501 -0.00000000000E+00 -0.00000000000E+00 -0.13015327161E+04  0.13015327161E+04  0.00000000000E+00 0. -1.
         21    1    1    2  503  502 -0.41151223768E+02  0.12143946622E+02 -0.53111611982E+02  0.68276950610E+02  0.00000000000E+00 0. -1.
         21    1    1    2  504  503 -0.27642951452E+02  0.98613526291E+02 -0.49346692152E+03  0.50398250264E+03  0.00000000000E+00 0. -1.
         21    1    1    2  505  501  0.65624007423E+02 -0.18061937394E+03 -0.38655523057E+02  0.19602070823E+03  0.00000000000E+00 0. -1.
         -1    1    1    2    0  504  0.31701677971E+01  0.69861901025E+02 -0.62281861042E+03  0.62673260380E+03  0.00000000000E+00 0. -1.
<scales pt_clust_3="42.90569" pt_clust_4="48.21936" pt_clust_5="171.78109" pt_clust_6="48.21936"></scales>
<clustering>
<clus scale="   42.906">  1  3  2 -1</clus>
<clus scale="   48.219">  4  6 -1 -1</clus>
<clus scale="  171.781">  1  5  2 -1</clus>
<clus scale="   42.906">  1  3  2 -1</clus>
</clustering>
</event>
<event>
 6    0  0.4189111E+002  0.1493759E+03  0.7546771E-02  0.1201242E+00
          1   -1    0    0  503    0 -0.00000000000E+00  0.00000000000E+00  0.55967291856E+03  0.55967291856E+03  0.00000000000E+00 0.  1.
         21   -1    0    0  504  502  0.00000000000E+00 -0.00000000000E+00 -0.30303680602E+04  0.30303680602E+04  0.00000000000E+00 0. -1.
         21    1    1    2  503  505 -0.34849667799E+02 -0.14713463044E+02  0.36992424187E+02  0.52909590697E+02  0.00000000000E+00 0. -1.
         21    1    1    2  504  501  0.70273573221E+02  0.41611724054E+02 -0.21628379383E+04  0.21643793239E+04  0.00000000000E+00 0. -1.
         21    1    1    2  505  502  0.29163875433E+02  0.70946370891E+02 -0.85036597683E+03  0.85381860703E+03  0.00000000000E+00 0. -1.
          1    1    1    2  501    0 -0.64587780855E+02 -0.97844631901E+02  0.50551634931E+03  0.51893345706E+03  0.00000000000E+00 0.  1.
<scales pt_clust_3="37.82837" pt_clust_4="14000.00000" pt_clust_5="76.61668" pt_clust_6="149.37591"></scales>
<clustering>
<clus scale="   37.828">  1  3  2 -1</clus>
<clus scale="   76.617">  2  5  1 -1</clus>
<clus scale="  149.376">  1  6  2 -1</clus>
<clus scale="   76.617">  2  3  1 -1</clus>
</clustering>
</event>
<event>
 6    0  0.4189111E+002  0.2032364E+03  0.7546771E-02  0.1147037E+00
         21   -1    0    0  504  502  0.00000000000E+00  0.00000000000E+00  0.32132399440E+03  0.32132399440E+03  0.00000000000E+00 0. -1.
          2   -1    0    0  505    0 -0.00000000000E+00 -0.00000000000E+00 -0.14300599573E+04  0.14300599573E+04  0.00000000000E+00 0. -1.
         21    1    1    2  503  502  0.49922731902E+02  0.42515888221E+02  0.27991517532E+01  0.65633186440E+02  0.00000000000E+00 0.  1.
         21    1    1    2  504  501 -0.19817242571E+03  0.96725781418E+02  0.22098760890E+03  0.31219178463E+03  0.00000000000E+00 0. -1.
         21    1    1    2  505  503  0.72159631180E+02  0.60627810846E+02 -0.20095369894E+03  0.22195750255E+03  0.00000000000E+00 0.  1.
          2    1    1    2  501    0  0.76090062626E+02 -0.19986948049E+03 -0.11315690246E+04  0.11516014780E+04  0.00000000000E+00 0. -1.
<scales pt_clust_3="65.57347" pt_clust_4="14000.00000" pt_clust_5="96.64682" pt_clust_6="203.23635"></scales>
<clustering>
<clus scale="   65.573">  1  3  2 -1</clus>
<clus scale="   96.647">  2  5  1 -1</clus>
<clus scale="  203.236">  2  6  1 -1</clus>
<clus scale="   65.573">  1  3  2 -1</clus>
</clustering>
</event>
<event>
 6    0  0.4189111E+002  0.1218475E+03  0.7546771E-02  0.1240080E+00
          1   -1    0    0  504    0 -0.00000000000E+00  0.00000000000E+00  0.41958923326E+04  0.41958923326E+04  0.00000000000E+00 0.  1.
         21   -1    0    0  505  502  0.00000000000E+00 -0.00000000000E+00 -0.70394810013E+02  0.70394810013E+02  0.00000000000E+00 0. -1.
         21    1    1    2  503  502 -0.30729708775E+02 -0.10985618493E+02 -0.19337997037E+02  0.37933585969E+02  0.00000000000E+00 0.  1.
         21    1    1    2  504  503  0.69330626813E+02  0.11430001404E+03  0.68503160856E+02  0.15021288917E+03  0.00000000000E+00 0. -1.
         21    1    1    2  505  501 -0.16344714382E+02 -0.53477219577E+02  0.12131252468E+04  0.12144133674E+04  0.00000000000E+00 0.  1.
          1    1    1    2  501    0 -0.22256203657E+02 -0.49837175972E+02  0.28632071120E+04  0.28637273000E+04  0.00000000000E+00 0.  1.
<scales pt_clust_3="32.63432" pt_clust_4="110.74705" pt_clust_5="50.13026" pt_clust_6="50.13026"></scales>
<clustering>
<clus scale="   32.634">  2  3  1 -1</clus>
<clus scale="   50.130">  5  6 -1 -1</clus>
<clus scale="  110.747">  2  4  1 -1</clus>
<clus scale="   32.634">  2  3  1 -1</clus>
</clustering>
</event>
<event>
 6    0  0.4189111E+002  0.8276184E+02  0.7546771E-02  0.1321392E+00
          1   -1    0    0  505    0 -0.00000000000E+00  0.00000000000E+00  0.23515344579E+04  0.23515344579E+04  0.00000000000E+00 0. -1.
         21   -1    0    0  504  502  0.00000000000E+00 -0.00000000000E+00 -0.10520821478E+03  0.10520821478E+03  0.00000000000E+00 0.  1.
         21    1    1    2  503  501 -0.54523950153E+02 -0.65814704120E+01  0.25476317512E+03  0.26061552581E+03  0.00000000000E+00 0.  1.
         21    1    1    2  504  503  0.82524611968E+01 -0.78704729406E+02 -0.66474662601E+02  0.10335094733E+03  0.00000000000E+00 0.  1.
         21    1    1    2  505  502  0.96794940765E+02  0.64211774605E+02  0.18179838880E+03  0.21573842200E+03  0.00000000000E+00 0.  1.
          1    1    1    2  501    0 -0.50523451809E+02  0.21074425213E+02  0.18762393418E+04  0.18770377776E+04  0.00000000000E+00 0. -1.
<scales pt_clust_3="14000.00000" pt_clust_4="78.14014" pt_clust_5="82.76184" pt_clust_6="54.74258"></scales>
<clustering>
<clus scale="   54.743">  1  6  2 -1</clus>
<clus scale="   78.140">  2  4  1 -1</clus>
<clus scale="   82.762">  2  5  1 -1</clus>
<clus scale="   78.140">  2  3  1 -1</clus>
</clustering>
</event>
<event>
 6    0  0.4189111E+002  0.1177497E+03  0.7546771E-02  0.1246856E+00
         21   -1    0    0  501  502  0.00000000000E+00  0.00000000000E+00  0.11594755630E+03  0.11594755630E+03  0.00000000000E+00 0.  1.
         -1   -1    0    0    0  501 -0.00000000000E+00 -0.00000000000E+00 -0.12168771122E+04  0.12168771122E+04  0.00000000000E+00 0.  1.
         21    1    1    2  503  504  0.12935103686E+03 -0.24708105867E+02 -0.81602718143E+03  0.82658486682E+03  0.00000000000E+00 0.  1.
         21    1    1    2  504  505 -0.13496652075E+03  0.75673197825E+02 -0.43027333481E+00  0.15473389974E+03  0.00000000000E+00 0.  1.
         21    1    1    2  505  502  0.37274650120E+02 -0.17582652393E+02  0.18417916536E+02  0.45141653230E+02  0.00000000000E+00 0.  1.
         -1    1    1    2    0  503 -0.31659166230E+02 -0.33382439564E+02 -0.30289001771E+03  0.30636424874E+03  0.00000000000E+00 0.  1.
<scales pt_clust_3="117.74974" pt_clust_4="14000.00000" pt_clust_5="41.21346" pt_clust_6="45.74856"></scales>
<clustering>
<clus scale="   41.213">  1  5  2 -1</clus>
<clus scale="   45.749">  2  6  1 -1</clus>
<clus scale="  117.750">  2  3  1 -1</clus>
<clus scale="   41.213">  1  3  2 -1</clus>
</clustering>
</event>
<event>
 6    0  0.4189111E+002  0.8097607E+02  0.7546771E-02  0.1326304E+00
         21   -1    0    0  501  502  0.00000000000E+00  0.00000000000E+00  0.75609257540E+03  0.75609257540E+03  0.00000000000E+00 0.  1.
          1   -1    0    0  505    0 -0.00000000000E+00 -0.00000000000E+00 -0.58094166747E+03  0.58094166747E+03  0.00000000000E+00 0. -1.
         21    1    1    2  503  504  0.13720982934E+03  0.11807847732E+02 -0.12745376656E+03  0.18764441144E+03  0.00000000000E+00 0. -1.
         21    1    1    2  504  502 -0.80171170018E+02 -0.10851060733E+01  0.71900628485E+03  0.72346294419E+03  0.00000000000E+00 0.  1.
         21    1    1    2  505  503 -0.29710367349E+02 -0.27846867393E+02 -0.10128261681E+03  0.10916190920E+03  0.00000000000E+00 0. -1.
          1    1    1    2  501    0 -0.27328291969E+02  0.17124125734E+02 -0.31511899354E+03  0.31676497804E+03  0.00000000000E+00 0. -1.
<scales pt_clust_3="14000.00000" pt_clust_4="80.97607" pt_clust_5="45.69716" pt_clust_6="32.25014"></scales>
<clustering>
<clus scale="   32.250">  2  6  1 -1</clus>
<clus scale="   45.697">  2  5  1 -1</clus>
<clus scale="   80.976">  1  4  2 -1</clus>
<clus scale="   80.976">  1  3  2 -1</clus>
</clustering>
</event>
<event>
 6    0  0.4189111E+002  0.7861383E+02  0.7546771E-02  0.1333032E+00
         21   -1    0    0  503  502  0.00000000000E+00  0.00000000000E+00  0.10254263621E+04  0.10254263621E+04  0.00000000000E+00 0.  1.
         -1   -1    0    0    0  501 -0.00000000000E+00 -0.00000000000E+00 -0.74735239739E+03  0.74735239739E+03  0.00000000000E+00 0. -1.
         21    1    1    2  503  501  0.84024172251E+02 -0.47106761519E+02 -0.24243800347E+03  0.26087409612E+03  0.00000000000E+00 0. -1.
         21    1    1    2  504  502  0.18582450695E+02 -0.28215912143E+02  0.81072668756E+03  0.81143034642E+03  0.00000000000E+00 0.  1.
         21    1    1    2  505  504 -0.33699492123E+02  0.10402450874E+03  0.18745007347E+03  0.21701217531E+03  0.00000000000E+00 0. -1.
         -1    1    1    2    0  505 -0.68907130824E+02 -0.28701835083E+02 -0.47766479288E+03  0.48346214161E+03  0.00000000000E+00 0. -1.
<scales pt_clust_3="78.61383" pt_clust_4="33.78528" pt_clust_5="14000.00000" pt_clust_6="74.56184"></scales>
<clustering>
<clus scale="   33.785">  1  4  2 -1</clus>
<clus scale="   74.562">  2  6  1 -1</clus>
<clus scale="   78.614">  2  3  1 -1</clus>
<clus scale="   33.785">  1  3  2 -1</clus>
</clustering>
</event>
<event>
 6    0  0.4189111E+002  0.1355294E+03  0.7546771E-02  0.1219474E+00
          2   -1    0    0  503    0 -0.00000000000E+00  0.00000000000E+00  0.40119880475E+03  0.40119880475E+03  0.00000000000E+00 0. -1.
         21   -1    0    0  505  502  0.00000000000E+00 -0.00000000000E+00 -0.62911807050E+03  0.62911807050E+03  0.00000000000E+00 0. -1.
         21    1    1    2  503  504 -0.54789111728E+02 -0.14572478818E+01  0.16409971043E+03  0.17301065082E+03  0.00000000000E+00 0. -1.
         21    1    1    2  504  502 -0.17863505147E+03 -0.87383447495E+02 -0.10554854960E+02  0.19914254561E+03  0.00000000000E+00 0. -1.
         21    1    1    2  505  501  0.13137482936E+03 -0.37800177231E+01 -0.47418486337E+03  0.49206190563E+03  0.00000000000E+00 0. -1.
          2    1    1    2  501    0  0.10204933383E+03  0.92620713099E+02  0.92720742158E+02  0.16610177319E+03  0.00000000000E+00 0. -1.
<scales pt_clust_3="54.80849" pt_clust_4="135.52936" pt_clust_5="14000.00000" pt_clust_6="116.41161"></scales>
<clustering>
<clus scale="   54.808">  1  3  2 -1</clus>
<clus scale="  116.412">  1  6  2 -1</clus>
<clus scale="  135.529">  1  4  2 -1</clus>
<clus scale="  135.529">  2  3  1 -1</clus>
</clustering>
</event>
<event>
 6    0  0.4189111E+002  0.2474980E+03  0.7546771E-02  0.1114896E+00
          2   -1    0    0  503    0 -0.00000000000E+00  0.00000000000E+00  0.13260142207E+04  0.13260142207E+04  0.00000000000E+00 0.  1.
         21   -1    0    0  504  502  0.00000000000E+00 -0.00000000000E+00 -0.14795247804E+03  0.14795247804E+03  0.00000000000E+00 0. -1.
         21    1    1    2  503  505 -0.18276718281E+03  0.16128682313E+03  0.10525861048E+03  0.26551206660E+03  0.00000000000E+00 0. -1.
         21    1    1    2  504  501  0.50585846920E+02 -0.57645589888E+02  0.32714506668E+03  0.33601463747E+03  0.00000000000E+00 0.  1.
         21    1    1    2  505  502 -0.31990270088E+02 -0.55431331564E+02 -0.35209536728E+02  0.73046022314E+02  0.00000000000E+00 0. -1.
          2    1    1    2  501    0  0.16417160598E+03 -0.48209901676E+02  0.78086760220E+03  0.79939397233E+03  0.00000000000E+00 0.  1.
<scales pt_clust_3="238.99948" pt_clust_4="43.04882" pt_clust_5="64.00008" pt_clust_6="43.04882"></scales>
<clustering>
<clus scale="   43.049">  4  6 -1 -1</clus>
<clus scale="   64.000">  2  5  1 -1</clus>
<clus scale="  238.999">  2  3  1 -1</clus>
<clus scale="   64.000">  2  3  1 -1</clus>
</clustering>
</event>
<event>
 6    0  0.4189111E+002  0.1322650E+03  0.7546771E-02  0.1224133E+00
          2   -1    0    0  504    0 -0.00000000000E+00  0.00000000000E+00  0.51542206973E+03  0.51542206973E+03  0.00000000000E+00 0.  1.
         21   -1    0    0  505  502  0.00000000000E+00 -0.00000000000E+00 -0.71948125866E+03  0.71948125866E+03  0.00000000000E+00 0. -1.
         21    1    1    2  503  502 -0.12614142056E+03 -0.12097017196E+02 -0.78905314370E+02  0.14927841251E+03  0.00000000000E+00 0. -1.
         21    1    1    2  504  503  0.26990088785E+02  0.42841393341E+02  0.62825454883E+02  0.80690071616E+02  0.00000000000E+00 0.  1.
         21    1    1    2  505  501  0.27853479467E+02 -0.92441011318E+02 -0.58702000074E+03  0.59490641126E+03  0.00000000000E+00 0. -1.
          2    1    1    2  501    0  0.71297852304E+02  0.61696635172E+02  0.39904067129E+03  0.41002843301E+03  0.00000000000E+00 0.  1.
<scales pt_clust_3="14000.00000" pt_clust_4="50.63447" pt_clust_5="96.25137" pt_clust_6="132.26502"></scales>
<clustering>
<clus scale="   50.634">  1  4  2 -1</clus>
<clus scale="   96.251">  2  5  1 -1</clus>
<clus scale="  132.265">  1  6  2 -1</clus>
<clus scale="   96.251">  2  3  1 -1</clus>
</clustering>
</event>
<event>
 6    0  0.4189111E+002  0.4130819E+03  0.7546771E-02  0.1039342E+00
         21   -1    0    0  505  502  0.00000000000E+00  0.00000000000E+00  0.17970148799E+03  0.17970148799E+03  0.00000000000E+00 0.  1.
          1   -1    0    0  503    0 -0.00000000000E+00 -0.00000000000E+00 -0.22944149181E+04  0.22944149181E+04  0.00000000000E+00 0. -1.
         21    1    1    2  503  502 -0.36256014547E+03  0.23447603716E+03 -0.19045374860E+03  0.47191259936E+03  0.00000000000E+00 0.  1.
         21    1    1    2  504  501  0.30227231566E+02 -0.29274036243E+02 -0.32710798167E+03  0.32980340568E+03  0.00000000000E+00 0. -1.
         21    1    1    2  505  504  0.32922456503E+03 -0.15646739001E+03 -0.86559212933E+03  0.93921275157E+03  0.00000000000E+00 0.  1.
          1    1    1    2  501    0  0.31083488745E+01 -0.48734610905E+02 -0.73155957055E+03  0.73318764951E+03  0.00000000000E+00 0. -1.
<scales pt_clust_3="413.08192" pt_clust_4="41.26767" pt_clust_5="14000.00000" pt_clust_6="95.77577"></scales>
<clustering>
<clus scale="   41.268">  4  6 -1 -1</clus>
<clus scale="   95.776">  2  4  1 -1</clus>
<clus scale="  413.082">  1  3  2 -1</clus>
<clus scale="  413.082">  1  3  2 -1</clus>
</clustering>
</event>
<event>
 6    0  0.4189111E+002  0.1816332E+03  0.7546771E-02  0.1166232E+00
          2   -1    0    0  502    0 -0.00000000000E+00  0.00000000000E+00  0.17990064925E+04  0.17990064925E+04  0.00000000000E+00 0.  1.
         21   -1    0    0  503  502  0.00000000000E+00 -0.00000000000E+00 -0.13479753409E+03  0.13479753409E+03  0.00000000000E+00 0.  1.
         21    1    1    2  503  504 -0.86676853956E+02 -0.17870847470E+02  0.45285610978E+02  0.99413433512E+02  0.00000000000E+00 0. -1.
         21    1    1    2  504  505 -0.59197344216E+02 -0.90755608536E+02 -0.74090688080E+02  0.13126437484E+03  0.00000000000E+00 0.  1.
         21    1    1    2  505  501  0.72783422758E+02  0.33086836096E+02  0.68756197450E+03  0.69219479493E+03  0.00000000000E+00 0.  1.
          2    1    1    2  501    0  0.73090775414E+02  0.75539619910E+02  0.10054520610E+04  0.10109314233E+04  0.00000000000E+00 0.  1.
<scales pt_clust_3="88.49997" pt_clust_4="178.12140" pt_clust_5="30.99967" pt_clust_6="30.99967"></scales>
<clustering>
<clus scale="   31.000">  5  6 -1 -1</clus>
<clus scale="   88.500">  2  3  1 -1</clus>
<clus scale="  178.121">  2  4  1 -1</clus>
<clus scale="   88.500">  2  3  1 -1</clus>
</clustering>
</event>
<event>
 6    0  0.4189111E+002  0.9258742E+02  0.7546771E-02  0.1296704E+00
         21   -1    0    0  505  502  0.00000000000E+00  0.00000000000E+00  0.69258627032E+02  0.69258627032E+02  0.00000000000E+00 0. -1.
          1   -1    0    0  504    0 -0.00000000000E+00 -0.00000000000E+00 -0.13783573606E+04  0.13783573606E+04  0.00000000000E+00 0.  1.
         21    1    1    2  503  502  0.40930844257E+02  0.70938312272E+02 -0.11729309928E+02  0.82735451114E+02  0.00000000000E+00 0. -1.
         21    1    1    2  504  503 -0.32530251504E+02 -0.75009665142E+01 -0.71102511848E+03  0.71180840180E+03  0.00000000000E+00 0.  1.
         21    1    1    2  505  501  0.62175498130E+02 -0.57128072830E+02 -0.26118653934E+02  0.88383218748E+02  0.00000000000E+00 0.  1.
          1    1    1    2  501    0 -0.70576090883E+02 -0.63092729281E+01 -0.56022565122E+03  0.56468891597E+03  0.00000000000E+00 0.  1.
<scales pt_clust_3="80.30697" pt_clust_4="33.38385" pt_clust_5="92.58742" pt_clust_6="14000.00000"></scales>
<clustering>
<clus scale="   33.384">  2  4  1 -1</clus>
<clus scale="   80.307">  1  3  2 -1</clus>
<clus scale="   92.587">  1  5  2 -1</clus>
<clus scale="   80.307">  1  3  2 -1</clus>
</clustering>
</event>
<event>
 6    0  0.4189111E+002  0.8795865E+02  0.7546771E-02  0.1307872E+00
         21   -1    0    0  505  502  0.00000000000E+00  0.00000000000E+00  0.20945507885E+03  0.20945507885E+03  0.00000000000E+00 0. -1.
          2   -1    0    0  504    0 -0.00000000000E+00 -0.00000000000E+00 -0.22373121956E+04  0.22373121956E+04  0.00000000000E+00 0.  1.
         21    1    1    2  503  502  0.72232226568E+02 -0.41427050768E+02  0.15493426049E+03  0.17589292244E+03  0.00000000000E+00 0. -1.
         21    1    1    2  504  503  0.26003361837E+02 -0.29058409965E+02 -0.57236563738E+03  0.57369241660E+03  0.00000000000E+00 0.  1.
         21    1    1    2  505  501 -0.13663114746E+03  0.46915288506E+02 -0.78152591372E+02  0.16424658989E+03  0.00000000000E+00 0. -1.
          2    1    1    2  501    0  0.38395559052E+02  0.23570172228E+02 -0.15322731485E+04  0.15329353456E+04  0.00000000000E+00 0.  1.
<scales pt_clust_3="14000.00000" pt_clust_4="38.99444" pt_clust_5="87.95865" pt_clust_6="62.42304"></scales>
<clustering>
<clus scale="   38.994">  2  4  1 -1</clus>
<clus scale="   62.423">  2  6  1 -1</clus>
<clus scale="   87.959">  2  5  1 -1</clus>
<clus scale="   87.959">  1  3  2 -1</clus>
</clustering>
</event>
<event>
 6    0  0.4189111E+002  0.6866384E+02  0.7546771E-02  0.1364697E+00
          2   -1    0    0  505    0 -0.00000000000E+00  0.00000000000E+00  0.86620071796E+03  0.86620071796E+03  0.00000000000E+00 0. -1.
         21   -1    0    0  503  502  0.00000000000E+00 -0.00000000000E+00 -0.76553960990E+02  0.76553960990E+02  0.00000000000E+00 0. -1.
         21    1    1    2  503  504 -0.47323895114E+02  0.16627230416E+02  0.40175894722E+01  0.50320541186E+02  0.00000000000E+00 0. -1.
         21    1    1    2  504  501 -0.49972056541E+01  0.50118907213E+02  0.23093929519E+03  0.23636800753E+03  0.00000000000E+00 0. -1.
         21    1    1    2  505  502  0.88945853436E+02 -0.74979570277E+02  0.17588833577E+02  0.11765486760E+03  0.00000000000E+00 0. -1.
          2    1    1    2  501    0 -0.36624752667E+02  0.82334326467E+01  0.53710103873E+03  0.53841126263E+03  0.00000000000E+00 0. -1.
<scales pt_clust_3="53.24522" pt_clust_4="68.66384" pt_clust_5="14000.00000" pt_clust_6="37.53881"></scales>
<clustering>
<clus scale="   37.539">  1  6  2 -1</clus>
<clus scale="   53.245">  2  3  1 -1</clus>
<clus scale="   68.664">  1  4  2 -1</clus>
<clus scale="   53.245">  2  3  1 -1</clus>
</clustering>
</event>
<event>
 6    0  0.4408552E+002  0.9643221E+02  0.7546771E-02  0.1287983E+00
         -1   -1    0    0    0  501 -0.00000000000E+00  0.00000000000E+00  0.65837031915E+03  0.65837031915E+03  0.00000000000E+00 0. -1.
         21   -1    0    0  504  502  0.00000000000E+00 -0.00000000000E+00 -0.65137458599E+03  0.65137458599E+03  0.00000000000E+00 0. -1.
         21    1    1    2  503  505 -0.15972362787E+02 -0.70369818849E+02  0.75086960271E+02  0.10413971087E+03  0.00000000000E+00 0. -1.
         21    1    1    2  504  503  0.92523002238E+02  0.28894846463E+02 -0.62284613338E+03  0.63034333816E+03  0.00000000000E+00 0. -1.
         21    1    1    2  505  501 -0.35406929947E+02 -0.23938743580E+01  0.28320635223E+02  0.45403080315E+02  0.00000000000E+00 0.  1.
         -1    1    1    2    0  502 -0.41143709505E+02  0.43868846745E+02  0.52643427105E+03  0.52985877579E+03  0.00000000000E+00 0. -1.
<scales pt_clust_3="73.78938" pt_clust_4="14000.00000" pt_clust_5="35.48776" pt_clust_6="96.43221"></scales>
<clustering>
<clus scale="   35.488">  1  5  2 -1</clus>
<clus scale="   73.789">  1  3  2 -1</clus>
<clus scale="   96.432">  1  6  2 -1</clus>
<clus scale="   96.432">  2  3  1 -1</clus>
</clustering>
</event>
<event>
 6    0  0.4189111E+002  0.1884750E+03  0.7546771E-02  0.1159844E+00
         21   -1    0    0  504  502  0.00000000000E+00  0.00000000000E+00  0.29674065476E+03  0.29674065476E+03  0.00000000000E+00 0.  1.
          1   -1    0    0  505    0 -0.00000000000E+00 -0.00000000000E+00 -0.10141728797E+04  0.10141728797E+04  0.00000000000E+00 0.  1.
         21    1    1    2  503  501 -0.57511676514E+02 -0.25478107505E+02 -0.18936193747E+03  0.19953613773E+03  0.00000000000E+00 0. -1.
         21    1    1    2  504  503 -0.25567429144E+02 -0.59166060224E+02  0.12868262315E+02  0.65726009239E+02  0.00000000000E+00 0. -1.
         21    1    1    2  505  502  0.19549973425E+03  0.84390126316E+02  0.20244661149E+03  0.29381366547E+03  0.00000000000E+00 0.  1.
          1    1    1    2  501    0 -0.11242062859E+03  0.25404141334E+00 -0.74338516124E+03  0.75183772200E+03  0.00000000000E+00 0.  1.
<scales pt_clust_3="55.88545" pt_clust_4="64.45398" pt_clust_5="173.03471" pt_clust_6="55.88545"></scales>
<clustering>
<clus scale="   55.885">  3  6 -1 -1</clus>
<clus scale="   64.454">  1  4  2 -1</clus>
<clus scale="  173.035">  1  5  2 -1</clus>
<clus scale="   64.454">  1  3  2 -1</clus>
</clustering>
</event>
<event>
 6    0  0.4189111E+002  0.6259680E+02  0.7546771E-02  0.1387246E+00
          2   -1    0    0  505    0 -0.00000000000E+00  0.00000000000E+00  0.98758677662E+03  0.98758677662E+03  0.00000000000E+00 0.  1.
         21   -1    0    0  504  502  0.00000000000E+00 -0.00000000000E+00 -0.13760139098E+03  0.13760139098E+03  0.00000000000E+00 0.  1.
         21    1    1    2  503  502  0.10597892355E+03 -0.27328837017E+02 -0.91605998797E+02  0.14272370716E+03  0.00000000000E+00 0.  1.
         21    1    1    2  504  501 -0.50056260160E+02  0.24065923523E+02  0.49841573305E+02  0.74625600740E+02  0.00000000000E+00 0.  1.
         21    1    1    2  505  503  0.41392219038E+02 -0.15115430251E+02  0.92313503260E+02  0.10229161702E+03  0.00000000000E+00 0.  1.
          2    1    1    2  501    0 -0.97314882427E+02  0.18378343745E+02  0.79943630787E+03  0.80554724268E+03  0.00000000000E+00 0.  1.
<scales pt_clust_3="62.59680" pt_clust_4="52.47628" pt_clust_5="44.06577" pt_clust_6="14000.00000"></scales>
<clustering>
<clus scale="   44.066">  1  5  2 -1</clus>
<clus scale="   52.476">  2  4  1 -1</clus>
<clus scale="   62.597">  2  3  1 -1</clus>
<clus scale="   52.476">  2  3  1 -1</clus>
</clustering>
</event>
<event>
 6    0  0.4189111E+002  0.1536466E+03  0.7546771E-02  0.1196062E+00
         21   -1    0    0  503  502  0.00000000000E+00  0.00000000000E+00  0.24863344018E+03  0.24863344018E+03  0.00000000000E+00 0. -1.
          1   -1    0    0  504    0 -0.00000000000E+00 -0.00000000000E+00 -0.59437557942E+03  0.59437557942E+03  0.00000000000E+00 0.  1.
         21    1    1    2  503  501  0.17831213249E+01  0.43264329717E+02 -0.11846549876E+02  0.44892343351E+02  0.00000000000E+00 0.  1.
         21    1    1    2  504  505  0.88998142134E+02 -0.10683029787E+03 -0.83769673511E+02  0.16232911029E+03  0.00000000000E+00 0. -1.
         21    1    1    2  505  502  0.62129039815E+02  0.30209189378E+01  0.17192203926E+03  0.18282869338E+03  0.00000000000E+00 0. -1.
          1    1    1    2  501    0 -0.15291030327E+03  0.60545049214E+02 -0.42204795512E+03  0.45295887258E+03  0.00000000000E+00 0.  1.
<scales pt_clust_3="43.30106" pt_clust_4="153.64660" pt_clust_5="73.02853" pt_clust_6="14000.00000"></scales>
<clustering>
<clus scale="   43.301">  1  3  2 -1</clus>
<clus scale="   73.029">  1  5  2 -1</clus>
<clus scale="  153.647">  1  4  2 -1</clus>
<clus scale="   43.301">  1  3  2 -1</clus>
</clustering>
</event>
<event>
 6    0  0.4189111E+002  0.1040615E+03  0.7546771E-02  0.1271980E+00
          1   -1    0    0  503    0 -0.00000000000E+00  0.00000000000E+00  0.45018553261E+03  0.45018553261E+03  0.00000000000E+00 0.  1.
         21   -1    0    0  504  502  0.00000000000E+00 -0.00000000000E+00 -0.21525607759E+03  0.21525607759E+03  0.00000000000E+00 0. -1.
         21    1    1    2  503  505  0.93524149498E+02 -0.65982970214E+02  0.11520420458E+03  0.16239620578E+03  0.00000000000E+00 0. -1.
         21    1    1    2  504  501  0.26054036436E+02 -0.17723836787E+02 -0.15712665805E+03  0.16025521482E+03  0.00000000000E+00 0. -1.
         21    1    1    2  505  502 -0.12158537691E+02  0.92231982359E+02  0.10870888873E+03  0.14308106477E+03  0.00000000000E+00 0.  1.
          1    1    1    2  501    0 -0.10741964824E+03 -0.85251753575E+01  0.16814301976E+03  0.19970912483E+03  0.00000000000E+00 0.  1.
<scales pt_clust_3="14000.00000" pt_clust_4="31.51106" pt_clust_5="86.95055" pt_clust_6="104.06146"></scales>
<clustering>
<clus scale="   31.511">  2  4  1 -1</clus>
<clus scale="   86.951">  2  5  1 -1</clus>
<clus scale="  104.061">  1  6  2 -1</clus>
<clus scale="   31.511">  2  3  1 -1</clus>
</clustering>
</event>
<event>
 6    0  0.4189111E+002  0.1083885E+03  0.7546771E-02  0.1263583E+00
          2   -1    0    0  503    0 -0.00000000000E+00  0.00000000000E+00  0.10010183710E+04  0.10010183710E+04  0.00000000000E+00 0.  1.
         21   -1    0    0  504  502  0.00000000000E+00 -0.00000000000E+00 -0.48813529409E+02  0.48813529409E+02  0.00000000000E+00 0.  1.
         21    1    1    2  503  505 -0.73172047887E+02 -0.83635727959E+02  0.51702814528E+03  0.52883568960E+03  0.00000000000E+00 0.  1.
         21    1    1    2  504  501 -0.21674273462E+02 -0.45035256249E+02  0.48565824626E+02  0.69689222676E+02  0.00000000000E+00 0. -1.
         21    1    1    2  505  502  0.10833656392E+03  0.92844332735E+02  0.13375353076E+03  0.19556811651E+03  0.00000000000E+00 0.  1.
          2    1    1    2  501    0 -0.13490242576E+02  0.35826651474E+02  0.25285734095E+03  0.25573887165E+03  0.00000000000E+00 0.  1.
<scales pt_clust_3="108.38853" pt_clust_4="47.93667" pt_clust_5="14000.00000" pt_clust_6="38.28231"></scales>
<clustering>
<clus scale="   38.282">  1  6  2 -1</clus>
<clus scale="   47.937">  2  4  1 -1</clus>
<clus scale="  108.389">  1  3  2 -1</clus>
<clus scale="   47.937">  2  3  1 -1</clus>
</clustering>
</event>
<event>
 6    0  0.1179674E+003  0.1051380E+03  0.7546771E-02  0.1269848E+00
          2   -1    0    0  504    0 -0.00000000000E+00  0.00000000000E+00  0.38216305203E+04  0.38216305203E+04  0.00000000000E+00 0. -1.
         21   -1    0    0  503  502  0.00000000000E+00 -0.00000000000E+00 -0.39780487717E+03  0.39780487717E+03  0.00000000000E+00 0. -1.
         21    1    1    2  503  505  0.52737466523E+02 -0.12287080882E+03 -0.36568186056E+03  0.38936062869E+03  0.00000000000E+00 0. -1.
         21    1    1    2  504  502  0.45226937562E+01  0.33066236012E+02  0.32031025205E+02  0.46258159264E+02  0.00000000000E+00 0. -1.
         21    1    1    2  505  501 -0.11052114235E+03 -0.77295458129E+00  0.23415598262E+03  0.25892961314E+03  0.00000000000E+00 0. -1.
          2    1    1    2  501    0  0.53260982072E+02  0.90577527385E+02  0.35233204959E+04  0.35248869964E+04  0.00000000000E+00 0. -1.
<scales pt_clust_3="14000.00000" pt_clust_4="33.37410" pt_clust_5="100.89396" pt_clust_6="105.13800"></scales>
<clustering>
<clus scale="   33.374">  2  4  1 -1</clus>
<clus scale="  105.138">  1  6  2 -1</clus>
<clus scale="  100.894">  1  5  2 -1</clus>
<clus scale="   33.374">  2  3  1 -1</clus>
</clustering>
</event>
<event>
 6    0  0.4189111E+002  0.1008159E+03  0.7546771E-02  0.1278590E+00
         21   -1    0    0  505  502  0.00000000000E+00  0.00000000000E+00  0.61546066181E+03  0.61546066181E+03  0.00000000000E+00 0.  1.
         -2   -1    0    0    0  501 -0.00000000000E+00 -0.00000000000E+00 -0.32778370447E+03  0.32778370447E+03  0.00000000000E+00 0.  1.
         21    1    1    2  503  502 -0.12449104583E+02 -0.11937016760E+03  0.54609200578E+03  0.55912493765E+03  0.00000000000E+00 0.  1.
         21    1    1    2  504  501 -0.17808631645E+02  0.74216606028E+02 -0.18024812058E+03  0.19574124998E+03  0.00000000000E+00 0. -1.
         21    1    1    2  505  504 -0.44761531773E+02  0.30044106266E+02  0.25409971006E+02  0.59597899917E+02  0.00000000000E+00 0.  1.
         -2    1    1    2    0  503  0.75019268002E+02  0.15109455306E+02 -0.10357689887E+03  0.12878027874E+03  0.00000000000E+00 0.  1.
<scales pt_clust_3="14000.00000" pt_clust_4="100.81590" pt_clust_5="53.90958" pt_clust_6="75.69577"></scales>
<clustering>
<clus scale="   53.910">  1  5  2 -1</clus>
<clus scale="   75.696">  2  6  1 -1</clus>
<clus scale="  100.816">  2  4  1 -1</clus>
<clus scale="   53.910">  1  3  2 -1</clus>
</clustering>
</event>
<event>
 6    0  0.4189111E+002  0.8571386E+02  0.7546771E-02  0.1313576E+00
         21   -1    0    0  504  502  0.00000000000E+00  0.00000000000E+00  0.89385348965E+02  0.89385348965E+02  0.00000000000E+00 0.  1.
          2   -1    0    0  505    0 -0.00000000000E+00 -0.00000000000E+00 -0.13588417439E+04  0.13588417439E+04  0.00000000000E+00 0.  1.
         21    1    1    2  503  502 -0.31463794784E+02  0.21783153724E+02  0.54332935472E+01  0.38652255395E+02  0.00000000000E+00 0. -1.
         21    1    1    2  504  501  0.82952268330E+02 -0.92160181091E+02  0.54873597326E+01  0.12411562721E+03  0.00000000000E+00 0.  1.
         21    1    1    2  505  503 -0.20313260702E+02  0.58470073400E+02 -0.43049283798E+03  0.43492006345E+03  0.00000000000E+00 0.  1.
          2    1    1    2  501    0 -0.31175212845E+02  0.11906953967E+02 -0.84988421025E+03  0.85053914683E+03  0.00000000000E+00 0.  1.
<scales pt_clust_3="39.32768" pt_clust_4="85.71386" pt_clust_5="14000.00000" pt_clust_6="33.37169"></scales>
<clustering>
<clus scale="   33.372">  2  6  1 -1</clus>
<clus scale="   39.328">  1  3  2 -1</clus>
<clus scale="   85.714">  1  4  2 -1</clus>
<clus scale="   39.328">  1  3  2 -1</clus>
</clustering>
</event>
<event>
 6    0  0.4189111E+002  0.1728856E+03  0.7546771E-02  0.1174872E+00
         -1   -1    0    0    0  501 -0.00000000000E+00  0.00000000000E+00  0.88442542652E+02  0.88442542652E+02  0.00000000000E+00 0.  1.
         21   -1    0    0  505  502  0.00000000000E+00 -0.00000000000E+00 -0.86176160498E+03  0.86176160498E+03  0.00000000000E+00 0.  1.
         21    1    1    2  503  502 -0.11012774567E+03  0.64735970992E+02 -0.62603067097E+03  0.63893134787E+03  0.00000000000E+00 0.  1.
         21    1    1    2  504  503 -0.31186852315E+02  0.21412886680E+02 -0.77140576731E+02  0.85917402496E+02  0.00000000000E+00 0. -1.
         21    1    1    2  505  501  0.44343677108E+02  0.25739768171E+02 -0.57065771200E+02  0.76716358149E+02  0.00000000000E+00 0. -1.
         -1    1    1    2    0  504  0.96970920873E+02 -0.11188862584E+03 -0.13082043430E+02  0.14863903911E+03  0.00000000000E+00 0.  1.
<scales pt_clust_3="32.48962" pt_clust_4="32.48962" pt_clust_5="51.27277" pt_clust_6="162.24972"></scales>
<clustering>
<clus scale="   32.490">  3  4 -1 -1</clus>
<clus scale="   51.273">  1  5  2 -1</clus>
<clus scale="  162.250">  1  6  2 -1</clus>
<clus scale="  172.886">  2  3  1 -1</clus>
</clustering>
</event>
<event>
 6    0  0.4189111E+002  0.1273146E+03  0.7546771E-02  0.1231496E+00
         21   -1    0    0  503  502  0.00000000000E+00  0.00000000000E+00  0.49580118048E+02  0.49580118048E+02  0.00000000000E+00 0.  1.
          2   -1    0    0  505    0 -0.00000000000E+00 -0.00000000000E+00 -0.17445833241E+04  0.17445833241E+04  0.00000000000E+00 0. -1.
         21    1    1    2  503  501 -0.17527045254E+03  0.12195834080E+02 -0.77642642162E+03  0.79605681838E+03  0.00000000000E+00 0.  1.
         21    1    1    2  504  502  0.11127002750E+03 -0.51023014944E+02 -0.61740321413E+02  0.13709935945E+03  0.00000000000E+00 0.  1.
         21    1    1    2  505  504  0.20562059939E+02  0.25374198524E+02 -0.20487486438E+03  0.20746170325E+03  0.00000000000E+00 0.  1.
          2    1    1    2  501    0  0.43438365100E+02  0.13452982340E+02 -0.65196159861E+03  0.65354556105E+03  0.00000000000E+00 0. -1.
<scales pt_clust_3="127.31463" pt_clust_4="14000.00000" pt_clust_5="32.65958" pt_clust_6="57.51125"></scales>
<clustering>
<clus scale="   32.660">  2  5  1 -1</clus>
<clus scale="   57.511">  2  6  1 -1</clus>
<clus scale="  127.315">  2  3  1 -1</clus>
<clus scale="  127.315">  1  3  2 -1</clus>
</clustering>
</event>
<event>
 6    0  0.4189111E+002  0.2842056E+03  0.7546771E-02  0.1093414E+00
         -2   -1    0    0    0  501 -0.00000000000E+00  0.00000000000E+00  0.94384026234E+03  0.94384026234E+03  0.00000000000E+00 0. -1.
         21   -1    0    0  505  502  0.00000000000E+00 -0.00000000000E+00 -0.33450982814E+03  0.33450982814E+03  0.00000000000E+00 0.  1.
         21    1    1    2  503  502  0.12063288639E+03  0.20387651407E+02 -0.83512561450E+02  0.14812932704E+03  0.00000000000E+00 0.  1.
         21    1    1    2  504  503  0.74040347358E+02  0.14543592362E+03 -0.16271936999E+03  0.23045861730E+03  0.00000000000E+00 0.  1.
         21    1    1    2  505  501 -0.30462117203E+02 -0.41178148730E+02  0.64972570176E+02  0.82734608191E+02  0.00000000000E+00 0. -1.
         -2    1    1    2    0  504 -0.16421111654E+03 -0.12464542630E+03  0.79058979546E+03  0.81702753796E+03  0.00000000000E+00 0. -1.
<scales pt_clust_3="113.94625" pt_clust_4="113.94625" pt_clust_5="51.22090" pt_clust_6="251.93112"></scales>
<clustering>
<clus scale="   51.221">  1  5  2 -1</clus>
<clus scale="  113.946">  3  4 -1 -1</clus>
<clus scale="  251.931">  1  6  2 -1</clus>
<clus scale="  284.206">  2  3  1 -1</clus>
</clustering>
</event>
<event>
 6    0  0.4189111E+002  0.1076958E+03  0.7546771E-02  0.1264897E+00
          2   -1    0    0  505    0 -0.00000000000E+00  0.00000000000E+00  0.11061262461E+04  0.11061262461E+04  0.00000000000E+00 0. -1.
         21   -1    0    0  501  502  0.00000000000E+00 -0.00000000000E+00 -0.97794143337E+02  0.97794143337E+02  0.00000000000E+00 0. -1.
         21    1    1    2  503  502  0.43005644364E+02  0.43571283188E+01 -0.69919811740E+02  0.82202494415E+02  0.00000000000E+00 0. -1.
         21    1    1    2  504  503 -0.36874252560E+02 -0.50009051076E+02  0.15182356855E+03  0.16404576087E+03  0.00000000000E+00 0. -1.
         21    1    1    2  505  504 -0.17574476903E+02  0.13945884039E+03  0.43196715446E+03  0.45426121663E+03  0.00000000000E+00 0. -1.
          2    1    1    2  501    0  0.11443085098E+02 -0.93806917631E+02  0.49446119153E+03  0.50341091757E+03  0.00000000000E+00 0. -1.
<scales pt_clust_3="43.22580" pt_clust_4="54.71735" pt_clust_5="14000.00000" pt_clust_6="107.69576"></scales>
<clustering>
<clus scale="   43.226">  2  3  1 -1</clus>
<clus scale="   54.717">  2  4  1 -1</clus>
<clus scale="  107.696">  1  6  2 -1</clus>
<clus scale="   43.226">  2  3  1 -1</clus>
</clustering>
</event>
<event>
 6    0  0.4189111E+002  0.1926982E+03  0.7546771E-02  0.1156050E+00
         21   -1    0    0  504  502  0.00000000000E+00  0.00000000000E+00  0.10633370519E+04  0.10633370519E+04  0.00000000000E+00 0.  1.
         -2   -1    0    0    0  501 -0.00000000000E+00 -0.00000000000E+00 -0.27664003365E+03  0.27664003365E+03  0.00000000000E+00 0.  1.
         21    1    1    2  503  505  0.14918400644E+03 -0.24592619018E+01  0.64521257629E+03  0.66223952189E+03  0.00000000000E+00 0.  1.
         21    1    1    2  504  503  0.31096297497E+02 -0.91264139806E+01  0.34591571070E+03  0.34743049673E+03  0.00000000000E+00 0.  1.
         21    1    1    2  505  501  0.11483141122E+00 -0.38181689190E+02  0.15787077310E+02  0.41316901937E+02  0.00000000000E+00 0. -1.
         -2    1    1    2    0  502 -0.18039513534E+03  0.49767365072E+02 -0.22021834609E+03  0.28899016495E+03  0.00000000000E+00 0.  1.
<scales pt_clust_3="31.13512" pt_clust_4="31.13512" pt_clust_5="38.18186" pt_clust_6="180.74721"></scales>
<clustering>
<clus scale="   31.135">  3  4 -1 -1</clus>
<clus scale="   38.182">  2  5  1 -1</clus>
<clus scale="  180.747">  2  6  1 -1</clus>
<clus scale="  192.698">  1  3  2 -1</clus>
</clustering>
</event>
<event>
 6    0  0.4189111E+002  0.2050500E+03  0.7546771E-02  0.1145547E+00
          1   -1    0    0  505    0 -0.00000000000E+00  0.00000000000E+00  0.14034537383E+04  0.14034537383E+04  0.00000000000E+00 0. -1.
         21   -1    0    0  504  502  0.00000000000E+00 -0.00000000000E+00 -0.19161617145E+03  0.19161617145E+03  0.00000000000E+00 0.  1.
         21    1    1    2  503  501 -0.10696272263E+03  0.18284548693E+03  0.83366499655E+03  0.86015744059E+03  0.00000000000E+00 0. -1.
         21    1    1    2  504  503  0.19830743402E+02 -0.21379847789E+03 -0.82211751577E+02  0.22991698421E+03  0.00000000000E+00 0.  1.
         21    1    1    2  505  502  0.48159151206E+02  0.21101757780E+02  0.10874880732E+02  0.53692188046E+02  0.00000000000E+00 0.  1.
          1    1    1    2  501    0  0.38972828020E+02  0.98512331755E+01  0.44950944112E+03  0.45130329688E+03  0.00000000000E+00 0. -1.
<scales pt_clust_3="14000.00000" pt_clust_4="205.04995" pt_clust_5="53.92292" pt_clust_6="40.19861"></scales>
<clustering>
<clus scale="   40.199">  1  6  2 -1</clus>
<clus scale="   53.923">  2  5  1 -1</clus>
<clus scale="  205.050">  2  4  1 -1</clus>
<clus scale="   53.923">  2  3  1 -1</clus>
</clustering>
</event>
<event>
 6    0  0.4189111E+002  0.1339363E+03  0.7546771E-02  0.1221729E+00
          2   -1    0    0  504    0 -0.00000000000E+00  0.00000000000E+00  0.14626658220E+04  0.14626658220E+04  0.00000000000E+00 0. -1.
         21   -1    0    0  503  502  0.00000000000E+00 -0.00000000000E+00 -0.94336347827E+02  0.94336347827E+02  0.00000000000E+00 0. -1.
         21    1    1    2  503  505  0.61645555793E+01 -0.14349258859E+03  0.29938621973E+02  0.14671211883E+03  0.00000000000E+00 0. -1.
         21    1    1    2  504  502 -0.49407320340E+02  0.26066176739E+02 -0.87538542019E+01  0.56543424342E+02  0.00000000000E+00 0. -1.
         21    1    1    2  505  501  0.49170233776E+02  0.71443232964E+02  0.82412878506E+03  0.82867973415E+03  0.00000000000E+00 0. -1.
          2    1    1    2  501    0 -0.59274690147E+01  0.45983178887E+02  0.52301592134E+03  0.52506689251E+03  0.00000000000E+00 0. -1.
<scales pt_clust_3="125.56576" pt_clust_4="55.86169" pt_clust_5="34.07647" pt_clust_6="34.07647"></scales>
<clustering>
<clus scale="   34.076">  5  6 -1 -1</clus>
<clus scale="   55.862">  2  4  1 -1</clus>
<clus scale="  125.566">  2  3  1 -1</clus>
<clus scale="   55.862">  2  3  1 -1</clus>
</clustering>
</event>
<event>
 6    0  0.4189111E+002  0.1239035E+03  0.7546771E-02  0.1236793E+00
          2   -1    0    0  505    0 -0.00000000000E+00  0.00000000000E+00  0.20616495540E+04  0.20616495540E+04  0.00000000000E+00 0.  1.
         21   -1    0    0  504  502  0.00000000000E+00 -0.00000000000E+00 -0.27184915638E+03  0.27184915638E+03  0.00000000000E+00 0. -1.
         21    1    1    2  503  501 -0.99882604476E+02 -0.60587804946E+02 -0.81111026923E+02  0.14221960299E+03  0.00000000000E+00 0. -1.
         21    1    1    2  504  503  0.72524620327E+02 -0.65008955731E+02 -0.13301925414E+03  0.16486390403E+03  0.00000000000E+00 0. -1.
         21    1    1    2  505  502  0.52002826131E+02  0.38355722399E+01  0.64189939388E+02  0.82700386085E+02  0.00000000000E+00 0.  1.
          2    1    1    2  501    0 -0.24644841982E+02  0.12176118844E+03  0.19397407392E+04  0.19437148172E+04  0.00000000000E+00 0.  1.
<scales pt_clust_3="14000.00000" pt_clust_4="97.68609" pt_clust_5="52.14408" pt_clust_6="123.90355"></scales>
<clustering>
<clus scale="   52.144">  1  5  2 -1</clus>
<clus scale="   97.686">  2  4  1 -1</clus>
<clus scale="  123.904">  1  6  2 -1</clus>
<clus scale="   97.686">  2  3  1 -1</clus>
</clustering>
</event>
<event>
 6    0  0.4189111E+002  0.8455845E+02  0.7546771E-02  0.1316591E+00
         21   -1    0    0  503  502  0.00000000000E+00  0.00000000000E+00  0.15511211525E+02  0.15511211525E+02  0.00000000000E+00 0. -1.
          1   -1    0    0  504    0 -0.00000000000E+00 -0.00000000000E+00 -0.20686531031E+04  0.20686531031E+04  0.00000000000E+00 0.  1.
         21    1    1    2  503  501 -0.91024893060E+02  0.85614284626E+01 -0.40238107354E+03  0.41263707729E+03  0.00000000000E+00 0. -1.
         21    1    1    2  504  505  0.42838483039E+02  0.84301961775E+02 -0.33272485074E+03  0.34590140602E+03  0.00000000000E+00 0. -1.
         21    1    1    2  505  502  0.44055910923E+02 -0.84437271390E+01 -0.23140632131E+03  0.23571403301E+03  0.00000000000E+00 0. -1.
          1    1    1    2  501    0  0.41304990978E+01 -0.84419663098E+02 -0.10866296460E+04  0.10899117983E+04  0.00000000000E+00 0.  1.
<scales pt_clust_3="74.30214" pt_clust_4="84.55845" pt_clust_5="44.85777" pt_clust_6="14000.00000"></scales>
<clustering>
<clus scale="   44.858">  1  5  2 -1</clus>
<clus scale="   74.302">  1  3  2 -1</clus>
<clus scale="   84.558">  1  4  2 -1</clus>
<clus scale="   44.858">  1  3  2 -1</clus>
</clustering>
</event>
<event>
 6    0  0.4189111E+002  0.1674561E+03  0.7546771E-02  0.1180527E+00
          1   -1    0    0  505    0 -0.00000000000E+00  0.00000000000E+00  0.29675760939E+04  0.29675760939E+04  0.00000000000E+00 0. -1.
         21   -1    0    0  504  502  0.00000000000E+00 -0.00000000000E+00 -0.64982256355E+02  0.64982256355E+02  0.00000000000E+00 0. -1.
         21    1    1    2  503  502 -0.25776460782E+02  0.17401360888E+02 -0.15010189813E+02  0.34533159274E+02  0.00000000000E+00 0. -1.
         21    1    1    2  504  501  0.11263479557E+02  0.70215290016E+02  0.84988747300E+03  0.85285741463E+03  0.00000000000E+00 0.  1.
         21    1    1    2  505  503 -0.15194867085E+02 -0.17143076131E+03  0.15877341198E+03  0.23415462042E+03  0.00000000000E+00 0. -1.
          1    1    1    2  501    0  0.29707848310E+02  0.83814110406E+02  0.19089431424E+04  0.19110131559E+04  0.00000000000E+00 0. -1.
<scales pt_clust_3="31.10037" pt_clust_4="44.18843" pt_clust_5="160.03463" pt_clust_6="44.18843"></scales>
<clustering>
<clus scale="   31.100">  2  3  1 -1</clus>
<clus scale="   44.188">  4  6 -1 -1</clus>
<clus scale="  160.035">  2  5  1 -1</clus>
<clus scale="   31.100">  2  3  1 -1</clus>
</clustering>
</event>
<event>
 6    0  0.4189111E+002  0.9255013E+02  0.7546771E-02  0.1296791E+00
         21   -1    0    0  504  502  0.00000000000E+00  0.00000000000E+00  0.43874085669E+03  0.43874085669E+03  0.00000000000E+00 0.  1.
          2   -1    0    0  503    0 -0.00000000000E+00 -0.00000000000E+00 -0.26772198560E+04  0.26772198560E+04  0.00000000000E+00 0.  1.
         21    1    1    2  503  505 -0.52119980320E+02  0.33884438906E+02 -0.29900567996E+03  0.30539981041E+03  0.00000000000E+00 0.  1.
         21    1    1    2  504  501 -0.23216117405E+02  0.41772367107E+02  0.53519279737E+02  0.71751181626E+02  0.00000000000E+00 0.  1.
         21    1    1    2  505  502 -0.69228680405E+02 -0.45405788822E+02  0.36597519978E+03  0.37522279076E+03  0.00000000000E+00 0.  1.
          2    1    1    2  501    0  0.14456477813E+03 -0.30251017191E+02 -0.23589677988E+04  0.23635869299E+04  0.00000000000E+00 0.  1.
<scales pt_clust_3="62.52558" pt_clust_4="47.79036" pt_clust_5="92.55013" pt_clust_6="14000.00000"></scales>
<clustering>
<clus scale="   47.790">  1  4  2 -1</clus>
<clus scale="   62.526">  2  3  1 -1</clus>
<clus scale="   92.550">  1  5  2 -1</clus>
<clus scale="   47.790">  1  3  2 -1</clus>
</clustering>
</event>
<event>
 6    0  0.4189111E+002  0.3365742E+03  0.7546771E-02  0.1068264E+00
         21   -1    0    0  504  502  0.00000000000E+00  0.00000000000E+00  0.51277910716E+03  0.51277910716E+03  0.00000000000E+00 0. -1.
          2   -1    0    0  505    0 -0.00000000000E+00 -0.00000000000E+00 -0.11409206895E+04  0.11409206895E+04  0.00000000000E+00 0.  1.
         21    1    1    2  503  501  0.15976952668E+03 -0.89939174856E+02 -0.49994314369E+03  0.53250211619E+03  0.00000000000E+00 0. -1.
         21    1    1    2  504  503  0.46290094967E+02  0.94554390489E+01  0.10971998570E+03  0.11945984045E+03  0.00000000000E+00 0. -1.
         21    1    1    2  505  502 -0.32982384182E+03  0.16285637548E+03  0.28039573444E+03  0.46252322489E+03  0.00000000000E+00 0. -1.
          2    1    1    2  501    0  0.12376422018E+03 -0.82372639677E+02 -0.51831415882E+03  0.53921461515E+03  0.00000000000E+00 0.  1.
<scales pt_clust_3="36.53439" pt_clust_4="47.24593" pt_clust_5="334.11997" pt_clust_6="36.53439"></scales>
<clustering>
<clus scale="   36.534">  3  6 -1 -1</clus>
<clus scale="   47.246">  1  4  2 -1</clus>
<clus scale="  334.120">  1  5  2 -1</clus>
<clus scale="   47.246">  1  3  2 -1</clus>
</clustering>
</event>
<event>
 6    0  0.4189111E+002  0.1869387E+03  0.7546771E-02  0.1161252E+00
         21   -1    0    0  504  502  0.00000000000E+00  0.00000000000E+00  0.12288204580E+03  0.12288204580E+03  0.00000000000E+00 0.  1.
          2   -1    0    0  503    0 -0.00000000000E+00 -0.00000000000E+00 -0.17149830425E+04  0.17149830425E+04  0.00000000000E+00 0.  1.
         21    1    1    2  503  505  0.82067327297E+02  0.25370715657E+02 -0.66258086712E+03  0.66812583014E+03  0.00000000000E+00 0. -1.
         21    1    1    2  504  501 -0.10349019472E+03 -0.17728245113E+03  0.14245035565E+02  0.20577222582E+03  0.00000000000E+00 0.  1.
         21    1    1    2  505  502  0.44423105300E+02  0.10736366663E+03 -0.36530036938E+03  0.38333370458E+03  0.00000000000E+00 0. -1.
          2    1    1    2  501    0 -0.23000237875E+02  0.44548068837E+02 -0.57846479573E+03  0.58063332773E+03  0.00000000000E+00 0.  1.
<scales pt_clust_3="85.75680" pt_clust_4="14000.00000" pt_clust_5="186.93866" pt_clust_6="50.13523"></scales>
<clustering>
<clus scale="   50.135">  2  6  1 -1</clus>
<clus scale="   85.757">  2  3  1 -1</clus>
<clus scale="  186.939">  2  5  1 -1</clus>
<clus scale="  186.939">  1  3  2 -1</clus>
</clustering>
</event>
<event>
 6    0  0.4189111E+002  0.9855190E+02  0.7546771E-02  0.1283371E+00
          1   -1    0    0  503    0 -0.00000000000E+00  0.00000000000E+00  0.86864168395E+03  0.86864168395E+03  0.00000000000E+00 0.  1.
         21   -1    0    0  504  502  0.00000000000E+00 -0.00000000000E+00 -0.67806331628E+02  0.67806331628E+02  0.00000000000E+00 0.  1.
         21    1    1    2  503  505 -0.65506665893E+02  0.29448650710E+02  0.45034384623E+03  0.45603500539E+03  0.00000000000E+00 0. -1.
         21    1    1    2  504  501 -0.84247641188E+02  0.29104053733E+02  0.34890447343E+02  0.95718620473E+02  0.00000000000E+00 0.  1.
         21    1    1    2  505  502  0.32500235888E-01 -0.47431197846E+02  0.16840632601E+02  0.50332161605E+02  0.00000000000E+00 0. -1.
          1    1    1    2  501    0  0.14972180684E+03 -0.11121506596E+02  0.29876042615E+03  0.33436222811E+03  0.00000000000E+00 0.  1.
<scales pt_clust_3="70.77720" pt_clust_4="14000.00000" pt_clust_5="47.43121" pt_clust_6="98.55190"></scales>
<clustering>
<clus scale="   47.431">  2  5  1 -1</clus>
<clus scale="   70.777">  1  3  2 -1</clus>
<clus scale="   98.552">  1  6  2 -1</clus>
<clus scale="   47.431">  2  3  1 -1</clus>
</clustering>
</event>
<event>
 6    0  0.4189111E+002  0.1816441E+03  0.7546771E-02  0.1166221E+00
          1   -1    0    0  503    0 -0.00000000000E+00  0.00000000000E+00  0.15192759351E+04  0.15192759351E+04  0.00000000000E+00 0.  1.
         21   -1    0    0  501  502  0.00000000000E+00 -0.00000000000E+00 -0.64094608715E+02  0.64094608715E+02  0.00000000000E+00 0.  1.
         21    1    1    2  503  505  0.13077646941E+02  0.28910503174E+02  0.29890706998E+03  0.30058655747E+03  0.00000000000E+00 0.  1.
         21    1    1    2  504  502 -0.10408612772E+03  0.46625904675E+02  0.41373619847E+02  0.12132466109E+03  0.00000000000E+00 0.  1.
         21    1    1    2  505  504 -0.57326191691E+02 -0.34784297312E+02  0.45459484338E+02  0.81011136947E+02  0.00000000000E+00 0. -1.
          1    1    1    2  501    0  0.14833467247E+03 -0.40752110536E+02  0.10694411522E+04  0.10804481883E+04  0.00000000000E+00 0.  1.
<scales pt_clust_3="31.73077" pt_clust_4="64.42505" pt_clust_5="64.42505" pt_clust_6="160.58942"></scales>
<clustering>
<clus scale="   31.731">  1  3  2 -1</clus>
<clus scale="   64.425">  4  5 -1 -1</clus>
<clus scale="  160.589">  1  6  2 -1</clus>
<clus scale="  181.644">  2  3  1 -1</clus>
</clustering>
</event>
<event>
 6    0  0.4189111E+002  0.1286403E+03  0.7546771E-02  0.1229487E+00
          2   -1    0    0  505    0 -0.00000000000E+00  0.00000000000E+00  0.31126528347E+04  0.31126528347E+04  0.00000000000E+00 0. -1.
         21   -1    0    0  503  502  0.00000000000E+00 -0.00000000000E+00 -0.12271000988E+03  0.12271000988E+03  0.00000000000E+00 0. -1.
         21    1    1    2  503  501  0.23862752001E+02  0.30060107643E+02 -0.95527943772E+02  0.10294964325E+03  0.00000000000E+00 0. -1.
         21    1    1    2  504  502  0.76287586565E+02 -0.11352011468E+03  0.19853108679E+03  0.24108339786E+03  0.00000000000E+00 0. -1.
         21    1    1    2  505  504 -0.41638224321E+02 -0.14579183537E+02  0.66853078531E+03  0.66998485447E+03  0.00000000000E+00 0.  1.
          2    1    1    2  501    0 -0.58512114245E+02  0.98039190574E+02  0.22184088965E+04  0.22213449490E+04  0.00000000000E+00 0. -1.
<scales pt_clust_3="38.38022" pt_clust_4="14000.00000" pt_clust_5="43.11615" pt_clust_6="128.64033"></scales>
<clustering>
<clus scale="   38.380">  2  3  1 -1</clus>
<clus scale="   43.116">  1  5  2 -1</clus>
<clus scale="  128.640">  1  6  2 -1</clus>
<clus scale="   38.380">  2  3  1 -1</clus>
</clustering>
</event>
<event>
 6    0  0.4189111E+002  0.1034278E+03  0.7546771E-02  0.1273248E+00
          2   -1    0    0  503    0 -0.00000000000E+00  0.00000000000E+00  0.43118072368E+03  0.43118072368E+03  0.00000000000E+00 0. -1.
         21   -1    0    0  505  502  0.00000000000E+00 -0.00000000000E+00 -0.27209317163E+03  0.27209317163E+03  0.00000000000E+00 0. -1.
         21    1    1    2  503  504  0.42827606545E+01  0.41111806473E+02  0.34290493004E+02  0.53706243406E+02  0.00000000000E+00 0.  1.
         21    1    1    2  504  502 -0.23353967015E+02  0.25576435697E+02 -0.31912230358E+02  0.47095140777E+02  0.00000000000E+00 0.  1.
         21    1    1    2  505  501  0.12209849499E+02 -0.12946507427E+03 -0.20090893252E+03  0.23932130086E+03  0.00000000000E+00 0. -1.
          2    1    1    2  501    0  0.68613568620E+01  0.62776832095E+02  0.35761822193E+03  0.36315121027E+03  0.00000000000E+00 0. -1.
<scales pt_clust_3="42.30884" pt_clust_4="34.63469" pt_clust_5="103.42783" pt_clust_6="14000.00000"></scales>
<clustering>
<clus scale="   34.635">  2  4  1 -1</clus>
<clus scale="   42.309">  1  3  2 -1</clus>
<clus scale="  103.428">  2  5  1 -1</clus>
<clus scale="   34.635">  2  3  1 -1</clus>
</clustering>
</event>
<event>
 6    0  0.4189111E+002  0.1150510E+03  0.7546771E-02  0.1251492E+00
          2   -1    0    0  505    0 -0.00000000000E+00  0.00000000000E+00  0.12330736431E+03  0.12330736431E+03  0.00000000000E+00 0. -1.
         21   -1    0    0  503  502  0.00000000000E+00 -0.00000000000E+00 -0.37376574142E+03  0.37376574142E+03  0.00000000000E+00 0. -1.
         21    1    1    2  503  504  0.95471169033E+02 -0.86266440796E+01 -0.23202949157E+03  0.25105148489E+03  0.00000000000E+00 0. -1.
         21    1    1    2  504  501 -0.16620164946E+02  0.46332412457E+02  0.14518066280E+02  0.51319553539E+02  0.00000000000E+00 0. -1.
         21    1    1    2  505  502 -0.20966334298E+02 -0.75462506181E+02 -0.79323329691E+02  0.11147361861E+03  0.00000000000E+00 0. -1.
          2    1    1    2  501    0 -0.57884669789E+02  0.37756737804E+02  0.46376377876E+02  0.83228448689E+02  0.00000000000E+00 0. -1.
<scales pt_clust_3="107.06843" pt_clust_4="35.53676" pt_clust_5="78.32099" pt_clust_6="35.53676"></scales>
<clustering>
<clus scale="   35.537">  4  6 -1 -1</clus>
<clus scale="   78.321">  2  5  1 -1</clus>
<clus scale="  107.068">  2  3  1 -1</clus>
<clus scale="   78.321">  2  3  1 -1</clus>
</clustering>
</event>
<event>
 6    0  0.4189111E+002  0.7649290E+02  0.7546771E-02  0.1339309E+00
         21   -1    0    0  505  502  0.00000000000E+00  0.00000000000E+00  0.59237184921E+02  0.59237184921E+02  0.00000000000E+00 0.  1.
         -2   -1    0    0    0  501 -0.00000000000E+00 -0.00000000000E+00 -0.18001669050E+04  0.18001669050E+04  0.00000000000E+00 0. -1.
         21    1    1    2  503  501 -0.25305788875E+02  0.19317476552E+02 -0.20421201287E+03  0.20667872181E+03  0.00000000000E+00 0. -1.
         21    1    1    2  504  502  0.13957424191E+02  0.73987457646E+02  0.26638493773E+02  0.79865905926E+02  0.00000000000E+00 0.  1.
         21    1    1    2  505  503 -0.31625212184E+02 -0.10489245265E+03 -0.71580853077E+03  0.72414393141E+03  0.00000000000E+00 0. -1.
         -2    1    1    2    0  504  0.42973576867E+02  0.11587518456E+02 -0.84754767024E+03  0.84871553080E+03  0.00000000000E+00 0. -1.
<scales pt_clust_3="31.83627" pt_clust_4="14000.00000" pt_clust_5="76.49290" pt_clust_6="36.72944"></scales>
<clustering>
<clus scale="   31.836">  2  3  1 -1</clus>
<clus scale="   36.729">  2  6  1 -1</clus>
<clus scale="   76.493">  2  5  1 -1</clus>
<clus scale="   76.493">  1  3  2 -1</clus>
</clustering>
</event>
<event>
 6    0  0.4189111E+002  0.1541647E+03  0.7546771E-02  0.1195447E+00
         21   -1    0    0  503  502  0.00000000000E+00  0.00000000000E+00  0.14008318105E+03  0.14008318105E+03  0.00000000000E+00 0. -1.
          1   -1    0    0  505    0 -0.00000000000E+00 -0.00000000000E+00 -0.11578298233E+04  0.11578298233E+04  0.00000000000E+00 0. -1.
         21    1    1    2  503  504 -0.31787296171E+02  0.39296954680E+02 -0.11363124969E+02  0.51805438460E+02  0.00000000000E+00 0. -1.
         21    1    1    2  504  501 -0.48883056322E+01  0.35053384747E+02 -0.11926108475E+03  0.12440193588E+03  0.00000000000E+00 0.  1.
         21    1    1    2  505  502  0.37051327151E+02 -0.17911841326E+03  0.41197397854E+02  0.18749248626E+03  0.00000000000E+00 0. -1.
          1    1    1    2  501    0 -0.37572534817E+00  0.10476807383E+03 -0.92831983037E+03  0.93421314374E+03  0.00000000000E+00 0. -1.
<scales pt_clust_3="50.54387" pt_clust_4="35.17394" pt_clust_5="141.78992" pt_clust_6="35.17394"></scales>
<clustering>
<clus scale="   35.174">  4  6 -1 -1</clus>
<clus scale="   50.544">  1  3  2 -1</clus>
<clus scale="  141.790">  1  5  2 -1</clus>
<clus scale="   50.544">  1  3  2 -1</clus>
</clustering>
</event>
<event>
 6    0  0.4189111E+002  0.1088204E+03  0.7546771E-02  0.1262770E+00
          1   -1    0    0  505    0 -0.00000000000E+00  0.00000000000E+00  0.42758254656E+03  0.42758254656E+03  0.00000000000E+00 0. -1.
         21   -1    0    0  503  502  0.00000000000E+00 -0.00000000000E+00 -0.55733080280E+03  0.55733080280E+03  0.00000000000E+00 0.  1.
         21    1    1    2  503  501 -0.83468310482E+02  0.78112684018E+01 -0.55792263789E+02  0.10070129824E+03  0.00000000000E+00 0.  1.
         21    1    1    2  504  502  0.18551173774E+03 -0.28146462255E+02 -0.43354172361E+03  0.47240369843E+03  0.00000000000E+00 0.  1.
         21    1    1    2  505  504 -0.12009053762E+02 -0.59739847841E+02  0.21566488780E+03  0.22410803337E+03  0.00000000000E+00 0. -1.
          1    1    1    2  501    0 -0.90034373499E+02  0.80075041695E+02  0.14392084337E+03  0.18770031931E+03  0.00000000000E+00 0. -1.
<scales pt_clust_3="84.77743" pt_clust_4="14000.00000" pt_clust_5="60.93494" pt_clust_6="108.82042"></scales>
<clustering>
<clus scale="   60.935">  1  5  2 -1</clus>
<clus scale="   84.777">  2  3  1 -1</clus>
<clus scale="  108.820">  1  6  2 -1</clus>
<clus scale="   84.777">  2  3  1 -1</clus>
</clustering>
</event>
<event>
 6    0  0.4307087E+002  0.1421592E+03  0.7546771E-02  0.1210453E+00
          2   -1    0    0  504    0 -0.00000000000E+00  0.00000000000E+00  0.30951548041E+04  0.30951548041E+04  0.00000000000E+00 0.  1.
         21   -1    0    0  505  502  0.00000000000E+00 -0.00000000000E+00 -0.18705202096E+03  0.18705202096E+03  0.00000000000E+00 0. -1.
         21    1    1    2  503  501  0.99658834286E+02  0.24755128366E+02  0.15810217710E+03  0.18852320291E+03  0.00000000000E+00 0. -1.
         21    1    1    2  504  502 -0.51307969551E+01  0.31434275223E+02  0.88106691640E+01  0.33046431385E+02  0.00000000000E+00 0. -1.
         21    1    1    2  505  503  0.33217198103E+02  0.17512510865E+02 -0.15561442626E+03  0.16008097934E+03  0.00000000000E+00 0. -1.
          2    1    1    2  501    0 -0.12774523543E+03 -0.73701914454E+02  0.28968043631E+04  0.29005562114E+04  0.00000000000E+00 0.  1.
<scales pt_clust_3="14000.00000" pt_clust_4="31.85025" pt_clust_5="54.05460" pt_clust_6="142.15921"></scales>
<clustering>
<clus scale="   31.850">  2  4  1 -1</clus>
<clus scale="   54.055">  2  5  1 -1</clus>
<clus scale="  142.159">  1  6  2 -1</clus>
<clus scale="   31.850">  2  3  1 -1</clus>
</clustering>
</event>
<event>
 6    0  0.4189111E+002  0.5880725E+02  0.7546771E-02  0.1402906E+00
         -1   -1    0    0    0  501 -0.00000000000E+00  0.00000000000E+00  0.43678875601E+03  0.43678875601E+03  0.00000000000E+00 0.  1.
         21   -1    0    0  503  502  0.00000000000E+00 -0.00000000000E+00 -0.17669076863E+04  0.17669076863E+04  0.00000000000E+00 0.  1.
         21    1    1    2  503  504 -0.21529529651E+02  0.40241851301E+02 -0.10562327418E+03  0.11506173687E+03  0.00000000000E+00 0.  1.
         21    1    1    2  504  501 -0.55062383015E+02 -0.33911297550E-01  0.21091431400E+02  0.58963680785E+02  0.00000000000E+00 0.  1.
         21    1    1    2  505  502 -0.26554985541E+02 -0.72854078327E+02 -0.16292251617E+04  0.16310694379E+04  0.00000000000E+00 0.  1.
         -1    1    1    2    0  505  0.10314689821E+03  0.32646138323E+02  0.38363807418E+03  0.39860158670E+03  0.00000000000E+00 0.  1.
<scales pt_clust_3="45.63910" pt_clust_4="55.31013" pt_clust_5="14000.00000" pt_clust_6="58.80725"></scales>
<clustering>
<clus scale="   45.639">  2  3  1 -1</clus>
<clus scale="   55.310">  1  4  2 -1</clus>
<clus scale="   58.807">  1  6  2 -1</clus>
<clus scale="   45.639">  2  3  1 -1</clus>
</clustering>
</event>
<event>
 6    0  0.4189111E+002  0.1339363E+03  0.7546771E-02  0.1221729E+00
         21   -1    0    0  503  502  0.00000000000E+00  0.00000000000E+00  0.33486221860E+03  0.33486221860E+03  0.00000000000E+00 0.  1.
          1   -1    0    0  504    0 -0.00000000000E+00 -0.00000000000E+00 -0.18861191553E+04  0.18861191553E+04  0.00000000000E+00 0.  1.
         21    1    1    2  503  501 -0.32235495974E+02 -0.73976029746E+00 -0.77465736727E+01  0.33161481415E+02  0.00000000000E+00 0. -1.
         21    1    1    2  504  505  0.43082811162E+02  0.33717190818E+02 -0.36823547266E+03  0.37227723661E+03  0.00000000000E+00 0. -1.
         21    1    1    2  505  502 -0.91279038722E+02 -0.54876389713E+02  0.31007455387E+03  0.32785592875E+03  0.00000000000E+00 0.  1.
          1    1    1    2  501    0  0.80431723534E+02  0.21898959192E+02 -0.14853494443E+04  0.14876867271E+04  0.00000000000E+00 0.  1.
<scales pt_clust_3="32.24398" pt_clust_4="54.54614" pt_clust_5="133.93634" pt_clust_6="14000.00000"></scales>
<clustering>
<clus scale="   32.244">  1  3  2 -1</clus>
<clus scale="   54.546">  2  4  1 -1</clus>
<clus scale="  133.936">  1  5  2 -1</clus>
<clus scale="   32.244">  1  3  2 -1</clus>
</clustering>
</event>
<event>
 6    0  0.4189111E+002  0.9811755E+02  0.7546771E-02  0.1284305E+00
         21   -1    0    0  504  502  0.00000000000E+00  0.00000000000E+00  0.56588937979E+03  0.56588937979E+03  0.00000000000E+00 0.  1.
          1   -1    0    0  503    0 -0.00000000000E+00 -0.00000000000E+00 -0.21635059515E+04  0.21635059515E+04  0.00000000000E+00 0.  1.
         21    1    1    2  503  505 -0.13065046818E+03 -0.49249353984E+02 -0.38645982504E+03  0.41090904112E+03  0.00000000000E+00 0. -1.
         21    1    1    2  504  501  0.60158245713E+02 -0.27842785231E+02 -0.17333956149E+03  0.18558243127E+03  0.00000000000E+00 0. -1.
         21    1    1    2  505  502  0.35951226450E+02  0.91339420162E+02  0.54292143117E+03  0.55172371780E+03  0.00000000000E+00 0.  1.
          1    1    1    2  501    0  0.34540996022E+02 -0.14247280947E+02 -0.15807386163E+04  0.15811801411E+04  0.00000000000E+00 0.  1.
<scales pt_clust_3="14000.00000" pt_clust_4="77.79072" pt_clust_5="98.11755" pt_clust_6="37.36396"></scales>
<clustering>
<clus scale="   37.364">  2  6  1 -1</clus>
<clus scale="   77.791">  2  4  1 -1</clus>
<clus scale="   98.118">  1  5  2 -1</clus>
<clus scale="   98.118">  1  3  2 -1</clus>
</clustering>
</event>
<event>
 6    0  0.4189111E+002  0.6913184E+02  0.7546771E-02  0.1363070E+00
          2   -1    0    0  503    0 -0.00000000000E+00  0.00000000000E+00  0.31089348648E+04  0.31089348648E+04  0.00000000000E+00 0. -1.
         21   -1    0    0  505  502  0.00000000000E+00 -0.00000000000E+00 -0.90005754655E+02  0.90005754655E+02  0.00000000000E+00 0. -1.
         21    1    1    2  503  502 -0.58687143045E+02 -0.11684531818E+02  0.12982662610E+04  0.12996445643E+04  0.00000000000E+00 0. -1.
         21    1    1    2  504  501  0.13466432725E+02  0.99167900458E+02  0.54899313992E+03  0.55804039726E+03  0.00000000000E+00 0. -1.
         21    1    1    2  505  504  0.19350830356E+02 -0.65779601447E+02 -0.70664502647E+02  0.98462594605E+02  0.00000000000E+00 0. -1.
          2    1    1    2  501    0  0.25869879964E+02 -0.21703767192E+02  0.12423342119E+04  0.12427930633E+04  0.00000000000E+00 0. -1.
<scales pt_clust_3="48.71082" pt_clust_4="14000.00000" pt_clust_5="69.13184" pt_clust_6="33.76839"></scales>
<clustering>
<clus scale="   33.768">  1  6  2 -1</clus>
<clus scale="   48.711">  1  3  2 -1</clus>
<clus scale="   69.132">  2  5  1 -1</clus>
<clus scale="   69.132">  2  3  1 -1</clus>
</clustering>
</event>
<event>
 6    0  0.4189111E+002  0.1460983E+03  0.7546771E-02  0.1205351E+00
          1   -1    0    0  505    0 -0.00000000000E+00  0.00000000000E+00  0.69513848111E+03  0.69513848111E+03  0.00000000000E+00 0. -1.
         21   -1    0    0  503  502  0.00000000000E+00 -0.00000000000E+00 -0.10114314905E+03  0.10114314905E+03  0.00000000000E+00 0.  1.
         21    1    1    2  503  504  0.43327192866E+02  0.56124422656E+01 -0.88087887711E+00  0.43698067434E+02  0.00000000000E+00 0.  1.
         21    1    1    2  504  501 -0.27614545874E+02  0.14619636482E+03  0.16862476352E+02  0.14973404201E+03  0.00000000000E+00 0.  1.
         21    1    1    2  505  502  0.25380480356E+02 -0.26412901625E+02  0.17464170077E+03  0.17844196200E+03  0.00000000000E+00 0. -1.
          1    1    1    2  501    0 -0.41093127347E+02 -0.12539590546E+03  0.40337203382E+03  0.42440755870E+03  0.00000000000E+00 0. -1.
<scales pt_clust_3="44.60476" pt_clust_4="146.09832" pt_clust_5="36.63073" pt_clust_6="14000.00000"></scales>
<clustering>
<clus scale="   36.631">  1  5  2 -1</clus>
<clus scale="   44.605">  2  3  1 -1</clus>
<clus scale="  146.098">  2  4  1 -1</clus>
<clus scale="   44.605">  2  3  1 -1</clus>
</clustering>
</event>
<event>
 6    0  0.4189111E+002  0.3583886E+03  0.7546771E-02  0.1059224E+00
         21   -1    0    0  504  502  0.00000000000E+00  0.00000000000E+00  0.13446114008E+04  0.13446114008E+04  0.00000000000E+00 0. -1.
          1   -1    0    0  505    0 -0.00000000000E+00 -0.00000000000E+00 -0.10215049101E+04  0.10215049101E+04  0.00000000000E+00 0.  1.
         21    1    1    2  503  502 -0.28695502783E+02  0.58801396380E+02  0.72880685240E+03  0.73173797510E+03  0.00000000000E+00 0. -1.
         21    1    1    2  504  501 -0.38013137789E+02  0.30635085777E+03  0.50814104052E+03  0.59456132044E+03  0.00000000000E+00 0. -1.
         21    1    1    2  505  503  0.99678499392E+02 -0.81424079798E+02 -0.64968795391E+02  0.14417568584E+03  0.00000000000E+00 0.  1.
          1    1    1    2  501    0 -0.32969858820E+02 -0.28372817436E+03 -0.84887260682E+03  0.89564132951E+03  0.00000000000E+00 0.  1.
<scales pt_clust_3="65.42963" pt_clust_4="14000.00000" pt_clust_5="124.88953" pt_clust_6="358.38861"></scales>
<clustering>
<clus scale="   65.430">  1  3  2 -1</clus>
<clus scale="  124.890">  2  5  1 -1</clus>
<clus scale="  358.389">  2  6  1 -1</clus>
<clus scale="   65.430">  1  3  2 -1</clus>
</clustering>
</event>
<event>
 6    0  0.4189111E+002  0.1333318E+03  0.7546771E-02  0.1222594E+00
         21   -1    0    0  505  502  0.00000000000E+00  0.00000000000E+00  0.25795841550E+03  0.25795841550E+03  0.00000000000E+00 0.  1.
          2   -1    0    0  503    0 -0.00000000000E+00 -0.00000000000E+00 -0.12193456683E+04  0.12193456683E+04  0.00000000000E+00 0. -1.
         21    1    1    2  503  502  0.18800432398E+03 -0.57458256576E+02  0.17871517320E+03  0.26568061693E+03  0.00000000000E+00 0.  1.
         21    1    1    2  504  501 -0.61814527239E+02  0.55574085203E+02 -0.72812151796E+03  0.73285091228E+03  0.00000000000E+00 0. -1.
         21    1    1    2  505  504 -0.79492617915E+02  0.16332747621E+02 -0.19768988311E+02  0.83526330260E+02  0.00000000000E+00 0.  1.
          2    1    1    2  501    0 -0.46697178823E+02 -0.14448576248E+02 -0.39221191970E+03  0.39524622430E+03  0.00000000000E+00 0. -1.
<scales pt_clust_3="117.41943" pt_clust_4="48.43936" pt_clust_5="81.15316" pt_clust_6="48.43936"></scales>
<clustering>
<clus scale="   48.439">  4  6 -1 -1</clus>
<clus scale="   81.153">  1  5  2 -1</clus>
<clus scale="  117.419">  1  3  2 -1</clus>
<clus scale="   81.153">  1  3  2 -1</clus>
</clustering>
</event>
<event>
 6    0  0.4189111E+002  0.9635557E+02  0.7546771E-02  0.1288152E+00
          2   -1    0    0  503    0 -0.00000000000E+00  0.00000000000E+00  0.96779419952E+03  0.96779419952E+03  0.00000000000E+00 0.  1.
         21   -1    0    0  505  502  0.00000000000E+00 -0.00000000000E+00 -0.19862550459E+04  0.19862550459E+04  0.00000000000E+00 0. -1.
         21    1    1    2  503  502  0.66063611069E+02 -0.26424631571E+01  0.87981249667E+03  0.88229326905E+03  0.00000000000E+00 0.  1.
         21    1    1    2  504  501 -0.68755698712E+02 -0.66595836469E+02 -0.15281579327E+04  0.15311528398E+04  0.00000000000E+00 0. -1.
         21    1    1    2  505  504  0.32766544030E+02 -0.23731440340E+02 -0.42608111991E+03  0.42799760328E+03  0.00000000000E+00 0. -1.
          2    1    1    2  501    0 -0.30074456387E+02  0.92969739966E+02  0.55965709582E+02  0.11260553328E+03  0.00000000000E+00 0.  1.
<scales pt_clust_3="66.14324" pt_clust_4="14000.00000" pt_clust_5="40.45773" pt_clust_6="96.35557"></scales>
<clustering>
<clus scale="   40.458">  2  5  1 -1</clus>
<clus scale="   66.143">  1  3  2 -1</clus>
<clus scale="   96.356">  1  6  2 -1</clus>
<clus scale="   40.458">  2  3  1 -1</clus>
</clustering>
</event>
<event>
 6    0  0.4189111E+002  0.8332173E+02  0.7546771E-02  0.1319881E+00
          2   -1    0    0  503    0 -0.00000000000E+00  0.00000000000E+00  0.24409186634E+04  0.24409186634E+04  0.00000000000E+00 0. -1.
         21   -1    0    0  504  502  0.00000000000E+00 -0.00000000000E+00 -0.76934360816E+02  0.76934360816E+02  0.00000000000E+00 0.  1.
         21    1    1    2  503  505  0.18122008301E+02  0.91986566818E+02  0.16129236056E+04  0.16156461535E+04  0.00000000000E+00 0. -1.
         21    1    1    2  504  501  0.56037436073E+02 -0.16120112743E+02  0.84834726876E+02  0.10294164930E+03  0.00000000000E+00 0.  1.
         21    1    1    2  505  502 -0.96579784955E+02 -0.55731264432E+02 -0.19225689930E+02  0.11315147304E+03  0.00000000000E+00 0.  1.
          2    1    1    2  501    0  0.22420340581E+02 -0.20135189643E+02  0.68545165996E+03  0.68611374835E+03  0.00000000000E+00 0. -1.
<scales pt_clust_3="14000.00000" pt_clust_4="59.76448" pt_clust_5="83.32173" pt_clust_6="30.13466"></scales>
<clustering>
<clus scale="   30.135">  1  6  2 -1</clus>
<clus scale="   59.764">  2  4  1 -1</clus>
<clus scale="   83.322">  2  5  1 -1</clus>
<clus scale="   59.764">  2  3  1 -1</clus>
</clustering>
</event>
<event>
 6    0  0.4189111E+002  0.2024567E+03  0.7546771E-02  0.1147683E+00
         -1   -1    0    0    0  501 -0.00000000000E+00  0.00000000000E+00  0.17571022415E+04  0.17571022415E+04  0.00000000000E+00 0.  1.
         21   -1    0    0  504  502  0.00000000000E+00 -0.00000000000E+00 -0.15283454070E+04  0.15283454070E+04  0.00000000000E+00 0.  1.
         21    1    1    2  503  502 -0.82371662449E+02  0.17236775130E+03  0.53327170707E+03  0.56645780604E+03  0.00000000000E+00 0.  1.
         21    1    1    2  504  505 -0.54913351223E+02  0.11130019706E+02 -0.14904125783E+04  0.14914653891E+04  0.00000000000E+00 0.  1.
         21    1    1    2  505  501  0.46840812231E+02 -0.44322295918E+00  0.34534106368E+02  0.58196757982E+02  0.00000000000E+00 0.  1.
         -1    1    1    2    0  503  0.90444201441E+02 -0.18305454804E+03  0.11513635993E+04  0.11693276953E+04  0.00000000000E+00 0.  1.
<scales pt_clust_3="14000.00000" pt_clust_4="56.01578" pt_clust_5="46.84291" pt_clust_6="202.45672"></scales>
<clustering>
<clus scale="   46.843">  1  5  2 -1</clus>
<clus scale="   56.016">  2  4  1 -1</clus>
<clus scale="  202.457">  1  6  2 -1</clus>
<clus scale="   56.016">  2  3  1 -1</clus>
</clustering>
</event>
<event>
 6    0  0.4189111E+002  0.1927050E+03  0.7546771E-02  0.1156044E+00
          1   -1    0    0  502    0 -0.00000000000E+00  0.00000000000E+00  0.81062851385E+03  0.81062851385E+03  0.00000000000E+00 0. -1.
         21   -1    0    0  503  502  0.00000000000E+00 -0.00000000000E+00 -0.14773930566E+03  0.14773930566E+03  0.00000000000E+00 0.  1.
         21    1    1    2  503  504  0.17901636190E+02 -0.34253564267E+02 -0.48323933422E+02  0.61878734510E+02  0.00000000000E+00 0.  1.
         21    1    1    2  504  505  0.14457768603E+03 -0.66908379035E+02  0.94945624386E+00  0.15931208350E+03  0.00000000000E+00 0.  1.
         21    1    1    2  505  501 -0.51889754816E+02  0.60055385512E+02  0.28031035666E+03  0.29132986808E+03  0.00000000000E+00 0. -1.
          1    1    1    2  501    0 -0.11058956740E+03  0.41106557790E+02  0.42995332870E+03  0.44584713341E+03  0.00000000000E+00 0. -1.
<scales pt_clust_3="38.64939" pt_clust_4="186.58259" pt_clust_5="39.37273" pt_clust_6="39.37273"></scales>
<clustering>
<clus scale="   38.649">  2  3  1 -1</clus>
<clus scale="   39.373">  5  6 -1 -1</clus>
<clus scale="  186.583">  2  4  1 -1</clus>
<clus scale="   38.649">  2  3  1 -1</clus>
</clustering>
</event>
<event>
 6    0  0.4189111E+002  0.1040214E+03  0.7546771E-02  0.1272060E+00
          2   -1    0    0  503    0 -0.00000000000E+00  0.00000000000E+00  0.29939819899E+04  0.29939819899E+04  0.00000000000E+00 0.  1.
         21   -1    0    0  501  502  0.00000000000E+00 -0.00000000000E+00 -0.29316738131E+02  0.29316738131E+02  0.00000000000E+00 0.  1.
         21    1    1    2  503  505 -0.50624749038E+02  0.90627504333E+02  0.24740081602E+04  0.24761850873E+04  0.00000000000E+00 0.  1.
         21    1    1    2  504  502  0.31227820455E+02  0.15551761776E+02  0.47001430072E+01  0.35201213175E+02  0.00000000000E+00 0.  1.
         21    1    1    2  505  504 -0.10679072045E+02 -0.12449502586E+03  0.39856285069E+03  0.41769055530E+03  0.00000000000E+00 0.  1.
          2    1    1    2  501    0  0.30076000628E+02  0.18315759749E+02  0.87394097804E+02  0.94221872195E+02  0.00000000000E+00 0.  1.
<scales pt_clust_3="104.02136" pt_clust_4="34.88602" pt_clust_5="14000.00000" pt_clust_6="43.65637"></scales>
<clustering>
<clus scale="   34.886">  2  4  1 -1</clus>
<clus scale="   43.656">  2  6  1 -1</clus>
<clus scale="  104.021">  1  3  2 -1</clus>
<clus scale="   34.886">  2  3  1 -1</clus>
</clustering>
</event>
<event>
 6    0  0.4189111E+002  0.8448138E+02  0.7546771E-02  0.1316794E+00
         21   -1    0    0  505  502  0.00000000000E+00  0.00000000000E+00  0.13597234202E+03  0.13597234202E+03  0.00000000000E+00 0. -1.
          2   -1    0    0  503    0 -0.00000000000E+00 -0.00000000000E+00 -0.34119945450E+04  0.34119945450E+04  0.00000000000E+00 0.  1.
         21    1    1    2  503  504 -0.28971568328E+02 -0.12406179629E+02 -0.32459853133E+03  0.32612493251E+03  0.00000000000E+00 0.  1.
         21    1    1    2  504  502  0.27132535268E+02 -0.27233544689E+02 -0.35184446267E+02  0.52113200684E+02  0.00000000000E+00 0. -1.
         21    1    1    2  505  501 -0.95703123002E+02 -0.20911653286E+02  0.10656231136E+03  0.14474775023E+03  0.00000000000E+00 0. -1.
          2    1    1    2  501    0  0.97542156063E+02  0.60551377605E+02 -0.30228015368E+04  0.30249810036E+04  0.00000000000E+00 0.  1.
<scales pt_clust_3="31.51611" pt_clust_4="38.28006" pt_clust_5="84.48138" pt_clust_6="14000.00000"></scales>
<clustering>
<clus scale="   31.516">  2  3  1 -1</clus>
<clus scale="   38.280">  1  4  2 -1</clus>
<clus scale="   84.481">  1  5  2 -1</clus>
<clus scale="   38.280">  1  3  2 -1</clus>
</clustering>
</event>
<event>
 6    0  0.4189111E+002  0.8949356E+02  0.7546771E-02  0.1304083E+00
          1   -1    0    0  504    0 -0.00000000000E+00  0.00000000000E+00  0.13300776984E+04  0.13300776984E+04  0.00000000000E+00 0.  1.
         21   -1    0    0  503  502  0.00000000000E+00 -0.00000000000E+00 -0.32723709879E+02  0.32723709879E+02  0.00000000000E+00 0.  1.
         21    1    1    2  503  501 -0.25642333317E+02 -0.26001024005E+02  0.11276805186E+03  0.11853360716E+03  0.00000000000E+00 0.  1.
         21    1    1    2  504  505 -0.79949197291E+02  0.53185251232E+02  0.15768175753E+03  0.18461874703E+03  0.00000000000E+00 0.  1.
         21    1    1    2  505  502  0.97871963098E+02  0.60060282614E+02  0.22149779044E+03  0.24949434839E+03  0.00000000000E+00 0.  1.
          1    1    1    2  501    0  0.77195675105E+01 -0.87244509842E+02  0.80540638867E+03  0.81015470568E+03  0.00000000000E+00 0.  1.
<scales pt_clust_3="36.51825" pt_clust_4="88.71797" pt_clust_5="14000.00000" pt_clust_6="89.49356"></scales>
<clustering>
<clus scale="   36.518">  2  3  1 -1</clus>
<clus scale="   89.494">  1  6  2 -1</clus>
<clus scale="   88.718">  1  4  2 -1</clus>
<clus scale="   36.518">  2  3  1 -1</clus>
</clustering>
</event>
<event>
 6    0  0.4189111E+002  0.9606858E+02  0.7546771E-02  0.1288787E+00
          2   -1    0    0  505    0 -0.00000000000E+00  0.00000000000E+00  0.10198068692E+03  0.10198068692E+03  0.00000000000E+00 0.  1.
         21   -1    0    0  503  502  0.00000000000E+00 -0.00000000000E+00 -0.36501752760E+03  0.36501752760E+03  0.00000000000E+00 0. -1.
         21    1    1    2  503  504  0.39296079864E+02  0.33781650583E+02 -0.16024691116E+03  0.16841750012E+03  0.00000000000E+00 0. -1.
         21    1    1    2  504  501  0.46414045299E+02  0.50797539004E+02 -0.39157682951E+02  0.79170560842E+02  0.00000000000E+00 0. -1.
         21    1    1    2  505  502 -0.32425017974E+02  0.23180745644E+02 -0.88130467732E+02  0.96724909417E+02  0.00000000000E+00 0. -1.
          2    1    1    2  501    0 -0.53285107189E+02 -0.10775993523E+03  0.24498221170E+02  0.12268524414E+03  0.00000000000E+00 0.  1.
<scales pt_clust_3="51.67848" pt_clust_4="96.06858" pt_clust_5="39.85886" pt_clust_6="14000.00000"></scales>
<clustering>
<clus scale="   39.859">  2  5  1 -1</clus>
<clus scale="   51.678">  2  3  1 -1</clus>
<clus scale="   96.069">  2  4  1 -1</clus>
<clus scale="   39.859">  2  3  1 -1</clus>
</clustering>
</event>
<event>
 6    0  0.4189111E+002  0.1661941E+03  0.7546771E-02  0.1181876E+00
          2   -1    0    0  505    0 -0.00000000000E+00  0.00000000000E+00  0.23464355983E+03  0.23464355983E+03  0.00000000000E+00 0. -1.
         21   -1    0    0  503  502  0.00000000000E+00 -0.00000000000E+00 -0.85867648790E+03  0.85867648790E+03  0.00000000000E+00 0.  1.
         21    1    1    2  503  501 -0.10382347371E+03  0.34533975346E+02 -0.51134904887E+03  0.52292423822E+03  0.00000000000E+00 0.  1.
         21    1    1    2  504  502 -0.62078577682E+02 -0.77113242815E+02 -0.21239065825E+03  0.23432881542E+03  0.00000000000E+00 0.  1.
         21    1    1    2  505  504 -0.65959897805E+02 -0.25143617952E+02 -0.90407165711E+01  0.71166313648E+02  0.00000000000E+00 0.  1.
          2    1    1    2  501    0  0.23186194919E+03  0.67722885421E+02  0.10874749561E+03  0.26490068044E+03  0.00000000000E+00 0. -1.
<scales pt_clust_3="14000.00000" pt_clust_4="102.29789" pt_clust_5="70.58973" pt_clust_6="166.19414"></scales>
<clustering>
<clus scale="   70.590">  1  5  2 -1</clus>
<clus scale="  102.298">  2  4  1 -1</clus>
<clus scale="  166.194">  1  6  2 -1</clus>
<clus scale="  102.298">  2  3  1 -1</clus>
</clustering>
</event>
<event>
 6    0  0.4189111E+002  0.1749598E+03  0.7546771E-02  0.1172772E+00
          1   -1    0    0  503    0 -0.00000000000E+00  0.00000000000E+00  0.29904329740E+04  0.29904329740E+04  0.00000000000E+00 0.  1.
         21   -1    0    0  504  502  0.00000000000E+00 -0.00000000000E+00 -0.16749604792E+03  0.16749604792E+03  0.00000000000E+00 0.  1.
         21    1    1    2  503  502 -0.16629422333E+03  0.70582673016E+02 -0.52900470942E+02  0.18823958741E+03  0.00000000000E+00 0.  1.
         21    1    1    2  504  505  0.12287373129E+03 -0.52404928839E+02  0.95670113615E+02  0.16430764147E+03  0.00000000000E+00 0.  1.
         21    1    1    2  505  501  0.65395553667E+01  0.16130185716E+03  0.76193680746E+03  0.77885091864E+03  0.00000000000E+00 0.  1.
          1    1    1    2  501    0  0.36880936674E+02 -0.17947960134E+03  0.20182304759E+04  0.20265308744E+04  0.00000000000E+00 0.  1.
<scales pt_clust_3="59.71734" pt_clust_4="133.58230" pt_clust_5="14000.00000" pt_clust_6="174.95978"></scales>
<clustering>
<clus scale="  133.582">  2  4  1 -1</clus>
<clus scale="   59.717">  2  3  1 -1</clus>
<clus scale="  174.960">  1  6  2 -1</clus>
<clus scale="  133.582">  2  3  1 -1</clus>
</clustering>
</event>
<event>
 6    0  0.4189111E+002  0.1496207E+03  0.7546771E-02  0.1200940E+00
          2   -1    0    0  504    0 -0.00000000000E+00  0.00000000000E+00  0.15664453197E+04  0.15664453197E+04  0.00000000000E+00 0. -1.
         21   -1    0    0  505  502  0.00000000000E+00 -0.00000000000E+00 -0.11716205550E+03  0.11716205550E+03  0.00000000000E+00 0.  1.
         21    1    1    2  503  502  0.46472592943E+02 -0.95106897073E+02  0.85554447210E+02  0.13610505943E+03  0.00000000000E+00 0. -1.
         21    1    1    2  504  503 -0.11683487571E+02 -0.29166833016E+02  0.15546127001E+03  0.15860458538E+03  0.00000000000E+00 0.  1.
         21    1    1    2  505  501 -0.11904870538E+02  0.19843732311E+03  0.21903022478E+02  0.19999709883E+03  0.00000000000E+00 0.  1.
          2    1    1    2  501    0 -0.22884234834E+02 -0.74163593022E+02  0.11863645245E+04  0.11889006315E+04  0.00000000000E+00 0. -1.
<scales pt_clust_3="149.62071" pt_clust_4="31.41987" pt_clust_5="14000.00000" pt_clust_6="104.02383"></scales>
<clustering>
<clus scale="   31.420">  1  4  2 -1</clus>
<clus scale="  104.024">  1  6  2 -1</clus>
<clus scale="  149.621">  2  3  1 -1</clus>
<clus scale="  149.621">  2  3  1 -1</clus>
</clustering>
</event>
<event>
 6    0  0.4189111E+002  0.1018411E+03  0.7546771E-02  0.1276471E+00
         21   -1    0    0  503  502  0.00000000000E+00  0.00000000000E+00  0.45087556453E+03  0.45087556453E+03  0.00000000000E+00 0. -1.
         -1   -1    0    0    0  501 -0.00000000000E+00 -0.00000000000E+00 -0.35723897481E+03  0.35723897481E+03  0.00000000000E+00 0.  1.
         21    1    1    2  503  504 -0.22833720697E+01 -0.87839170002E+02  0.40405352663E+03  0.41349750417E+03  0.00000000000E+00 0. -1.
         21    1    1    2  504  501  0.10337005739E+02  0.54160918223E+02 -0.59561665667E+02  0.81165576246E+02  0.00000000000E+00 0.  1.
         21    1    1    2  505  502  0.40349647032E+02 -0.11576186404E+02  0.10957014040E+02  0.43383847961E+02  0.00000000000E+00 0.  1.
         -1    1    1    2    0  505 -0.48403280701E+02  0.45254438183E+02 -0.26181228529E+03  0.27006761095E+03  0.00000000000E+00 0.  1.
<scales pt_clust_3="14000.00000" pt_clust_4="55.05182" pt_clust_5="41.97740" pt_clust_6="101.84111"></scales>
<clustering>
<clus scale="   41.977">  1  5  2 -1</clus>
<clus scale="   55.052">  2  4  1 -1</clus>
<clus scale="  101.841">  2  6  1 -1</clus>
<clus scale="   41.977">  1  3  2 -1</clus>
</clustering>
</event>
<event>
 6    0  0.4189111E+002  0.3791780E+03  0.7546771E-02  0.1051238E+00
          2   -1    0    0  505    0 -0.00000000000E+00  0.00000000000E+00  0.95916549477E+03  0.95916549477E+03  0.00000000000E+00 0.  1.
         21   -1    0    0  503  502  0.00000000000E+00 -0.00000000000E+00 -0.18448259044E+04  0.18448259044E+04  0.00000000000E+00 0.  1.
         21    1    1    2  503  501 -0.25353057763E+02  0.21779873172E+02  0.10417812025E+03  0.10940850585E+03  0.00000000000E+00 0. -1.
         21    1    1    2  504  502  0.31813717286E+02 -0.35414892144E+02 -0.10167955436E+03  0.11227225378E+03  0.00000000000E+00 0.  1.
         21    1    1    2  505  504  0.32645122577E+03  0.10431012887E+03 -0.16820882758E+04  0.17166455584E+04  0.00000000000E+00 0.  1.
          2    1    1    2  501    0 -0.33291188529E+03 -0.90675109894E+02  0.79392930024E+03  0.86566508113E+03  0.00000000000E+00 0.  1.
<scales pt_clust_3="32.74844" pt_clust_4="47.60596" pt_clust_5="364.28658" pt_clust_6="32.74844"></scales>
<clustering>
<clus scale="   32.748">  3  6 -1 -1</clus>
<clus scale="   47.606">  2  4  1 -1</clus>
<clus scale="  364.287">  2  5  1 -1</clus>
<clus scale="   47.606">  2  3  1 -1</clus>
</clustering>
</event>
<event>
 6    0  0.4189111E+002  0.9476981E+02  0.7546771E-02  0.1291695E+00
          1   -1    0    0  505    0 -0.00000000000E+00  0.00000000000E+00  0.13415921393E+03  0.13415921393E+03  0.00000000000E+00 0.  1.
         21   -1    0    0  504  502  0.00000000000E+00 -0.00000000000E+00 -0.54219388017E+03  0.54219388017E+03  0.00000000000E+00 0.  1.
         21    1    1    2  503  502  0.13160942142E+03 -0.77766718991E+02 -0.42723172739E+03  0.45375726031E+03  0.00000000000E+00 0.  1.
         21    1    1    2  504  501 -0.31229964566E+02  0.39923630354E+02 -0.56639403902E+02  0.76008085240E+02  0.00000000000E+00 0.  1.
         21    1    1    2  505  503 -0.48492866113E+02  0.31723400357E+02  0.44411004154E+01  0.58117601181E+02  0.00000000000E+00 0.  1.
          1    1    1    2  501    0 -0.51886590743E+02  0.61196882801E+01  0.71395364636E+02  0.88470147367E+02  0.00000000000E+00 0.  1.
<scales pt_clust_3="14000.00000" pt_clust_4="50.68735" pt_clust_5="94.76981" pt_clust_6="52.89050"></scales>
<clustering>
<clus scale="   50.687">  2  4  1 -1</clus>
<clus scale="   52.890">  1  6  2 -1</clus>
<clus scale="   94.770">  1  5  2 -1</clus>
<clus scale="   50.687">  2  3  1 -1</clus>
</clustering>
</event>
<event>
 6    0  0.4189111E+002  0.1401963E+03  0.7546771E-02  0.1213065E+00
         -1   -1    0    0    0  501 -0.00000000000E+00  0.00000000000E+00  0.86656582320E+03  0.86656582320E+03  0.00000000000E+00 0.  1.
         21   -1    0    0  505  502  0.00000000000E+00 -0.00000000000E+00 -0.66925684462E+03  0.66925684462E+03  0.00000000000E+00 0.  1.
         21    1    1    2  503  502  0.29777152630E+02 -0.10647009917E+02 -0.71800592265E+00  0.31631521801E+02  0.00000000000E+00 0.  1.
         21    1    1    2  504  503 -0.12242318676E+03 -0.77469990917E+02  0.26439736399E+03  0.30148798025E+03  0.00000000000E+00 0.  1.
         21    1    1    2  505  501  0.55798515452E+02 -0.60067172400E+02 -0.62153654817E+03  0.62692042576E+03  0.00000000000E+00 0.  1.
         -1    1    1    2    0  504  0.36847518678E+02  0.14818417323E+03  0.55516616869E+03  0.57578274000E+03  0.00000000000E+00 0.  1.
<scales pt_clust_3="31.62337" pt_clust_4="14000.00000" pt_clust_5="109.69938" pt_clust_6="140.19634"></scales>
<clustering>
<clus scale="   31.623">  2  3  1 -1</clus>
<clus scale="  109.699">  2  5  1 -1</clus>
<clus scale="  140.196">  1  6  2 -1</clus>
<clus scale="   31.623">  2  3  1 -1</clus>
</clustering>
</event>
<event>
 6    0  0.4189111E+002  0.2015180E+03  0.7546771E-02  0.1148465E+00
          2   -1    0    0  504    0 -0.00000000000E+00  0.00000000000E+00  0.13657353570E+04  0.13657353570E+04  0.00000000000E+00 0. -1.
         21   -1    0    0  503  502  0.00000000000E+00 -0.00000000000E+00 -0.76366816710E+02  0.76366816710E+02  0.00000000000E+00 0.  1.
         21    1    1    2  503  505  0.12381280054E+03  0.14962358853E+03  0.39745129328E+03  0.44236224788E+03  0.00000000000E+00 0.  1.
         21    1    1    2  504  502  0.26333104868E+02 -0.46080522866E+02 -0.26912773470E+02  0.59507515285E+02  0.00000000000E+00 0.  1.
         21    1    1    2  505  501 -0.41198054807E+02  0.93489281744E+01  0.17351081499E+03  0.17857963236E+03  0.00000000000E+00 0. -1.
          2    1    1    2  501    0 -0.10894785061E+03 -0.11289199384E+03  0.74531920545E+03  0.76165277814E+03  0.00000000000E+00 0. -1.
<scales pt_clust_3="184.62414" pt_clust_4="53.07398" pt_clust_5="41.91132" pt_clust_6="41.91132"></scales>
<clustering>
<clus scale="   41.911">  5  6 -1 -1</clus>
<clus scale="   53.074">  2  4  1 -1</clus>
<clus scale="  184.624">  2  3  1 -1</clus>
<clus scale="   53.074">  2  3  1 -1</clus>
</clustering>
</event>
<event>
 6    0  0.4189111E+002  0.1135092E+03  0.7546771E-02  0.1254206E+00
         21   -1    0    0  505  502  0.00000000000E+00  0.00000000000E+00  0.17673188087E+03  0.17673188087E+03  0.00000000000E+00 0.  1.
          2   -1    0    0  503    0 -0.00000000000E+00 -0.00000000000E+00 -0.47668357549E+03  0.47668357549E+03  0.00000000000E+00 0.  1.
         21    1    1    2  503  504  0.12275914865E+02 -0.35583184978E+02 -0.10639131046E+03  0.11285376414E+03  0.00000000000E+00 0. -1.
         21    1    1    2  504  502  0.13802763172E+02  0.31301088213E+02  0.98838981320E+02  0.10459167569E+03  0.00000000000E+00 0.  1.
         21    1    1    2  505  501  0.66383580352E+02  0.59599187476E+02  0.31507387433E+02  0.94612675425E+02  0.00000000000E+00 0.  1.
          2    1    1    2  501    0 -0.92462258390E+02 -0.55317090712E+02 -0.32390675291E+03  0.34135734111E+03  0.00000000000E+00 0.  1.
<scales pt_clust_3="36.57430" pt_clust_4="34.20927" pt_clust_5="113.50918" pt_clust_6="14000.00000"></scales>
<clustering>
<clus scale="   34.209">  1  4  2 -1</clus>
<clus scale="   36.574">  2  3  1 -1</clus>
<clus scale="  113.509">  1  5  2 -1</clus>
<clus scale="   34.209">  1  3  2 -1</clus>
</clustering>
</event>
<event>
 6    0  0.4438125E+002  0.7353537E+02  0.7546771E-02  0.1348467E+00
         21   -1    0    0  505  502  0.00000000000E+00  0.00000000000E+00  0.79406090444E+03  0.79406090444E+03  0.00000000000E+00 0.  1.
          2   -1    0    0  504    0 -0.00000000000E+00 -0.00000000000E+00 -0.10845083139E+04  0.10845083139E+04  0.00000000000E+00 0. -1.
         21    1    1    2  503  502 -0.51389633507E+01 -0.57213711177E+02  0.74905212819E+03  0.75125156135E+03  0.00000000000E+00 0.  1.
         21    1    1    2  504  503 -0.64809740010E+02 -0.20694039366E+02 -0.23309127827E+03  0.24281698802E+03  0.00000000000E+00 0.  1.
         21    1    1    2  505  501  0.55115739025E+02  0.18602356902E+01  0.16803786111E+02  0.57650432720E+02  0.00000000000E+00 0. -1.
          2    1    1    2  501    0  0.14832964336E+02  0.76047514854E+02 -0.82321204553E+03  0.82685023629E+03  0.00000000000E+00 0. -1.
<scales pt_clust_3="14000.00000" pt_clust_4="67.69250" pt_clust_5="55.14712" pt_clust_6="73.53537"></scales>
<clustering>
<clus scale="   55.147">  1  5  2 -1</clus>
<clus scale="   67.692">  2  4  1 -1</clus>
<clus scale="   73.535">  2  6  1 -1</clus>
<clus scale="   55.147">  1  3  2 -1</clus>
</clustering>
</event>
<event>
 6    0  0.4189111E+002  0.9306836E+02  0.7546771E-02  0.1295587E+00
         21   -1    0    0  505  502  0.00000000000E+00  0.00000000000E+00  0.11512164900E+03  0.11512164900E+03  0.00000000000E+00 0. -1.
          2   -1    0    0  504    0 -0.00000000000E+00 -0.00000000000E+00 -0.96746625237E+03  0.96746625237E+03  0.00000000000E+00 0.  1.
         21    1    1    2  503  501 -0.59117669961E+01 -0.64607622012E+02 -0.52920922746E+02  0.83724057924E+02  0.00000000000E+00 0.  1.
         21    1    1    2  504  502  0.31160152120E+02  0.10751569521E+02 -0.16894431440E+02  0.37040155791E+02  0.00000000000E+00 0. -1.
         21    1    1    2  505  503 -0.51732981809E+02 -0.40908115406E+02  0.74308050947E+02  0.99355230101E+02  0.00000000000E+00 0. -1.
          2    1    1    2  501    0  0.26484596684E+02  0.94764167897E+02 -0.85683730013E+03  0.86246845756E+03  0.00000000000E+00 0.  1.
<scales pt_clust_3="93.06836" pt_clust_4="32.96288" pt_clust_5="41.23258" pt_clust_6="14000.00000"></scales>
<clustering>
<clus scale="   32.963">  1  4  2 -1</clus>
<clus scale="   41.233">  1  5  2 -1</clus>
<clus scale="   93.068">  1  3  2 -1</clus>
<clus scale="   32.963">  1  3  2 -1</clus>
</clustering>
</event>
<event>
 6    0  0.4189111E+002  0.9522459E+02  0.7546771E-02  0.1290671E+00
          3   -1    0    0  503    0 -0.00000000000E+00  0.00000000000E+00  0.20099352295E+03  0.20099352295E+03  0.00000000000E+00 0.  1.
         21   -1    0    0  504  502  0.00000000000E+00 -0.00000000000E+00 -0.20463066387E+03  0.20463066387E+03  0.00000000000E+00 0.  1.
         21    1    1    2  503  502 -0.61608482348E+02  0.24015105286E+02  0.44288813055E+02  0.79585358835E+02  0.00000000000E+00 0.  1.
         21    1    1    2  504  505  0.31715159694E+02 -0.22594786703E+02 -0.90875228026E+02  0.98866995551E+02  0.00000000000E+00 0.  1.
         21    1    1    2  505  501  0.85368035204E+02  0.26933535634E+02 -0.59343757533E+02  0.10740017847E+03  0.00000000000E+00 0.  1.
          3    1    1    2  501    0 -0.55474712549E+02 -0.28353854217E+02  0.10229303158E+03  0.11977165396E+03  0.00000000000E+00 0.  1.
<scales pt_clust_3="60.07242" pt_clust_4="38.94067" pt_clust_5="95.22459" pt_clust_6="14000.00000"></scales>
<clustering>
<clus scale="   38.941">  2  4  1 -1</clus>
<clus scale="   60.072">  1  3  2 -1</clus>
<clus scale="   95.225">  2  5  1 -1</clus>
<clus scale="   38.941">  2  3  1 -1</clus>
</clustering>
</event>
<event>
 6    0  0.4189111E+002  0.9832406E+02  0.7546771E-02  0.1283860E+00
         21   -1    0    0  504  502  0.00000000000E+00  0.00000000000E+00  0.13549402841E+04  0.13549402841E+04  0.00000000000E+00 0.  1.
          2   -1    0    0  503    0 -0.00000000000E+00 -0.00000000000E+00 -0.32959384951E+03  0.32959384951E+03  0.00000000000E+00 0.  1.
         21    1    1    2  503  502  0.30878006449E+02  0.86214274064E+01  0.49264435126E+01  0.32435322389E+02  0.00000000000E+00 0. -1.
         21    1    1    2  504  505 -0.21508150320E+02 -0.68007746987E+02  0.77242063528E+03  0.77570696270E+03  0.00000000000E+00 0.  1.
         21    1    1    2  505  501  0.30596989865E+02  0.16219431419E+03  0.53978333484E+03  0.56445479883E+03  0.00000000000E+00 0. -1.
          2    1    1    2  501    0 -0.39966845994E+02 -0.10280799461E+03 -0.29178397905E+03  0.31193704968E+03  0.00000000000E+00 0.  1.
<scales pt_clust_3="32.05901" pt_clust_4="71.23672" pt_clust_5="98.32406" pt_clust_6="14000.00000"></scales>
<clustering>
<clus scale="   32.059">  2  3  1 -1</clus>
<clus scale="   71.237">  1  4  2 -1</clus>
<clus scale="   98.324">  1  5  2 -1</clus>
<clus scale="   71.237">  1  3  2 -1</clus>
</clustering>
</event>
<event>
 6    0  0.4189111E+002  0.5946975E+02  0.7546771E-02  0.1400071E+00
          2   -1    0    0  503    0 -0.00000000000E+00  0.00000000000E+00  0.31998428382E+03  0.31998428382E+03  0.00000000000E+00 0.  1.
         21   -1    0    0  505  502  0.00000000000E+00 -0.00000000000E+00 -0.15205507675E+04  0.15205507675E+04  0.00000000000E+00 0. -1.
         21    1    1    2  503  504 -0.59127084502E+02 -0.63743441943E+02  0.79964154196E+02  0.11812495278E+03  0.00000000000E+00 0.  1.
         21    1    1    2  504  502 -0.39630984819E+02  0.68625269290E+02 -0.12969233094E+04  0.12993421847E+04  0.00000000000E+00 0. -1.
         21    1    1    2  505  501  0.46245783982E+02 -0.10033903282E+02 -0.19733177607E+03  0.20292654237E+03  0.00000000000E+00 0.  1.
          2    1    1    2  501    0  0.52512285338E+02  0.51520759352E+01  0.21372444750E+03  0.22014137153E+03  0.00000000000E+00 0.  1.
<scales pt_clust_3="59.46975" pt_clust_4="14000.00000" pt_clust_5="47.32179" pt_clust_6="52.87389"></scales>
<clustering>
<clus scale="   47.322">  2  5  1 -1</clus>
<clus scale="   52.874">  1  6  2 -1</clus>
<clus scale="   59.470">  1  3  2 -1</clus>
<clus scale="   47.322">  2  3  1 -1</clus>
</clustering>
</event>
<event>
 6    0  0.4189111E+002  0.1672352E+03  0.7546771E-02  0.1180762E+00
         21   -1    0    0  505  502  0.00000000000E+00  0.00000000000E+00  0.25038951368E+03  0.25038951368E+03  0.00000000000E+00 0.  1.
          1   -1    0    0  504    0 -0.00000000000E+00 -0.00000000000E+00 -0.11190741791E+04  0.11190741791E+04  0.00000000000E+00 0.  1.
         21    1    1    2  503  502  0.13945746868E+03  0.26721876745E+02  0.17090911023E+03  0.22219893840E+03  0.00000000000E+00 0.  1.
         21    1    1    2  504  503  0.47932253647E+02  0.23993673034E+02 -0.71864991364E+02  0.89653635002E+02  0.00000000000E+00 0.  1.
         21    1    1    2  505  501  0.28025075689E+02 -0.34233447373E+02  0.18530936023E+02  0.47965918905E+02  0.00000000000E+00 0.  1.
          1    1    1    2  501    0 -0.21541479802E+03 -0.16482102405E+02 -0.98625972030E+03  0.10096452005E+04  0.00000000000E+00 0.  1.
<scales pt_clust_3="14000.00000" pt_clust_4="54.02997" pt_clust_5="44.24177" pt_clust_6="167.23522"></scales>
<clustering>
<clus scale="   44.242">  1  5  2 -1</clus>
<clus scale="   54.030">  2  4  1 -1</clus>
<clus scale="  167.235">  2  6  1 -1</clus>
<clus scale="   44.242">  1  3  2 -1</clus>
</clustering>
</event>
<event>
 6    0  0.4189111E+002  0.1144103E+03  0.7546771E-02  0.1252614E+00
          2   -1    0    0  503    0 -0.00000000000E+00  0.00000000000E+00  0.22119519313E+04  0.22119519313E+04  0.00000000000E+00 0.  1.
         21   -1    0    0  505  502  0.00000000000E+00 -0.00000000000E+00 -0.12684314525E+03  0.12684314525E+03  0.00000000000E+00 0. -1.
         21    1    1    2  503  504 -0.81374533620E+01 -0.79909537955E+02  0.10177201098E+04  0.10208848977E+04  0.00000000000E+00 0.  1.
         21    1    1    2  504  502 -0.23452354506E+02  0.11308717008E+03 -0.84770469637E+02  0.14326462749E+03  0.00000000000E+00 0. -1.
         21    1    1    2  505  501  0.88386511877E+02 -0.10144042890E+02  0.18228835886E+03  0.20284014116E+03  0.00000000000E+00 0. -1.
          2    1    1    2  501    0 -0.56796704009E+02 -0.23033589232E+02  0.96987078704E+03  0.97180541024E+03  0.00000000000E+00 0.  1.
<scales pt_clust_3="114.41031" pt_clust_4="14000.00000" pt_clust_5="80.74800" pt_clust_6="61.28957"></scales>
<clustering>
<clus scale="   61.290">  1  6  2 -1</clus>
<clus scale="   80.748">  1  5  2 -1</clus>
<clus scale="  114.410">  1  3  2 -1</clus>
<clus scale="  114.410">  2  3  1 -1</clus>
</clustering>
</event>
<event>
 6    0  0.4189111E+002  0.1962102E+03  0.7546771E-02  0.1152976E+00
          3   -1    0    0  502    0 -0.00000000000E+00  0.00000000000E+00  0.34211508401E+04  0.34211508401E+04  0.00000000000E+00 0.  1.
         21   -1    0    0  505  502  0.00000000000E+00 -0.00000000000E+00 -0.47573011934E+02  0.47573011934E+02  0.00000000000E+00 0. -1.
         21    1    1    2  503  501  0.94098904515E+02 -0.61304974053E+02  0.15519609659E+04  0.15560191976E+04  0.00000000000E+00 0.  1.
         21    1    1    2  504  503 -0.12099988821E+03  0.71420072896E+02  0.35706901396E+03  0.38371875181E+03  0.00000000000E+00 0. -1.
         21    1    1    2  505  504 -0.68209518839E+02  0.14850214361E+02  0.93051934634E+01  0.70424810630E+02  0.00000000000E+00 0. -1.
          3    1    1    2  501    0  0.95110502537E+02 -0.24965313204E+02  0.14552426548E+04  0.14585610919E+04  0.00000000000E+00 0.  1.
<scales pt_clust_3="32.11493" pt_clust_4="193.18518" pt_clust_5="69.80736" pt_clust_6="32.11493"></scales>
<clustering>
<clus scale="   32.115">  3  6 -1 -1</clus>
<clus scale="   69.807">  2  5  1 -1</clus>
<clus scale="  193.185">  2  4  1 -1</clus>
<clus scale="   69.807">  2  3  1 -1</clus>
</clustering>
</event>
<event>
 6    0  0.4189111E+002  0.1109567E+03  0.7546771E-02  0.1258808E+00
         21   -1    0    0  504  502  0.00000000000E+00  0.00000000000E+00  0.32579640398E+03  0.32579640398E+03  0.00000000000E+00 0. -1.
          2   -1    0    0  503    0 -0.00000000000E+00 -0.00000000000E+00 -0.26689173463E+04  0.26689173463E+04  0.00000000000E+00 0. -1.
         21    1    1    2  503  505 -0.88140371215E+02 -0.21023015912E+02 -0.44342630155E+03  0.45258985532E+03  0.00000000000E+00 0. -1.
         21    1    1    2  504  501 -0.17547452024E+02  0.34333561414E+02  0.20091493020E+03  0.20458131804E+03  0.00000000000E+00 0. -1.
         21    1    1    2  505  502  0.26890516361E+02 -0.10969697795E+03  0.89370641771E+02  0.14402651996E+03  0.00000000000E+00 0. -1.
          2    1    1    2  501    0  0.78797306878E+02  0.96386432453E+02 -0.21899802127E+04  0.21935160570E+04  0.00000000000E+00 0. -1.
<scales pt_clust_3="110.95674" pt_clust_4="38.55783" pt_clust_5="77.81300" pt_clust_6="14000.00000"></scales>
<clustering>
<clus scale="   38.558">  1  4  2 -1</clus>
<clus scale="   77.813">  1  5  2 -1</clus>
<clus scale="  110.957">  1  3  2 -1</clus>
<clus scale="   38.558">  1  3  2 -1</clus>
</clustering>
</event>
<event>
 6    0  0.4189111E+002  0.1142594E+03  0.7546771E-02  0.1252879E+00
         21   -1    0    0  504  502  0.00000000000E+00  0.00000000000E+00  0.24958832904E+03  0.24958832904E+03  0.00000000000E+00 0. -1.
          1   -1    0    0  505    0 -0.00000000000E+00 -0.00000000000E+00 -0.88946332388E+03  0.88946332388E+03  0.00000000000E+00 0.  1.
         21    1    1    2  503  502  0.60759772332E+01  0.76139876618E+02  0.21974378736E+03  0.23264034559E+03  0.00000000000E+00 0. -1.
         21    1    1    2  504  501 -0.74411564185E+00  0.43038018649E+02 -0.27327624310E+02  0.50986506134E+02  0.00000000000E+00 0.  1.
         21    1    1    2  505  503  0.27652903200E+02 -0.47835127469E+02 -0.70415019209E+02  0.89505069161E+02  0.00000000000E+00 0.  1.
          1    1    1    2  501    0 -0.32984764791E+02 -0.71342767798E+02 -0.76187613868E+03  0.76591973204E+03  0.00000000000E+00 0.  1.
<scales pt_clust_3="114.25944" pt_clust_4="43.04445" pt_clust_5="53.74865" pt_clust_6="14000.00000"></scales>
<clustering>
<clus scale="   43.044">  1  4  2 -1</clus>
<clus scale="   53.749">  2  5  1 -1</clus>
<clus scale="  114.259">  1  3  2 -1</clus>
<clus scale="   43.044">  1  3  2 -1</clus>
</clustering>
</event>
<event>
 6    0  0.5022555E+002  0.7522457E+02  0.7546771E-02  0.1343177E+00
         21   -1    0    0  504  502  0.00000000000E+00  0.00000000000E+00  0.17850872159E+03  0.17850872159E+03  0.00000000000E+00 0.  1.
          2   -1    0    0  505    0 -0.00000000000E+00 -0.00000000000E+00 -0.24826916412E+04  0.24826916412E+04  0.00000000000E+00 0.  1.
         21    1    1    2  503  502 -0.11212513156E+03 -0.25170721912E+01  0.14442247939E+03  0.18285577195E+03  0.00000000000E+00 0.  1.
         21    1    1    2  504  501  0.46120461840E+02 -0.33646079703E+02 -0.54213190927E+02  0.78728811437E+02  0.00000000000E+00 0.  1.
         21    1    1    2  505  503 -0.50692257098E+01  0.35868441149E+02 -0.15820323524E+03  0.16229758397E+03  0.00000000000E+00 0.  1.
          2    1    1    2  501    0  0.71073895434E+02  0.29471074477E+00 -0.22361889729E+04  0.22373181955E+04  0.00000000000E+00 0.  1.
<scales pt_clust_3="14000.00000" pt_clust_4="56.37167" pt_clust_5="36.22488" pt_clust_6="75.22457"></scales>
<clustering>
<clus scale="   36.225">  2  5  1 -1</clus>
<clus scale="   56.372">  1  4  2 -1</clus>
<clus scale="   75.225">  2  6  1 -1</clus>
<clus scale="   56.372">  1  3  2 -1</clus>
</clustering>
</event>
<event>
 6    0  0.4189111E+002  0.9773162E+02  0.7546771E-02  0.1285140E+00
         -1   -1    0    0    0  501 -0.00000000000E+00  0.00000000000E+00  0.20932435800E+04  0.20932435800E+04  0.00000000000E+00 0.  1.
         21   -1    0    0  505  502  0.00000000000E+00 -0.00000000000E+00 -0.75982944076E+03  0.75982944076E+03  0.00000000000E+00 0. -1.
         21    1    1    2  503  502  0.91428649241E+01 -0.11063358907E+03 -0.64057008430E+03  0.65011800153E+03  0.00000000000E+00 0. -1.
         21    1    1    2  504  501 -0.70366106576E+01 -0.86262745189E+02  0.11171501070E+04  0.11204977183E+04  0.00000000000E+00 0.  1.
         21    1    1    2  505  504  0.95994220636E+01  0.70330422111E+02 -0.96996481652E+02  0.12019498588E+03  0.00000000000E+00 0. -1.
         -1    1    1    2    0  503 -0.11705676330E+02  0.12656591215E+03  0.95383059812E+03  0.96226231501E+03  0.00000000000E+00 0.  1.
<scales pt_clust_3="44.98941" pt_clust_4="14000.00000" pt_clust_5="70.98251" pt_clust_6="97.73162"></scales>
<clustering>
<clus scale="   70.983">  2  5  1 -1</clus>
<clus scale="   44.989">  2  3  1 -1</clus>
<clus scale="   97.732">  2  6  1 -1</clus>
<clus scale="   70.983">  2  3  1 -1</clus>
</clustering>
</event>
<event>
 6    0  0.4189111E+002  0.9797942E+02  0.7546771E-02  0.1284603E+00
         21   -1    0    0  504  502  0.00000000000E+00  0.00000000000E+00  0.53560737281E+02  0.53560737281E+02  0.00000000000E+00 0.  1.
          2   -1    0    0  502    0 -0.00000000000E+00 -0.00000000000E+00 -0.61971783273E+03  0.61971783273E+03  0.00000000000E+00 0.  1.
         21    1    1    2  503  501  0.48482502385E+02 -0.22013756567E+02 -0.68327651576E+02  0.86624629786E+02  0.00000000000E+00 0. -1.
         21    1    1    2  504  505 -0.35471051148E+02  0.53536901064E+02  0.21730857425E+01  0.64258209955E+02  0.00000000000E+00 0.  1.
         21    1    1    2  505  503  0.49790146488E+02  0.25073141867E+02 -0.10981511704E+03  0.12315470377E+03  0.00000000000E+00 0.  1.
          2    1    1    2  501    0 -0.62801597726E+02 -0.56596286363E+02 -0.39018741258E+03  0.39924102650E+03  0.00000000000E+00 0.  1.
<scales pt_clust_3="49.88751" pt_clust_4="64.22145" pt_clust_5="49.88751" pt_clust_6="83.63204"></scales>
<clustering>
<clus scale="   49.888">  3  5 -1 -1</clus>
<clus scale="   64.221">  1  4  2 -1</clus>
<clus scale="   83.632">  2  6  1 -1</clus>
<clus scale="   64.221">  1  3  2 -1</clus>
</clustering>
</event>
<event>
 6    0  0.4189111E+002  0.1109475E+03  0.7546771E-02  0.1258825E+00
         -2   -1    0    0    0  501 -0.00000000000E+00  0.00000000000E+00  0.10543233120E+03  0.10543233120E+03  0.00000000000E+00 0.  1.
         21   -1    0    0  503  502  0.00000000000E+00 -0.00000000000E+00 -0.51072659570E+03  0.51072659570E+03  0.00000000000E+00 0. -1.
         21    1    1    2  503  504  0.11510825357E+02 -0.30358405031E+02 -0.93146025135E+02  0.98642353251E+02  0.00000000000E+00 0. -1.
         21    1    1    2  504  505  0.91721940548E+02  0.60556298238E+02 -0.33161585327E+03  0.34935519715E+03  0.00000000000E+00 0. -1.
         21    1    1    2  505  501  0.22179793883E+02  0.21909364684E+02  0.52031585166E+01  0.31607536698E+02  0.00000000000E+00 0. -1.
         -2    1    1    2    0  502 -0.12541255979E+03 -0.52107257891E+02  0.14264455381E+02  0.13655383980E+03  0.00000000000E+00 0.  1.
<scales pt_clust_3="32.08143" pt_clust_4="14000.00000" pt_clust_5="31.17633" pt_clust_6="110.94750"></scales>
<clustering>
<clus scale="   31.176">  1  5  2 -1</clus>
<clus scale="   32.081">  2  3  1 -1</clus>
<clus scale="  110.948">  1  6  2 -1</clus>
<clus scale="   32.081">  2  3  1 -1</clus>
</clustering>
</event>
<event>
 6    0  0.4189111E+002  0.1288743E+03  0.7546771E-02  0.1229136E+00
         21   -1    0    0  503  502  0.00000000000E+00  0.00000000000E+00  0.26819977895E+03  0.26819977895E+03  0.00000000000E+00 0.  1.
         -3   -1    0    0    0  501 -0.00000000000E+00 -0.00000000000E+00 -0.25524615851E+04  0.25524615851E+04  0.00000000000E+00 0. -1.
         21    1    1    2  503  504 -0.17881246287E+02  0.56883196513E+02 -0.15449604185E+02  0.61596487593E+02  0.00000000000E+00 0.  1.
         21    1    1    2  504  501  0.10321022623E+03  0.13764188137E+01 -0.61727518806E+03  0.62584575027E+03  0.00000000000E+00 0. -1.
         21    1    1    2  505  502 -0.10465659695E+03 -0.55784254505E+01  0.22900085188E+03  0.25184422225E+03  0.00000000000E+00 0.  1.
         -3    1    1    2    0  505  0.19327617012E+02 -0.52681189877E+02 -0.18805378658E+04  0.18813749039E+04  0.00000000000E+00 0. -1.
<scales pt_clust_3="56.41205" pt_clust_4="128.87429" pt_clust_5="14000.00000" pt_clust_6="56.11474"></scales>
<clustering>
<clus scale="   56.115">  2  6  1 -1</clus>
<clus scale="   56.412">  1  3  2 -1</clus>
<clus scale="  128.874">  2  4  1 -1</clus>
<clus scale="   56.412">  1  3  2 -1</clus>
</clustering>
</event>
<event>
 6    0  0.4189111E+002  0.1122232E+03  0.7546771E-02  0.1256507E+00
          2   -1    0    0  504    0 -0.00000000000E+00  0.00000000000E+00  0.47283565930E+03  0.47283565930E+03  0.00000000000E+00 0.  1.
         21   -1    0    0  505  502  0.00000000000E+00 -0.00000000000E+00 -0.11469532006E+03  0.11469532006E+03  0.00000000000E+00 0.  1.
         21    1    1    2  503  502  0.86129906680E+02 -0.25962218745E+01  0.23391282992E+02  0.89287475677E+02  0.00000000000E+00 0.  1.
         21    1    1    2  504  503  0.37870746536E+02  0.15014712516E+02  0.72580496158E+02  0.83231985784E+02  0.00000000000E+00 0.  1.
         21    1    1    2  505  501 -0.14617833237E+03 -0.65323953873E+02  0.14476774874E+02  0.16076349341E+03  0.00000000000E+00 0.  1.
          2    1    1    2  501    0  0.22177679152E+02  0.52905463232E+02  0.24769178521E+03  0.25424802448E+03  0.00000000000E+00 0.  1.
<scales pt_clust_3="14000.00000" pt_clust_4="40.73862" pt_clust_5="112.22321" pt_clust_6="77.70533"></scales>
<clustering>
<clus scale="   40.739">  1  4  2 -1</clus>
<clus scale="   77.705">  1  6  2 -1</clus>
<clus scale="  112.223">  1  5  2 -1</clus>
<clus scale="  112.223">  2  3  1 -1</clus>
</clustering>
</event>
<event>
 6    0  0.4189111E+002  0.1379439E+03  0.7546771E-02  0.1216123E+00
         21   -1    0    0  505  502  0.00000000000E+00  0.00000000000E+00  0.36272746565E+03  0.36272746565E+03  0.00000000000E+00 0.  1.
          1   -1    0    0  504    0 -0.00000000000E+00 -0.00000000000E+00 -0.17148384960E+04  0.17148384960E+04  0.00000000000E+00 0.  1.
         21    1    1    2  503  501  0.88094035735E+00  0.46045941156E+02 -0.64137990345E+03  0.64303124754E+03  0.00000000000E+00 0.  1.
         21    1    1    2  504  502 -0.39296602048E+02 -0.82069270564E+02  0.37195706643E+02  0.98301112385E+02  0.00000000000E+00 0.  1.
         21    1    1    2  505  503  0.10785178422E+03 -0.23729136138E+02  0.28168309016E+03  0.30255651132E+03  0.00000000000E+00 0.  1.
          1    1    1    2  501    0 -0.69436122530E+02  0.59752465547E+02 -0.10296099237E+04  0.10336770904E+04  0.00000000000E+00 0.  1.
<scales pt_clust_3="40.42622" pt_clust_4="90.99224" pt_clust_5="125.60969" pt_clust_6="40.42622"></scales>
<clustering>
<clus scale="   40.426">  3  6 -1 -1</clus>
<clus scale="   90.992">  1  4  2 -1</clus>
<clus scale="  125.610">  1  5  2 -1</clus>
<clus scale="   90.992">  1  3  2 -1</clus>
</clustering>
</event>
<event>
 6    0  0.4189111E+002  0.1392299E+03  0.7546771E-02  0.1214369E+00
          2   -1    0    0  505    0 -0.00000000000E+00  0.00000000000E+00  0.15643107441E+04  0.15643107441E+04  0.00000000000E+00 0.  1.
         21   -1    0    0  501  502  0.00000000000E+00 -0.00000000000E+00 -0.61855595271E+02  0.61855595271E+02  0.00000000000E+00 0. -1.
         21    1    1    2  503  504  0.12275748946E+03 -0.45164584785E+02  0.71035987366E+02  0.14884674144E+03  0.00000000000E+00 0. -1.
         21    1    1    2  504  502  0.81287690277E+01 -0.37707418038E+02  0.45747197054E+01  0.38843974068E+02  0.00000000000E+00 0. -1.
         21    1    1    2  505  503 -0.97428783294E+02  0.47580788937E+01  0.74856951013E+03  0.75489821740E+03  0.00000000000E+00 0.  1.
          2    1    1    2  501    0 -0.33457475191E+02  0.78113923929E+02  0.67827493158E+03  0.68357740642E+03  0.00000000000E+00 0.  1.
<scales pt_clust_3="139.22990" pt_clust_4="38.57365" pt_clust_5="14000.00000" pt_clust_6="82.73410"></scales>
<clustering>
<clus scale="   38.574">  2  4  1 -1</clus>
<clus scale="   82.734">  1  6  2 -1</clus>
<clus scale="  139.230">  2  3  1 -1</clus>
<clus scale="   38.574">  2  3  1 -1</clus>
</clustering>
</event>
<event>
 6    0  0.4189111E+002  0.9807573E+02  0.7546771E-02  0.1284395E+00
         21   -1    0    0  505  502  0.00000000000E+00  0.00000000000E+00  0.26512276141E+04  0.26512276141E+04  0.00000000000E+00 0.  1.
         -4   -1    0    0    0  501 -0.00000000000E+00 -0.00000000000E+00 -0.97364177433E+03  0.97364177433E+03  0.00000000000E+00 0.  1.
         21    1    1    2  503  504  0.48530856671E+02  0.66317455039E+02  0.24051471218E+03  0.25416643300E+03  0.00000000000E+00 0.  1.
         21    1    1    2  504  501 -0.10108710629E+03 -0.23483725171E+02 -0.58972914886E+02  0.11936453869E+03  0.00000000000E+00 0.  1.
         21    1    1    2  505  503 -0.27893249567E+02  0.17954303401E+02  0.23706786278E+04  0.23709106998E+04  0.00000000000E+00 0.  1.
         -4    1    1    2    0  502  0.80449499190E+02 -0.60788033269E+02 -0.87463458529E+03  0.88042771690E+03  0.00000000000E+00 0.  1.
<scales pt_clust_3="85.56711" pt_clust_4="98.07573" pt_clust_5="33.17213" pt_clust_6="14000.00000"></scales>
<clustering>
<clus scale="   33.172">  1  5  2 -1</clus>
<clus scale="   85.567">  1  3  2 -1</clus>
<clus scale="   98.076">  1  4  2 -1</clus>
<clus scale="   33.172">  1  3  2 -1</clus>
</clustering>
</event>
<event>
 6    0  0.4189111E+002  0.6913441E+02  0.7546771E-02  0.1363062E+00
         -2   -1    0    0    0  501 -0.00000000000E+00  0.00000000000E+00  0.62979747573E+03  0.62979747573E+03  0.00000000000E+00 0. -1.
         21   -1    0    0  505  502  0.00000000000E+00 -0.00000000000E+00 -0.79015829395E+02  0.79015829395E+02  0.00000000000E+00 0. -1.
         21    1    1    2  503  504  0.25330708528E+02  0.96618168708E+02  0.86584046092E+02  0.13218741376E+03  0.00000000000E+00 0. -1.
         21    1    1    2  504  501 -0.49946219418E+01 -0.71454898615E+02  0.38357667034E+03  0.39020739462E+03  0.00000000000E+00 0. -1.
         21    1    1    2  505  503 -0.49815165494E+02 -0.42974599978E+02 -0.28716616674E+02  0.71784476244E+02  0.00000000000E+00 0. -1.
         -2    1    1    2    0  502  0.29479078907E+02  0.17811329885E+02  0.10933754657E+03  0.11463402050E+03  0.00000000000E+00 0. -1.
<scales pt_clust_3="69.13441" pt_clust_4="60.58975" pt_clust_5="14000.00000" pt_clust_6="34.44212"></scales>
<clustering>
<clus scale="   34.442">  1  6  2 -1</clus>
<clus scale="   60.590">  1  4  2 -1</clus>
<clus scale="   69.134">  1  3  2 -1</clus>
<clus scale="   69.134">  2  3  1 -1</clus>
</clustering>
</event>
<event>
 6    0  0.4189111E+002  0.1018545E+03  0.7546771E-02  0.1276444E+00
         21   -1    0    0  505  502  0.00000000000E+00  0.00000000000E+00  0.12758338471E+03  0.12758338471E+03  0.00000000000E+00 0. -1.
         -1   -1    0    0    0  501 -0.00000000000E+00 -0.00000000000E+00 -0.19481614584E+04  0.19481614584E+04  0.00000000000E+00 0. -1.
         21    1    1    2  503  501  0.41794330831E+02  0.54003165252E+01 -0.28830595906E+03  0.29136962014E+03  0.00000000000E+00 0. -1.
         21    1    1    2  504  502 -0.26369393832E+02 -0.18203978765E+02  0.10388361774E+02  0.33684534052E+02  0.00000000000E+00 0.  1.
         21    1    1    2  505  503  0.11736197515E+03 -0.24048318827E+02  0.65567348367E+02  0.13656951351E+03  0.00000000000E+00 0. -1.
         -1    1    1    2    0  504 -0.13278691214E+03  0.36851981067E+02 -0.16082278248E+04  0.16141211754E+04  0.00000000000E+00 0. -1.
<scales pt_clust_3="41.72892" pt_clust_4="32.04262" pt_clust_5="101.85450" pt_clust_6="14000.00000"></scales>
<clustering>
<clus scale="   32.043">  1  4  2 -1</clus>
<clus scale="   41.729">  2  3  1 -1</clus>
<clus scale="  101.854">  1  5  2 -1</clus>
<clus scale="   32.043">  1  3  2 -1</clus>
</clustering>
</event>
<event>
 6    0  0.4189111E+002  0.1214591E+03  0.7546771E-02  0.1240709E+00
          1   -1    0    0  503    0 -0.00000000000E+00  0.00000000000E+00  0.55266322289E+02  0.55266322289E+02  0.00000000000E+00 0. -1.
         21   -1    0    0  505  502  0.00000000000E+00 -0.00000000000E+00 -0.16071318753E+04  0.16071318753E+04  0.00000000000E+00 0. -1.
         21    1    1    2  503  504  0.46553067740E+02 -0.77278095878E+02 -0.17879246678E+03  0.20026442120E+03  0.00000000000E+00 0.  1.
         21    1    1    2  504  502  0.46696515293E+01 -0.34433088648E+02 -0.20211853249E+03  0.20508374976E+03  0.00000000000E+00 0. -1.
         21    1    1    2  505  501  0.37973740725E+02  0.24357679549E+01 -0.10972276627E+04  0.10978872810E+04  0.00000000000E+00 0. -1.
          1    1    1    2  501    0 -0.89196459995E+02  0.10927541657E+03 -0.73726891048E+02  0.15916274566E+03  0.00000000000E+00 0. -1.
<scales pt_clust_3="121.45911" pt_clust_4="34.74828" pt_clust_5="48.29569" pt_clust_6="14000.00000"></scales>
<clustering>
<clus scale="   34.748">  2  4  1 -1</clus>
<clus scale="   48.296">  2  5  1 -1</clus>
<clus scale="  121.459">  2  3  1 -1</clus>
<clus scale="   34.748">  2  3  1 -1</clus>
</clustering>
</event>
<event>
 6    0  0.4189111E+002  0.7201495E+02  0.7546771E-02  0.1353372E+00
          2   -1    0    0  505    0 -0.00000000000E+00  0.00000000000E+00  0.19738164401E+03  0.19738164401E+03  0.00000000000E+00 0.  1.
         21   -1    0    0  504  502  0.00000000000E+00 -0.00000000000E+00 -0.53179975420E+03  0.53179975420E+03  0.00000000000E+00 0.  1.
         21    1    1    2  503  502 -0.26577797066E+02 -0.51019778451E+02 -0.12622674067E+03  0.13871765263E+03  0.00000000000E+00 0.  1.
         21    1    1    2  504  501  0.82104730552E+02  0.94705830362E+02 -0.36872192208E+03  0.38944349643E+03  0.00000000000E+00 0.  1.
         21    1    1    2  505  503 -0.37121198995E+02  0.17280387759E+02  0.17647404306E+02  0.44587286245E+02  0.00000000000E+00 0. -1.
          2    1    1    2  501    0 -0.18405734490E+02 -0.60966439669E+02  0.14288314826E+03  0.15643296291E+03  0.00000000000E+00 0.  1.
<scales pt_clust_3="57.61639" pt_clust_4="14000.00000" pt_clust_5="40.94625" pt_clust_6="72.01495"></scales>
<clustering>
<clus scale="   40.946">  1  5  2 -1</clus>
<clus scale="   57.616">  2  3  1 -1</clus>
<clus scale="   72.015">  1  6  2 -1</clus>
<clus scale="   57.616">  2  3  1 -1</clus>
</clustering>
</event>
<event>
 6    0  0.4189111E+002  0.1041286E+03  0.7546771E-02  0.1271846E+00
          2   -1    0    0  504    0 -0.00000000000E+00  0.00000000000E+00  0.15844291180E+04  0.15844291180E+04  0.00000000000E+00 0.  1.
         21   -1    0    0  505  502  0.00000000000E+00 -0.00000000000E+00 -0.50017121674E+02  0.50017121674E+02  0.00000000000E+00 0.  1.
         21    1    1    2  503  502 -0.34414877659E+02  0.27811462850E+02 -0.27038080679E+02  0.51854788370E+02  0.00000000000E+00 0.  1.
         21    1    1    2  504  503  0.11643245421E+02  0.30993427733E+02  0.11098335284E+03  0.11581650286E+03  0.00000000000E+00 0.  1.
         21    1    1    2  505  501 -0.63708835887E+02 -0.99060409809E+02  0.64348178037E+03  0.65417167642E+03  0.00000000000E+00 0.  1.
          2    1    1    2  501    0  0.86480468125E+02  0.40255519227E+02  0.80698494380E+03  0.81260327203E+03  0.00000000000E+00 0.  1.
<scales pt_clust_3="44.33645" pt_clust_4="33.10827" pt_clust_5="14000.00000" pt_clust_6="104.12861"></scales>
<clustering>
<clus scale="   33.108">  1  4  2 -1</clus>
<clus scale="   44.336">  2  3  1 -1</clus>
<clus scale="  104.129">  1  6  2 -1</clus>
<clus scale="   44.336">  2  3  1 -1</clus>
</clustering>
</event>
<event>
 6    0  0.4189111E+002  0.6392500E+02  0.7546771E-02  0.1382061E+00
          2   -1    0    0  503    0 -0.00000000000E+00  0.00000000000E+00  0.58855096797E+03  0.58855096797E+03  0.00000000000E+00 0. -1.
         21   -1    0    0  505  502  0.00000000000E+00 -0.00000000000E+00 -0.25807804619E+03  0.25807804619E+03  0.00000000000E+00 0.  1.
         21    1    1    2  503  504 -0.46870978593E+02  0.31376127903E+02  0.10250745293E+03  0.11700054676E+03  0.00000000000E+00 0.  1.
         21    1    1    2  504  502 -0.57486337750E+02  0.18392256844E+02 -0.88333245138E+02  0.10698465468E+03  0.00000000000E+00 0.  1.
         21    1    1    2  505  501  0.15945687076E+02 -0.68703170069E+02 -0.14037936745E+03  0.15710110540E+03  0.00000000000E+00 0.  1.
          2    1    1    2  501    0  0.88411629267E+02  0.18934785322E+02  0.45667808143E+03  0.46554270733E+03  0.00000000000E+00 0. -1.
<scales pt_clust_3="56.40346" pt_clust_4="61.41337" pt_clust_5="63.92500" pt_clust_6="14000.00000"></scales>
<clustering>
<clus scale="   56.403">  1  3  2 -1</clus>
<clus scale="   61.413">  2  4  1 -1</clus>
<clus scale="   63.925">  2  5  1 -1</clus>
<clus scale="   61.413">  2  3  1 -1</clus>
</clustering>
</event>
<event>
 6    0  0.4189111E+002  0.1202609E+03  0.7546771E-02  0.1242667E+00
          2   -1    0    0  505    0 -0.00000000000E+00  0.00000000000E+00  0.55435386725E+03  0.55435386725E+03  0.00000000000E+00 0.  1.
         21   -1    0    0  504  502  0.00000000000E+00 -0.00000000000E+00 -0.38306898133E+03  0.38306898133E+03  0.00000000000E+00 0. -1.
         21    1    1    2  503  502 -0.31278099784E+02  0.23580591355E+01 -0.17935221354E+03  0.18207442563E+03  0.00000000000E+00 0. -1.
         21    1    1    2  504  501  0.11725760801E+03 -0.86453017027E+02 -0.16296455497E+03  0.21858846485E+03  0.00000000000E+00 0. -1.
         21    1    1    2  505  503 -0.13677290398E+01  0.42423925834E+02  0.60243524198E+02  0.73694927733E+02  0.00000000000E+00 0.  1.
          2    1    1    2  501    0 -0.84611779186E+02  0.41671032058E+02  0.45335813024E+03  0.46306503036E+03  0.00000000000E+00 0.  1.
<scales pt_clust_3="31.36686" pt_clust_4="14000.00000" pt_clust_5="42.57042" pt_clust_6="120.26091"></scales>
<clustering>
<clus scale="   31.367">  2  3  1 -1</clus>
<clus scale="   42.570">  1  5  2 -1</clus>
<clus scale="  120.261">  1  6  2 -1</clus>
<clus scale="   31.367">  2  3  1 -1</clus>
</clustering>
</event>
<event>
 6    0  0.4189111E+002  0.8910160E+02  0.7546771E-02  0.1305042E+00
          2   -1    0    0  503    0 -0.00000000000E+00  0.00000000000E+00  0.39603381226E+02  0.39603381226E+02  0.00000000000E+00 0.  1.
         21   -1    0    0  504  502  0.00000000000E+00 -0.00000000000E+00 -0.79150222398E+03  0.79150222398E+03  0.00000000000E+00 0.  1.
         21    1    1    2  503  505  0.19393811069E+02 -0.81494570179E+02 -0.19843550147E+03  0.21539297370E+03  0.00000000000E+00 0. -1.
         21    1    1    2  504  501  0.20938579855E+01  0.42084652141E+02 -0.23291390361E+03  0.23669471621E+03  0.00000000000E+00 0. -1.
         21    1    1    2  505  502  0.37621432986E+02 -0.33229844315E+02 -0.26588309591E+03  0.27057977652E+03  0.00000000000E+00 0.  1.
          2    1    1    2  501    0 -0.59109102040E+02  0.72639762353E+02 -0.54666341770E+02  0.10843813878E+03  0.00000000000E+00 0.  1.
<scales pt_clust_3="89.10160" pt_clust_4="42.13671" pt_clust_5="40.74389" pt_clust_6="14000.00000"></scales>
<clustering>
<clus scale="   42.137">  2  4  1 -1</clus>
<clus scale="   40.744">  2  5  1 -1</clus>
<clus scale="   89.102">  2  3  1 -1</clus>
<clus scale="   42.137">  2  3  1 -1</clus>
</clustering>
</event>
<event>
 6    0  0.4189111E+002  0.9751433E+02  0.7546771E-02  0.1285612E+00
         -4   -1    0    0    0  501 -0.00000000000E+00  0.00000000000E+00  0.15730104818E+03  0.15730104818E+03  0.00000000000E+00 0.  1.
         21   -1    0    0  504  502  0.00000000000E+00 -0.00000000000E+00 -0.76504257469E+03  0.76504257469E+03  0.00000000000E+00 0.  1.
         21    1    1    2  503  502  0.89567762986E+02  0.67629128902E+02 -0.67333731134E+03  0.68262670479E+03  0.00000000000E+00 0.  1.
         21    1    1    2  504  501 -0.13304243713E+01 -0.57993570215E+02 -0.58243873442E+02  0.82203242082E+02  0.00000000000E+00 0.  1.
         21    1    1    2  505  503 -0.34642013335E+02 -0.46760796877E+01  0.19297204435E+02  0.39928898159E+02  0.00000000000E+00 0.  1.
         -4    1    1    2    0  505 -0.53595325280E+02 -0.49594789995E+01  0.10454245384E+03  0.11758477784E+03  0.00000000000E+00 0.  1.
<scales pt_clust_3="88.95740" pt_clust_4="58.00883" pt_clust_5="32.19128" pt_clust_6="32.19128"></scales>
<clustering>
<clus scale="   32.191">  5  6 -1 -1</clus>
<clus scale="   58.009">  2  4  1 -1</clus>
<clus scale="   88.957">  2  3  1 -1</clus>
<clus scale="   58.009">  2  3  1 -1</clus>
</clustering>
</event>
<event>
 6    0  0.4189111E+002  0.8023898E+02  0.7546771E-02  0.1328375E+00
         21   -1    0    0  505  502  0.00000000000E+00  0.00000000000E+00  0.11104254949E+04  0.11104254949E+04  0.00000000000E+00 0. -1.
          1   -1    0    0  503    0 -0.00000000000E+00 -0.00000000000E+00 -0.14339760976E+03  0.14339760976E+03  0.00000000000E+00 0.  1.
         21    1    1    2  503  502 -0.49146867474E+02 -0.43993179400E+01  0.12743694964E+03  0.13665630140E+03  0.00000000000E+00 0.  1.
         21    1    1    2  504  501 -0.47278747322E+02 -0.26914329331E+02 -0.42477561075E+02  0.69021766614E+02  0.00000000000E+00 0.  1.
         21    1    1    2  505  504  0.13105755775E+03  0.16336215073E+02  0.95603289358E+03  0.96511235044E+03  0.00000000000E+00 0. -1.
          1    1    1    2  501    0 -0.34631942956E+02  0.14977432199E+02 -0.73964397025E+02  0.83032686187E+02  0.00000000000E+00 0.  1.
<scales pt_clust_3="51.71440" pt_clust_4="14000.00000" pt_clust_5="80.23898" pt_clust_6="37.73188"></scales>
<clustering>
<clus scale="   37.732">  2  6  1 -1</clus>
<clus scale="   51.714">  1  3  2 -1</clus>
<clus scale="   80.239">  1  5  2 -1</clus>
<clus scale="   51.714">  1  3  2 -1</clus>
</clustering>
</event>
<event>
 6    0  0.4189111E+002  0.9881520E+02  0.7546771E-02  0.1282807E+00
         21   -1    0    0  503  502  0.00000000000E+00  0.00000000000E+00  0.15234204276E+03  0.15234204276E+03  0.00000000000E+00 0. -1.
          2   -1    0    0  505    0 -0.00000000000E+00 -0.00000000000E+00 -0.13709409866E+04  0.13709409866E+04  0.00000000000E+00 0. -1.
         21    1    1    2  503  501 -0.79555420300E+02 -0.26972668680E+02  0.56696715147E+02  0.10134647139E+03  0.00000000000E+00 0. -1.
         21    1    1    2  504  502  0.17238426929E+03  0.59141587029E+02 -0.58578588154E+02  0.19143018207E+03  0.00000000000E+00 0. -1.
         21    1    1    2  505  504 -0.56034273632E+02 -0.46258649100E+02 -0.19609757136E+03  0.20912666002E+03  0.00000000000E+00 0. -1.
          2    1    1    2  501    0 -0.36794575363E+02  0.14089730751E+02 -0.10206194995E+04  0.10213797159E+04  0.00000000000E+00 0. -1.
<scales pt_clust_3="85.95293" pt_clust_4="98.81520" pt_clust_5="14000.00000" pt_clust_6="39.40002"></scales>
<clustering>
<clus scale="   39.400">  2  6  1 -1</clus>
<clus scale="   85.953">  1  3  2 -1</clus>
<clus scale="   98.815">  1  4  2 -1</clus>
<clus scale="   85.953">  1  3  2 -1</clus>
</clustering>
</event>
<event>
 6    0  0.4189111E+002  0.7529559E+02  0.7546771E-02  0.1342958E+00
          2   -1    0    0  503    0 -0.00000000000E+00  0.00000000000E+00  0.56291291579E+03  0.56291291579E+03  0.00000000000E+00 0.  1.
         21   -1    0    0  504  502  0.00000000000E+00 -0.00000000000E+00 -0.81660349567E+02  0.81660349567E+02  0.00000000000E+00 0.  1.
         21    1    1    2  503  505 -0.12102703969E+02 -0.59667533314E+02  0.24834541116E+03  0.25569930234E+03  0.00000000000E+00 0.  1.
         21    1    1    2  504  501 -0.41962231396E+02 -0.34886305651E+02 -0.14443122446E+02  0.56448976711E+02  0.00000000000E+00 0.  1.
         21    1    1    2  505  502 -0.43515011189E+02  0.41201182959E+02 -0.14036815651E+01  0.59942172115E+02  0.00000000000E+00 0.  1.
          2    1    1    2  501    0  0.97579946553E+02  0.53352656006E+02  0.24875395908E+03  0.27248281419E+03  0.00000000000E+00 0.  1.
<scales pt_clust_3="64.32408" pt_clust_4="54.56998" pt_clust_5="75.29559" pt_clust_6="14000.00000"></scales>
<clustering>
<clus scale="   54.570">  2  4  1 -1</clus>
<clus scale="   64.324">  1  3  2 -1</clus>
<clus scale="   75.296">  2  5  1 -1</clus>
<clus scale="   54.570">  2  3  1 -1</clus>
</clustering>
</event>
<event>
 6    0  0.4189111E+002  0.1453280E+03  0.7546771E-02  0.1206334E+00
         21   -1    0    0  503  502  0.00000000000E+00  0.00000000000E+00  0.10685367711E+04  0.10685367711E+04  0.00000000000E+00 0. -1.
          2   -1    0    0  505    0 -0.00000000000E+00 -0.00000000000E+00 -0.36151499479E+03  0.36151499479E+03  0.00000000000E+00 0. -1.
         21    1    1    2  503  504  0.37740878691E+02  0.31286368247E+02  0.79263462766E+03  0.79414914451E+03  0.00000000000E+00 0. -1.
         21    1    1    2  504  501  0.17818141209E+02 -0.73440164644E+02  0.14512796291E+03  0.16362478284E+03  0.00000000000E+00 0. -1.
         21    1    1    2  505  502 -0.85529143285E+02 -0.10437959609E+03  0.58168785817E+02  0.14694877364E+03  0.00000000000E+00 0. -1.
          2    1    1    2  501    0  0.29970123385E+02  0.14653339249E+03 -0.28890960011E+03  0.32532906487E+03  0.00000000000E+00 0. -1.
<scales pt_clust_3="49.02255" pt_clust_4="68.14518" pt_clust_5="14000.00000" pt_clust_6="145.32796"></scales>
<clustering>
<clus scale="   49.023">  1  3  2 -1</clus>
<clus scale="   68.145">  1  4  2 -1</clus>
<clus scale="  145.328">  2  6  1 -1</clus>
<clus scale="   49.023">  1  3  2 -1</clus>
</clustering>
</event>
<event>
 6    0  0.4189111E+002  0.1127681E+03  0.7546771E-02  0.1255528E+00
          2   -1    0    0  503    0 -0.00000000000E+00  0.00000000000E+00  0.16652255281E+04  0.16652255281E+04  0.00000000000E+00 0. -1.
         21   -1    0    0  504  502  0.00000000000E+00 -0.00000000000E+00 -0.32482759703E+03  0.32482759703E+03  0.00000000000E+00 0.  1.
         21    1    1    2  503  505 -0.41077654999E+02 -0.18530500809E+02  0.25406181080E+03  0.25802743441E+03  0.00000000000E+00 0. -1.
         21    1    1    2  504  501  0.12927539131E+03  0.90613486954E+02 -0.20793566639E+03  0.26107503169E+03  0.00000000000E+00 0.  1.
         21    1    1    2  505  502 -0.38269587132E+02 -0.23785000693E+02 -0.81659961022E+02  0.93266482679E+02  0.00000000000E+00 0. -1.
          2    1    1    2  501    0 -0.49928149180E+02 -0.48297985452E+02  0.13759317477E+04  0.13776841764E+04  0.00000000000E+00 0. -1.
<scales pt_clust_3="45.43701" pt_clust_4="112.76811" pt_clust_5="45.05871" pt_clust_6="14000.00000"></scales>
<clustering>
<clus scale="   45.059">  2  5  1 -1</clus>
<clus scale="   45.437">  1  3  2 -1</clus>
<clus scale="  112.768">  2  4  1 -1</clus>
<clus scale="   45.059">  2  3  1 -1</clus>
</clustering>
</event>
<event>
 6    0  0.4189111E+002  0.1353269E+03  0.7546771E-02  0.1219759E+00
         21   -1    0    0  501  502  0.00000000000E+00  0.00000000000E+00  0.14253988160E+03  0.14253988160E+03  0.00000000000E+00 0.  1.
          1   -1    0    0  505    0 -0.00000000000E+00 -0.00000000000E+00 -0.11744984168E+04  0.11744984168E+04  0.00000000000E+00 0.  1.
         21    1    1    2  503  504  0.10836563566E+03  0.39349227721E+02  0.92568141736E+02  0.14785240471E+03  0.00000000000E+00 0.  1.
         21    1    1    2  504  502  0.12530474009E+02  0.36094626886E+02 -0.53761503210E+01  0.38584165939E+02  0.00000000000E+00 0.  1.
         21    1    1    2  505  503 -0.88194073768E+02 -0.34227120829E+02 -0.47645450583E+03  0.48575568610E+03  0.00000000000E+00 0.  1.
          1    1    1    2  501    0 -0.32702035903E+02 -0.41216733778E+02 -0.64269602079E+03  0.64484604165E+03  0.00000000000E+00 0.  1.
<scales pt_clust_3="135.32693" pt_clust_4="38.20779" pt_clust_5="14000.00000" pt_clust_6="52.30635"></scales>
<clustering>
<clus scale="   38.208">  1  4  2 -1</clus>
<clus scale="   52.306">  2  6  1 -1</clus>
<clus scale="  135.327">  1  3  2 -1</clus>
<clus scale="   38.208">  1  3  2 -1</clus>
</clustering>
</event>
<event>
 6    0  0.4189111E+002  0.9447734E+02  0.7546771E-02  0.1292358E+00
         21   -1    0    0  505  502  0.00000000000E+00  0.00000000000E+00  0.25671707825E+03  0.25671707825E+03  0.00000000000E+00 0.  1.
         -2   -1    0    0    0  501 -0.00000000000E+00 -0.00000000000E+00 -0.28380312187E+03  0.28380312187E+03  0.00000000000E+00 0. -1.
         21    1    1    2  503  502 -0.73562731472E+02 -0.75781643369E+02  0.19137542744E+03  0.21858382182E+03  0.00000000000E+00 0.  1.
         21    1    1    2  504  503  0.11062072276E+02  0.77009846082E+02  0.89650347476E+01  0.78315117855E+02  0.00000000000E+00 0. -1.
         21    1    1    2  505  501  0.33573156877E+02 -0.15704492083E+02 -0.19242165187E+03  0.19595887335E+03  0.00000000000E+00 0. -1.
         -2    1    1    2    0  504  0.28927502319E+02  0.14476289370E+02 -0.35004853938E+02  0.47662387094E+02  0.00000000000E+00 0. -1.
<scales pt_clust_3="14000.00000" pt_clust_4="94.47734" pt_clust_5="56.88947" pt_clust_6="32.34754"></scales>
<clustering>
<clus scale="   32.348">  2  6  1 -1</clus>
<clus scale="   56.889">  2  5  1 -1</clus>
<clus scale="   94.477">  2  4  1 -1</clus>
<clus scale="   94.477">  1  3  2 -1</clus>
</clustering>
</event>
<event>
 6    0  0.4189111E+002  0.7586373E+02  0.7546771E-02  0.1341217E+00
          2   -1    0    0  503    0 -0.00000000000E+00  0.00000000000E+00  0.44376154520E+04  0.44376154520E+04  0.00000000000E+00 0. -1.
         21   -1    0    0  505  502  0.00000000000E+00 -0.00000000000E+00 -0.18298215863E+02  0.18298215863E+02  0.00000000000E+00 0.  1.
         21    1    1    2  503  504 -0.26986646825E+02  0.62213232522E+02  0.18829648195E+04  0.18841855739E+04  0.00000000000E+00 0. -1.
         21    1    1    2  504  502  0.50261929114E+02 -0.76904489500E+01  0.18526774456E+03  0.19211856156E+03  0.00000000000E+00 0. -1.
         21    1    1    2  505  501 -0.83173505456E+02 -0.65246292997E+02  0.18810403826E+03  0.21577312151E+03  0.00000000000E+00 0.  1.
          2    1    1    2  501    0  0.59898223167E+02  0.10723509425E+02  0.21629806338E+04  0.21638364109E+04  0.00000000000E+00 0. -1.
<scales pt_clust_3="14000.00000" pt_clust_4="50.84687" pt_clust_5="75.86373" pt_clust_6="62.23676"></scales>
<clustering>
<clus scale="   50.847">  2  4  1 -1</clus>
<clus scale="   62.237">  1  6  2 -1</clus>
<clus scale="   75.864">  2  5  1 -1</clus>
<clus scale="   50.847">  2  3  1 -1</clus>
</clustering>
</event>
<event>
 6    0  0.4189111E+002  0.1205280E+03  0.7546771E-02  0.1242229E+00
         21   -1    0    0  503  502  0.00000000000E+00  0.00000000000E+00  0.78147468078E+02  0.78147468078E+02  0.00000000000E+00 0.  1.
          2   -1    0    0  505    0 -0.00000000000E+00 -0.00000000000E+00 -0.22906106973E+04  0.22906106973E+04  0.00000000000E+00 0.  1.
         21    1    1    2  503  504 -0.58389941149E+02 -0.12886342586E+01 -0.25204204028E+02  0.63610515690E+02  0.00000000000E+00 0.  1.
         21    1    1    2  504  501  0.39462305046E+02  0.67057642674E+02  0.22393960821E+02  0.80965983239E+02  0.00000000000E+00 0.  1.
         21    1    1    2  505  502 -0.42420086490E+02  0.41352382711E+02 -0.15675713723E+03  0.16757769353E+03  0.00000000000E+00 0.  1.
          2    1    1    2  501    0  0.61347722594E+02 -0.10712139113E+03 -0.20528958488E+04  0.20566039730E+04  0.00000000000E+00 0.  1.
<scales pt_clust_3="58.40416" pt_clust_4="120.52802" pt_clust_5="63.11204" pt_clust_6="14000.00000"></scales>
<clustering>
<clus scale="   58.404">  1  3  2 -1</clus>
<clus scale="   63.112">  1  5  2 -1</clus>
<clus scale="  120.528">  1  4  2 -1</clus>
<clus scale="   58.404">  1  3  2 -1</clus>
</clustering>
</event>
<event>
 6    0  0.4189111E+002  0.1205250E+03  0.7546771E-02  0.1242234E+00
         21   -1    0    0  505  502  0.00000000000E+00  0.00000000000E+00  0.26143291170E+03  0.26143291170E+03  0.00000000000E+00 0.  1.
          2   -1    0    0  503    0 -0.00000000000E+00 -0.00000000000E+00 -0.46361804660E+03  0.46361804660E+03  0.00000000000E+00 0.  1.
         21    1    1    2  503  504 -0.84523781140E+02 -0.36198951587E+02 -0.37080006418E+01  0.92023817259E+02  0.00000000000E+00 0.  1.
         21    1    1    2  504  502  0.13833268125E+03 -0.11675460432E+02  0.17840510131E+03  0.22605447850E+03  0.00000000000E+00 0.  1.
         21    1    1    2  505  501 -0.80835371785E+02  0.23514565737E+01 -0.12009605145E+03  0.14478587035E+03  0.00000000000E+00 0.  1.
          2    1    1    2  501    0  0.27026471674E+02  0.45522955445E+02 -0.25678618412E+03  0.26218679219E+03  0.00000000000E+00 0.  1.
<scales pt_clust_3="120.52496" pt_clust_4="14000.00000" pt_clust_5="70.87827" pt_clust_6="52.94119"></scales>
<clustering>
<clus scale="   52.941">  2  6  1 -1</clus>
<clus scale="   70.878">  2  5  1 -1</clus>
<clus scale="  120.525">  2  3  1 -1</clus>
<clus scale="  120.525">  1  3  2 -1</clus>
</clustering>
</event>
<event>
 6    0  0.4189111E+002  0.7278800E+02  0.7546771E-02  0.1350861E+00
          1   -1    0    0  504    0 -0.00000000000E+00  0.00000000000E+00  0.67232516925E+03  0.67232516925E+03  0.00000000000E+00 0.  1.
         21   -1    0    0  501  502  0.00000000000E+00 -0.00000000000E+00 -0.27644505607E+03  0.27644505607E+03  0.00000000000E+00 0.  1.
         21    1    1    2  503  502 -0.30647903290E+02 -0.15322473059E+01 -0.14803129504E+03  0.15117839154E+03  0.00000000000E+00 0.  1.
         21    1    1    2  504  505 -0.33794768273E+02  0.64191204441E+02  0.61701211715E+03  0.62126206210E+03  0.00000000000E+00 0.  1.
         21    1    1    2  505  503  0.10107494416E+03 -0.42034966285E+02 -0.77407363467E+02  0.13407081206E+03  0.00000000000E+00 0.  1.
          1    1    1    2  501    0 -0.36632272602E+02 -0.20623990850E+02  0.43066545487E+01  0.42258959617E+02  0.00000000000E+00 0.  1.
<scales pt_clust_3="30.68618" pt_clust_4="72.78800" pt_clust_5="14000.00000" pt_clust_6="46.19233"></scales>
<clustering>
<clus scale="   30.686">  2  3  1 -1</clus>
<clus scale="   46.192">  2  6  1 -1</clus>
<clus scale="   72.788">  1  4  2 -1</clus>
<clus scale="   30.686">  2  3  1 -1</clus>
</clustering>
</event>
<event>
 6    0  0.4189111E+002  0.1584608E+03  0.7546771E-02  0.1190446E+00
         21   -1    0    0  504  502  0.00000000000E+00  0.00000000000E+00  0.59857479354E+02  0.59857479354E+02  0.00000000000E+00 0. -1.
          1   -1    0    0  505    0 -0.00000000000E+00 -0.00000000000E+00 -0.29285577398E+04  0.29285577398E+04  0.00000000000E+00 0.  1.
         21    1    1    2  503  501  0.10108634854E+01  0.14071461591E+03 -0.13122346347E+04  0.13197580693E+04  0.00000000000E+00 0.  1.
         21    1    1    2  504  503 -0.13890872967E+02 -0.17514372734E+03 -0.16169775707E+03  0.23877698008E+03  0.00000000000E+00 0. -1.
         21    1    1    2  505  502 -0.30757865191E+02  0.21271501491E+02 -0.31643707134E+01  0.37530471471E+02  0.00000000000E+00 0.  1.
          1    1    1    2  501    0  0.43637874673E+02  0.13157609931E+02 -0.13916034980E+04  0.13923496983E+04  0.00000000000E+00 0.  1.
<scales pt_clust_3="158.46077" pt_clust_4="14000.00000" pt_clust_5="37.39683" pt_clust_6="45.37530"></scales>
<clustering>
<clus scale="   37.397">  1  5  2 -1</clus>
<clus scale="   45.375">  2  6  1 -1</clus>
<clus scale="  158.461">  2  3  1 -1</clus>
<clus scale="   37.397">  1  3  2 -1</clus>
</clustering>
</event>
<event>
 6    0  0.4189111E+002  0.1077020E+03  0.7546771E-02  0.1264885E+00
          1   -1    0    0  504    0 -0.00000000000E+00  0.00000000000E+00  0.11091248522E+03  0.11091248522E+03  0.00000000000E+00 0.  1.
         21   -1    0    0  501  502  0.00000000000E+00 -0.00000000000E+00 -0.42332435787E+03  0.42332435787E+03  0.00000000000E+00 0.  1.
         21    1    1    2  503  502 -0.40601607411E+02 -0.22678641248E+02 -0.21445523686E+03  0.21943987766E+03  0.00000000000E+00 0.  1.
         21    1    1    2  504  505  0.19694515807E+02  0.13360894207E+03 -0.50879552896E+02  0.14431892550E+03  0.00000000000E+00 0.  1.
         21    1    1    2  505  503 -0.38020246633E+02 -0.78478238663E+02 -0.54444335158E+02  0.10280349570E+03  0.00000000000E+00 0.  1.
          1    1    1    2  501    0  0.58927338237E+02 -0.32452062156E+02  0.73672522587E+01  0.67674544223E+02  0.00000000000E+00 0.  1.
<scales pt_clust_3="46.50604" pt_clust_4="107.70205" pt_clust_5="14000.00000" pt_clust_6="63.93478"></scales>
<clustering>
<clus scale="   46.506">  2  3  1 -1</clus>
<clus scale="   63.935">  1  6  2 -1</clus>
<clus scale="  107.702">  1  4  2 -1</clus>
<clus scale="   46.506">  2  3  1 -1</clus>
</clustering>
</event>
<event>
 6    0  0.4189111E+002  0.8128580E+02  0.7546771E-02  0.1325442E+00
         21   -1    0    0  503  502  0.00000000000E+00  0.00000000000E+00  0.31147964073E+04  0.31147964073E+04  0.00000000000E+00 0.  1.
          1   -1    0    0  505    0 -0.00000000000E+00 -0.00000000000E+00 -0.14591492636E+02  0.14591492636E+02  0.00000000000E+00 0.  1.
         21    1    1    2  503  501  0.18810995167E+02  0.36935468228E+02  0.16428901695E+04  0.16434129704E+04  0.00000000000E+00 0.  1.
         21    1    1    2  504  502  0.33136756857E+02 -0.95040787663E+02  0.11330778842E+04  0.11375395763E+04  0.00000000000E+00 0.  1.
         21    1    1    2  505  504 -0.28600113615E+02 -0.17715706409E+02  0.18628201786E+03  0.18929554387E+03  0.00000000000E+00 0. -1.
          1    1    1    2  501    0 -0.23347638408E+02  0.75821025844E+02  0.13795484312E+03  0.15913980935E+03  0.00000000000E+00 0.  1.
<scales pt_clust_3="40.87657" pt_clust_4="14000.00000" pt_clust_5="33.64242" pt_clust_6="81.28580"></scales>
<clustering>
<clus scale="   33.642">  2  5  1 -1</clus>
<clus scale="   40.877">  1  3  2 -1</clus>
<clus scale="   81.286">  2  6  1 -1</clus>
<clus scale="   40.877">  1  3  2 -1</clus>
</clustering>
</event>
<event>
 6    0  0.4189111E+002  0.1350480E+03  0.7546771E-02  0.1220152E+00
         -2   -1    0    0    0  501 -0.00000000000E+00  0.00000000000E+00  0.17250057268E+04  0.17250057268E+04  0.00000000000E+00 0.  1.
         21   -1    0    0  505  502  0.00000000000E+00 -0.00000000000E+00 -0.34663233437E+02  0.34663233437E+02  0.00000000000E+00 0.  1.
         21    1    1    2  503  502  0.29575075321E+02  0.18394017946E+02  0.29486455490E+02  0.45634154247E+02  0.00000000000E+00 0. -1.
         21    1    1    2  504  501  0.17666271426E+02 -0.14308507750E+03  0.14018030365E+04  0.14091973565E+04  0.00000000000E+00 0.  1.
         21    1    1    2  505  504 -0.43593881678E+01  0.89621116864E+02  0.90610129970E+02  0.12751919270E+03  0.00000000000E+00 0.  1.
         -2    1    1    2    0  503 -0.42881958579E+02  0.35069942686E+02  0.16844287147E+03  0.17731825682E+03  0.00000000000E+00 0.  1.
<scales pt_clust_3="34.82851" pt_clust_4="135.04798" pt_clust_5="14000.00000" pt_clust_6="53.80097"></scales>
<clustering>
<clus scale="   34.829">  2  3  1 -1</clus>
<clus scale="   53.801">  2  6  1 -1</clus>
<clus scale="  135.048">  1  4  2 -1</clus>
<clus scale="   34.829">  2  3  1 -1</clus>
</clustering>
</event>
<event>
 6    0  0.4189111E+002  0.1422928E+03  0.7546771E-02  0.1210277E+00
          2   -1    0    0  504    0 -0.00000000000E+00  0.00000000000E+00  0.71886072196E+03  0.71886072196E+03  0.00000000000E+00 0.  1.
         21   -1    0    0  503  502  0.00000000000E+00 -0.00000000000E+00 -0.42269466677E+04  0.42269466677E+04  0.00000000000E+00 0. -1.
         21    1    1    2  503  505 -0.12266241096E+03  0.73755732632E+02 -0.41942079958E+04  0.41966494597E+04  0.00000000000E+00 0. -1.
         21    1    1    2  504  502  0.77887873678E+00 -0.44644086364E+02  0.21732983398E+03  0.22186923589E+03  0.00000000000E+00 0.  1.
         21    1    1    2  505  501  0.95366457136E+02 -0.10456656552E+02  0.51782998992E+02  0.10902101539E+03  0.00000000000E+00 0. -1.
          2    1    1    2  501    0  0.26517075088E+02 -0.18654989716E+02  0.41700921710E+03  0.41826767871E+03  0.00000000000E+00 0.  1.
<scales pt_clust_3="14000.00000" pt_clust_4="61.61826" pt_clust_5="142.29280" pt_clust_6="32.42166"></scales>
<clustering>
<clus scale="   32.422">  1  6  2 -1</clus>
<clus scale="   61.618">  1  4  2 -1</clus>
<clus scale="  142.293">  1  5  2 -1</clus>
<clus scale="  142.293">  2  3  1 -1</clus>
</clustering>
</event>
<event>
 6    0  0.4189111E+002  0.7448538E+02  0.7546771E-02  0.1345472E+00
         21   -1    0    0  501  502  0.00000000000E+00  0.00000000000E+00  0.37998769658E+03  0.37998769658E+03  0.00000000000E+00 0.  1.
          1   -1    0    0  504    0 -0.00000000000E+00 -0.00000000000E+00 -0.17618737393E+03  0.17618737393E+03  0.00000000000E+00 0.  1.
         21    1    1    2  503  505  0.31735408582E+02  0.10299770668E+03  0.63697784668E+02  0.12519213838E+03  0.00000000000E+00 0.  1.
         21    1    1    2  504  503  0.13169692234E+02 -0.47361344299E+02  0.28496471405E+01  0.49240818598E+02  0.00000000000E+00 0.  1.
         21    1    1    2  505  502  0.21698982710E+02 -0.52894815062E+02  0.24689382893E+03  0.25342705079E+03  0.00000000000E+00 0.  1.
          1    1    1    2  501    0 -0.66604083525E+02 -0.27415473189E+01 -0.10964093808E+03  0.12831506274E+03  0.00000000000E+00 0.  1.
<scales pt_clust_3="74.48538" pt_clust_4="49.15829" pt_clust_5="58.21504" pt_clust_6="14000.00000"></scales>
<clustering>
<clus scale="   49.158">  2  4  1 -1</clus>
<clus scale="   58.215">  1  5  2 -1</clus>
<clus scale="   74.485">  1  3  2 -1</clus>
<clus scale="   58.215">  1  3  2 -1</clus>
</clustering>
</event>
<event>
 6    0  0.4189111E+002  0.1771778E+03  0.7546771E-02  0.1170563E+00
         21   -1    0    0  501  502  0.00000000000E+00  0.00000000000E+00  0.50893986074E+03  0.50893986074E+03  0.00000000000E+00 0.  1.
          2   -1    0    0  505    0 -0.00000000000E+00 -0.00000000000E+00 -0.29512085558E+04  0.29512085558E+04  0.00000000000E+00 0.  1.
         21    1    1    2  503  504 -0.71008314129E+02 -0.57745472768E+02  0.24601591906E+03  0.26248914784E+03  0.00000000000E+00 0.  1.
         21    1    1    2  504  502  0.68569049848E+01 -0.85456957340E+02  0.23713292746E+03  0.25215458352E+03  0.00000000000E+00 0.  1.
         21    1    1    2  505  503  0.50932647135E+02 -0.14978741273E+01 -0.71004540099E+02  0.87395782998E+02  0.00000000000E+00 0.  1.
          2    1    1    2  501    0  0.13218762009E+02  0.14470030424E+03 -0.28544130015E+04  0.28581089022E+04  0.00000000000E+00 0.  1.
<scales pt_clust_3="79.88267" pt_clust_4="79.88267" pt_clust_5="50.95467" pt_clust_6="156.80861"></scales>
<clustering>
<clus scale="   50.955">  2  5  1 -1</clus>
<clus scale="   79.883">  3  4 -1 -1</clus>
<clus scale="  156.809">  2  6  1 -1</clus>
<clus scale="  177.178">  1  3  2 -1</clus>
</clustering>
</event>
<event>
 6    0  0.4189111E+002  0.8124304E+02  0.7546771E-02  0.1325560E+00
         21   -1    0    0  504  502  0.00000000000E+00  0.00000000000E+00  0.37587164075E+02  0.37587164075E+02  0.00000000000E+00 0. -1.
          1   -1    0    0  505    0 -0.00000000000E+00 -0.00000000000E+00 -0.13808138612E+04  0.13808138612E+04  0.00000000000E+00 0. -1.
         21    1    1    2  503  502  0.45269784199E+02 -0.25915137140E+01 -0.54534338268E+02  0.70922939555E+02  0.00000000000E+00 0. -1.
         21    1    1    2  504  501 -0.37300746856E+02 -0.32997315535E+02 -0.22998139133E+01  0.49854364830E+02  0.00000000000E+00 0. -1.
         21    1    1    2  505  503  0.77445752642E+02  0.24387178309E+02 -0.74633118217E+03  0.75073484836E+03  0.00000000000E+00 0. -1.
          1    1    1    2  501    0 -0.85414789985E+02  0.11201650940E+02 -0.54006136277E+03  0.54688887252E+03  0.00000000000E+00 0. -1.
<scales pt_clust_3="45.34390" pt_clust_4="35.10030" pt_clust_5="14000.00000" pt_clust_6="81.24304"></scales>
<clustering>
<clus scale="   45.344">  1  3  2 -1</clus>
<clus scale="   35.100">  1  4  2 -1</clus>
<clus scale="   81.243">  1  6  2 -1</clus>
<clus scale="   45.344">  1  3  2 -1</clus>
</clustering>
</event>
<event>
 6    0  0.4189111E+002  0.7846224E+02  0.7546771E-02  0.1333473E+00
         21   -1    0    0  504  502  0.00000000000E+00  0.00000000000E+00  0.73060308127E+02  0.73060308127E+02  0.00000000000E+00 0. -1.
          1   -1    0    0  503    0 -0.00000000000E+00 -0.00000000000E+00 -0.84045043383E+03  0.84045043383E+03  0.00000000000E+00 0. -1.
         21    1    1    2  503  505 -0.36325188356E+02  0.22974484565E+02 -0.12059488390E+03  0.12802527982E+03  0.00000000000E+00 0. -1.
         21    1    1    2  504  501  0.75907593889E+02  0.57730341765E+02 -0.60705334440E+02  0.11304818795E+03  0.00000000000E+00 0. -1.
         21    1    1    2  505  502 -0.76580731537E+02 -0.11354829559E+01  0.31939840089E+01  0.76655719278E+02  0.00000000000E+00 0. -1.
          1    1    1    2  501    0  0.36998326003E+02 -0.79569343374E+02 -0.58928389137E+03  0.59578155491E+03  0.00000000000E+00 0. -1.
<scales pt_clust_3="42.98077" pt_clust_4="14000.00000" pt_clust_5="78.46224" pt_clust_6="60.95700"></scales>
<clustering>
<clus scale="   42.981">  2  3  1 -1</clus>
<clus scale="   60.957">  2  6  1 -1</clus>
<clus scale="   78.462">  1  5  2 -1</clus>
<clus scale="   78.462">  1  3  2 -1</clus>
</clustering>
</event>
<event>
 6    0  0.4189111E+002  0.1169329E+03  0.7546771E-02  0.1248244E+00
         21   -1    0    0  503  502  0.00000000000E+00  0.00000000000E+00  0.13511523906E+03  0.13511523906E+03  0.00000000000E+00 0. -1.
          1   -1    0    0  504    0 -0.00000000000E+00 -0.00000000000E+00 -0.27640509370E+04  0.27640509370E+04  0.00000000000E+00 0.  1.
         21    1    1    2  503  501  0.41119024210E+02 -0.67191518481E+02  0.11379402257E+02  0.79592494015E+02  0.00000000000E+00 0. -1.
         21    1    1    2  504  505 -0.35260789917E+02  0.10541935091E+02 -0.28763864584E+03  0.28998352760E+03  0.00000000000E+00 0. -1.
         21    1    1    2  505  502  0.60192877532E+02  0.22069559109E+01  0.77361478786E+02  0.98045150620E+02  0.00000000000E+00 0. -1.
          1    1    1    2  501    0 -0.66051111825E+02  0.54442627479E+02 -0.24300379331E+04  0.24315450038E+04  0.00000000000E+00 0.  1.
<scales pt_clust_3="116.93287" pt_clust_4="36.80293" pt_clust_5="60.08773" pt_clust_6="14000.00000"></scales>
<clustering>
<clus scale="   36.803">  2  4  1 -1</clus>
<clus scale="   60.088">  1  5  2 -1</clus>
<clus scale="  116.933">  1  3  2 -1</clus>
<clus scale="   60.088">  1  3  2 -1</clus>
</clustering>
</event>
<event>
 6    0  0.4189111E+002  0.8592390E+02  0.7546771E-02  0.1313034E+00
          2   -1    0    0  503    0 -0.00000000000E+00  0.00000000000E+00  0.13459792214E+04  0.13459792214E+04  0.00000000000E+00 0.  1.
         21   -1    0    0  505  502  0.00000000000E+00 -0.00000000000E+00 -0.26234638141E+02  0.26234638141E+02  0.00000000000E+00 0. -1.
         21    1    1    2  503  504  0.11234269352E+02  0.34967612033E+02  0.51111756208E+03  0.51243546419E+03  0.00000000000E+00 0.  1.
         21    1    1    2  504  502 -0.31730297238E+00  0.39700831066E+02  0.27930575947E+02  0.48542494180E+02  0.00000000000E+00 0. -1.
         21    1    1    2  505  501  0.30341490147E+02 -0.12227609172E+03  0.28566966445E+03  0.31221660080E+03  0.00000000000E+00 0. -1.
          2    1    1    2  501    0 -0.41258456527E+02  0.47607648618E+02  0.49502678076E+03  0.49901930034E+03  0.00000000000E+00 0.  1.
<scales pt_clust_3="36.72796" pt_clust_4="41.30408" pt_clust_5="14000.00000" pt_clust_6="85.92390"></scales>
<clustering>
<clus scale="   36.728">  1  3  2 -1</clus>
<clus scale="   41.304">  2  4  1 -1</clus>
<clus scale="   85.924">  1  6  2 -1</clus>
<clus scale="   41.304">  2  3  1 -1</clus>
</clustering>
</event>
<event>
 6    0  0.4189111E+002  0.9471614E+02  0.7546771E-02  0.1291817E+00
         21   -1    0    0  504  502  0.00000000000E+00  0.00000000000E+00  0.24431060657E+03  0.24431060657E+03  0.00000000000E+00 0.  1.
          2   -1    0    0  503    0 -0.00000000000E+00 -0.00000000000E+00 -0.16458137758E+04  0.16458137758E+04  0.00000000000E+00 0.  1.
         21    1    1    2  503  502 -0.71517728719E+02  0.37421932868E+00  0.22352682399E+03  0.23468951107E+03  0.00000000000E+00 0.  1.
         21    1    1    2  504  505  0.43964692940E+02  0.81079339551E+02 -0.14238920016E+03  0.16965092941E+03  0.00000000000E+00 0.  1.
         21    1    1    2  505  501  0.31415450269E+01 -0.56424740870E+02 -0.66533717896E+03  0.66773286754E+03  0.00000000000E+00 0.  1.
          2    1    1    2  501    0  0.24411490752E+02 -0.25028818010E+02 -0.81730361409E+03  0.81805107433E+03  0.00000000000E+00 0.  1.
<scales pt_clust_3="71.51871" pt_clust_4="83.87371" pt_clust_5="34.61154" pt_clust_6="34.61154"></scales>
<clustering>
<clus scale="   34.612">  5  6 -1 -1</clus>
<clus scale="   71.519">  1  3  2 -1</clus>
<clus scale="   83.874">  1  4  2 -1</clus>
<clus scale="   71.519">  1  3  2 -1</clus>
</clustering>
</event>
<event>
 6    0  0.4189111E+002  0.1551602E+03  0.7546771E-02  0.1194272E+00
          2   -1    0    0  504    0 -0.00000000000E+00  0.00000000000E+00  0.80779560723E+03  0.80779560723E+03  0.00000000000E+00 0.  1.
         21   -1    0    0  505  502  0.00000000000E+00 -0.00000000000E+00 -0.73407625941E+03  0.73407625941E+03  0.00000000000E+00 0.  1.
         21    1    1    2  503  502 -0.73648482595E+02  0.51326990694E+01 -0.97344975023E+02  0.12217400604E+03  0.00000000000E+00 0. -1.
         21    1    1    2  504  503 -0.42051952657E+02 -0.22391040105E+02  0.84811450013E+02  0.97276448601E+02  0.00000000000E+00 0. -1.
         21    1    1    2  505  501  0.85642384880E+02  0.15042004065E+03 -0.59910076013E+03  0.62360446399E+03  0.00000000000E+00 0.  1.
          2    1    1    2  501    0  0.30058050373E+02 -0.13316169961E+03  0.68535363296E+03  0.69881694802E+03  0.00000000000E+00 0.  1.
<scales pt_clust_3="74.52804" pt_clust_4="47.64164" pt_clust_5="155.16018" pt_clust_6="14000.00000"></scales>
<clustering>
<clus scale="   47.642">  1  4  2 -1</clus>
<clus scale="   74.528">  2  3  1 -1</clus>
<clus scale="  155.160">  2  5  1 -1</clus>
<clus scale="   74.528">  2  3  1 -1</clus>
</clustering>
</event>
<event>
 6    0  0.4189111E+002  0.1098834E+03  0.7546771E-02  0.1260786E+00
         -3   -1    0    0    0  501 -0.00000000000E+00  0.00000000000E+00  0.11873959180E+04  0.11873959180E+04  0.00000000000E+00 0.  1.
         21   -1    0    0  503  502  0.00000000000E+00 -0.00000000000E+00 -0.46904135472E+02  0.46904135472E+02  0.00000000000E+00 0.  1.
         21    1    1    2  503  501  0.10788237295E+03  0.22097365207E+02  0.47217887640E+02  0.11981831602E+03  0.00000000000E+00 0.  1.
         21    1    1    2  504  505 -0.29140917601E+02 -0.36981775185E+02  0.17101393380E+03  0.17737702875E+03  0.00000000000E+00 0.  1.
         21    1    1    2  505  502 -0.41136614353E+02 -0.28300030430E+02  0.90372426197E+02  0.10324867156E+03  0.00000000000E+00 0.  1.
         -3    1    1    2    0  504 -0.37604840993E+02  0.43184440409E+02  0.83188753489E+03  0.83385603713E+03  0.00000000000E+00 0.  1.
<scales pt_clust_3="104.14917" pt_clust_4="34.01929" pt_clust_5="34.01929" pt_clust_6="57.26273"></scales>
<clustering>
<clus scale="   34.019">  4  5 -1 -1</clus>
<clus scale="   57.263">  1  6  2 -1</clus>
<clus scale="  104.149">  2  3  1 -1</clus>
<clus scale="  104.149">  2  3  1 -1</clus>
</clustering>
</event>
<event>
 6    0  0.4189111E+002  0.8631835E+02  0.7546771E-02  0.1312020E+00
         21   -1    0    0  504  502  0.00000000000E+00  0.00000000000E+00  0.50653867293E+02  0.50653867293E+02  0.00000000000E+00 0.  1.
         -1   -1    0    0    0  501 -0.00000000000E+00 -0.00000000000E+00 -0.16586476070E+04  0.16586476070E+04  0.00000000000E+00 0. -1.
         21    1    1    2  503  501  0.71021575452E+02 -0.28390576659E+01 -0.23949953558E+03  0.24982424216E+03  0.00000000000E+00 0. -1.
         21    1    1    2  504  503  0.11724530940E+03  0.42274413328E+01 -0.63191669585E+02  0.13325734855E+03  0.00000000000E+00 0.  1.
         21    1    1    2  505  502 -0.47067416357E+02 -0.11830211549E+02 -0.86197891698E+02  0.98921039830E+02  0.00000000000E+00 0. -1.
         -1    1    1    2    0  505 -0.14119946850E+03  0.10441827882E+02 -0.12191046428E+04  0.12272988437E+04  0.00000000000E+00 0. -1.
<scales pt_clust_3="65.67137" pt_clust_4="86.31835" pt_clust_5="48.53139" pt_clust_6="14000.00000"></scales>
<clustering>
<clus scale="   48.531">  1  5  2 -1</clus>
<clus scale="   65.671">  2  3  1 -1</clus>
<clus scale="   86.318">  1  4  2 -1</clus>
<clus scale="   48.531">  1  3  2 -1</clus>
</clustering>
</event>
<event>
 6    0  0.4189111E+002  0.8124495E+02  0.7546771E-02  0.1325555E+00
          3   -1    0    0  505    0 -0.00000000000E+00  0.00000000000E+00  0.14958733157E+04  0.14958733157E+04  0.00000000000E+00 0.  1.
         21   -1    0    0  503  502  0.00000000000E+00 -0.00000000000E+00 -0.11642701621E+03  0.11642701621E+03  0.00000000000E+00 0. -1.
         21    1    1    2  503  501  0.66828601798E+02 -0.10869290408E+03 -0.50379847685E+02  0.13717994922E+03  0.00000000000E+00 0. -1.
         21    1    1    2  504  502 -0.73540205938E+02  0.25982509664E+02  0.53353486415E+02  0.94497868814E+02  0.00000000000E+00 0. -1.
         21    1    1    2  505  504 -0.26403184176E+02  0.63285399654E+02  0.88543156655E+03  0.88808289534E+03  0.00000000000E+00 0. -1.
          3    1    1    2  501    0  0.33114788316E+02  0.19424994763E+02  0.49104109426E+03  0.49253961859E+03  0.00000000000E+00 0.  1.
<scales pt_clust_3="81.24495" pt_clust_4="76.20346" pt_clust_5="14000.00000" pt_clust_6="38.39166"></scales>
<clustering>
<clus scale="   38.392">  1  6  2 -1</clus>
<clus scale="   76.203">  2  4  1 -1</clus>
<clus scale="   81.245">  2  3  1 -1</clus>
<clus scale="   76.203">  2  3  1 -1</clus>
</clustering>
</event>
<event>
 6    0  0.4189111E+002  0.2093916E+03  0.7546771E-02  0.1142049E+00
          2   -1    0    0  504    0 -0.00000000000E+00  0.00000000000E+00  0.62066771388E+03  0.62066771388E+03  0.00000000000E+00 0. -1.
         21   -1    0    0  503  502  0.00000000000E+00 -0.00000000000E+00 -0.12814700995E+04  0.12814700995E+04  0.00000000000E+00 0.  1.
         21    1    1    2  503  505 -0.11566128324E+03 -0.20550136273E+02 -0.69579317995E+03  0.70564012769E+03  0.00000000000E+00 0.  1.
         21    1    1    2  504  502  0.47047705424E+02 -0.20980274409E+01  0.47672209269E+02  0.67011400831E+02  0.00000000000E+00 0. -1.
         21    1    1    2  505  501 -0.42951827080E+02  0.16456092383E+03 -0.54314459598E+03  0.56914954911E+03  0.00000000000E+00 0.  1.
          2    1    1    2  501    0  0.11156540489E+03 -0.14191276012E+03  0.53046318102E+03  0.56033673579E+03  0.00000000000E+00 0. -1.
<scales pt_clust_3="117.07111" pt_clust_4="47.09446" pt_clust_5="14000.00000" pt_clust_6="209.39157"></scales>
<clustering>
<clus scale="   47.094">  1  4  2 -1</clus>
<clus scale="  117.071">  2  3  1 -1</clus>
<clus scale="  209.392">  1  6  2 -1</clus>
<clus scale="  117.071">  2  3  1 -1</clus>
</clustering>
</event>
<event>
 6    0  0.4189111E+002  0.1055284E+03  0.7546771E-02  0.1269082E+00
         -2   -1    0    0    0  501 -0.00000000000E+00  0.00000000000E+00  0.85962919184E+03  0.85962919184E+03  0.00000000000E+00 0. -1.
         21   -1    0    0  503  502  0.00000000000E+00 -0.00000000000E+00 -0.35955079692E+03  0.35955079692E+03  0.00000000000E+00 0.  1.
         21    1    1    2  503  504  0.85220820589E+01 -0.33662010560E+02 -0.17957077672E+03  0.18289729547E+03  0.00000000000E+00 0. -1.
         21    1    1    2  504  501 -0.32440376572E+02 -0.64062515063E+02 -0.15511336723E+03  0.17092846621E+03  0.00000000000E+00 0.  1.
         21    1    1    2  505  502 -0.39121350078E+02  0.12176481559E+02  0.23645987623E+02  0.47306230729E+02  0.00000000000E+00 0. -1.
         -2    1    1    2    0  505  0.63039644591E+02  0.85548044064E+02  0.81111655125E+03  0.81804799636E+03  0.00000000000E+00 0. -1.
<scales pt_clust_3="34.72401" pt_clust_4="14000.00000" pt_clust_5="39.81746" pt_clust_6="105.52837"></scales>
<clustering>
<clus scale="   34.724">  2  3  1 -1</clus>
<clus scale="   39.817">  2  5  1 -1</clus>
<clus scale="  105.528">  1  6  2 -1</clus>
<clus scale="   34.724">  2  3  1 -1</clus>
</clustering>
</event>
<event>
 6    0  0.4189111E+002  0.7174291E+02  0.7546771E-02  0.1354265E+00
         21   -1    0    0  505  502  0.00000000000E+00  0.00000000000E+00  0.14751861985E+04  0.14751861985E+04  0.00000000000E+00 0. -1.
          2   -1    0    0  503    0 -0.00000000000E+00 -0.00000000000E+00 -0.17623100243E+02  0.17623100243E+02  0.00000000000E+00 0. -1.
         21    1    1    2  503  502 -0.22748684334E+02 -0.32230499549E+02  0.10174327949E+03  0.10912379512E+03  0.00000000000E+00 0. -1.
         21    1    1    2  504  501  0.27978648767E+02  0.12569014157E+03  0.71167860906E+03  0.72323388960E+03  0.00000000000E+00 0. -1.
         21    1    1    2  505  504 -0.24670266732E+02 -0.52358586674E+02  0.57369406630E+03  0.57660638686E+03  0.00000000000E+00 0. -1.
          2    1    1    2  501    0  0.19440302298E+02 -0.41101055346E+02  0.70447143425E+02  0.83845227179E+02  0.00000000000E+00 0. -1.
<scales pt_clust_3="39.45007" pt_clust_4="14000.00000" pt_clust_5="71.74291" pt_clust_6="57.23287"></scales>
<clustering>
<clus scale="   39.450">  2  3  1 -1</clus>
<clus scale="   57.233">  2  6  1 -1</clus>
<clus scale="   71.743">  1  5  2 -1</clus>
<clus scale="   71.743">  1  3  2 -1</clus>
</clustering>
</event>
<event>
 6    0  0.4189111E+002  0.1563820E+03  0.7546771E-02  0.1192843E+00
         21   -1    0    0  503  502  0.00000000000E+00  0.00000000000E+00  0.40570088742E+03  0.40570088742E+03  0.00000000000E+00 0. -1.
          1   -1    0    0  505    0 -0.00000000000E+00 -0.00000000000E+00 -0.56126226864E+03  0.56126226864E+03  0.00000000000E+00 0. -1.
         21    1    1    2  503  501 -0.62073566364E+02  0.52909855097E+02  0.70955557529E+02  0.10810768498E+03  0.00000000000E+00 0. -1.
         21    1    1    2  504  502  0.13321488394E+03  0.90897883486E+02  0.27798589604E+03  0.32137950918E+03  0.00000000000E+00 0. -1.
         21    1    1    2  505  504  0.12549808063E+02 -0.46240997979E+02 -0.73710798371E+02  0.87914784724E+02  0.00000000000E+00 0. -1.
          1    1    1    2  501    0 -0.83691125640E+02 -0.97566740603E+02 -0.43079203642E+03  0.44956117718E+03  0.00000000000E+00 0. -1.
<scales pt_clust_3="80.04113" pt_clust_4="14000.00000" pt_clust_5="47.91375" pt_clust_6="156.38203"></scales>
<clustering>
<clus scale="   47.914">  2  5  1 -1</clus>
<clus scale="   80.041">  1  3  2 -1</clus>
<clus scale="  156.382">  2  6  1 -1</clus>
<clus scale="   80.041">  1  3  2 -1</clus>
</clustering>
</event>
<event>
 6    0  0.4189111E+002  0.1003153E+03  0.7546771E-02  0.1279634E+00
         21   -1    0    0  505  502  0.00000000000E+00  0.00000000000E+00  0.23263540283E+03  0.23263540283E+03  0.00000000000E+00 0.  1.
          1   -1    0    0  504    0 -0.00000000000E+00 -0.00000000000E+00 -0.17649963283E+03  0.17649963283E+03  0.00000000000E+00 0.  1.
         21    1    1    2  503  502 -0.53615591896E+02 -0.13272247563E+02  0.70278234583E+02  0.89385762322E+02  0.00000000000E+00 0.  1.
         21    1    1    2  504  503  0.14928917392E+03  0.42781995663E+02  0.65213184317E+02  0.16843490140E+03  0.00000000000E+00 0.  1.
         21    1    1    2  505  501 -0.56970961771E+02 -0.44107051095E+02 -0.13135616694E+02  0.73237059385E+02  0.00000000000E+00 0.  1.
          1    1    1    2  501    0 -0.38702620249E+02  0.14597302996E+02 -0.66220032206E+02  0.78077312545E+02  0.00000000000E+00 0.  1.
<scales pt_clust_3="58.39188" pt_clust_4="14000.00000" pt_clust_5="100.31531" pt_clust_6="41.36392"></scales>
<clustering>
<clus scale="   41.364">  2  6  1 -1</clus>
<clus scale="   58.392">  1  3  2 -1</clus>
<clus scale="  100.315">  2  5  1 -1</clus>
<clus scale="   58.392">  1  3  2 -1</clus>
</clustering>
</event>
<event>
 6    0  0.4189111E+002  0.2165371E+03  0.7546771E-02  0.1136491E+00
         21   -1    0    0  505  502  0.00000000000E+00  0.00000000000E+00  0.15693730116E+03  0.15693730116E+03  0.00000000000E+00 0.  1.
          2   -1    0    0  504    0 -0.00000000000E+00 -0.00000000000E+00 -0.88711406448E+03  0.88711406448E+03  0.00000000000E+00 0. -1.
         21    1    1    2  503  501  0.23121784042E+03 -0.92647529621E+02 -0.47855189971E+02  0.25364418716E+03  0.00000000000E+00 0.  1.
         21    1    1    2  504  502 -0.10926756133E+02  0.34052321053E+02 -0.65285531408E+02  0.74438935913E+02  0.00000000000E+00 0.  1.
         21    1    1    2  505  503 -0.25535947807E+02  0.31114719062E+02  0.23023082397E+02  0.46371032939E+02  0.00000000000E+00 0.  1.
          2    1    1    2  501    0 -0.19475513648E+03  0.27480489506E+02 -0.64005912434E+03  0.66959720963E+03  0.00000000000E+00 0. -1.
<scales pt_clust_3="216.53706" pt_clust_4="35.76247" pt_clust_5="40.72729" pt_clust_6="14000.00000"></scales>
<clustering>
<clus scale="   35.762">  2  4  1 -1</clus>
<clus scale="   40.727">  1  5  2 -1</clus>
<clus scale="  216.537">  1  3  2 -1</clus>
<clus scale="   40.727">  1  3  2 -1</clus>
</clustering>
</event>
<event>
 6    0  0.4189111E+002  0.8852736E+02  0.7546771E-02  0.1306458E+00
          2   -1    0    0  504    0 -0.00000000000E+00  0.00000000000E+00  0.35421426961E+04  0.35421426961E+04  0.00000000000E+00 0. -1.
         21   -1    0    0  505  502  0.00000000000E+00 -0.00000000000E+00 -0.30940127366E+04  0.30940127366E+04  0.00000000000E+00 0. -1.
         21    1    1    2  503  501  0.96209039122E+02 -0.76657252258E+02  0.14795465674E+04  0.14846516623E+04  0.00000000000E+00 0. -1.
         21    1    1    2  504  502 -0.45987104900E+02  0.14761305102E+02 -0.37956831331E+03  0.38262882067E+03  0.00000000000E+00 0.  1.
         21    1    1    2  505  503 -0.42757673846E+02 -0.19980458320E+02 -0.27093351068E+04  0.27097461428E+04  0.00000000000E+00 0. -1.
          2    1    1    2  501    0 -0.74642603761E+01  0.81876405476E+02  0.20574868122E+04  0.20591288069E+04  0.00000000000E+00 0. -1.
<scales pt_clust_3="14000.00000" pt_clust_4="88.52736" pt_clust_5="47.19573" pt_clust_6="82.18180"></scales>
<clustering>
<clus scale="   47.196">  2  5  1 -1</clus>
<clus scale="   82.182">  1  6  2 -1</clus>
<clus scale="   88.527">  2  4  1 -1</clus>
<clus scale="   47.196">  2  3  1 -1</clus>
</clustering>
</event>
<event>
 6    0  0.4189111E+002  0.1039719E+03  0.7546771E-02  0.1272159E+00
         21   -1    0    0  503  502  0.00000000000E+00  0.00000000000E+00  0.42231235763E+03  0.42231235763E+03  0.00000000000E+00 0. -1.
         -1   -1    0    0    0  501 -0.00000000000E+00 -0.00000000000E+00 -0.11721305053E+03  0.11721305053E+03  0.00000000000E+00 0. -1.
         21    1    1    2  503  501  0.14404632984E+03  0.97871367375E+01  0.17921450100E+03  0.23013685180E+03  0.00000000000E+00 0. -1.
         21    1    1    2  504  502 -0.55909403883E+02 -0.22573351839E+02  0.18510731091E+03  0.19467956803E+03  0.00000000000E+00 0. -1.
         21    1    1    2  505  504 -0.40532741375E+02 -0.22922784450E+01 -0.48509034355E+01  0.40886292667E+02  0.00000000000E+00 0. -1.
         -1    1    1    2    0  505 -0.47604184581E+02  0.15078493546E+02 -0.54371601379E+02  0.73822695655E+02  0.00000000000E+00 0. -1.
<scales pt_clust_3="95.34626" pt_clust_4="60.29442" pt_clust_5="37.38652" pt_clust_6="37.38652"></scales>
<clustering>
<clus scale="   37.387">  5  6 -1 -1</clus>
<clus scale="   60.294">  1  4  2 -1</clus>
<clus scale="   95.346">  1  3  2 -1</clus>
<clus scale="   60.294">  1  3  2 -1</clus>
</clustering>
</event>
<event>
 6    0  0.4189111E+002  0.1305966E+03  0.7546771E-02  0.1226573E+00
         21   -1    0    0  501  502  0.00000000000E+00  0.00000000000E+00  0.94348852027E+03  0.94348852027E+03  0.00000000000E+00 0. -1.
          2   -1    0    0  504    0 -0.00000000000E+00 -0.00000000000E+00 -0.19384048857E+04  0.19384048857E+04  0.00000000000E+00 0. -1.
         21    1    1    2  503  502  0.42035331819E+02  0.19040774624E+02  0.83570759754E+03  0.83698070993E+03  0.00000000000E+00 0. -1.
         21    1    1    2  504  505 -0.18497161686E+02 -0.30616144273E+02 -0.40189118516E+03  0.40347988549E+03  0.00000000000E+00 0. -1.
         21    1    1    2  505  503  0.87246867785E+02  0.10082246928E+02  0.85842039291E+02  0.12281092521E+03  0.00000000000E+00 0. -1.
          2    1    1    2  501    0 -0.11078503792E+03  0.14931227207E+01 -0.15145748171E+04  0.15186218853E+04  0.00000000000E+00 0. -1.
<scales pt_clust_3="46.13451" pt_clust_4="35.77001" pt_clust_5="14000.00000" pt_clust_6="130.59660"></scales>
<clustering>
<clus scale="   35.770">  2  4  1 -1</clus>
<clus scale="   46.135">  1  3  2 -1</clus>
<clus scale="  130.597">  2  6  1 -1</clus>
<clus scale="   46.135">  1  3  2 -1</clus>
</clustering>
</event>
<event>
 6    0  0.4189111E+002  0.1675700E+03  0.7546771E-02  0.1180406E+00
         21   -1    0    0  504  502  0.00000000000E+00  0.00000000000E+00  0.28661286193E+03  0.28661286193E+03  0.00000000000E+00 0. -1.
          1   -1    0    0  505    0 -0.00000000000E+00 -0.00000000000E+00 -0.24992354973E+04  0.24992354973E+04  0.00000000000E+00 0. -1.
         21    1    1    2  503  502  0.85250541932E+02  0.32234406582E+01  0.23361897843E+03  0.24870840869E+03  0.00000000000E+00 0. -1.
         21    1    1    2  504  501 -0.33442843486E+02 -0.70310024847E+01  0.49810093420E+01  0.34535043513E+02  0.00000000000E+00 0. -1.
         21    1    1    2  505  503  0.24407286854E+02  0.15575663055E+03 -0.25491865337E+03  0.29973215284E+03  0.00000000000E+00 0. -1.
          1    1    1    2  501    0 -0.76214985300E+02 -0.15194906872E+03 -0.21963039698E+04  0.22028727542E+04  0.00000000000E+00 0. -1.
<scales pt_clust_3="55.11635" pt_clust_4="34.17395" pt_clust_5="167.57000" pt_clust_6="14000.00000"></scales>
<clustering>
<clus scale="   34.174">  1  4  2 -1</clus>
<clus scale="   55.116">  1  3  2 -1</clus>
<clus scale="  167.570">  1  5  2 -1</clus>
<clus scale="   34.174">  1  3  2 -1</clus>
</clustering>
</event>
<event>
 6    0  0.4189111E+002  0.1577918E+03  0.7546771E-02  0.1191213E+00
         21   -1    0    0  504  502  0.00000000000E+00  0.00000000000E+00  0.10009644298E+04  0.10009644298E+04  0.00000000000E+00 0. -1.
          2   -1    0    0  505    0 -0.00000000000E+00 -0.00000000000E+00 -0.14358348999E+04  0.14358348999E+04  0.00000000000E+00 0.  1.
         21    1    1    2  503  501  0.26285989983E+02 -0.25102038894E+02 -0.17704310092E+03  0.18073551176E+03  0.00000000000E+00 0. -1.
         21    1    1    2  504  503 -0.83785150341E+02  0.15099699737E+03  0.86102204435E+03  0.87816798250E+03  0.00000000000E+00 0. -1.
         21    1    1    2  505  502 -0.96617211962E+01 -0.36263014334E+02  0.12423322193E+03  0.12977768875E+03  0.00000000000E+00 0.  1.
          2    1    1    2  501    0  0.67160881554E+02 -0.89631944144E+02 -0.12430826355E+04  0.12481181467E+04  0.00000000000E+00 0.  1.
<scales pt_clust_3="31.04253" pt_clust_4="148.08367" pt_clust_5="37.52806" pt_clust_6="31.04253"></scales>
<clustering>
<clus scale="   31.043">  3  6 -1 -1</clus>
<clus scale="   37.528">  1  5  2 -1</clus>
<clus scale="  148.084">  1  4  2 -1</clus>
<clus scale="   37.528">  1  3  2 -1</clus>
</clustering>
</event>
<event>
 6    0  0.4189111E+002  0.9934217E+02  0.7546771E-02  0.1281685E+00
         -1   -1    0    0    0  501 -0.00000000000E+00  0.00000000000E+00  0.19679702585E+03  0.19679702585E+03  0.00000000000E+00 0. -1.
         21   -1    0    0  505  502  0.00000000000E+00 -0.00000000000E+00 -0.30459069003E+03  0.30459069003E+03  0.00000000000E+00 0. -1.
         21    1    1    2  503  502  0.17396393715E+02  0.33229321852E+02 -0.16292500144E+03  0.16718665748E+03  0.00000000000E+00 0. -1.
         21    1    1    2  504  501  0.90076907023E+02 -0.80926083122E+02  0.16447360291E+02  0.12220227399E+03  0.00000000000E+00 0. -1.
         21    1    1    2  505  504 -0.13790132845E+02  0.28193426354E+02 -0.64219278267E+02  0.71478337660E+02  0.00000000000E+00 0. -1.
         -1    1    1    2    0  503 -0.93683167893E+02  0.19503334915E+02  0.10290325523E+03  0.14052044676E+03  0.00000000000E+00 0. -1.
<scales pt_clust_3="53.45518" pt_clust_4="99.34217" pt_clust_5="31.38530" pt_clust_6="14000.00000"></scales>
<clustering>
<clus scale="   31.385">  2  5  1 -1</clus>
<clus scale="   53.455">  2  3  1 -1</clus>
<clus scale="   99.342">  2  4  1 -1</clus>
<clus scale="   31.385">  2  3  1 -1</clus>
</clustering>
</event>
<event>
 6    0  0.4189111E+002  0.1390915E+03  0.7546771E-02  0.1214557E+00
         21   -1    0    0  504  502  0.00000000000E+00  0.00000000000E+00  0.79765186985E+02  0.79765186985E+02  0.00000000000E+00 0.  1.
         -2   -1    0    0    0  501 -0.00000000000E+00 -0.00000000000E+00 -0.72657533174E+03  0.72657533174E+03  0.00000000000E+00 0. -1.
         21    1    1    2  503  501 -0.81711241257E+02 -0.75841371606E+02 -0.44960664034E+00  0.11148471976E+03  0.00000000000E+00 0.  1.
         21    1    1    2  504  503 -0.51849501601E+02  0.50922630222E+01 -0.39302236437E+02  0.65260767295E+02  0.00000000000E+00 0. -1.
         21    1    1    2  505  502  0.12243578654E+03  0.40445681585E+02 -0.53986005206E+03  0.55504526914E+03  0.00000000000E+00 0. -1.
         -2    1    1    2    0  505  0.11124956318E+02  0.30303426999E+02 -0.67198249621E+02  0.74549762528E+02  0.00000000000E+00 0. -1.
<scales pt_clust_3="139.09148" pt_clust_4="51.51262" pt_clust_5="14000.00000" pt_clust_6="32.28099"></scales>
<clustering>
<clus scale="   32.281">  2  6  1 -1</clus>
<clus scale="   51.513">  1  4  2 -1</clus>
<clus scale="  139.091">  1  3  2 -1</clus>
<clus scale="   51.513">  1  3  2 -1</clus>
</clustering>
</event>
<event>
 6    0  0.4189111E+002  0.1699303E+03  0.7546771E-02  0.1177921E+00
         21   -1    0    0  503  502  0.00000000000E+00  0.00000000000E+00  0.49907953711E+03  0.49907953711E+03  0.00000000000E+00 0.  1.
          2   -1    0    0  505    0 -0.00000000000E+00 -0.00000000000E+00 -0.16965836566E+04  0.16965836566E+04  0.00000000000E+00 0.  1.
         21    1    1    2  503  501 -0.27241519733E+02 -0.13015127463E+03 -0.67077437720E+03  0.68382725874E+03  0.00000000000E+00 0.  1.
         21    1    1    2  504  502  0.36615313980E+02  0.16676719282E+03  0.47672672807E+03  0.50637965112E+03  0.00000000000E+00 0.  1.
         21    1    1    2  505  504  0.18908608619E+02 -0.24838827892E+02 -0.39643094112E+03  0.39765813701E+03  0.00000000000E+00 0.  1.
          2    1    1    2  501    0 -0.28282402866E+02 -0.11777090300E+02 -0.60702552922E+03  0.60779814683E+03  0.00000000000E+00 0.  1.
<scales pt_clust_3="169.93032" pt_clust_4="14000.00000" pt_clust_5="30.37451" pt_clust_6="30.63648"></scales>
<clustering>
<clus scale="   30.636">  2  6  1 -1</clus>
<clus scale="   30.375">  2  5  1 -1</clus>
<clus scale="  169.930">  2  3  1 -1</clus>
<clus scale="  169.930">  1  3  2 -1</clus>
</clustering>
</event>
<event>
 6    0  0.4189111E+002  0.2040691E+03  0.7546771E-02  0.1146351E+00
         21   -1    0    0  504  502  0.00000000000E+00  0.00000000000E+00  0.11294477160E+03  0.11294477160E+03  0.00000000000E+00 0.  1.
          1   -1    0    0  503    0 -0.00000000000E+00 -0.00000000000E+00 -0.14226829367E+04  0.14226829367E+04  0.00000000000E+00 0.  1.
         21    1    1    2  503  502 -0.22162184347E+03  0.48845689620E+02 -0.20855244822E+03  0.30821464365E+03  0.00000000000E+00 0.  1.
         21    1    1    2  504  505  0.14096322200E+03 -0.14661870580E+03 -0.12298752622E+03  0.23768383717E+03  0.00000000000E+00 0.  1.
         21    1    1    2  505  501  0.33081681590E+02  0.69273654755E+02 -0.31513024298E+03  0.32434596797E+03  0.00000000000E+00 0.  1.
          1    1    1    2  501    0  0.47576939885E+02  0.28499361423E+02 -0.66306794772E+03  0.66538325956E+03  0.00000000000E+00 0.  1.
<scales pt_clust_3="204.06915" pt_clust_4="14000.00000" pt_clust_5="97.11550" pt_clust_6="55.45970"></scales>
<clustering>
<clus scale="   55.460">  2  6  1 -1</clus>
<clus scale="   97.115">  2  5  1 -1</clus>
<clus scale="  204.069">  2  3  1 -1</clus>
<clus scale="  204.069">  1  3  2 -1</clus>
</clustering>
</event>
<event>
 6    0  0.4189111E+002  0.1286841E+03  0.7546771E-02  0.1229421E+00
         21   -1    0    0  505  502  0.00000000000E+00  0.00000000000E+00  0.82783188269E+02  0.82783188269E+02  0.00000000000E+00 0.  1.
          2   -1    0    0  503    0 -0.00000000000E+00 -0.00000000000E+00 -0.17118334030E+04  0.17118334030E+04  0.00000000000E+00 0.  1.
         21    1    1    2  503  502 -0.35522557844E+02 -0.53149544996E+01  0.35698773885E+02  0.50640925288E+02  0.00000000000E+00 0.  1.
         21    1    1    2  504  501  0.44078373216E+02 -0.32720777005E+02 -0.47265321059E+03  0.47583044219E+03  0.00000000000E+00 0.  1.
         21    1    1    2  505  504 -0.54997009910E+02  0.87921132238E+02 -0.35604122224E+02  0.10964693389E+03  0.00000000000E+00 0.  1.
          2    1    1    2  501    0  0.46441194538E+02 -0.49885400734E+02 -0.11564916558E+04  0.11584982899E+04  0.00000000000E+00 0.  1.
<scales pt_clust_3="35.91797" pt_clust_4="38.90314" pt_clust_5="121.07752" pt_clust_6="38.90314"></scales>
<clustering>
<clus scale="   35.918">  1  3  2 -1</clus>
<clus scale="   38.903">  4  6 -1 -1</clus>
<clus scale="  121.078">  1  5  2 -1</clus>
<clus scale="   35.918">  1  3  2 -1</clus>
</clustering>
</event>
<event>
 6    0  0.4189111E+002  0.7925564E+02  0.7546771E-02  0.1331177E+00
         21   -1    0    0  501  502  0.00000000000E+00  0.00000000000E+00  0.16346851536E+03  0.16346851536E+03  0.00000000000E+00 0. -1.
          2   -1    0    0  504    0 -0.00000000000E+00 -0.00000000000E+00 -0.13905199322E+04  0.13905199322E+04  0.00000000000E+00 0.  1.
         21    1    1    2  503  505  0.12361954943E+03 -0.64779437546E+01 -0.29747361514E+02  0.12731324469E+03  0.00000000000E+00 0. -1.
         21    1    1    2  504  503 -0.17951476161E+02  0.41330632677E+02 -0.83995046557E+03  0.84115828552E+03  0.00000000000E+00 0.  1.
         21    1    1    2  505  502 -0.67492729030E+02 -0.30588426479E+02  0.10116036486E+03  0.12539672932E+03  0.00000000000E+00 0. -1.
          2    1    1    2  501    0 -0.38175344239E+02 -0.42642624429E+01 -0.45851395461E+03  0.46012018801E+03  0.00000000000E+00 0.  1.
<scales pt_clust_3="79.25564" pt_clust_4="64.43395" pt_clust_5="14000.00000" pt_clust_6="38.41277"></scales>
<clustering>
<clus scale="   38.413">  2  6  1 -1</clus>
<clus scale="   64.434">  2  4  1 -1</clus>
<clus scale="   79.256">  2  3  1 -1</clus>
<clus scale="   79.256">  1  3  2 -1</clus>
</clustering>
</event>
<event>
 6    0  0.4189111E+002  0.2226587E+03  0.7546771E-02  0.1131916E+00
          1   -1    0    0  502    0 -0.00000000000E+00  0.00000000000E+00  0.64526287350E+03  0.64526287350E+03  0.00000000000E+00 0.  1.
         21   -1    0    0  503  502  0.00000000000E+00 -0.00000000000E+00 -0.89685864620E+03  0.89685864620E+03  0.00000000000E+00 0. -1.
         21    1    1    2  503  505  0.25034132118E+02  0.40157515795E+02 -0.15133793581E+03  0.15856388195E+03  0.00000000000E+00 0. -1.
         21    1    1    2  504  501 -0.75615191505E+02 -0.13587830909E+02  0.16898044028E+03  0.18562509402E+03  0.00000000000E+00 0.  1.
         21    1    1    2  505  504  0.17353787671E+03  0.16037798544E+02 -0.71377378611E+03  0.73474187533E+03  0.00000000000E+00 0. -1.
          1    1    1    2  501    0 -0.12295681733E+03 -0.42607483431E+02  0.44453550894E+03  0.46319066838E+03  0.00000000000E+00 0.  1.
<scales pt_clust_3="43.56018" pt_clust_4="34.11496" pt_clust_5="43.56018" pt_clust_6="211.09257"></scales>
<clustering>
<clus scale="   34.115">  4  6 -1 -1</clus>
<clus scale="   43.560">  3  5 -1 -1</clus>
<clus scale="  211.093">  1  4  2 -1</clus>
<clus scale="  222.659">  2  3  1 -1</clus>
</clustering>
</event>
<event>
 6    0  0.4189111E+002  0.2034572E+03  0.7546771E-02  0.1146855E+00
         21   -1    0    0  501  502  0.00000000000E+00  0.00000000000E+00  0.21621888919E+04  0.21621888919E+04  0.00000000000E+00 0.  1.
         -4   -1    0    0    0  501 -0.00000000000E+00 -0.00000000000E+00 -0.27423702988E+02  0.27423702988E+02  0.00000000000E+00 0.  1.
         21    1    1    2  503  504  0.67266240212E-01 -0.53154880919E+02  0.11681689788E+03  0.12834186192E+03  0.00000000000E+00 0.  1.
         21    1    1    2  504  505  0.92899293365E+02  0.14993048567E+03  0.85075673049E+03  0.86884776786E+03  0.00000000000E+00 0.  1.
         21    1    1    2  505  502 -0.23088586141E+02  0.50418976541E+02  0.59219586720E+03  0.59478660134E+03  0.00000000000E+00 0.  1.
         -4    1    1    2    0  503 -0.69877973464E+02 -0.14719458129E+03  0.57499569332E+03  0.59763636375E+03  0.00000000000E+00 0.  1.
<scales pt_clust_3="33.43262" pt_clust_4="194.85517" pt_clust_5="55.45409" pt_clust_6="33.43262"></scales>
<clustering>
<clus scale="   33.433">  3  6 -1 -1</clus>
<clus scale="   55.454">  1  5  2 -1</clus>
<clus scale="  194.855">  1  4  2 -1</clus>
<clus scale="   55.454">  1  3  2 -1</clus>
</clustering>
</event>
<event>
 6    0  0.4189111E+002  0.1049350E+03  0.7546771E-02  0.1270248E+00
         21   -1    0    0  504  502  0.00000000000E+00  0.00000000000E+00  0.27787777951E+03  0.27787777951E+03  0.00000000000E+00 0. -1.
         -4   -1    0    0    0  501 -0.00000000000E+00 -0.00000000000E+00 -0.16225616842E+04  0.16225616842E+04  0.00000000000E+00 0.  1.
         21    1    1    2  503  505 -0.94976239923E+02 -0.10111250133E+03  0.16468818242E+03  0.21532863605E+03  0.00000000000E+00 0. -1.
         21    1    1    2  504  501 -0.51644982778E+02  0.86164660670E+02 -0.77225773558E+03  0.77876412550E+03  0.00000000000E+00 0.  1.
         21    1    1    2  505  502  0.80026176513E+02  0.24045955737E+02  0.62226409927E+02  0.10418504215E+03  0.00000000000E+00 0. -1.
         -4    1    1    2    0  503  0.66595046188E+02 -0.90981150788E+01 -0.79934076142E+03  0.80216165998E+03  0.00000000000E+00 0.  1.
<scales pt_clust_3="14000.00000" pt_clust_4="78.38316" pt_clust_5="104.93497" pt_clust_6="67.21366"></scales>
<clustering>
<clus scale="   67.214">  2  6  1 -1</clus>
<clus scale="   78.383">  2  4  1 -1</clus>
<clus scale="  104.935">  1  5  2 -1</clus>
<clus scale="  104.935">  1  3  2 -1</clus>
</clustering>
</event>
<event>
 6    0  0.4189111E+002  0.6337977E+02  0.7546771E-02  0.1384172E+00
         21   -1    0    0  503  502  0.00000000000E+00  0.00000000000E+00  0.37987216109E+02  0.37987216109E+02  0.00000000000E+00 0.  1.
          2   -1    0    0  505    0 -0.00000000000E+00 -0.00000000000E+00 -0.22906232003E+04  0.22906232003E+04  0.00000000000E+00 0. -1.
         21    1    1    2  503  501 -0.13001988896E+02 -0.52485184275E+02 -0.25350101365E+02  0.59719125269E+02  0.00000000000E+00 0.  1.
         21    1    1    2  504  502  0.66330287728E+02  0.22755233015E+02 -0.49503794142E+02  0.85837831602E+02  0.00000000000E+00 0.  1.
         21    1    1    2  505  504 -0.85438781230E+02  0.57313459469E+02 -0.12176294353E+04  0.12219681091E+04  0.00000000000E+00 0.  1.
          2    1    1    2  501    0  0.32110482398E+02 -0.27583508209E+02 -0.96015265337E+03  0.96108535041E+03  0.00000000000E+00 0. -1.
<scales pt_clust_3="54.69437" pt_clust_4="63.37977" pt_clust_5="14000.00000" pt_clust_6="42.33123"></scales>
<clustering>
<clus scale="   42.331">  2  6  1 -1</clus>
<clus scale="   54.694">  1  3  2 -1</clus>
<clus scale="   63.380">  1  4  2 -1</clus>
<clus scale="   54.694">  1  3  2 -1</clus>
</clustering>
</event>
<event>
 6    0  0.4189111E+002  0.7057628E+02  0.7546771E-02  0.1358144E+00
         21   -1    0    0  504  502  0.00000000000E+00  0.00000000000E+00  0.16936743546E+03  0.16936743546E+03  0.00000000000E+00 0. -1.
          1   -1    0    0  505    0 -0.00000000000E+00 -0.00000000000E+00 -0.92546267323E+03  0.92546267323E+03  0.00000000000E+00 0. -1.
         21    1    1    2  503  502 -0.96205714921E+02 -0.96882978886E+02  0.98985894317E+02  0.16864180518E+03  0.00000000000E+00 0. -1.
         21    1    1    2  504  501  0.48061958866E+02  0.43895244741E+02  0.12923413126E+01  0.65103107046E+02  0.00000000000E+00 0. -1.
         21    1    1    2  505  503  0.21162199767E+02  0.25398092092E+02 -0.14737923433E+03  0.15104151910E+03  0.00000000000E+00 0. -1.
          1    1    1    2  501    0  0.26981556288E+02  0.27589642053E+02 -0.70899423907E+03  0.71004367736E+03  0.00000000000E+00 0. -1.
<scales pt_clust_3="70.57628" pt_clust_4="66.43677" pt_clust_5="33.05907" pt_clust_6="14000.00000"></scales>
<clustering>
<clus scale="   33.059">  2  5  1 -1</clus>
<clus scale="   66.437">  1  4  2 -1</clus>
<clus scale="   70.576">  1  3  2 -1</clus>
<clus scale="   66.437">  1  3  2 -1</clus>
</clustering>
</event>
<event>
 6    0  0.4189111E+002  0.1193955E+03  0.7546771E-02  0.1244098E+00
          1   -1    0    0  504    0 -0.00000000000E+00  0.00000000000E+00  0.57769853848E+03  0.57769853848E+03  0.00000000000E+00 0.  1.
         21   -1    0    0  503  502  0.00000000000E+00 -0.00000000000E+00 -0.12400300393E+03  0.12400300393E+03  0.00000000000E+00 0.  1.
         21    1    1    2  503  501  0.22574735078E+02  0.42562517258E+02  0.31034102286E+02  0.57308830418E+02  0.00000000000E+00 0.  1.
         21    1    1    2  504  505  0.33778467355E+02 -0.64409178975E+02  0.33779918726E+03  0.34553989365E+03  0.00000000000E+00 0.  1.
         21    1    1    2  505  502 -0.57243424298E+02  0.10304612842E+03 -0.60386523003E+02  0.13244563552E+03  0.00000000000E+00 0.  1.
          1    1    1    2  501    0  0.89022186428E+00 -0.81199466699E+02  0.14524876801E+03  0.16640718282E+03  0.00000000000E+00 0.  1.
<scales pt_clust_3="48.17869" pt_clust_4="71.79269" pt_clust_5="119.39549" pt_clust_6="14000.00000"></scales>
<clustering>
<clus scale="   48.179">  2  3  1 -1</clus>
<clus scale="   71.793">  1  4  2 -1</clus>
<clus scale="  119.395">  2  5  1 -1</clus>
<clus scale="   48.179">  2  3  1 -1</clus>
</clustering>
</event>
<event>
 6    0  0.4189111E+002  0.1543340E+03  0.7546771E-02  0.1195246E+00
          2   -1    0    0  504    0 -0.00000000000E+00  0.00000000000E+00  0.98261640041E+03  0.98261640041E+03  0.00000000000E+00 0. -1.
         21   -1    0    0  505  502  0.00000000000E+00 -0.00000000000E+00 -0.23628372929E+03  0.23628372929E+03  0.00000000000E+00 0. -1.
         21    1    1    2  503  501  0.35226709056E+02 -0.30527238674E+02 -0.87787911395E+02  0.99395929087E+02  0.00000000000E+00 0. -1.
         21    1    1    2  504  502 -0.86146380171E+02  0.14102645189E+03  0.76243654299E+03  0.78014046237E+03  0.00000000000E+00 0. -1.
         21    1    1    2  505  503  0.32459421969E+02  0.23296641653E+02 -0.10766880329E+03  0.11484301802E+03  0.00000000000E+00 0. -1.
          2    1    1    2  501    0  0.18460249146E+02 -0.13379585487E+03  0.17935284282E+03  0.22452072021E+03  0.00000000000E+00 0. -1.
<scales pt_clust_3="60.94672" pt_clust_4="154.33396" pt_clust_5="39.95432" pt_clust_6="14000.00000"></scales>
<clustering>
<clus scale="   39.954">  2  5  1 -1</clus>
<clus scale="   60.947">  2  3  1 -1</clus>
<clus scale="  154.334">  1  4  2 -1</clus>
<clus scale="   39.954">  2  3  1 -1</clus>
</clustering>
</event>
<event>
 6    0  0.4189111E+002  0.1475754E+03  0.7546771E-02  0.1203484E+00
          2   -1    0    0  504    0 -0.00000000000E+00  0.00000000000E+00  0.14088710406E+04  0.14088710406E+04  0.00000000000E+00 0. -1.
         21   -1    0    0  505  502  0.00000000000E+00 -0.00000000000E+00 -0.27800173247E+03  0.27800173247E+03  0.00000000000E+00 0. -1.
         21    1    1    2  503  502  0.11341300416E+02 -0.28887120177E+02 -0.63420199320E+02  0.70606037199E+02  0.00000000000E+00 0. -1.
         21    1    1    2  504  503 -0.43250856100E+02 -0.71605968286E+01  0.37939730682E+02  0.57977011518E+02  0.00000000000E+00 0. -1.
         21    1    1    2  505  501  0.16315631085E+03 -0.30879869405E+02 -0.16185076951E+03  0.23188190895E+03  0.00000000000E+00 0. -1.
          2    1    1    2  501    0 -0.13124675517E+03  0.66927586410E+02  0.13182005463E+04  0.13264078154E+04  0.00000000000E+00 0. -1.
<scales pt_clust_3="31.03370" pt_clust_4="43.55620" pt_clust_5="14000.00000" pt_clust_6="147.57535"></scales>
<clustering>
<clus scale="   31.034">  2  3  1 -1</clus>
<clus scale="   43.556">  2  4  1 -1</clus>
<clus scale="  147.575">  1  6  2 -1</clus>
<clus scale="   31.034">  2  3  1 -1</clus>
</clustering>
</event>
<event>
 6    0  0.4189111E+002  0.1320372E+03  0.7546771E-02  0.1224464E+00
         21   -1    0    0  501  502  0.00000000000E+00  0.00000000000E+00  0.68785161366E+03  0.68785161366E+03  0.00000000000E+00 0. -1.
          3   -1    0    0  505    0 -0.00000000000E+00 -0.00000000000E+00 -0.23757378679E+04  0.23757378679E+04  0.00000000000E+00 0. -1.
         21    1    1    2  503  502  0.98875493635E+01 -0.29241556701E+02  0.15525733732E+03  0.15829615618E+03  0.00000000000E+00 0. -1.
         21    1    1    2  504  503  0.39851917553E+02  0.58973582393E+01  0.52260239192E+03  0.52415285386E+03  0.00000000000E+00 0. -1.
         21    1    1    2  505  504  0.76788581556E+02  0.97131914296E+02 -0.10646804753E+04  0.10718561515E+04  0.00000000000E+00 0. -1.
          3    1    1    2  501    0 -0.12652804847E+03 -0.73787715835E+02 -0.13010655081E+04  0.13092843200E+04  0.00000000000E+00 0. -1.
<scales pt_clust_3="30.86798" pt_clust_4="54.63628" pt_clust_5="14000.00000" pt_clust_6="132.03717"></scales>
<clustering>
<clus scale="   30.868">  1  3  2 -1</clus>
<clus scale="   54.636">  1  4  2 -1</clus>
<clus scale="  132.037">  1  6  2 -1</clus>
<clus scale="   30.868">  1  3  2 -1</clus>
</clustering>
</event>
<event>
 6    0  0.4189111E+002  0.2078897E+03  0.7546771E-02  0.1143248E+00
         21   -1    0    0  505  502  0.00000000000E+00  0.00000000000E+00  0.20700391467E+03  0.20700391467E+03  0.00000000000E+00 0. -1.
          2   -1    0    0  503    0 -0.00000000000E+00 -0.00000000000E+00 -0.60200168268E+03  0.60200168268E+03  0.00000000000E+00 0. -1.
         21    1    1    2  503  504 -0.16855926961E+02 -0.53909832085E+02 -0.15540416348E+03  0.16535067674E+03  0.00000000000E+00 0. -1.
         21    1    1    2  504  502  0.21778887324E+03 -0.91171668002E+02  0.54464383199E+02  0.24230277627E+03  0.00000000000E+00 0. -1.
         21    1    1    2  505  501 -0.14227898770E+03  0.79617088476E+02 -0.10796998194E+03  0.19554975867E+03  0.00000000000E+00 0. -1.
          2    1    1    2  501    0 -0.58653958581E+02  0.65464411612E+02 -0.18608800579E+03  0.20580238566E+03  0.00000000000E+00 0. -1.
<scales pt_clust_3="56.48356" pt_clust_4="207.88967" pt_clust_5="14000.00000" pt_clust_6="78.09954"></scales>
<clustering>
<clus scale="   56.484">  2  3  1 -1</clus>
<clus scale="   78.100">  2  6  1 -1</clus>
<clus scale="  207.890">  1  4  2 -1</clus>
<clus scale="  207.890">  1  3  2 -1</clus>
</clustering>
</event>
<event>
 6    0  0.4189111E+002  0.8782859E+02  0.7546771E-02  0.1308197E+00
          2   -1    0    0  503    0 -0.00000000000E+00  0.00000000000E+00  0.58581640092E+03  0.58581640092E+03  0.00000000000E+00 0. -1.
         21   -1    0    0  505  502  0.00000000000E+00 -0.00000000000E+00 -0.22850111641E+03  0.22850111641E+03  0.00000000000E+00 0.  1.
         21    1    1    2  503  502  0.41082593139E+02  0.48809679655E+02 -0.10302294083E+02  0.64624310831E+02  0.00000000000E+00 0.  1.
         21    1    1    2  504  501 -0.65109641250E+02 -0.10230602688E+02  0.10131302889E+03  0.12086463684E+03  0.00000000000E+00 0.  1.
         21    1    1    2  505  504  0.59527661714E+02 -0.72204952778E+02 -0.16771899514E+03  0.19205925920E+03  0.00000000000E+00 0.  1.
          2    1    1    2  501    0 -0.35500613603E+02  0.33625875811E+02  0.43402354484E+03  0.43676931047E+03  0.00000000000E+00 0. -1.
<scales pt_clust_3="64.91642" pt_clust_4="14000.00000" pt_clust_5="87.82859" pt_clust_6="48.89778"></scales>
<clustering>
<clus scale="   48.898">  1  6  2 -1</clus>
<clus scale="   64.916">  1  3  2 -1</clus>
<clus scale="   87.829">  2  5  1 -1</clus>
<clus scale="   87.829">  2  3  1 -1</clus>
</clustering>
</event>
<event>
 6    0  0.4189111E+002  0.1051738E+03  0.7546771E-02  0.1269778E+00
         21   -1    0    0  503  502  0.00000000000E+00  0.00000000000E+00  0.10541695852E+04  0.10541695852E+04  0.00000000000E+00 0. -1.
          1   -1    0    0  505    0 -0.00000000000E+00 -0.00000000000E+00 -0.29015390689E+03  0.29015390689E+03  0.00000000000E+00 0. -1.
         21    1    1    2  503  501  0.32564602256E+02  0.83303742887E+02  0.40643194757E+03  0.41615729587E+03  0.00000000000E+00 0. -1.
         21    1    1    2  504  502 -0.41661343971E+02 -0.11853373031E+03  0.61855078566E+03  0.63118221398E+03  0.00000000000E+00 0. -1.
         21    1    1    2  505  504 -0.36672685741E+02  0.32393182554E+01 -0.76716996412E+01  0.37606303164E+02  0.00000000000E+00 0.  1.
          1    1    1    2  501    0  0.45769427456E+02  0.31990669168E+02 -0.25329535527E+03  0.25937767908E+03  0.00000000000E+00 0. -1.
<scales pt_clust_3="14000.00000" pt_clust_4="105.17377" pt_clust_5="36.81547" pt_clust_6="36.66895"></scales>
<clustering>
<clus scale="   36.815">  2  5  1 -1</clus>
<clus scale="   36.669">  2  6  1 -1</clus>
<clus scale="  105.174">  2  4  1 -1</clus>
<clus scale="  105.174">  1  3  2 -1</clus>
</clustering>
</event>
<event>
 6    0  0.4189111E+002  0.1059319E+03  0.7546771E-02  0.1268294E+00
          2   -1    0    0  503    0 -0.00000000000E+00  0.00000000000E+00  0.87578392666E+03  0.87578392666E+03  0.00000000000E+00 0.  1.
         21   -1    0    0  504  502  0.00000000000E+00 -0.00000000000E+00 -0.47677127649E+03  0.47677127649E+03  0.00000000000E+00 0. -1.
         21    1    1    2  503  502  0.38580814984E+02  0.49749668050E+02 -0.93882104802E+01  0.63652551024E+02  0.00000000000E+00 0.  1.
         21    1    1    2  504  505 -0.65245925960E+02 -0.82760138984E+02 -0.40048217338E+03  0.41411621877E+03  0.00000000000E+00 0. -1.
         21    1    1    2  505  501 -0.74587964182E+02 -0.10678868984E+02  0.19625994219E+02  0.77862585961E+02  0.00000000000E+00 0. -1.
          2    1    1    2  501    0  0.10125307516E+03  0.43689339918E+02  0.78925703980E+03  0.79692384739E+03  0.00000000000E+00 0.  1.
<scales pt_clust_3="62.95640" pt_clust_4="47.14618" pt_clust_5="105.93192" pt_clust_6="14000.00000"></scales>
<clustering>
<clus scale="   62.956">  2  3  1 -1</clus>
<clus scale="   47.146">  2  4  1 -1</clus>
<clus scale="  105.932">  2  5  1 -1</clus>
<clus scale="   62.956">  2  3  1 -1</clus>
</clustering>
</event>
<event>
 6    0  0.4189111E+002  0.1213972E+03  0.7546771E-02  0.1240810E+00
          4   -1    0    0  503    0 -0.00000000000E+00  0.00000000000E+00  0.15028107752E+03  0.15028107752E+03  0.00000000000E+00 0. -1.
         21   -1    0    0  505  502  0.00000000000E+00 -0.00000000000E+00 -0.12601478402E+04  0.12601478402E+04  0.00000000000E+00 0.  1.
         21    1    1    2  503  504 -0.73706952239E+02 -0.64926405567E+02  0.40116942367E+02  0.10610147036E+03  0.00000000000E+00 0. -1.
         21    1    1    2  504  502 -0.43782860532E+02 -0.10884721472E+02 -0.78574753201E+03  0.78704167621E+03  0.00000000000E+00 0.  1.
         21    1    1    2  505  501  0.52482729679E+02  0.13654191178E+03 -0.39652434910E+03  0.42264605761E+03  0.00000000000E+00 0.  1.
          4    1    1    2  501    0  0.65007083093E+02 -0.60730784740E+02  0.32288176052E+02  0.94639713546E+02  0.00000000000E+00 0. -1.
<scales pt_clust_3="121.39719" pt_clust_4="45.11559" pt_clust_5="14000.00000" pt_clust_6="87.38061"></scales>
<clustering>
<clus scale="   45.116">  2  4  1 -1</clus>
<clus scale="   87.381">  1  6  2 -1</clus>
<clus scale="  121.397">  1  3  2 -1</clus>
<clus scale="   45.116">  2  3  1 -1</clus>
</clustering>
</event>
<event>
 6    0  0.4189111E+002  0.7950755E+02  0.7546771E-02  0.1330455E+00
          2   -1    0    0  504    0 -0.00000000000E+00  0.00000000000E+00  0.26689219862E+04  0.26689219862E+04  0.00000000000E+00 0. -1.
         21   -1    0    0  503  502  0.00000000000E+00 -0.00000000000E+00 -0.10187751495E+03  0.10187751495E+03  0.00000000000E+00 0. -1.
         21    1    1    2  503  505 -0.31789334175E+01  0.50473675999E+02 -0.71256735298E+02  0.87379745433E+02  0.00000000000E+00 0. -1.
         21    1    1    2  504  502 -0.48324778656E+02 -0.42414640853E+02  0.70196411659E+03  0.70490276420E+03  0.00000000000E+00 0. -1.
         21    1    1    2  505  501  0.78954966873E+02 -0.74085099598E+02  0.12337736697E+03  0.16414768794E+03  0.00000000000E+00 0. -1.
          2    1    1    2  501    0 -0.27451254799E+02  0.66026064452E+02  0.18129597230E+04  0.18143693036E+04  0.00000000000E+00 0. -1.
<scales pt_clust_3="50.57368" pt_clust_4="62.34001" pt_clust_5="79.50755" pt_clust_6="14000.00000"></scales>
<clustering>
<clus scale="   50.574">  2  3  1 -1</clus>
<clus scale="   62.340">  1  4  2 -1</clus>
<clus scale="   79.508">  2  5  1 -1</clus>
<clus scale="   50.574">  2  3  1 -1</clus>
</clustering>
</event>
<event>
 6    0  0.4189111E+002  0.1163098E+03  0.7546771E-02  0.1249312E+00
          4   -1    0    0  503    0 -0.00000000000E+00  0.00000000000E+00  0.38124707382E+03  0.38124707382E+03  0.00000000000E+00 0.  1.
         21   -1    0    0  504  502  0.00000000000E+00 -0.00000000000E+00 -0.53452294539E+02  0.53452294539E+02  0.00000000000E+00 0.  1.
         21    1    1    2  503  502  0.93923016198E+01 -0.45923409087E+02  0.64876732963E+02  0.80038523923E+02  0.00000000000E+00 0. -1.
         21    1    1    2  504  505 -0.90858566803E+02 -0.46676194049E+02  0.80486887679E+02  0.13004647377E+03  0.00000000000E+00 0.  1.
         21    1    1    2  505  501  0.37847663979E+02  0.50239198469E+02  0.55554989927E+02  0.83921270470E+02  0.00000000000E+00 0.  1.
          4    1    1    2  501    0  0.43618601204E+02  0.42360404668E+02  0.12687616871E+03  0.14069310019E+03  0.00000000000E+00 0.  1.
<scales pt_clust_3="46.87403" pt_clust_4="107.55892" pt_clust_5="43.51700" pt_clust_6="43.51700"></scales>
<clustering>
<clus scale="   43.517">  5  6 -1 -1</clus>
<clus scale="   46.874">  1  3  2 -1</clus>
<clus scale="  107.559">  2  4  1 -1</clus>
<clus scale="  107.559">  2  3  1 -1</clus>
</clustering>
</event>
<event>
 6    0  0.4189111E+002  0.9560103E+02  0.7546771E-02  0.1289828E+00
         21   -1    0    0  503  502  0.00000000000E+00  0.00000000000E+00  0.28095398381E+03  0.28095398381E+03  0.00000000000E+00 0.  1.
          2   -1    0    0  504    0 -0.00000000000E+00 -0.00000000000E+00 -0.40868121122E+03  0.40868121122E+03  0.00000000000E+00 0.  1.
         21    1    1    2  503  501 -0.17975775465E+02 -0.37983887665E+02  0.55813079013E+02  0.69864182631E+02  0.00000000000E+00 0.  1.
         21    1    1    2  504  505 -0.37143160789E+02 -0.83767422989E+02 -0.27014980244E+03  0.28526743822E+03  0.00000000000E+00 0.  1.
         21    1    1    2  505  502  0.83072179731E+02  0.10616980223E+03  0.18621159741E+03  0.22988643492E+03  0.00000000000E+00 0.  1.
          2    1    1    2  501    0 -0.27953243478E+02  0.15581508426E+02 -0.99602101393E+02  0.10461713926E+03  0.00000000000E+00 0.  1.
<scales pt_clust_3="41.98031" pt_clust_4="95.60103" pt_clust_5="14000.00000" pt_clust_6="32.00261"></scales>
<clustering>
<clus scale="   32.003">  2  6  1 -1</clus>
<clus scale="   41.980">  1  3  2 -1</clus>
<clus scale="   95.601">  2  4  1 -1</clus>
<clus scale="   41.980">  1  3  2 -1</clus>
</clustering>
</event>
<event>
 6    0  0.4189111E+002  0.1041941E+03  0.7546771E-02  0.1271716E+00
          1   -1    0    0  504    0 -0.00000000000E+00  0.00000000000E+00  0.17626938578E+04  0.17626938578E+04  0.00000000000E+00 0. -1.
         21   -1    0    0  505  502  0.00000000000E+00 -0.00000000000E+00 -0.39812581247E+02  0.39812581247E+02  0.00000000000E+00 0.  1.
         21    1    1    2  503  502 -0.19785285848E+02 -0.25379213610E+02 -0.75557139536E+01  0.33055269367E+02  0.00000000000E+00 0.  1.
         21    1    1    2  504  503 -0.81314726617E+02  0.10933814519E+03  0.33038516768E+03  0.35738113238E+03  0.00000000000E+00 0.  1.
         21    1    1    2  505  501  0.57560354430E+01 -0.47631441037E+02  0.14197287876E+03  0.14986054993E+03  0.00000000000E+00 0.  1.
          1    1    1    2  501    0  0.95343977022E+02 -0.36327490547E+02  0.12580789440E+04  0.12622094873E+04  0.00000000000E+00 0. -1.
<scales pt_clust_3="32.18015" pt_clust_4="104.19414" pt_clust_5="52.79168" pt_clust_6="14000.00000"></scales>
<clustering>
<clus scale="   32.180">  2  3  1 -1</clus>
<clus scale="   52.792">  2  5  1 -1</clus>
<clus scale="  104.194">  2  4  1 -1</clus>
<clus scale="   32.180">  2  3  1 -1</clus>
</clustering>
</event>
<event>
 6    0  0.4189111E+002  0.2463412E+03  0.7546771E-02  0.1115639E+00
          1   -1    0    0  502    0 -0.00000000000E+00  0.00000000000E+00  0.21830162128E+03  0.21830162128E+03  0.00000000000E+00 0. -1.
         21   -1    0    0  503  502  0.00000000000E+00 -0.00000000000E+00 -0.19527489726E+04  0.19527489726E+04  0.00000000000E+00 0. -1.
         21    1    1    2  503  504  0.74677724697E+01  0.34321583921E+02 -0.29630380907E+03  0.29837842753E+03  0.00000000000E+00 0.  1.
         21    1    1    2  504  505  0.22862792150E+03  0.10483425085E+01 -0.15742531280E+04  0.15907685993E+04  0.00000000000E+00 0. -1.
         21    1    1    2  505  501 -0.70955552254E+02 -0.17927656689E+02  0.11037604855E+02  0.74012971775E+02  0.00000000000E+00 0.  1.
          1    1    1    2  501    0 -0.16514014172E+03 -0.17442269741E+02  0.12507198092E+03  0.20789059525E+03  0.00000000000E+00 0. -1.
<scales pt_clust_3="35.12462" pt_clust_4="238.18566" pt_clust_5="41.68195" pt_clust_6="41.68195"></scales>
<clustering>
<clus scale="   35.125">  2  3  1 -1</clus>
<clus scale="   41.682">  5  6 -1 -1</clus>
<clus scale="  238.186">  2  4  1 -1</clus>
<clus scale="   35.125">  2  3  1 -1</clus>
</clustering>
</event>
<event>
 6    0  0.4189111E+002  0.1023257E+03  0.7546771E-02  0.1275480E+00
         21   -1    0    0  504  502  0.00000000000E+00  0.00000000000E+00  0.73765358840E+02  0.73765358840E+02  0.00000000000E+00 0.  1.
          2   -1    0    0  505    0 -0.00000000000E+00 -0.00000000000E+00 -0.31424723505E+04  0.31424723505E+04  0.00000000000E+00 0.  1.
         21    1    1    2  503  502 -0.30842919685E+02  0.24889886909E+02 -0.11985797834E+03  0.12624075070E+03  0.00000000000E+00 0. -1.
         21    1    1    2  504  501  0.63724004903E+02 -0.21865058970E+01  0.51080119254E+02  0.81698887336E+02  0.00000000000E+00 0.  1.
         21    1    1    2  505  503  0.66574723070E+02  0.60431891495E+02 -0.15413574668E+04  0.15439776707E+04  0.00000000000E+00 0.  1.
          2    1    1    2  501    0 -0.99455808289E+02 -0.83135272507E+02 -0.14585716658E+04  0.14643204006E+04  0.00000000000E+00 0.  1.
<scales pt_clust_3="39.63322" pt_clust_4="40.68640" pt_clust_5="14000.00000" pt_clust_6="102.32572"></scales>
<clustering>
<clus scale="   39.633">  1  3  2 -1</clus>
<clus scale="   40.686">  1  4  2 -1</clus>
<clus scale="  102.326">  1  6  2 -1</clus>
<clus scale="   39.633">  1  3  2 -1</clus>
</clustering>
</event>
<event>
 6    0  0.4189111E+002  0.8980836E+02  0.7546771E-02  0.1303316E+00
         -2   -1    0    0    0  501 -0.00000000000E+00  0.00000000000E+00  0.21956688802E+03  0.21956688802E+03  0.00000000000E+00 0. -1.
         21   -1    0    0  503  502  0.00000000000E+00 -0.00000000000E+00 -0.45133926433E+03  0.45133926433E+03  0.00000000000E+00 0. -1.
         21    1    1    2  503  505 -0.58871593897E+02 -0.12866774526E+01 -0.29858332184E+03  0.30433455306E+03  0.00000000000E+00 0. -1.
         21    1    1    2  504  502  0.61061789843E+02 -0.26519453284E+02  0.14625968537E+01  0.66588007710E+02  0.00000000000E+00 0.  1.
         21    1    1    2  505  501 -0.91201974079E+02  0.34900209315E+02 -0.82117666165E+02  0.12758971660E+03  0.00000000000E+00 0. -1.
         -2    1    1    2    0  504  0.89011778133E+02 -0.70940785791E+01  0.14746601484E+03  0.17239387498E+03  0.00000000000E+00 0. -1.
<scales pt_clust_3="58.88565" pt_clust_4="55.21160" pt_clust_5="89.80836" pt_clust_6="14000.00000"></scales>
<clustering>
<clus scale="   58.886">  2  3  1 -1</clus>
<clus scale="   55.212">  2  4  1 -1</clus>
<clus scale="   89.808">  2  5  1 -1</clus>
<clus scale="   58.886">  2  3  1 -1</clus>
</clustering>
</event>
<event>
 6    0  0.4189111E+002  0.8353138E+02  0.7546771E-02  0.1319318E+00
         21   -1    0    0  504  502  0.00000000000E+00  0.00000000000E+00  0.32738225238E+02  0.32738225238E+02  0.00000000000E+00 0. -1.
          2   -1    0    0  505    0 -0.00000000000E+00 -0.00000000000E+00 -0.21281022634E+04  0.21281022634E+04  0.00000000000E+00 0.  1.
         21    1    1    2  503  502  0.85444353574E+01 -0.54597991453E+02 -0.17272829267E+03  0.18135327716E+03  0.00000000000E+00 0. -1.
         21    1    1    2  504  501  0.31556261713E+02 -0.48361048074E+00 -0.28378621565E+02  0.42442640049E+02  0.00000000000E+00 0.  1.
         21    1    1    2  505  503  0.81535095243E+01  0.12200279753E+03 -0.16271028376E+03  0.20353328662E+03  0.00000000000E+00 0. -1.
          2    1    1    2  501    0 -0.48254206595E+02 -0.66921195593E+02 -0.17315468401E+04  0.17335112848E+04  0.00000000000E+00 0.  1.
<scales pt_clust_3="56.40307" pt_clust_4="31.55997" pt_clust_5="83.53138" pt_clust_6="14000.00000"></scales>
<clustering>
<clus scale="   31.560">  1  4  2 -1</clus>
<clus scale="   56.403">  1  3  2 -1</clus>
<clus scale="   83.531">  1  5  2 -1</clus>
<clus scale="   31.560">  1  3  2 -1</clus>
</clustering>
</event>
<event>
 6    0  0.4189111E+002  0.1268714E+03  0.7546771E-02  0.1232173E+00
         21   -1    0    0  501  502  0.00000000000E+00  0.00000000000E+00  0.23577633555E+03  0.23577633555E+03  0.00000000000E+00 0.  1.
          1   -1    0    0  504    0 -0.00000000000E+00 -0.00000000000E+00 -0.34735571323E+04  0.34735571323E+04  0.00000000000E+00 0. -1.
         21    1    1    2  503  502  0.14471130731E+02  0.31284576145E+02  0.20214516835E+03  0.20506293526E+03  0.00000000000E+00 0.  1.
         21    1    1    2  504  505  0.30222575315E+02 -0.75546669449E+02 -0.56676066294E+03  0.57257170065E+03  0.00000000000E+00 0. -1.
         21    1    1    2  505  503  0.87086912334E+02  0.53405920396E+02 -0.66431915294E+02  0.12185861481E+03  0.00000000000E+00 0. -1.
          1    1    1    2  501    0 -0.13178061838E+03 -0.91438270931E+01 -0.28067333868E+04  0.28098402171E+04  0.00000000000E+00 0. -1.
<scales pt_clust_3="34.46938" pt_clust_4="79.26221" pt_clust_5="14000.00000" pt_clust_6="126.87139"></scales>
<clustering>
<clus scale="   34.469">  1  3  2 -1</clus>
<clus scale="   79.262">  2  4  1 -1</clus>
<clus scale="  126.871">  2  6  1 -1</clus>
<clus scale="   34.469">  1  3  2 -1</clus>
</clustering>
</event>
<event>
 6    0  0.4189111E+002  0.8661164E+02  0.7546771E-02  0.1311271E+00
         21   -1    0    0  504  502  0.00000000000E+00  0.00000000000E+00  0.53660809896E+02  0.53660809896E+02  0.00000000000E+00 0.  1.
          1   -1    0    0  503    0 -0.00000000000E+00 -0.00000000000E+00 -0.18736924567E+04  0.18736924567E+04  0.00000000000E+00 0. -1.
         21    1    1    2  503  505 -0.93623002593E+01  0.29501357711E+02 -0.84737087065E+03  0.84793594993E+03  0.00000000000E+00 0. -1.
         21    1    1    2  504  501  0.40400264952E+02 -0.10235219805E+03 -0.62266183440E+02  0.12643271513E+03  0.00000000000E+00 0.  1.
         21    1    1    2  505  502  0.13155343353E+02  0.74278857047E+02 -0.47901011792E+02  0.89358371704E+02  0.00000000000E+00 0.  1.
          1    1    1    2  501    0 -0.44193308046E+02 -0.14280167029E+01 -0.86249358088E+03  0.86362622978E+03  0.00000000000E+00 0. -1.
<scales pt_clust_3="30.95130" pt_clust_4="14000.00000" pt_clust_5="86.61164" pt_clust_6="57.07968"></scales>
<clustering>
<clus scale="   30.951">  2  3  1 -1</clus>
<clus scale="   57.080">  2  6  1 -1</clus>
<clus scale="   86.612">  1  5  2 -1</clus>
<clus scale="   86.612">  1  3  2 -1</clus>
</clustering>
</event>
<event>
 6    0  0.4189111E+002  0.9158190E+02  0.7546771E-02  0.1299065E+00
         21   -1    0    0  505  502  0.00000000000E+00  0.00000000000E+00  0.48186012145E+02  0.48186012145E+02  0.00000000000E+00 0. -1.
          1   -1    0    0  504    0 -0.00000000000E+00 -0.00000000000E+00 -0.12628443550E+04  0.12628443550E+04  0.00000000000E+00 0.  1.
         21    1    1    2  503  502  0.35926555935E+02  0.57379119771E+02 -0.65246545994E+02  0.94022298266E+02  0.00000000000E+00 0. -1.
         21    1    1    2  504  503  0.59568421872E+02  0.24848231464E+01 -0.33150366537E+03  0.33682228458E+03  0.00000000000E+00 0. -1.
         21    1    1    2  505  501  0.22126103504E+02 -0.11297464765E+03 -0.10539751816E+03  0.15608162065E+03  0.00000000000E+00 0. -1.
          1    1    1    2  501    0 -0.11762108131E+03  0.53110704736E+02 -0.71251061336E+03  0.72410416369E+03  0.00000000000E+00 0.  1.
<scales pt_clust_3="70.71559" pt_clust_4="59.62023" pt_clust_5="91.58190" pt_clust_6="14000.00000"></scales>
<clustering>
<clus scale="   59.620">  2  4  1 -1</clus>
<clus scale="   70.716">  1  3  2 -1</clus>
<clus scale="   91.582">  1  5  2 -1</clus>
<clus scale="   70.716">  1  3  2 -1</clus>
</clustering>
</event>
<event>
 6    0  0.4189111E+002  0.6094701E+02  0.7546771E-02  0.1393900E+00
          2   -1    0    0  504    0 -0.00000000000E+00  0.00000000000E+00  0.13929243563E+04  0.13929243563E+04  0.00000000000E+00 0.  1.
         21   -1    0    0  503  502  0.00000000000E+00 -0.00000000000E+00 -0.33711893183E+03  0.33711893183E+03  0.00000000000E+00 0. -1.
         21    1    1    2  503  501  0.23155191686E+02 -0.82184124268E+02 -0.14360451912E+03  0.16707079666E+03  0.00000000000E+00 0. -1.
         21    1    1    2  504  505 -0.13580608083E+02 -0.46656911267E+02  0.25084661173E+03  0.25550992721E+03  0.00000000000E+00 0.  1.
         21    1    1    2  505  502  0.27593114864E+02  0.49004310403E+02 -0.17327496779E+03  0.18217304106E+03  0.00000000000E+00 0. -1.
          2    1    1    2  501    0 -0.37167698467E+02  0.79836725132E+02  0.11218382997E+04  0.11252895233E+04  0.00000000000E+00 0.  1.
<scales pt_clust_3="14000.00000" pt_clust_4="48.59321" pt_clust_5="56.05411" pt_clust_6="60.94701"></scales>
<clustering>
<clus scale="   48.593">  1  4  2 -1</clus>
<clus scale="   56.054">  2  5  1 -1</clus>
<clus scale="   60.947">  1  6  2 -1</clus>
<clus scale="   56.054">  2  3  1 -1</clus>
</clustering>
</event>
<event>
 6    0  0.4189111E+002  0.7948556E+02  0.7546771E-02  0.1330518E+00
         21   -1    0    0  501  502  0.00000000000E+00  0.00000000000E+00  0.35864010773E+02  0.35864010773E+02  0.00000000000E+00 0.  1.
          2   -1    0    0  503    0 -0.00000000000E+00 -0.00000000000E+00 -0.13710095983E+04  0.13710095983E+04  0.00000000000E+00 0. -1.
         21    1    1    2  503  504  0.28845916990E+02  0.64950145949E+02 -0.30878138911E+03  0.31685415359E+03  0.00000000000E+00 0. -1.
         21    1    1    2  504  505  0.68505168565E+02 -0.35242315101E+02 -0.52920879694E+02  0.93464423186E+02  0.00000000000E+00 0.  1.
         21    1    1    2  505  502  0.10549955373E+02  0.33284861730E+02 -0.33648773701E+02  0.48491479152E+02  0.00000000000E+00 0.  1.
          2    1    1    2  501    0 -0.10790104093E+03 -0.62992692578E+02 -0.93979454500E+03  0.94806355312E+03  0.00000000000E+00 0. -1.
<scales pt_clust_3="75.99426" pt_clust_4="14000.00000" pt_clust_5="34.91681" pt_clust_6="79.48556"></scales>
<clustering>
<clus scale="   34.917">  1  5  2 -1</clus>
<clus scale="   75.994">  2  3  1 -1</clus>
<clus scale="   79.486">  2  6  1 -1</clus>
<clus scale="   34.917">  1  3  2 -1</clus>
</clustering>
</event>
<event>
 6    0  0.4189111E+002  0.1558726E+03  0.7546771E-02  0.1193437E+00
          2   -1    0    0  504    0 -0.00000000000E+00  0.00000000000E+00  0.90271910290E+03  0.90271910290E+03  0.00000000000E+00 0.  1.
         21   -1    0    0  503  502  0.00000000000E+00 -0.00000000000E+00 -0.14486867539E+04  0.14486867539E+04  0.00000000000E+00 0.  1.
         21    1    1    2  503  501 -0.84683556340E+02  0.30188795498E+01 -0.12390085262E+04  0.12419027927E+04  0.00000000000E+00 0.  1.
         21    1    1    2  504  505  0.44688573128E+01  0.60270476417E+02  0.72068219340E+03  0.72321181191E+03  0.00000000000E+00 0.  1.
         21    1    1    2  505  502 -0.62640051717E+02  0.83016589694E+02 -0.12265760971E+03  0.16081175163E+03  0.00000000000E+00 0.  1.
          2    1    1    2  501    0  0.14285475074E+03 -0.14630594566E+03  0.95016291514E+02  0.22547950062E+03  0.00000000000E+00 0.  1.
<scales pt_clust_3="84.72017" pt_clust_4="60.43592" pt_clust_5="155.87257" pt_clust_6="14000.00000"></scales>
<clustering>
<clus scale="   60.436">  1  4  2 -1</clus>
<clus scale="   84.720">  2  3  1 -1</clus>
<clus scale="  155.873">  2  5  1 -1</clus>
<clus scale="   84.720">  2  3  1 -1</clus>
</clustering>
</event>
<event>
 6    0  0.4189111E+002  0.7747623E+02  0.7546771E-02  0.1336370E+00
          1   -1    0    0  504    0 -0.00000000000E+00  0.00000000000E+00  0.22211207817E+03  0.22211207817E+03  0.00000000000E+00 0.  1.
         21   -1    0    0  503  502  0.00000000000E+00 -0.00000000000E+00 -0.19498114713E+03  0.19498114713E+03  0.00000000000E+00 0.  1.
         21    1    1    2  503  505 -0.26533264599E+02 -0.63357795784E+02 -0.28738314725E+01  0.68749424173E+02  0.00000000000E+00 0.  1.
         21    1    1    2  504  502  0.62843880343E+02  0.53783799195E+02 -0.13158387910E+03  0.15542318872E+03  0.00000000000E+00 0.  1.
         21    1    1    2  505  501 -0.58239980039E+02  0.37955931257E+02  0.10541953530E+03  0.12627678494E+03  0.00000000000E+00 0.  1.
          1    1    1    2  501    0  0.21929364296E+02 -0.28381934668E+02  0.56169106326E+02  0.66643827466E+02  0.00000000000E+00 0.  1.
<scales pt_clust_3="77.47623" pt_clust_4="14000.00000" pt_clust_5="45.89736" pt_clust_6="35.86685"></scales>
<clustering>
<clus scale="   35.867">  1  6  2 -1</clus>
<clus scale="   45.897">  1  5  2 -1</clus>
<clus scale="   77.476">  1  3  2 -1</clus>
<clus scale="   77.476">  2  3  1 -1</clus>
</clustering>
</event>
<event>
 6    0  0.4189111E+002  0.1449445E+03  0.7546771E-02  0.1206826E+00
         21   -1    0    0  503  502  0.00000000000E+00  0.00000000000E+00  0.39948277742E+03  0.39948277742E+03  0.00000000000E+00 0.  1.
          3   -1    0    0  504    0 -0.00000000000E+00 -0.00000000000E+00 -0.45579394969E+03  0.45579394969E+03  0.00000000000E+00 0.  1.
         21    1    1    2  503  505  0.21430687623E+03  0.73867660628E+02  0.15345762750E+02  0.22719894568E+03  0.00000000000E+00 0.  1.
         21    1    1    2  504  502 -0.10903093727E+03 -0.32869104129E+01  0.25329701568E+03  0.27578601707E+03  0.00000000000E+00 0.  1.
         21    1    1    2  505  501 -0.33186242144E+02 -0.36462051929E+02 -0.18237421931E+03  0.18892105168E+03  0.00000000000E+00 0.  1.
          3    1    1    2  501    0 -0.72089696814E+02 -0.34118698287E+02 -0.14257973139E+03  0.16337071268E+03  0.00000000000E+00 0.  1.
<scales pt_clust_3="136.23199" pt_clust_4="109.08047" pt_clust_5="38.91501" pt_clust_6="38.91501"></scales>
<clustering>
<clus scale="   38.915">  5  6 -1 -1</clus>
<clus scale="  109.080">  1  4  2 -1</clus>
<clus scale="  136.232">  1  3  2 -1</clus>
<clus scale="  109.080">  1  3  2 -1</clus>
</clustering>
</event>
<event>
 6    0  0.4189111E+002  0.8808239E+02  0.7546771E-02  0.1307563E+00
         21   -1    0    0  503  502  0.00000000000E+00  0.00000000000E+00  0.42920171117E+02  0.42920171117E+02  0.00000000000E+00 0. -1.
          2   -1    0    0  505    0 -0.00000000000E+00 -0.00000000000E+00 -0.10169454262E+04  0.10169454262E+04  0.00000000000E+00 0. -1.
         21    1    1    2  503  504 -0.55259866908E+02  0.70947085622E+01 -0.92165233119E+02  0.10769595153E+03  0.00000000000E+00 0.  1.
         21    1    1    2  504  501 -0.57444695045E+02 -0.14441581384E+02 -0.30248382902E+03  0.30822867984E+03  0.00000000000E+00 0. -1.
         21    1    1    2  505  502  0.11880960718E+03  0.69741542204E+02 -0.12742164721E+03  0.18765895034E+03  0.00000000000E+00 0. -1.
          2    1    1    2  501    0 -0.61050452235E+01 -0.62394669383E+02 -0.45195454576E+03  0.45628201562E+03  0.00000000000E+00 0. -1.
<scales pt_clust_3="55.71344" pt_clust_4="14000.00000" pt_clust_5="88.08239" pt_clust_6="62.68303"></scales>
<clustering>
<clus scale="   55.713">  1  3  2 -1</clus>
<clus scale="   62.683">  2  6  1 -1</clus>
<clus scale="   88.082">  1  5  2 -1</clus>
<clus scale="   55.713">  1  3  2 -1</clus>
</clustering>
</event>
<event>
 6    0  0.4189111E+002  0.1098758E+03  0.7546771E-02  0.1260800E+00
          1   -1    0    0  504    0 -0.00000000000E+00  0.00000000000E+00  0.17039930269E+04  0.17039930269E+04  0.00000000000E+00 0. -1.
         21   -1    0    0  505  502  0.00000000000E+00 -0.00000000000E+00 -0.20378670557E+03  0.20378670557E+03  0.00000000000E+00 0. -1.
         21    1    1    2  503  502 -0.44087539716E+02 -0.69619091958E+02  0.21739678884E+03  0.23249062975E+03  0.00000000000E+00 0. -1.
         21    1    1    2  504  503  0.67705271090E+02 -0.80941865159E+02  0.60190735576E+03  0.61108759944E+03  0.00000000000E+00 0. -1.
         21    1    1    2  505  501  0.62548886756E+01  0.35573241293E+02 -0.18585901230E+03  0.18933608104E+03  0.00000000000E+00 0. -1.
          1    1    1    2  501    0 -0.29872620050E+02  0.11498771582E+03  0.86676118903E+03  0.87486542224E+03  0.00000000000E+00 0. -1.
<scales pt_clust_3="67.14098" pt_clust_4="109.87582" pt_clust_5="36.11896" pt_clust_6="14000.00000"></scales>
<clustering>
<clus scale="   36.119">  2  5  1 -1</clus>
<clus scale="   67.141">  2  3  1 -1</clus>
<clus scale="  109.876">  2  4  1 -1</clus>
<clus scale="   36.119">  2  3  1 -1</clus>
</clustering>
</event>
<event>
 6    0  0.4189111E+002  0.2223421E+03  0.7546771E-02  0.1132149E+00
         21   -1    0    0  503  502  0.00000000000E+00  0.00000000000E+00  0.83954235415E+02  0.83954235415E+02  0.00000000000E+00 0. -1.
          1   -1    0    0  505    0 -0.00000000000E+00 -0.00000000000E+00 -0.13960334739E+04  0.13960334739E+04  0.00000000000E+00 0.  1.
         21    1    1    2  503  501  0.84901352294E+02  0.21101976952E+02 -0.31616316695E+03  0.32804371841E+03  0.00000000000E+00 0.  1.
         21    1    1    2  504  502 -0.19190354157E+03  0.11183838721E+03 -0.13767674617E+03  0.26132294303E+03  0.00000000000E+00 0. -1.
         21    1    1    2  505  504 -0.22136985473E+02 -0.10274026063E+03 -0.39986438379E+03  0.41344544102E+03  0.00000000000E+00 0.  1.
          1    1    1    2  501    0  0.12913917475E+03 -0.30200103533E+02 -0.45837494162E+03  0.47717560689E+03  0.00000000000E+00 0.  1.
<scales pt_clust_3="41.19597" pt_clust_4="216.47926" pt_clust_5="105.09808" pt_clust_6="41.19597"></scales>
<clustering>
<clus scale="   41.196">  3  6 -1 -1</clus>
<clus scale="  105.098">  2  5  1 -1</clus>
<clus scale="  216.479">  1  4  2 -1</clus>
<clus scale="  216.479">  1  3  2 -1</clus>
</clustering>
</event>
<event>
 6    0  0.4189111E+002  0.1734723E+03  0.7546771E-02  0.1174274E+00
          1   -1    0    0  504    0 -0.00000000000E+00  0.00000000000E+00  0.41843554670E+03  0.41843554670E+03  0.00000000000E+00 0.  1.
         21   -1    0    0  503  502  0.00000000000E+00 -0.00000000000E+00 -0.22469538810E+04  0.22469538810E+04  0.00000000000E+00 0.  1.
         21    1    1    2  503  505 -0.22136979267E+03 -0.54865422853E+02 -0.18420157801E+04  0.18560810687E+04  0.00000000000E+00 0.  1.
         21    1    1    2  504  502  0.54279996213E+02  0.61807618149E+02 -0.52606726237E+01  0.82426781611E+02  0.00000000000E+00 0.  1.
         21    1    1    2  505  501  0.10984945483E+03 -0.43334273550E+01 -0.34321991466E+03  0.36039643608E+03  0.00000000000E+00 0.  1.
          1    1    1    2  501    0  0.57240341628E+02 -0.26087679415E+01  0.36197803304E+03  0.36648514128E+03  0.00000000000E+00 0.  1.
<scales pt_clust_3="14000.00000" pt_clust_4="112.35531" pt_clust_5="173.47225" pt_clust_6="57.29976"></scales>
<clustering>
<clus scale="   57.300">  1  6  2 -1</clus>
<clus scale="  112.355">  1  4  2 -1</clus>
<clus scale="  173.472">  1  5  2 -1</clus>
<clus scale="  173.472">  2  3  1 -1</clus>
</clustering>
</event>
<event>
 6    0  0.4189111E+002  0.7519170E+02  0.7546771E-02  0.1343278E+00
         21   -1    0    0  505  502  0.00000000000E+00  0.00000000000E+00  0.11611182505E+03  0.11611182505E+03  0.00000000000E+00 0.  1.
          2   -1    0    0  503    0 -0.00000000000E+00 -0.00000000000E+00 -0.11824908303E+04  0.11824908303E+04  0.00000000000E+00 0.  1.
         21    1    1    2  503  504  0.48339231217E+02  0.22756932053E+02 -0.83775613555E+03  0.83945810013E+03  0.00000000000E+00 0.  1.
         21    1    1    2  504  502  0.14274753186E+02  0.94952992326E+02  0.47839578718E+02  0.10727751219E+03  0.00000000000E+00 0.  1.
         21    1    1    2  505  501 -0.32420033020E+02 -0.25215984050E+02  0.15668475067E+02  0.43959134472E+02  0.00000000000E+00 0. -1.
          2    1    1    2  501    0 -0.30193951384E+02 -0.92493940329E+02 -0.29213092352E+03  0.30790790859E+03  0.00000000000E+00 0.  1.
<scales pt_clust_3="53.03300" pt_clust_4="75.19170" pt_clust_5="41.07194" pt_clust_6="14000.00000"></scales>
<clustering>
<clus scale="   41.072">  1  5  2 -1</clus>
<clus scale="   53.033">  2  3  1 -1</clus>
<clus scale="   75.192">  1  4  2 -1</clus>
<clus scale="   41.072">  1  3  2 -1</clus>
</clustering>
</event>
<event>
 6    0  0.4189111E+002  0.1032563E+03  0.7546771E-02  0.1273594E+00
          2   -1    0    0  504    0 -0.00000000000E+00  0.00000000000E+00  0.87534071357E+03  0.87534071357E+03  0.00000000000E+00 0.  1.
         21   -1    0    0  503  502  0.00000000000E+00 -0.00000000000E+00 -0.66385730821E+02  0.66385730821E+02  0.00000000000E+00 0.  1.
         21    1    1    2  503  501 -0.34367952323E+02 -0.52890912343E+01 -0.13631191742E+02  0.37348895850E+02  0.00000000000E+00 0.  1.
         21    1    1    2  504  505 -0.40112220453E+02  0.16892016358E+01  0.11755098914E+03  0.12421786779E+03  0.00000000000E+00 0.  1.
         21    1    1    2  505  502  0.13231475384E+03  0.40774631099E+02  0.98929184119E+02  0.17016682431E+03  0.00000000000E+00 0.  1.
          2    1    1    2  501    0 -0.57834581065E+02 -0.37174741501E+02  0.60610600123E+03  0.60999285644E+03  0.00000000000E+00 0.  1.
<scales pt_clust_3="34.77256" pt_clust_4="42.93202" pt_clust_5="14000.00000" pt_clust_6="103.25635"></scales>
<clustering>
<clus scale="   34.773">  2  3  1 -1</clus>
<clus scale="   42.932">  1  4  2 -1</clus>
<clus scale="  103.256">  1  6  2 -1</clus>
<clus scale="   34.773">  2  3  1 -1</clus>
</clustering>
</event>
<event>
 6    0  0.4189111E+002  0.1100331E+03  0.7546771E-02  0.1260509E+00
          2   -1    0    0  505    0 -0.00000000000E+00  0.00000000000E+00  0.38311822836E+04  0.38311822836E+04  0.00000000000E+00 0. -1.
         21   -1    0    0  504  502  0.00000000000E+00 -0.00000000000E+00 -0.15784515289E+02  0.15784515289E+02  0.00000000000E+00 0. -1.
         21    1    1    2  503  501  0.19819889753E+02 -0.76233593635E+02  0.12211857858E+04  0.12237234623E+04  0.00000000000E+00 0.  1.
         21    1    1    2  504  503 -0.10116943308E+02  0.10914548848E+03  0.21582702847E+03  0.24206692549E+03  0.00000000000E+00 0. -1.
         21    1    1    2  505  502 -0.29137940580E+02  0.84810449135E+01  0.19801237484E+03  0.20032435772E+03  0.00000000000E+00 0.  1.
          2    1    1    2  501    0  0.19434994135E+02 -0.41392939763E+02  0.21803725792E+04  0.21808520534E+04  0.00000000000E+00 0. -1.
<scales pt_clust_3="110.03313" pt_clust_4="14000.00000" pt_clust_5="30.34712" pt_clust_6="45.40126"></scales>
<clustering>
<clus scale="   30.347">  2  5  1 -1</clus>
<clus scale="   45.401">  1  6  2 -1</clus>
<clus scale="  110.033">  1  3  2 -1</clus>
<clus scale="   30.347">  2  3  1 -1</clus>
</clustering>
</event>
<event>
 6    0  0.4189111E+002  0.6018749E+02  0.7546771E-02  0.1397047E+00
          3   -1    0    0  505    0 -0.00000000000E+00  0.00000000000E+00  0.42278510333E+02  0.42278510333E+02  0.00000000000E+00 0.  1.
         21   -1    0    0  503  502  0.00000000000E+00 -0.00000000000E+00 -0.79480812118E+03  0.79480812118E+03  0.00000000000E+00 0.  1.
         21    1    1    2  503  504  0.27921594100E+02  0.22353085618E+02 -0.27321876543E+03  0.27554994037E+03  0.00000000000E+00 0.  1.
         21    1    1    2  504  501  0.37222711660E+02  0.22969927517E+02 -0.89971468410E+02  0.10004005678E+03  0.00000000000E+00 0.  1.
         21    1    1    2  505  502 -0.11759683495E+03 -0.22972552185E+02 -0.38623793638E+03  0.40439646048E+03  0.00000000000E+00 0.  1.
          3    1    1    2  501    0  0.52452529189E+02 -0.22350460950E+02 -0.31014406172E+01  0.57100173878E+02  0.00000000000E+00 0.  1.
<scales pt_clust_3="35.76697" pt_clust_4="50.22659" pt_clust_5="60.18749" pt_clust_6="14000.00000"></scales>
<clustering>
<clus scale="   35.767">  2  3  1 -1</clus>
<clus scale="   50.227">  2  4  1 -1</clus>
<clus scale="   60.187">  2  5  1 -1</clus>
<clus scale="   35.767">  2  3  1 -1</clus>
</clustering>
</event>
<event>
 6    0  0.4189111E+002  0.7962059E+02  0.7546771E-02  0.1330132E+00
         21   -1    0    0  503  502  0.00000000000E+00  0.00000000000E+00  0.19367454736E+04  0.19367454736E+04  0.00000000000E+00 0.  1.
          2   -1    0    0  505    0 -0.00000000000E+00 -0.00000000000E+00 -0.17279880928E+04  0.17279880928E+04  0.00000000000E+00 0. -1.
         21    1    1    2  503  501 -0.27258709519E+02 -0.47454547753E+02  0.18812828541E+04  0.18820786776E+04  0.00000000000E+00 0.  1.
         21    1    1    2  504  502  0.94428511559E+02  0.94542176723E+01  0.17864206917E+01  0.94917423722E+02  0.00000000000E+00 0.  1.
         21    1    1    2  505  504  0.70816421522E+02  0.14757565864E+02 -0.53741327405E+03  0.54225988090E+03  0.00000000000E+00 0.  1.
          2    1    1    2  501    0 -0.13798622356E+03  0.23242764217E+02 -0.11368986199E+04  0.11454775842E+04  0.00000000000E+00 0. -1.
<scales pt_clust_3="54.72633" pt_clust_4="79.62059" pt_clust_5="70.76022" pt_clust_6="14000.00000"></scales>
<clustering>
<clus scale="   54.726">  1  3  2 -1</clus>
<clus scale="   70.760">  2  5  1 -1</clus>
<clus scale="   79.621">  1  4  2 -1</clus>
<clus scale="   54.726">  1  3  2 -1</clus>
</clustering>
</event>
<event>
 6    0  0.4189111E+002  0.1075645E+03  0.7546771E-02  0.1265148E+00
          1   -1    0    0  503    0 -0.00000000000E+00  0.00000000000E+00  0.16503997044E+04  0.16503997044E+04  0.00000000000E+00 0.  1.
         21   -1    0    0  505  502  0.00000000000E+00 -0.00000000000E+00 -0.56746506259E+03  0.56746506259E+03  0.00000000000E+00 0.  1.
         21    1    1    2  503  504  0.69414612328E+02 -0.11591885661E+03  0.11508555499E+03  0.17748311100E+03  0.00000000000E+00 0. -1.
         21    1    1    2  504  502 -0.73363978254E+02 -0.86697257474E+01 -0.51634938177E+03  0.52160724832E+03  0.00000000000E+00 0.  1.
         21    1    1    2  505  501 -0.74931405526E+02  0.44252391092E+02  0.11137249000E+03  0.14133938298E+03  0.00000000000E+00 0. -1.
          1    1    1    2  501    0  0.78880771452E+02  0.80336191268E+02  0.13728259786E+04  0.13774350246E+04  0.00000000000E+00 0.  1.
<scales pt_clust_3="107.56453" pt_clust_4="73.87447" pt_clust_5="106.08758" pt_clust_6="14000.00000"></scales>
<clustering>
<clus scale="   73.874">  2  4  1 -1</clus>
<clus scale="  106.088">  2  5  1 -1</clus>
<clus scale="  107.565">  2  3  1 -1</clus>
<clus scale="   73.874">  2  3  1 -1</clus>
</clustering>
</event>
<event>
 6    0  0.4189111E+002  0.1910297E+03  0.7546771E-02  0.1157536E+00
         21   -1    0    0  503  502  0.00000000000E+00  0.00000000000E+00  0.80189182861E+03  0.80189182861E+03  0.00000000000E+00 0.  1.
          3   -1    0    0  505    0 -0.00000000000E+00 -0.00000000000E+00 -0.60363753798E+03  0.60363753798E+03  0.00000000000E+00 0.  1.
         21    1    1    2  503  501  0.36192164944E+02 -0.41113492907E+02  0.63225647262E+03  0.63462464439E+03  0.00000000000E+00 0.  1.
         21    1    1    2  504  502 -0.24742648044E+02 -0.17312973888E+02  0.10071392786E+03  0.10514386793E+03  0.00000000000E+00 0. -1.
         21    1    1    2  505  504  0.16188339489E+03 -0.71337600355E+02 -0.28286480569E+03  0.33362821383E+03  0.00000000000E+00 0.  1.
          3    1    1    2  501    0 -0.17333291179E+03  0.12976406715E+03 -0.25185130416E+03  0.33213264043E+03  0.00000000000E+00 0.  1.
<scales pt_clust_3="58.44846" pt_clust_4="30.19831" pt_clust_5="14000.00000" pt_clust_6="191.02972"></scales>
<clustering>
<clus scale="   30.198">  1  4  2 -1</clus>
<clus scale="   58.448">  1  3  2 -1</clus>
<clus scale="  191.030">  1  6  2 -1</clus>
<clus scale="   30.198">  1  3  2 -1</clus>
</clustering>
</event>
<event>
 6    0  0.4189111E+002  0.7125325E+02  0.7546771E-02  0.1355882E+00
         21   -1    0    0  505  502  0.00000000000E+00  0.00000000000E+00  0.10686972855E+03  0.10686972855E+03  0.00000000000E+00 0. -1.
         -3   -1    0    0    0  501 -0.00000000000E+00 -0.00000000000E+00 -0.47750418095E+03  0.47750418095E+03  0.00000000000E+00 0.  1.
         21    1    1    2  503  502 -0.37940244810E+02 -0.31287867688E+02  0.65619697481E+02  0.82002058134E+02  0.00000000000E+00 0. -1.
         21    1    1    2  504  503  0.45231563637E+02 -0.28949314943E+02 -0.70029921241E+02  0.88250479057E+02  0.00000000000E+00 0.  1.
         21    1    1    2  505  501  0.12984843489E+02  0.11779571612E+03 -0.16033410829E+03  0.19937768977E+03  0.00000000000E+00 0. -1.
         -3    1    1    2    0  504 -0.20276162315E+02 -0.57558533490E+02 -0.20589012035E+03  0.21474368255E+03  0.00000000000E+00 0.  1.
<scales pt_clust_3="49.17716" pt_clust_4="51.19568" pt_clust_5="14000.00000" pt_clust_6="71.25325"></scales>
<clustering>
<clus scale="   49.177">  1  3  2 -1</clus>
<clus scale="   51.196">  1  4  2 -1</clus>
<clus scale="   71.253">  2  6  1 -1</clus>
<clus scale="   49.177">  1  3  2 -1</clus>
</clustering>
</event>
<event>
 6    0  0.4189111E+002  0.2085596E+03  0.7546771E-02  0.1142712E+00
          1   -1    0    0  503    0 -0.00000000000E+00  0.00000000000E+00  0.25059500143E+04  0.25059500143E+04  0.00000000000E+00 0. -1.
         21   -1    0    0  504  502  0.00000000000E+00 -0.00000000000E+00 -0.64313782440E+02  0.64313782440E+02  0.00000000000E+00 0. -1.
         21    1    1    2  503  505  0.21936947888E+02  0.32856892031E+02  0.15122918115E+03  0.15630441538E+03  0.00000000000E+00 0. -1.
         21    1    1    2  504  501  0.17235999134E+03 -0.16447704445E+03  0.31941061229E+03  0.39847685505E+03  0.00000000000E+00 0. -1.
         21    1    1    2  505  502 -0.43953880153E+02  0.44128391276E+01  0.10876697814E+02  0.45494167594E+02  0.00000000000E+00 0. -1.
          1    1    1    2  501    0 -0.15034305907E+03  0.12720731329E+03  0.19601197406E+04  0.19699883588E+04  0.00000000000E+00 0. -1.
<scales pt_clust_3="39.50703" pt_clust_4="14000.00000" pt_clust_5="43.95461" pt_clust_6="208.55964"></scales>
<clustering>
<clus scale="   39.507">  1  3  2 -1</clus>
<clus scale="   43.955">  2  5  1 -1</clus>
<clus scale="  208.560">  1  6  2 -1</clus>
<clus scale="   43.955">  2  3  1 -1</clus>
</clustering>
</event>
<event>
 6    0  0.4189111E+002  0.9004775E+02  0.7546771E-02  0.1302736E+00
          2   -1    0    0  504    0 -0.00000000000E+00  0.00000000000E+00  0.54391446695E+03  0.54391446695E+03  0.00000000000E+00 0.  1.
         21   -1    0    0  503  502  0.00000000000E+00 -0.00000000000E+00 -0.16872897900E+03  0.16872897900E+03  0.00000000000E+00 0.  1.
         21    1    1    2  503  505 -0.38914707671E+02 -0.38003168055E+02 -0.97158334999E+02  0.11134782133E+03  0.00000000000E+00 0.  1.
         21    1    1    2  504  502  0.69235198388E+02  0.77005535637E+02  0.22414799091E+02  0.10595182128E+03  0.00000000000E+00 0.  1.
         21    1    1    2  505  501 -0.10470414584E+03 -0.63634972147E+02  0.21218381432E+03  0.24501905823E+03  0.00000000000E+00 0.  1.
          2    1    1    2  501    0  0.74383655125E+02  0.24632604565E+02  0.23774520954E+03  0.25032474511E+03  0.00000000000E+00 0.  1.
<scales pt_clust_3="54.39297" pt_clust_4="68.42952" pt_clust_5="14000.00000" pt_clust_6="90.04775"></scales>
<clustering>
<clus scale="   54.393">  2  3  1 -1</clus>
<clus scale="   68.430">  2  4  1 -1</clus>
<clus scale="   90.048">  1  6  2 -1</clus>
<clus scale="   54.393">  2  3  1 -1</clus>
</clustering>
</event>
<event>
 6    0  0.4189111E+002  0.8245139E+02  0.7546771E-02  0.1322235E+00
          2   -1    0    0  503    0 -0.00000000000E+00  0.00000000000E+00  0.99835232473E+03  0.99835232473E+03  0.00000000000E+00 0.  1.
         21   -1    0    0  505  502  0.00000000000E+00 -0.00000000000E+00 -0.17477877581E+03  0.17477877581E+03  0.00000000000E+00 0.  1.
         21    1    1    2  503  502 -0.32802718861E+02  0.84549063965E+02 -0.13436895969E+03  0.16210977735E+03  0.00000000000E+00 0.  1.
         21    1    1    2  504  501 -0.45008208190E+02 -0.24308565140E+02  0.17923787878E+03  0.18639437313E+03  0.00000000000E+00 0.  1.
         21    1    1    2  505  504  0.72637518029E+02 -0.16136255819E+02  0.39789863366E+02  0.84379031779E+02  0.00000000000E+00 0.  1.
          2    1    1    2  501    0  0.51734090224E+01 -0.44104243006E+02  0.73891476647E+03  0.74024791828E+03  0.00000000000E+00 0.  1.
<scales pt_clust_3="14000.00000" pt_clust_4="69.18608" pt_clust_5="82.45139" pt_clust_6="44.40663"></scales>
<clustering>
<clus scale="   44.407">  1  6  2 -1</clus>
<clus scale="   69.186">  1  4  2 -1</clus>
<clus scale="   82.451">  1  5  2 -1</clus>
<clus scale="   82.451">  2  3  1 -1</clus>
</clustering>
</event>
<event>
 6    0  0.4189111E+002  0.8605622E+02  0.7546771E-02  0.1312693E+00
         21   -1    0    0  503  502  0.00000000000E+00  0.00000000000E+00  0.20547223048E+03  0.20547223048E+03  0.00000000000E+00 0. -1.
          3   -1    0    0  504    0 -0.00000000000E+00 -0.00000000000E+00 -0.41918332332E+03  0.41918332332E+03  0.00000000000E+00 0. -1.
         21    1    1    2  503  501 -0.50349660878E+02 -0.13352495403E+02  0.67600546030E+02  0.85341732508E+02  0.00000000000E+00 0. -1.
         21    1    1    2  504  505  0.13689192590E+02 -0.27463313021E+02 -0.43508722727E+02  0.53241304540E+02  0.00000000000E+00 0. -1.
         21    1    1    2  505  502  0.40622533395E+02  0.10061259863E+03  0.97246975351E+02  0.14570538575E+03  0.00000000000E+00 0. -1.
          3    1    1    2  501    0 -0.39620651072E+01 -0.59796790205E+02 -0.33504989149E+03  0.34036713100E+03  0.00000000000E+00 0. -1.
<scales pt_clust_3="51.94694" pt_clust_4="30.68595" pt_clust_5="86.05622" pt_clust_6="14000.00000"></scales>
<clustering>
<clus scale="   30.686">  2  4  1 -1</clus>
<clus scale="   51.947">  1  3  2 -1</clus>
<clus scale="   86.056">  1  5  2 -1</clus>
<clus scale="   51.947">  1  3  2 -1</clus>
</clustering>
</event>
<event>
 6    0  0.4189111E+002  0.1082006E+03  0.7546771E-02  0.1263939E+00
         21   -1    0    0  503  502  0.00000000000E+00  0.00000000000E+00  0.54510594295E+03  0.54510594295E+03  0.00000000000E+00 0. -1.
          2   -1    0    0  505    0 -0.00000000000E+00 -0.00000000000E+00 -0.36190931315E+03  0.36190931315E+03  0.00000000000E+00 0. -1.
         21    1    1    2  503  504  0.62767481167E+02 -0.11903028353E+03  0.36626821089E+03  0.39020554507E+03  0.00000000000E+00 0. -1.
         21    1    1    2  504  501 -0.87690905076E+02  0.31299692907E+02  0.13971798373E+03  0.16790021020E+03  0.00000000000E+00 0. -1.
         21    1    1    2  505  502  0.40283036607E+02  0.96311545497E+01 -0.50974526080E+02  0.65680168128E+02  0.00000000000E+00 0. -1.
          2    1    1    2  501    0 -0.15359612698E+02  0.78099436070E+02 -0.27181503874E+03  0.28322933270E+03  0.00000000000E+00 0. -1.
<scales pt_clust_3="14000.00000" pt_clust_4="108.20058" pt_clust_5="41.41838" pt_clust_6="89.51561"></scales>
<clustering>
<clus scale="   41.418">  2  5  1 -1</clus>
<clus scale="   89.516">  2  6  1 -1</clus>
<clus scale="  108.201">  2  4  1 -1</clus>
<clus scale="  108.201">  1  3  2 -1</clus>
</clustering>
</event>
<event>
 6    0  0.4189111E+002  0.1167610E+03  0.7546771E-02  0.1248538E+00
         21   -1    0    0  501  502  0.00000000000E+00  0.00000000000E+00  0.80788285996E+02  0.80788285996E+02  0.00000000000E+00 0.  1.
          2   -1    0    0  504    0 -0.00000000000E+00 -0.00000000000E+00 -0.79176829711E+03  0.79176829711E+03  0.00000000000E+00 0. -1.
         21    1    1    2  503  502  0.22188296414E+02  0.23759253956E+02  0.17607373327E+02  0.36970829606E+02  0.00000000000E+00 0.  1.
         21    1    1    2  504  505  0.58790080591E+02  0.84755987609E+02 -0.41074154311E+03  0.42349553274E+03  0.00000000000E+00 0.  1.
         21    1    1    2  505  503 -0.32309960236E+02  0.54313277385E+02 -0.15209305389E+02  0.65001450762E+02  0.00000000000E+00 0. -1.
          2    1    1    2  501    0 -0.48668416768E+02 -0.16282851895E+03 -0.30263653594E+03  0.34708877000E+03  0.00000000000E+00 0. -1.
<scales pt_clust_3="32.50881" pt_clust_4="116.76097" pt_clust_5="68.96756" pt_clust_6="14000.00000"></scales>
<clustering>
<clus scale="   32.509">  1  3  2 -1</clus>
<clus scale="   68.968">  1  5  2 -1</clus>
<clus scale="  116.761">  2  4  1 -1</clus>
<clus scale="   32.509">  1  3  2 -1</clus>
</clustering>
</event>
<event>
 6    0  0.4189111E+002  0.1369067E+03  0.7546771E-02  0.1217553E+00
          2   -1    0    0  503    0 -0.00000000000E+00  0.00000000000E+00  0.28765504034E+03  0.28765504034E+03  0.00000000000E+00 0.  1.
         21   -1    0    0  504  502  0.00000000000E+00 -0.00000000000E+00 -0.12694800553E+03  0.12694800553E+03  0.00000000000E+00 0. -1.
         21    1    1    2  503  502  0.84978590844E+02 -0.86713731248E+02 -0.30597500855E+02  0.12520718489E+03  0.00000000000E+00 0. -1.
         21    1    1    2  504  505 -0.36360862345E+02 -0.35515091736E+02 -0.13757361285E+01  0.50846108026E+02  0.00000000000E+00 0.  1.
         21    1    1    2  505  501 -0.38846231585E+02  0.33296292773E+02  0.71571540869E+02  0.87978169356E+02  0.00000000000E+00 0.  1.
          2    1    1    2  501    0 -0.97714969142E+01  0.88932530211E+02  0.12110873092E+03  0.15057158360E+03  0.00000000000E+00 0.  1.
<scales pt_clust_3="127.54098" pt_clust_4="50.82749" pt_clust_5="37.63439" pt_clust_6="37.63439"></scales>
<clustering>
<clus scale="   37.634">  5  6 -1 -1</clus>
<clus scale="   50.827">  2  4  1 -1</clus>
<clus scale="  127.541">  2  3  1 -1</clus>
<clus scale="   50.827">  2  3  1 -1</clus>
</clustering>
</event>
<event>
 6    0  0.4189111E+002  0.1259705E+03  0.7546771E-02  0.1233560E+00
          1   -1    0    0  503    0 -0.00000000000E+00  0.00000000000E+00  0.24242931668E+03  0.24242931668E+03  0.00000000000E+00 0. -1.
         21   -1    0    0  505  502  0.00000000000E+00 -0.00000000000E+00 -0.35290404341E+03  0.35290404341E+03  0.00000000000E+00 0. -1.
         21    1    1    2  503  502 -0.74547464116E+02  0.42857959434E+02  0.65346195060E+02  0.10800117732E+03  0.00000000000E+00 0. -1.
         21    1    1    2  504  501  0.14929968858E+03 -0.99667621100E+02 -0.67850028453E+02  0.19190533621E+03  0.00000000000E+00 0. -1.
         21    1    1    2  505  504 -0.10286339099E+03 -0.59807389352E+02 -0.12693057941E+03  0.17398038113E+03  0.00000000000E+00 0. -1.
          1    1    1    2  501    0  0.28111166528E+02  0.11661705102E+03  0.18959686069E+02  0.12144646544E+03  0.00000000000E+00 0. -1.
<scales pt_clust_3="85.98912" pt_clust_4="14000.00000" pt_clust_5="125.97048" pt_clust_6="125.55410"></scales>
<clustering>
<clus scale="   85.989">  1  3  2 -1</clus>
<clus scale="  125.970">  2  5  1 -1</clus>
<clus scale="  125.554">  1  6  2 -1</clus>
<clus scale="  125.970">  2  3  1 -1</clus>
</clustering>
</event>
<event>
 6    0  0.4189111E+002  0.2066799E+03  0.7546771E-02  0.1144222E+00
          1   -1    0    0  504    0 -0.00000000000E+00  0.00000000000E+00  0.90910284168E+03  0.90910284168E+03  0.00000000000E+00 0. -1.
         21   -1    0    0  501  502  0.00000000000E+00 -0.00000000000E+00 -0.18183410664E+03  0.18183410664E+03  0.00000000000E+00 0. -1.
         21    1    1    2  503  502  0.32573169430E+02  0.20446139308E+02 -0.49120766878E+02  0.62385140202E+02  0.00000000000E+00 0. -1.
         21    1    1    2  504  505 -0.64181740927E+02 -0.16532905199E+03  0.29427010283E+03  0.34358097258E+03  0.00000000000E+00 0. -1.
         21    1    1    2  505  503  0.57410053523E+02  0.18953314493E+03 -0.20650020142E+01  0.19804795254E+03  0.00000000000E+00 0. -1.
          1    1    1    2  501    0 -0.25801482026E+02 -0.44650232249E+02  0.48418440110E+03  0.48692288300E+03  0.00000000000E+00 0. -1.
<scales pt_clust_3="38.45850" pt_clust_4="14000.00000" pt_clust_5="206.67986" pt_clust_6="51.20011"></scales>
<clustering>
<clus scale="   38.458">  2  3  1 -1</clus>
<clus scale="   51.200">  1  6  2 -1</clus>
<clus scale="  206.680">  2  5  1 -1</clus>
<clus scale="   38.458">  2  3  1 -1</clus>
</clustering>
</event>
<event>
 6    0  0.4189111E+002  0.1473180E+03  0.7546771E-02  0.1203808E+00
          2   -1    0    0  503    0 -0.00000000000E+00  0.00000000000E+00  0.21939898385E+04  0.21939898385E+04  0.00000000000E+00 0.  1.
         21   -1    0    0  504  502  0.00000000000E+00 -0.00000000000E+00 -0.35804280880E+03  0.35804280880E+03  0.00000000000E+00 0.  1.
         21    1    1    2  503  505 -0.54003910341E+02  0.92214804882E+02 -0.46143544044E+02  0.11640111352E+03  0.00000000000E+00 0.  1.
         21    1    1    2  504  501  0.25014881968E+01 -0.45257972785E+02  0.46369793428E+03  0.46590805509E+03  0.00000000000E+00 0.  1.
         21    1    1    2  505  502 -0.13462701937E+01  0.36583597882E+02 -0.27300048770E+03  0.27544407484E+03  0.00000000000E+00 0.  1.
          2    1    1    2  501    0  0.52848692338E+02 -0.83540429979E+02  0.16913931271E+04  0.16942794038E+04  0.00000000000E+00 0.  1.
<scales pt_clust_3="139.15060" pt_clust_4="32.75393" pt_clust_5="36.60836" pt_clust_6="32.75393"></scales>
<clustering>
<clus scale="   32.754">  4  6 -1 -1</clus>
<clus scale="   36.608">  2  5  1 -1</clus>
<clus scale="  139.151">  2  3  1 -1</clus>
<clus scale="   36.608">  2  3  1 -1</clus>
</clustering>
</event>
<event>
 6    0  0.4189111E+002  0.1069212E+03  0.7546771E-02  0.1266380E+00
         -1   -1    0    0    0  501 -0.00000000000E+00  0.00000000000E+00  0.16402737286E+04  0.16402737286E+04  0.00000000000E+00 0.  1.
         21   -1    0    0  503  502  0.00000000000E+00 -0.00000000000E+00 -0.17163825245E+03  0.17163825245E+03  0.00000000000E+00 0.  1.
         21    1    1    2  503  505  0.59225789773E+02 -0.88674159288E+01 -0.18136998209E+02  0.62572165885E+02  0.00000000000E+00 0. -1.
         21    1    1    2  504  501 -0.31559779029E+02 -0.66936427256E+01  0.57333102127E+02  0.65786845986E+02  0.00000000000E+00 0.  1.
         21    1    1    2  505  504  0.92177045359E+01 -0.76293496335E+02 -0.11370416099E+03  0.13723811383E+03  0.00000000000E+00 0.  1.
         -1    1    1    2    0  502 -0.36883715280E+02  0.91854554989E+02  0.15431435332E+04  0.15463148554E+04  0.00000000000E+00 0.  1.
<scales pt_clust_3="59.46084" pt_clust_4="32.26181" pt_clust_5="106.92123" pt_clust_6="14000.00000"></scales>
<clustering>
<clus scale="   32.262">  1  4  2 -1</clus>
<clus scale="   59.461">  2  3  1 -1</clus>
<clus scale="  106.921">  2  5  1 -1</clus>
<clus scale="   59.461">  2  3  1 -1</clus>
</clustering>
</event>
<event>
 6    0  0.4189111E+002  0.1012323E+03  0.7546771E-02  0.1277726E+00
         21   -1    0    0  504  502  0.00000000000E+00  0.00000000000E+00  0.11251020337E+03  0.11251020337E+03  0.00000000000E+00 0.  1.
          2   -1    0    0  505    0 -0.00000000000E+00 -0.00000000000E+00 -0.17057382500E+04  0.17057382500E+04  0.00000000000E+00 0. -1.
         21    1    1    2  503  501  0.42772744827E+02 -0.86788076712E+02 -0.57104562328E+02  0.11235038495E+03  0.00000000000E+00 0.  1.
         21    1    1    2  504  503 -0.98390276583E+02  0.48527920772E+02  0.42979959916E+02  0.11782564481E+03  0.00000000000E+00 0.  1.
         21    1    1    2  505  502  0.10496011431E+03  0.52258322388E+02 -0.10949383828E+04  0.11011982656E+04  0.00000000000E+00 0. -1.
          2    1    1    2  501    0 -0.49342582555E+02 -0.13998166449E+02 -0.48416506139E+03  0.48687415806E+03  0.00000000000E+00 0. -1.
<scales pt_clust_3="14000.00000" pt_clust_4="101.23230" pt_clust_5="72.38908" pt_clust_6="51.28976"></scales>
<clustering>
<clus scale="   51.290">  2  6  1 -1</clus>
<clus scale="   72.389">  2  5  1 -1</clus>
<clus scale="  101.232">  1  4  2 -1</clus>
<clus scale="  101.232">  1  3  2 -1</clus>
</clustering>
</event>
<event>
 6    0  0.4189111E+002  0.1750577E+03  0.7546771E-02  0.1172674E+00
         21   -1    0    0  503  502  0.00000000000E+00  0.00000000000E+00  0.11183570151E+04  0.11183570151E+04  0.00000000000E+00 0.  1.
          1   -1    0    0  505    0 -0.00000000000E+00 -0.00000000000E+00 -0.12505304926E+03  0.12505304926E+03  0.00000000000E+00 0. -1.
         21    1    1    2  503  504 -0.96683226696E+02 -0.47248839668E+02  0.50146075473E+03  0.51287716630E+03  0.00000000000E+00 0.  1.
         21    1    1    2  504  501 -0.74131780438E+02  0.18564952350E+01  0.14113205347E+03  0.15942780173E+03  0.00000000000E+00 0. -1.
         21    1    1    2  505  502  0.28182497098E+02  0.95743723881E+02  0.39980825521E+03  0.41207736499E+03  0.00000000000E+00 0.  1.
          1    1    1    2  501    0  0.14263251004E+03 -0.50351379448E+02 -0.49097097604E+02  0.15902773131E+03  0.00000000000E+00 0. -1.
<scales pt_clust_3="73.45633" pt_clust_4="73.45633" pt_clust_5="99.80538" pt_clust_6="151.04627"></scales>
<clustering>
<clus scale="   73.456">  3  4 -1 -1</clus>
<clus scale="   99.805">  1  5  2 -1</clus>
<clus scale="  151.046">  2  6  1 -1</clus>
<clus scale="   99.805">  1  3  2 -1</clus>
</clustering>
</event>
<event>
 6    0  0.4189111E+002  0.1201504E+03  0.7546771E-02  0.1242849E+00
         21   -1    0    0  503  502  0.00000000000E+00  0.00000000000E+00  0.84977527969E+03  0.84977527969E+03  0.00000000000E+00 0. -1.
          3   -1    0    0  505    0 -0.00000000000E+00 -0.00000000000E+00 -0.26941752335E+03  0.26941752335E+03  0.00000000000E+00 0. -1.
         21    1    1    2  503  501  0.31343595219E+02 -0.45597577024E+02  0.16446201595E+03  0.17352035812E+03  0.00000000000E+00 0. -1.
         21    1    1    2  504  502  0.82789547147E+02 -0.49785193162E+01  0.64353796215E+03  0.64886054241E+03  0.00000000000E+00 0. -1.
         21    1    1    2  505  504 -0.62306331411E+02 -0.18663120889E+02 -0.14285128450E+02  0.66591710521E+02  0.00000000000E+00 0. -1.
          3    1    1    2  501    0 -0.51826810955E+02  0.69239217229E+02 -0.21335709331E+03  0.23022019200E+03  0.00000000000E+00 0. -1.
<scales pt_clust_3="55.33137" pt_clust_4="120.15036" pt_clust_5="64.42241" pt_clust_6="14000.00000"></scales>
<clustering>
<clus scale="   55.331">  1  3  2 -1</clus>
<clus scale="   64.422">  2  5  1 -1</clus>
<clus scale="  120.150">  1  4  2 -1</clus>
<clus scale="   55.331">  1  3  2 -1</clus>
</clustering>
</event>
<event>
 6    0  0.4189111E+002  0.9026881E+02  0.7546771E-02  0.1302202E+00
          1   -1    0    0  503    0 -0.00000000000E+00  0.00000000000E+00  0.13893010777E+02  0.13893010777E+02  0.00000000000E+00 0. -1.
         21   -1    0    0  501  502  0.00000000000E+00 -0.00000000000E+00 -0.21908341747E+04  0.21908341747E+04  0.00000000000E+00 0. -1.
         21    1    1    2  503  505 -0.37869756614E+02 -0.20614389170E+02 -0.15925255569E+03  0.16498620549E+03  0.00000000000E+00 0. -1.
         21    1    1    2  504  502  0.85449249879E+02  0.49005645950E+02 -0.91281953088E+03  0.91811906831E+03  0.00000000000E+00 0. -1.
         21    1    1    2  505  504 -0.54362483113E+02  0.72027505740E+02 -0.43788026445E+03  0.44708205863E+03  0.00000000000E+00 0. -1.
          1    1    1    2  501    0  0.67829898478E+01 -0.10041876252E+03 -0.66698881292E+03  0.67453985307E+03  0.00000000000E+00 0. -1.
<scales pt_clust_3="43.11695" pt_clust_4="88.14562" pt_clust_5="90.26881" pt_clust_6="14000.00000"></scales>
<clustering>
<clus scale="   43.117">  1  3  2 -1</clus>
<clus scale="   88.146">  2  4  1 -1</clus>
<clus scale="   90.269">  1  5  2 -1</clus>
<clus scale="   88.146">  2  3  1 -1</clus>
</clustering>
</event>
<event>
 6    0  0.4189111E+002  0.1368414E+03  0.7546771E-02  0.1217643E+00
          2   -1    0    0  504    0 -0.00000000000E+00  0.00000000000E+00  0.17533507475E+04  0.17533507475E+04  0.00000000000E+00 0.  1.
         21   -1    0    0  503  502  0.00000000000E+00 -0.00000000000E+00 -0.95311071876E+02  0.95311071876E+02  0.00000000000E+00 0. -1.
         21    1    1    2  503  501 -0.18454933776E+02 -0.52590023478E+02  0.51343151891E+02  0.75778719944E+02  0.00000000000E+00 0. -1.
         21    1    1    2  504  505 -0.65585449132E+02 -0.31083873219E+02  0.18951281735E+03  0.20293537457E+03  0.00000000000E+00 0.  1.
         21    1    1    2  505  502 -0.88210953143E+02  0.12979139441E+03  0.16315209618E+02  0.15777567741E+03  0.00000000000E+00 0. -1.
          2    1    1    2  501    0  0.17225133605E+03 -0.46117497716E+02  0.14008684967E+04  0.14121720474E+04  0.00000000000E+00 0.  1.
<scales pt_clust_3="55.73415" pt_clust_4="75.81230" pt_clust_5="136.84145" pt_clust_6="14000.00000"></scales>
<clustering>
<clus scale="   55.734">  2  3  1 -1</clus>
<clus scale="   75.812">  1  4  2 -1</clus>
<clus scale="  136.841">  2  5  1 -1</clus>
<clus scale="   55.734">  2  3  1 -1</clus>
</clustering>
</event>
<event>
 6    0  0.4189111E+002  0.1589802E+03  0.7546771E-02  0.1189853E+00
         21   -1    0    0  504  502  0.00000000000E+00  0.00000000000E+00  0.22087971786E+03  0.22087971786E+03  0.00000000000E+00 0.  1.
          2   -1    0    0  503    0 -0.00000000000E+00 -0.00000000000E+00 -0.21927963201E+03  0.21927963201E+03  0.00000000000E+00 0.  1.
         21    1    1    2  503  502  0.32296775689E+02 -0.26763315941E+01 -0.43161950488E+01  0.32693638685E+02  0.00000000000E+00 0.  1.
         21    1    1    2  504  505  0.76067126271E+01  0.39464115226E+02  0.21391303061E+02  0.45528741628E+02  0.00000000000E+00 0.  1.
         21    1    1    2  505  501  0.10009360751E+03  0.53134416339E+02  0.10659077996E+03  0.15557503282E+03  0.00000000000E+00 0.  1.
          2    1    1    2  501    0 -0.13999709583E+03 -0.89922199971E+02 -0.12206580211E+03  0.20636193674E+03  0.00000000000E+00 0.  1.
<scales pt_clust_3="32.40748" pt_clust_4="36.72040" pt_clust_5="36.72040" pt_clust_6="146.23690"></scales>
<clustering>
<clus scale="   32.407">  2  3  1 -1</clus>
<clus scale="   36.720">  4  5 -1 -1</clus>
<clus scale="  146.237">  2  6  1 -1</clus>
<clus scale="  158.980">  1  3  2 -1</clus>
</clustering>
</event>
<event>
 6    0  0.4189111E+002  0.1351145E+03  0.7546771E-02  0.1220058E+00
         21   -1    0    0  504  502  0.00000000000E+00  0.00000000000E+00  0.10867792073E+03  0.10867792073E+03  0.00000000000E+00 0. -1.
          1   -1    0    0  505    0 -0.00000000000E+00 -0.00000000000E+00 -0.64624213492E+03  0.64624213492E+03  0.00000000000E+00 0.  1.
         21    1    1    2  503  501 -0.18137518852E+02  0.42987609081E+02 -0.21971263498E+03  0.22461199009E+03  0.00000000000E+00 0. -1.
         21    1    1    2  504  503  0.10098504837E+02 -0.16409301141E+03 -0.12574110621E+03  0.20697662184E+03  0.00000000000E+00 0. -1.
         21    1    1    2  505  502 -0.23529589924E+02  0.49426958581E+02  0.46731318893E+02  0.71975565312E+02  0.00000000000E+00 0. -1.
          1    1    1    2  501    0  0.31568603939E+02  0.71678443753E+02 -0.23884179190E+03  0.25135587841E+03  0.00000000000E+00 0.  1.
<scales pt_clust_3="41.88194" pt_clust_4="123.73916" pt_clust_5="54.74181" pt_clust_6="41.88194"></scales>
<clustering>
<clus scale="   41.882">  3  6 -1 -1</clus>
<clus scale="   54.742">  1  5  2 -1</clus>
<clus scale="  123.739">  1  4  2 -1</clus>
<clus scale="   54.742">  1  3  2 -1</clus>
</clustering>
</event>
<event>
 6    0  0.4189111E+002  0.1159228E+03  0.7546771E-02  0.1249979E+00
         21   -1    0    0  505  502  0.00000000000E+00  0.00000000000E+00  0.23027669585E+02  0.23027669585E+02  0.00000000000E+00 0.  1.
          2   -1    0    0  503    0 -0.00000000000E+00 -0.00000000000E+00 -0.28358912173E+04  0.28358912173E+04  0.00000000000E+00 0.  1.
         21    1    1    2  503  504  0.15683114168E+03  0.14906144682E+02 -0.56342713492E+03  0.58503703859E+03  0.00000000000E+00 0.  1.
         21    1    1    2  504  502  0.22688389830E+02  0.38518574093E+02 -0.66444945092E+02  0.80083545823E+02  0.00000000000E+00 0.  1.
         21    1    1    2  505  501 -0.70851711749E+02 -0.41999110080E+02 -0.45781379869E+03  0.46516380403E+03  0.00000000000E+00 0.  1.
          2    1    1    2  501    0 -0.10866781976E+03 -0.11425608695E+02 -0.17251776690E+04  0.17286344985E+04  0.00000000000E+00 0.  1.
<scales pt_clust_3="14000.00000" pt_clust_4="44.70395" pt_clust_5="73.64829" pt_clust_6="115.92278"></scales>
<clustering>
<clus scale="   44.704">  1  4  2 -1</clus>
<clus scale="   73.648">  1  5  2 -1</clus>
<clus scale="  115.923">  2  6  1 -1</clus>
<clus scale="   44.704">  1  3  2 -1</clus>
</clustering>
</event>
<event>
 6    0  0.4189111E+002  0.1680689E+03  0.7546771E-02  0.1179877E+00
         21   -1    0    0  501  502  0.00000000000E+00  0.00000000000E+00  0.73073104415E+02  0.73073104415E+02  0.00000000000E+00 0.  1.
          2   -1    0    0  503    0 -0.00000000000E+00 -0.00000000000E+00 -0.26107899821E+04  0.26107899821E+04  0.00000000000E+00 0. -1.
         21    1    1    2  503  504  0.64512104218E+02 -0.43443672973E+02 -0.64440999962E+03  0.64908659817E+03  0.00000000000E+00 0.  1.
         21    1    1    2  504  505 -0.22856283061E+03  0.12988342290E+02 -0.27828315377E+03  0.36034868981E+03  0.00000000000E+00 0.  1.
         21    1    1    2  505  502  0.12768499188E+03  0.66531233919E+02 -0.14789265537E+03  0.20640276100E+03  0.00000000000E+00 0. -1.
          2    1    1    2  501    0  0.36365734516E+02 -0.36075903236E+02 -0.14671310689E+04  0.14680250376E+04  0.00000000000E+00 0. -1.
<scales pt_clust_3="106.37993" pt_clust_4="14000.00000" pt_clust_5="168.06889" pt_clust_6="51.22438"></scales>
<clustering>
<clus scale="   51.224">  2  6  1 -1</clus>
<clus scale="  106.380">  2  3  1 -1</clus>
<clus scale="  168.069">  1  5  2 -1</clus>
<clus scale="  168.069">  1  3  2 -1</clus>
</clustering>
</event>
<event>
 6    0  0.4189111E+002  0.1622884E+03  0.7546771E-02  0.1186137E+00
          2   -1    0    0  505    0 -0.00000000000E+00  0.00000000000E+00  0.20285901919E+04  0.20285901919E+04  0.00000000000E+00 0.  1.
         21   -1    0    0  501  502  0.00000000000E+00 -0.00000000000E+00 -0.30276711902E+03  0.30276711902E+03  0.00000000000E+00 0.  1.
         21    1    1    2  503  504  0.23750170223E+02 -0.14058124310E+03  0.16646216111E+03  0.21917300832E+03  0.00000000000E+00 0.  1.
         21    1    1    2  504  502 -0.16149562761E+03  0.25383188332E+02 -0.24542669893E+03  0.29488880707E+03  0.00000000000E+00 0.  1.
         21    1    1    2  505  503  0.38975953247E+02  0.61794276457E+01  0.12506005044E+03  0.13113857737E+03  0.00000000000E+00 0. -1.
          2    1    1    2  501    0  0.98769504142E+02  0.10901862712E+03  0.16797275603E+04  0.16861569182E+04  0.00000000000E+00 0.  1.
<scales pt_clust_3="142.67006" pt_clust_4="162.28842" pt_clust_5="39.46277" pt_clust_6="14000.00000"></scales>
<clustering>
<clus scale="   39.463">  1  5  2 -1</clus>
<clus scale="  142.670">  1  3  2 -1</clus>
<clus scale="  162.288">  2  4  1 -1</clus>
<clus scale="  162.288">  2  3  1 -1</clus>
</clustering>
</event>
<event>
 6    0  0.4189111E+002  0.1605022E+03  0.7546771E-02  0.1188131E+00
          2   -1    0    0  504    0 -0.00000000000E+00  0.00000000000E+00  0.10834948245E+04  0.10834948245E+04  0.00000000000E+00 0. -1.
         21   -1    0    0  505  502  0.00000000000E+00 -0.00000000000E+00 -0.23843736867E+03  0.23843736867E+03  0.00000000000E+00 0.  1.
         21    1    1    2  503  502 -0.11150459146E+03 -0.39979305204E+02 -0.18135902671E+03  0.21661651675E+03  0.00000000000E+00 0.  1.
         21    1    1    2  504  503  0.27015331687E+01  0.46202644033E+02  0.99942701359E+02  0.11013866783E+03  0.00000000000E+00 0. -1.
         21    1    1    2  505  501 -0.52063425318E+02  0.47743571697E+02  0.20647585660E+02  0.73596003206E+02  0.00000000000E+00 0.  1.
          2    1    1    2  501    0  0.16086648361E+03 -0.53966910525E+02  0.90582619553E+03  0.92158100538E+03  0.00000000000E+00 0. -1.
<scales pt_clust_3="14000.00000" pt_clust_4="46.28156" pt_clust_5="72.06898" pt_clust_6="160.50223"></scales>
<clustering>
<clus scale="   46.282">  1  4  2 -1</clus>
<clus scale="   72.069">  2  5  1 -1</clus>
<clus scale="  160.502">  1  6  2 -1</clus>
<clus scale="   72.069">  2  3  1 -1</clus>
</clustering>
</event>
<event>
 6    0  0.4189111E+002  0.1284566E+03  0.7546771E-02  0.1229764E+00
         21   -1    0    0  505  502  0.00000000000E+00  0.00000000000E+00  0.16440983233E+03  0.16440983233E+03  0.00000000000E+00 0. -1.
          2   -1    0    0  503    0 -0.00000000000E+00 -0.00000000000E+00 -0.34008461728E+04  0.34008461728E+04  0.00000000000E+00 0. -1.
         21    1    1    2  503  502  0.10404636420E+03 -0.90851017357E+01 -0.76765837277E+03  0.77473063852E+03  0.00000000000E+00 0. -1.
         21    1    1    2  504  501 -0.76871762324E+02  0.74806180866E+01 -0.18074561777E+04  0.18091055972E+04  0.00000000000E+00 0. -1.
         21    1    1    2  505  504  0.24492015659E+02  0.23002344329E+02  0.15732102903E+03  0.16086911714E+03  0.00000000000E+00 0. -1.
          2    1    1    2  501    0 -0.51666617538E+02 -0.21397860680E+02 -0.81864281905E+03  0.82055065230E+03  0.00000000000E+00 0. -1.
<scales pt_clust_3="120.50253" pt_clust_4="36.72224" pt_clust_5="33.60010" pt_clust_6="36.72224"></scales>
<clustering>
<clus scale="   33.600">  1  5  2 -1</clus>
<clus scale="   36.722">  4  6 -1 -1</clus>
<clus scale="  120.503">  1  3  2 -1</clus>
<clus scale="   33.600">  1  3  2 -1</clus>
</clustering>
</event>
<event>
 6    0  0.4189111E+002  0.1065598E+03  0.7546771E-02  0.1267077E+00
          2   -1    0    0  505    0 -0.00000000000E+00  0.00000000000E+00  0.56946294549E+03  0.56946294549E+03  0.00000000000E+00 0. -1.
         21   -1    0    0  504  502  0.00000000000E+00 -0.00000000000E+00 -0.12297814596E+04  0.12297814596E+04  0.00000000000E+00 0.  1.
         21    1    1    2  503  501  0.11290594733E+02  0.72494414403E+02  0.16113522867E+03  0.17705219447E+03  0.00000000000E+00 0. -1.
         21    1    1    2  504  503 -0.32249099769E+02  0.12999377999E+02 -0.18750830138E+03  0.19070488025E+03  0.00000000000E+00 0.  1.
         21    1    1    2  505  502  0.17195531670E+02 -0.11933875886E+03 -0.10284611767E+04  0.10355046198E+04  0.00000000000E+00 0.  1.
          2    1    1    2  501    0  0.37629733659E+01  0.33844966462E+02  0.39451573526E+03  0.39598271060E+03  0.00000000000E+00 0. -1.
<scales pt_clust_3="106.55977" pt_clust_4="34.85587" pt_clust_5="14000.00000" pt_clust_6="34.05351"></scales>
<clustering>
<clus scale="   34.054">  1  6  2 -1</clus>
<clus scale="   34.856">  2  4  1 -1</clus>
<clus scale="  106.560">  1  3  2 -1</clus>
<clus scale="   34.856">  2  3  1 -1</clus>
</clustering>
</event>
<event>
 6    0  0.4189111E+002  0.7395030E+02  0.7546771E-02  0.1347153E+00
         21   -1    0    0  504  502  0.00000000000E+00  0.00000000000E+00  0.69648419999E+02  0.69648419999E+02  0.00000000000E+00 0.  1.
          2   -1    0    0  503    0 -0.00000000000E+00 -0.00000000000E+00 -0.10012443215E+04  0.10012443215E+04  0.00000000000E+00 0. -1.
         21    1    1    2  503  502 -0.10237134861E+03 -0.27240440690E+02 -0.47670498200E+03  0.48833346648E+03  0.00000000000E+00 0. -1.
         21    1    1    2  504  505  0.23865606399E+02  0.70698453777E+02  0.30012521269E+02  0.80427544835E+02  0.00000000000E+00 0.  1.
         21    1    1    2  505  501  0.58958223062E+02  0.66614513384E+01 -0.12662349442E+03  0.13983546167E+03  0.00000000000E+00 0. -1.
          2    1    1    2  501    0  0.19547519154E+02 -0.50119464426E+02 -0.35827994630E+03  0.36229626846E+03  0.00000000000E+00 0. -1.
<scales pt_clust_3="73.95030" pt_clust_4="14000.00000" pt_clust_5="63.13323" pt_clust_6="53.79653"></scales>
<clustering>
<clus scale="   53.797">  2  6  1 -1</clus>
<clus scale="   63.133">  2  5  1 -1</clus>
<clus scale="   73.950">  2  3  1 -1</clus>
<clus scale="   73.950">  1  3  2 -1</clus>
</clustering>
</event>
<event>
 6    0  0.4189111E+002  0.1698551E+03  0.7546771E-02  0.1177999E+00
          3   -1    0    0  504    0 -0.00000000000E+00  0.00000000000E+00  0.47696434123E+03  0.47696434123E+03  0.00000000000E+00 0. -1.
         21   -1    0    0  505  502  0.00000000000E+00 -0.00000000000E+00 -0.84884073373E+02  0.84884073373E+02  0.00000000000E+00 0. -1.
         21    1    1    2  503  502 -0.14527714870E+03  0.16341544873E+02  0.74536436029E+02  0.16409806921E+03  0.00000000000E+00 0. -1.
         21    1    1    2  504  503 -0.39009247762E+02 -0.89680253911E+00  0.90113200990E+02  0.98198343461E+02  0.00000000000E+00 0. -1.
         21    1    1    2  505  501  0.67839950477E+02  0.19385502119E+02  0.59764434255E+02  0.92465367435E+02  0.00000000000E+00 0. -1.
          3    1    1    2  501    0  0.11644644598E+03 -0.34830244453E+02  0.16766619659E+03  0.20708663450E+03  0.00000000000E+00 0. -1.
<scales pt_clust_3="158.25313" pt_clust_4="39.01955" pt_clust_5="48.15636" pt_clust_6="48.15636"></scales>
<clustering>
<clus scale="   39.020">  1  4  2 -1</clus>
<clus scale="   48.156">  5  6 -1 -1</clus>
<clus scale="  158.253">  2  3  1 -1</clus>
<clus scale="  158.253">  2  3  1 -1</clus>
</clustering>
</event>
<event>
 6    0  0.4189111E+002  0.1128003E+03  0.7546771E-02  0.1255470E+00
         21   -1    0    0  503  502  0.00000000000E+00  0.00000000000E+00  0.11412276364E+03  0.11412276364E+03  0.00000000000E+00 0. -1.
          1   -1    0    0  505    0 -0.00000000000E+00 -0.00000000000E+00 -0.11322285483E+04  0.11322285483E+04  0.00000000000E+00 0. -1.
         21    1    1    2  503  504  0.35318460194E+02  0.23263903377E+01  0.78546821785E+02  0.86153403502E+02  0.00000000000E+00 0. -1.
         21    1    1    2  504  501  0.19413763265E+02 -0.56694599733E+02 -0.21095628603E+02  0.63531074201E+02  0.00000000000E+00 0. -1.
         21    1    1    2  505  502  0.57512766176E+02 -0.33536710730E+01 -0.12345816630E+03  0.13623833604E+03  0.00000000000E+00 0. -1.
          1    1    1    2  501    0 -0.11224498964E+03  0.57721880469E+02 -0.95209881160E+03  0.96042849824E+03  0.00000000000E+00 0. -1.
<scales pt_clust_3="35.39500" pt_clust_4="112.80028" pt_clust_5="64.68039" pt_clust_6="14000.00000"></scales>
<clustering>
<clus scale="   35.395">  1  3  2 -1</clus>
<clus scale="   64.680">  1  5  2 -1</clus>
<clus scale="  112.800">  1  4  2 -1</clus>
<clus scale="   35.395">  1  3  2 -1</clus>
</clustering>
</event>
<event>
 6    0  0.4189111E+002  0.8945506E+02  0.7546771E-02  0.1304177E+00
          1   -1    0    0  503    0 -0.00000000000E+00  0.00000000000E+00  0.16340594627E+04  0.16340594627E+04  0.00000000000E+00 0. -1.
         21   -1    0    0  501  502  0.00000000000E+00 -0.00000000000E+00 -0.34013828330E+02  0.34013828330E+02  0.00000000000E+00 0.  1.
         21    1    1    2  503  504  0.51042677284E+02 -0.24531588968E+01  0.62534761967E+03  0.62743208263E+03  0.00000000000E+00 0. -1.
         21    1    1    2  504  505 -0.60011196178E+02 -0.10257687508E+02  0.58203172270E+03  0.58520721975E+03  0.00000000000E+00 0. -1.
         21    1    1    2  505  502  0.91010785885E+02  0.67260821323E+01  0.52120749281E+02  0.10509412845E+03  0.00000000000E+00 0.  1.
          1    1    1    2  501    0 -0.82042266991E+02  0.59847642727E+01  0.34054554269E+03  0.35033986017E+03  0.00000000000E+00 0. -1.
<scales pt_clust_3="51.10159" pt_clust_4="32.61126" pt_clust_5="14000.00000" pt_clust_6="89.45506"></scales>
<clustering>
<clus scale="   51.102">  1  3  2 -1</clus>
<clus scale="   32.611">  1  4  2 -1</clus>
<clus scale="   89.455">  1  6  2 -1</clus>
<clus scale="   89.455">  2  3  1 -1</clus>
</clustering>
</event>
<event>
 6    0  0.4189111E+002  0.3395921E+03  0.7546771E-02  0.1066970E+00
          1   -1    0    0  504    0 -0.00000000000E+00  0.00000000000E+00  0.14751007679E+04  0.14751007679E+04  0.00000000000E+00 0.  1.
         21   -1    0    0  505  502  0.00000000000E+00 -0.00000000000E+00 -0.44289368327E+03  0.44289368327E+03  0.00000000000E+00 0.  1.
         21    1    1    2  503  502  0.10090688553E+02  0.46362630659E+02 -0.12668464473E+03  0.13527865585E+03  0.00000000000E+00 0.  1.
         21    1    1    2  504  503 -0.59093519957E+02  0.28500627949E+03 -0.21813271628E+03  0.36373411356E+03  0.00000000000E+00 0.  1.
         21    1    1    2  505  501  0.47951929024E+02 -0.97655315262E+02  0.43651974189E+03  0.44987268550E+03  0.00000000000E+00 0. -1.
          1    1    1    2  501    0  0.10509023800E+01 -0.23371359489E+03  0.94050470375E+03  0.96910899624E+03  0.00000000000E+00 0.  1.
<scales pt_clust_3="47.44803" pt_clust_4="331.98907" pt_clust_5="48.79677" pt_clust_6="48.79677"></scales>
<clustering>
<clus scale="   47.448">  2  3  1 -1</clus>
<clus scale="   48.797">  5  6 -1 -1</clus>
<clus scale="  331.989">  2  4  1 -1</clus>
<clus scale="   47.448">  2  3  1 -1</clus>
</clustering>
</event>
<event>
 6    0  0.4189111E+002  0.7666415E+02  0.7546771E-02  0.1338794E+00
         21   -1    0    0  505  502  0.00000000000E+00  0.00000000000E+00  0.38022612358E+03  0.38022612358E+03  0.00000000000E+00 0. -1.
          1   -1    0    0  504    0 -0.00000000000E+00 -0.00000000000E+00 -0.10782629389E+03  0.10782629389E+03  0.00000000000E+00 0.  1.
         21    1    1    2  503  502 -0.10806916662E+03 -0.29723462934E+02  0.11532850873E+03  0.16082006700E+03  0.00000000000E+00 0. -1.
         21    1    1    2  504  503 -0.68899985289E+01  0.31520572941E+02  0.14231040076E+02  0.35263878117E+02  0.00000000000E+00 0. -1.
         21    1    1    2  505  501  0.54273887857E+02  0.42429248006E+02  0.19080847478E+03  0.20286392000E+03  0.00000000000E+00 0. -1.
          1    1    1    2  501    0  0.60685277294E+02 -0.44226358013E+02 -0.47968193899E+02  0.89104552349E+02  0.00000000000E+00 0.  1.
<scales pt_clust_3="14000.00000" pt_clust_4="32.26482" pt_clust_5="76.66415" pt_clust_6="60.02021"></scales>
<clustering>
<clus scale="   32.265">  2  4  1 -1</clus>
<clus scale="   60.020">  2  6  1 -1</clus>
<clus scale="   76.664">  1  5  2 -1</clus>
<clus scale="   76.664">  1  3  2 -1</clus>
</clustering>
</event>
<event>
 6    0  0.4189111E+002  0.1617456E+03  0.7546771E-02  0.1186740E+00
         21   -1    0    0  503  502  0.00000000000E+00  0.00000000000E+00  0.40754690346E+02  0.40754690346E+02  0.00000000000E+00 0.  1.
          2   -1    0    0  505    0 -0.00000000000E+00 -0.00000000000E+00 -0.33111629169E+04  0.33111629169E+04  0.00000000000E+00 0.  1.
         21    1    1    2  503  501  0.79875423421E+02 -0.19860872693E+01 -0.15432183664E+03  0.17377933442E+03  0.00000000000E+00 0. -1.
         21    1    1    2  504  502 -0.18346896544E+03  0.12211254138E+03 -0.46623755409E+03  0.51570320038E+03  0.00000000000E+00 0.  1.
         21    1    1    2  505  504 -0.30946996427E+02 -0.93800639485E+02 -0.60630807622E+03  0.61430103357E+03  0.00000000000E+00 0.  1.
          2    1    1    2  501    0  0.13454053844E+03 -0.26325814629E+02 -0.20435407596E+04  0.20481340389E+04  0.00000000000E+00 0.  1.
<scales pt_clust_3="79.90011" pt_clust_4="14000.00000" pt_clust_5="96.29839" pt_clust_6="161.74561"></scales>
<clustering>
<clus scale="   79.900">  1  3  2 -1</clus>
<clus scale="   96.298">  2  5  1 -1</clus>
<clus scale="  161.746">  2  6  1 -1</clus>
<clus scale="   79.900">  1  3  2 -1</clus>
</clustering>
</event>
<event>
 6    0  0.4189111E+002  0.1067206E+03  0.7546771E-02  0.1266766E+00
         21   -1    0    0  505  502  0.00000000000E+00  0.00000000000E+00  0.38184180544E+02  0.38184180544E+02  0.00000000000E+00 0. -1.
         -1   -1    0    0    0  501 -0.00000000000E+00 -0.00000000000E+00 -0.78219839044E+03  0.78219839044E+03  0.00000000000E+00 0. -1.
         21    1    1    2  503  504  0.19894286013E+02  0.58507748602E+02 -0.36650953902E+03  0.37168290445E+03  0.00000000000E+00 0. -1.
         21    1    1    2  504  502 -0.98455782977E+02 -0.60255072985E+02 -0.89782844885E+02  0.14623670626E+03  0.00000000000E+00 0. -1.
         21    1    1    2  505  501  0.37549511889E+02 -0.91217451014E+01 -0.64057113775E+02  0.74809664496E+02  0.00000000000E+00 0. -1.
         -1    1    1    2    0  503  0.41011985075E+02  0.10869069484E+02 -0.22366471221E+03  0.22765329578E+03  0.00000000000E+00 0. -1.
<scales pt_clust_3="41.24681" pt_clust_4="94.94088" pt_clust_5="38.64158" pt_clust_6="41.24681"></scales>
<clustering>
<clus scale="   38.642">  1  5  2 -1</clus>
<clus scale="   41.247">  3  6 -1 -1</clus>
<clus scale="   94.941">  1  4  2 -1</clus>
<clus scale="   38.642">  1  3  2 -1</clus>
</clustering>
</event>
<event>
 6    0  0.4189111E+002  0.6164447E+02  0.7546771E-02  0.1391057E+00
         21   -1    0    0  504  502  0.00000000000E+00  0.00000000000E+00  0.18495222408E+03  0.18495222408E+03  0.00000000000E+00 0. -1.
          3   -1    0    0  505    0 -0.00000000000E+00 -0.00000000000E+00 -0.59930067480E+03  0.59930067480E+03  0.00000000000E+00 0.  1.
         21    1    1    2  503  501 -0.19944420380E+02 -0.51679537102E+02 -0.94807939443E+02  0.10980482613E+03  0.00000000000E+00 0.  1.
         21    1    1    2  504  503 -0.73762805585E+02  0.68128070059E+02  0.12936627150E+03  0.16376207625E+03  0.00000000000E+00 0. -1.
         21    1    1    2  505  502  0.42928196262E+02 -0.10368497305E+02  0.12937617748E+02  0.46018667122E+02  0.00000000000E+00 0.  1.
          3    1    1    2  501    0  0.50779029703E+02 -0.60800356526E+01 -0.46184440053E+03  0.46466732937E+03  0.00000000000E+00 0.  1.
<scales pt_clust_3="61.64447" pt_clust_4="14000.00000" pt_clust_5="44.16261" pt_clust_6="51.53990"></scales>
<clustering>
<clus scale="   44.163">  1  5  2 -1</clus>
<clus scale="   51.540">  2  6  1 -1</clus>
<clus scale="   61.644">  2  3  1 -1</clus>
<clus scale="   44.163">  1  3  2 -1</clus>
</clustering>
</event>
<event>
 6    0  0.4189111E+002  0.1609475E+03  0.7546771E-02  0.1187631E+00
         21   -1    0    0  501  502  0.00000000000E+00  0.00000000000E+00  0.14911041100E+03  0.14911041100E+03  0.00000000000E+00 0. -1.
          2   -1    0    0  505    0 -0.00000000000E+00 -0.00000000000E+00 -0.94849033706E+03  0.94849033706E+03  0.00000000000E+00 0. -1.
         21    1    1    2  503  504 -0.11683142492E+03  0.19686112234E+02 -0.78269923677E+02  0.14199755567E+03  0.00000000000E+00 0. -1.
         21    1    1    2  504  502  0.19694571505E+03  0.62845198075E+02  0.10363132145E+02  0.20698919804E+03  0.00000000000E+00 0. -1.
         21    1    1    2  505  503 -0.18071976474E+02  0.26365169799E+02 -0.10629591644E+03  0.11099792955E+03  0.00000000000E+00 0.  1.
          2    1    1    2  501    0 -0.62042313651E+02 -0.10889648011E+03 -0.62517721809E+03  0.63761606479E+03  0.00000000000E+00 0. -1.
<scales pt_clust_3="160.94752" pt_clust_4="14000.00000" pt_clust_5="31.96433" pt_clust_6="116.85074"></scales>
<clustering>
<clus scale="   31.964">  2  5  1 -1</clus>
<clus scale="  116.851">  2  6  1 -1</clus>
<clus scale="  160.948">  2  3  1 -1</clus>
<clus scale="  160.948">  1  3  2 -1</clus>
</clustering>
</event>
<event>
 6    0  0.4189111E+002  0.8389207E+02  0.7546771E-02  0.1318356E+00
         21   -1    0    0  504  502  0.00000000000E+00  0.00000000000E+00  0.26423971813E+03  0.26423971813E+03  0.00000000000E+00 0.  1.
          1   -1    0    0  503    0 -0.00000000000E+00 -0.00000000000E+00 -0.99065906158E+03  0.99065906158E+03  0.00000000000E+00 0. -1.
         21    1    1    2  503  502  0.10977950958E+03 -0.36959526267E+02 -0.89132763810E+02  0.14615812290E+03  0.00000000000E+00 0.  1.
         21    1    1    2  504  505 -0.31748923961E+02 -0.17713841705E+02  0.22828439339E+03  0.23116128271E+03  0.00000000000E+00 0.  1.
         21    1    1    2  505  501 -0.30233220187E+02  0.51198122853E+02 -0.16526331686E+03  0.17563387853E+03  0.00000000000E+00 0. -1.
          1    1    1    2  501    0 -0.47797365428E+02  0.34752451190E+01 -0.70030765616E+03  0.70194549557E+03  0.00000000000E+00 0. -1.
<scales pt_clust_3="14000.00000" pt_clust_4="36.35621" pt_clust_5="83.89207" pt_clust_6="48.64664"></scales>
<clustering>
<clus scale="   36.356">  1  4  2 -1</clus>
<clus scale="   48.647">  2  6  1 -1</clus>
<clus scale="   83.892">  2  5  1 -1</clus>
<clus scale="   36.356">  1  3  2 -1</clus>
</clustering>
</event>
<event>
 6    0  0.4189111E+002  0.8196708E+02  0.7546771E-02  0.1323560E+00
         21   -1    0    0  505  502  0.00000000000E+00  0.00000000000E+00  0.14923039676E+03  0.14923039676E+03  0.00000000000E+00 0.  1.
          1   -1    0    0  504    0 -0.00000000000E+00 -0.00000000000E+00 -0.11322717885E+04  0.11322717885E+04  0.00000000000E+00 0. -1.
         21    1    1    2  503  502  0.16528522472E+02  0.32568373124E+02 -0.11585648299E+02  0.38316030973E+02  0.00000000000E+00 0.  1.
         21    1    1    2  504  503  0.12008255693E+03 -0.15449694725E+02 -0.86591163779E+03  0.87433487750E+03  0.00000000000E+00 0. -1.
         21    1    1    2  505  501 -0.95848780448E+02 -0.36424547104E+02  0.10898170808E+03  0.14963538699E+03  0.00000000000E+00 0.  1.
          1    1    1    2  501    0 -0.40762298951E+02  0.19305868705E+02 -0.21452581372E+03  0.21921588979E+03  0.00000000000E+00 0. -1.
<scales pt_clust_3="36.52247" pt_clust_4="81.96708" pt_clust_5="14000.00000" pt_clust_6="45.09020"></scales>
<clustering>
<clus scale="   36.522">  1  3  2 -1</clus>
<clus scale="   45.090">  2  6  1 -1</clus>
<clus scale="   81.967">  2  4  1 -1</clus>
<clus scale="   36.522">  1  3  2 -1</clus>
</clustering>
</event>
<event>
 6    0  0.4189111E+002  0.2158354E+03  0.7546771E-02  0.1137027E+00
         -3   -1    0    0    0  501 -0.00000000000E+00  0.00000000000E+00  0.24817241918E+03  0.24817241918E+03  0.00000000000E+00 0.  1.
         21   -1    0    0  504  502  0.00000000000E+00 -0.00000000000E+00 -0.43081635693E+03  0.43081635693E+03  0.00000000000E+00 0. -1.
         21    1    1    2  503  505 -0.45035357068E+02 -0.19103396174E+02  0.66757599566E+02  0.82762915798E+02  0.00000000000E+00 0. -1.
         21    1    1    2  504  501  0.17379673386E+01  0.32118638840E+02 -0.55541855678E+02  0.64183527665E+02  0.00000000000E+00 0.  1.
         21    1    1    2  505  502  0.20356102065E+03 -0.23887391365E+02 -0.28215770885E+03  0.34874155080E+03  0.00000000000E+00 0. -1.
         -3    1    1    2    0  503 -0.16026363092E+03  0.10872148700E+02  0.88298027206E+02  0.18330078184E+03  0.00000000000E+00 0.  1.
<scales pt_clust_3="37.02477" pt_clust_4="32.16563" pt_clust_5="205.06756" pt_clust_6="37.02477"></scales>
<clustering>
<clus scale="   32.166">  2  4  1 -1</clus>
<clus scale="   37.025">  3  6 -1 -1</clus>
<clus scale="  205.068">  2  5  1 -1</clus>
<clus scale="   32.166">  2  3  1 -1</clus>
</clustering>
</event>
<event>
 6    0  0.4189111E+002  0.1397502E+03  0.7546771E-02  0.1213666E+00
         21   -1    0    0  501  502  0.00000000000E+00  0.00000000000E+00  0.67394481174E+02  0.67394481174E+02  0.00000000000E+00 0.  1.
          2   -1    0    0  504    0 -0.00000000000E+00 -0.00000000000E+00 -0.38896629218E+04  0.38896629218E+04  0.00000000000E+00 0.  1.
         21    1    1    2  503  505  0.44697196882E+02  0.60166761977E+02 -0.26167931440E+04  0.26178663521E+04  0.00000000000E+00 0. -1.
         21    1    1    2  504  503 -0.43869350645E+02  0.12616426334E+02 -0.19933332184E+03  0.20449319630E+03  0.00000000000E+00 0.  1.
         21    1    1    2  505  502 -0.32792581356E+02 -0.14157897367E+03 -0.21230886173E+02  0.14686970315E+03  0.00000000000E+00 0.  1.
          2    1    1    2  501    0  0.31964735120E+02  0.68795785357E+02 -0.98491108855E+03  0.98782815141E+03  0.00000000000E+00 0.  1.
<scales pt_clust_3="70.43892" pt_clust_4="45.64750" pt_clust_5="14000.00000" pt_clust_6="139.75018"></scales>
<clustering>
<clus scale="   45.647">  2  4  1 -1</clus>
<clus scale="   70.439">  2  3  1 -1</clus>
<clus scale="  139.750">  2  6  1 -1</clus>
<clus scale="  139.750">  1  3  2 -1</clus>
</clustering>
</event>
<event>
 6    0  0.4189111E+002  0.1230762E+03  0.7546771E-02  0.1238107E+00
          2   -1    0    0  502    0 -0.00000000000E+00  0.00000000000E+00  0.61941978166E+03  0.61941978166E+03  0.00000000000E+00 0. -1.
         21   -1    0    0  504  502  0.00000000000E+00 -0.00000000000E+00 -0.15968347490E+03  0.15968347490E+03  0.00000000000E+00 0.  1.
         21    1    1    2  503  501  0.49374515455E+02  0.20333760906E+02  0.14663407874E+03  0.15605402160E+03  0.00000000000E+00 0. -1.
         21    1    1    2  504  505 -0.32275134582E+02  0.24291828118E+02 -0.12415233486E+03  0.13055872042E+03  0.00000000000E+00 0.  1.
         21    1    1    2  505  503 -0.84871300148E+02 -0.62903082154E+02  0.91730414579E+02  0.13990855689E+03  0.00000000000E+00 0. -1.
          2    1    1    2  501    0  0.67771919274E+02  0.18277493130E+02  0.34552414830E+03  0.35258195764E+03  0.00000000000E+00 0. -1.
<scales pt_clust_3="31.16459" pt_clust_4="40.39526" pt_clust_5="117.77528" pt_clust_6="31.16459"></scales>
<clustering>
<clus scale="   31.165">  3  6 -1 -1</clus>
<clus scale="   40.395">  2  4  1 -1</clus>
<clus scale="  117.775">  2  5  1 -1</clus>
<clus scale="   40.395">  2  3  1 -1</clus>
</clustering>
</event>
<event>
 6    0  0.4189111E+002  0.1234673E+03  0.7546771E-02  0.1237484E+00
          2   -1    0    0  505    0 -0.00000000000E+00  0.00000000000E+00  0.37259118056E+03  0.37259118056E+03  0.00000000000E+00 0. -1.
         21   -1    0    0  504  502  0.00000000000E+00 -0.00000000000E+00 -0.32168886375E+03  0.32168886375E+03  0.00000000000E+00 0. -1.
         21    1    1    2  503  501  0.34977220015E+02  0.70186063877E+02  0.16034623901E+03  0.17849483423E+03  0.00000000000E+00 0. -1.
         21    1    1    2  504  503 -0.48935109853E+01 -0.12274320714E+03 -0.27160755493E+03  0.29809479238E+03  0.00000000000E+00 0. -1.
         21    1    1    2  505  502 -0.37704334795E+02  0.15814761479E+02 -0.94979269597E+01  0.41975399456E+02  0.00000000000E+00 0. -1.
          2    1    1    2  501    0  0.76206257649E+01  0.36742381785E+02  0.17166155969E+03  0.17571501823E+03  0.00000000000E+00 0. -1.
<scales pt_clust_3="30.83646" pt_clust_4="115.13901" pt_clust_5="40.88672" pt_clust_6="30.83646"></scales>
<clustering>
<clus scale="   30.836">  3  6 -1 -1</clus>
<clus scale="   40.887">  2  5  1 -1</clus>
<clus scale="  115.139">  2  4  1 -1</clus>
<clus scale="   40.887">  2  3  1 -1</clus>
</clustering>
</event>
<event>
 6    0  0.4189111E+002  0.1884413E+03  0.7546771E-02  0.1159875E+00
         21   -1    0    0  504  502  0.00000000000E+00  0.00000000000E+00  0.62815607215E+02  0.62815607215E+02  0.00000000000E+00 0.  1.
          2   -1    0    0  503    0 -0.00000000000E+00 -0.00000000000E+00 -0.26390472276E+04  0.26390472276E+04  0.00000000000E+00 0.  1.
         21    1    1    2  503  502  0.13609665880E+03 -0.13094543434E+03 -0.54775978573E+03  0.57940468601E+03  0.00000000000E+00 0.  1.
         21    1    1    2  504  505 -0.26398049957E+02 -0.15008501340E+02  0.14023241441E+02  0.33447921528E+02  0.00000000000E+00 0.  1.
         21    1    1    2  505  501 -0.69901635651E+01  0.21810971560E+03 -0.55700993263E+03  0.59823137286E+03  0.00000000000E+00 0.  1.
          2    1    1    2  501    0 -0.10270844528E+03 -0.72155779926E+02 -0.14854851434E+04  0.14907788544E+04  0.00000000000E+00 0.  1.
<scales pt_clust_3="188.44125" pt_clust_4="30.36630" pt_clust_5="14000.00000" pt_clust_6="127.56831"></scales>
<clustering>
<clus scale="   30.366">  1  4  2 -1</clus>
<clus scale="  127.568">  2  6  1 -1</clus>
<clus scale="  188.441">  2  3  1 -1</clus>
<clus scale="   30.366">  1  3  2 -1</clus>
</clustering>
</event>
<event>
 6    0  0.4189111E+002  0.9058964E+02  0.7546771E-02  0.1301430E+00
         21   -1    0    0  503  502  0.00000000000E+00  0.00000000000E+00  0.26597211755E+03  0.26597211755E+03  0.00000000000E+00 0.  1.
          2   -1    0    0  504    0 -0.00000000000E+00 -0.00000000000E+00 -0.49322300794E+03  0.49322300794E+03  0.00000000000E+00 0.  1.
         21    1    1    2  503  505 -0.29124115926E+02  0.12710201825E+02  0.15840919632E+03  0.16156496167E+03  0.00000000000E+00 0.  1.
         21    1    1    2  504  502  0.98381264820E+02 -0.10520663783E+03  0.32801486885E+02  0.14772693543E+03  0.00000000000E+00 0.  1.
         21    1    1    2  505  501 -0.39543279951E+02  0.93761687474E+01 -0.27425885999E+02  0.49028183247E+02  0.00000000000E+00 0.  1.
          2    1    1    2  501    0 -0.29713868943E+02  0.83120267256E+02 -0.39103568760E+03  0.40087504514E+03  0.00000000000E+00 0.  1.
<scales pt_clust_3="31.77677" pt_clust_4="90.58964" pt_clust_5="43.83033" pt_clust_6="14000.00000"></scales>
<clustering>
<clus scale="   31.777">  1  3  2 -1</clus>
<clus scale="   43.830">  1  5  2 -1</clus>
<clus scale="   90.590">  1  4  2 -1</clus>
<clus scale="   31.777">  1  3  2 -1</clus>
</clustering>
</event>
<event>
 6    0  0.4189111E+002  0.1041152E+03  0.7546771E-02  0.1271873E+00
         21   -1    0    0  503  502  0.00000000000E+00  0.00000000000E+00  0.66341023867E+02  0.66341023867E+02  0.00000000000E+00 0.  1.
          2   -1    0    0  505    0 -0.00000000000E+00 -0.00000000000E+00 -0.16752400905E+04  0.16752400905E+04  0.00000000000E+00 0.  1.
         21    1    1    2  503  501  0.52733933086E+02  0.84315843087E+01 -0.54991042216E+02  0.76654902235E+02  0.00000000000E+00 0.  1.
         21    1    1    2  504  502 -0.34750014551E+02  0.27979051733E+02  0.37303751169E+02  0.58154627490E+02  0.00000000000E+00 0.  1.
         21    1    1    2  505  504  0.59026286530E+02  0.68693872355E+02 -0.76610224889E+03  0.77143736385E+03  0.00000000000E+00 0.  1.
          2    1    1    2  501    0 -0.77010205065E+02 -0.10510450840E+03 -0.82510952671E+03  0.83533422080E+03  0.00000000000E+00 0.  1.
<scales pt_clust_3="40.83774" pt_clust_4="44.61380" pt_clust_5="14000.00000" pt_clust_6="104.11525"></scales>
<clustering>
<clus scale="   44.614">  1  4  2 -1</clus>
<clus scale="   40.838">  1  3  2 -1</clus>
<clus scale="  104.115">  1  6  2 -1</clus>
<clus scale="   44.614">  1  3  2 -1</clus>
</clustering>
</event>
<event>
 6    0  0.4189111E+002  0.1282187E+03  0.7546771E-02  0.1230123E+00
         21   -1    0    0  503  502  0.00000000000E+00  0.00000000000E+00  0.21837658998E+03  0.21837658998E+03  0.00000000000E+00 0. -1.
          2   -1    0    0  504    0 -0.00000000000E+00 -0.00000000000E+00 -0.14311620645E+04  0.14311620645E+04  0.00000000000E+00 0. -1.
         21    1    1    2  503  501  0.10536588380E+03 -0.18554285130E+01 -0.19436805882E+03  0.22109806506E+03  0.00000000000E+00 0. -1.
         21    1    1    2  504  505 -0.36218112115E+02 -0.26405032057E+02 -0.14581245504E+03  0.15254589280E+03  0.00000000000E+00 0. -1.
         21    1    1    2  505  502 -0.11011107671E+03 -0.73712721674E+02  0.17669270014E+03  0.22085815546E+03  0.00000000000E+00 0. -1.
          2    1    1    2  501    0  0.40963305028E+02  0.10197318224E+03 -0.10492976608E+04  0.10550365411E+04  0.00000000000E+00 0. -1.
<scales pt_clust_3="14000.00000" pt_clust_4="44.82162" pt_clust_5="128.21873" pt_clust_6="81.08420"></scales>
<clustering>
<clus scale="   44.822">  2  4  1 -1</clus>
<clus scale="   81.084">  2  6  1 -1</clus>
<clus scale="  128.219">  1  5  2 -1</clus>
<clus scale="  128.219">  1  3  2 -1</clus>
</clustering>
</event>
<event>
 6    0  0.4189111E+002  0.1090865E+03  0.7546771E-02  0.1262271E+00
         21   -1    0    0  505  502  0.00000000000E+00  0.00000000000E+00  0.31020582025E+03  0.31020582025E+03  0.00000000000E+00 0. -1.
          2   -1    0    0  504    0 -0.00000000000E+00 -0.00000000000E+00 -0.23464019384E+04  0.23464019384E+04  0.00000000000E+00 0.  1.
         21    1    1    2  503  502 -0.48479641155E+02  0.65083204518E+02  0.19911264797E+03  0.21501615218E+03  0.00000000000E+00 0. -1.
         21    1    1    2  504  503 -0.25325450648E+02 -0.28973594236E+02 -0.67735971598E+03  0.67845193820E+03  0.00000000000E+00 0.  1.
         21    1    1    2  505  501  0.24348358237E+02  0.41936764604E+02  0.95502421620E+02  0.10710857720E+03  0.00000000000E+00 0. -1.
          2    1    1    2  501    0  0.49456733566E+02 -0.78046374886E+02 -0.16534514718E+04  0.16560310911E+04  0.00000000000E+00 0.  1.
<scales pt_clust_3="109.08653" pt_clust_4="38.48178" pt_clust_5="48.36126" pt_clust_6="14000.00000"></scales>
<clustering>
<clus scale="   38.482">  2  4  1 -1</clus>
<clus scale="   48.361">  1  5  2 -1</clus>
<clus scale="  109.087">  1  3  2 -1</clus>
<clus scale="   48.361">  1  3  2 -1</clus>
</clustering>
</event>
<event>
 6    0  0.4189111E+002  0.1381836E+03  0.7546771E-02  0.1215794E+00
         21   -1    0    0  503  502  0.00000000000E+00  0.00000000000E+00  0.55280889857E+03  0.55280889857E+03  0.00000000000E+00 0.  1.
         -3   -1    0    0    0  501 -0.00000000000E+00 -0.00000000000E+00 -0.26525394318E+03  0.26525394318E+03  0.00000000000E+00 0.  1.
         21    1    1    2  503  504 -0.34754317749E+02 -0.48306957370E+02  0.44658068517E+03  0.45052828225E+03  0.00000000000E+00 0.  1.
         21    1    1    2  504  505  0.13361625571E+01 -0.11222182178E+03 -0.18735025863E+02  0.11378279223E+03  0.00000000000E+00 0. -1.
         21    1    1    2  505  501  0.35573756588E+02  0.16735201352E+00  0.67060065742E+01  0.36200700113E+02  0.00000000000E+00 0. -1.
         -3    1    1    2    0  502 -0.21556013965E+01  0.16036142713E+03 -0.14699671050E+03  0.21755106717E+03  0.00000000000E+00 0.  1.
<scales pt_clust_3="59.34554" pt_clust_4="138.18357" pt_clust_5="35.57415" pt_clust_6="14000.00000"></scales>
<clustering>
<clus scale="   35.574">  2  5  1 -1</clus>
<clus scale="   59.346">  1  3  2 -1</clus>
<clus scale="  138.184">  1  4  2 -1</clus>
<clus scale="   59.346">  1  3  2 -1</clus>
</clustering>
</event>
<event>
 6    0  0.4352652E+002  0.5863900E+02  0.7546771E-02  0.1403634E+00
          4   -1    0    0  505    0 -0.00000000000E+00  0.00000000000E+00  0.32863139651E+04  0.32863139651E+04  0.00000000000E+00 0.  1.
         21   -1    0    0  503  502  0.00000000000E+00 -0.00000000000E+00 -0.18350886755E+03  0.18350886755E+03  0.00000000000E+00 0. -1.
         21    1    1    2  503  501  0.21454083967E+02 -0.54916206325E+02 -0.16066247282E+03  0.17113882555E+03  0.00000000000E+00 0. -1.
         21    1    1    2  504  502 -0.67823493589E+02  0.29291333176E+02  0.72283649624E+02  0.10335828213E+03  0.00000000000E+00 0. -1.
         21    1    1    2  505  504 -0.34476735775E+02  0.10396431483E+02  0.21423917927E+03  0.21724446376E+03  0.00000000000E+00 0. -1.
          4    1    1    2  501    0  0.80846145397E+02  0.15228441665E+02  0.29769447415E+04  0.29780812612E+04  0.00000000000E+00 0.  1.
<scales pt_clust_3="58.63900" pt_clust_4="14000.00000" pt_clust_5="36.01015" pt_clust_6="53.74663"></scales>
<clustering>
<clus scale="   36.010">  1  5  2 -1</clus>
<clus scale="   53.747">  1  6  2 -1</clus>
<clus scale="   58.639">  2  3  1 -1</clus>
<clus scale="   58.639">  2  3  1 -1</clus>
</clustering>
</event>
<event>
 6    0  0.4189111E+002  0.8029670E+02  0.7546771E-02  0.1328212E+00
          1   -1    0    0  503    0 -0.00000000000E+00  0.00000000000E+00  0.40788130427E+03  0.40788130427E+03  0.00000000000E+00 0. -1.
         21   -1    0    0  505  502  0.00000000000E+00 -0.00000000000E+00 -0.15919414567E+03  0.15919414567E+03  0.00000000000E+00 0. -1.
         21    1    1    2  503  502  0.39150718647E+02  0.12729621544E+02  0.19986020073E+03  0.20405617332E+03  0.00000000000E+00 0. -1.
         21    1    1    2  504  501 -0.82913640007E+02 -0.10425279311E+02  0.32582469897E+02  0.89693787369E+02  0.00000000000E+00 0. -1.
         21    1    1    2  505  504  0.69873271837E+02 -0.45317965840E+02 -0.10968221599E+03  0.13771775721E+03  0.00000000000E+00 0. -1.
          1    1    1    2  501    0 -0.26110350476E+02  0.43013623607E+02  0.12592670397E+03  0.13560773205E+03  0.00000000000E+00 0. -1.
<scales pt_clust_3="41.16822" pt_clust_4="14000.00000" pt_clust_5="80.29670" pt_clust_6="51.11256"></scales>
<clustering>
<clus scale="   41.168">  1  3  2 -1</clus>
<clus scale="   51.113">  1  6  2 -1</clus>
<clus scale="   80.297">  2  5  1 -1</clus>
<clus scale="   80.297">  2  3  1 -1</clus>
</clustering>
</event>
<event>
 6    0  0.4189111E+002  0.1253739E+03  0.7546771E-02  0.1234486E+00
         21   -1    0    0  505  502  0.00000000000E+00  0.00000000000E+00  0.51847641217E+02  0.51847641217E+02  0.00000000000E+00 0.  1.
          2   -1    0    0  503    0 -0.00000000000E+00 -0.00000000000E+00 -0.12763658436E+04  0.12763658436E+04  0.00000000000E+00 0.  1.
         21    1    1    2  503  504 -0.56963545704E+02 -0.26782605981E+02 -0.23137772692E+03  0.23978700139E+03  0.00000000000E+00 0.  1.
         21    1    1    2  504  502 -0.42762229820E+02  0.37243644444E+02 -0.32568430649E+02  0.65394189540E+02  0.00000000000E+00 0.  1.
         21    1    1    2  505  501  0.15000810826E+03  0.47779109585E+02 -0.18189935922E+03  0.24056735594E+03  0.00000000000E+00 0.  1.
          2    1    1    2  501    0 -0.50282332738E+02 -0.58240148049E+02 -0.77867268563E+03  0.78246493798E+03  0.00000000000E+00 0.  1.
<scales pt_clust_3="65.94534" pt_clust_4="56.70712" pt_clust_5="14000.00000" pt_clust_6="125.37386"></scales>
<clustering>
<clus scale="   56.707">  1  4  2 -1</clus>
<clus scale="   65.945">  2  3  1 -1</clus>
<clus scale="  125.374">  2  6  1 -1</clus>
<clus scale="   56.707">  1  3  2 -1</clus>
</clustering>
</event>
<event>
 6    0  0.4189111E+002  0.1090741E+03  0.7546771E-02  0.1262294E+00
         21   -1    0    0  504  502  0.00000000000E+00  0.00000000000E+00  0.28759789486E+03  0.28759789486E+03  0.00000000000E+00 0.  1.
         -3   -1    0    0    0  501 -0.00000000000E+00 -0.00000000000E+00 -0.32422106916E+03  0.32422106916E+03  0.00000000000E+00 0.  1.
         21    1    1    2  503  502  0.40889638047E+02  0.53373512118E+01  0.11686850059E+03  0.12393020717E+03  0.00000000000E+00 0.  1.
         21    1    1    2  504  501  0.38948759726E+02  0.69661333495E+01 -0.12765931259E+01  0.39587404411E+02  0.00000000000E+00 0. -1.
         21    1    1    2  505  503 -0.75831473697E+01  0.75262641966E+02  0.12647771359E+03  0.14737225463E+03  0.00000000000E+00 0.  1.
         -3    1    1    2    0  505 -0.72255250403E+02 -0.87566126527E+02 -0.27869279536E+03  0.30092909781E+03  0.00000000000E+00 0.  1.
<scales pt_clust_3="58.96884" pt_clust_4="39.56682" pt_clust_5="109.07409" pt_clust_6="14000.00000"></scales>
<clustering>
<clus scale="   39.567">  1  4  2 -1</clus>
<clus scale="   58.969">  1  3  2 -1</clus>
<clus scale="  109.074">  1  5  2 -1</clus>
<clus scale="   39.567">  1  3  2 -1</clus>
</clustering>
</event>
<event>
 6    0  0.4189111E+002  0.1323639E+03  0.7546771E-02  0.1223990E+00
         -1   -1    0    0    0  501 -0.00000000000E+00  0.00000000000E+00  0.35766921093E+03  0.35766921093E+03  0.00000000000E+00 0.  1.
         21   -1    0    0  504  502  0.00000000000E+00 -0.00000000000E+00 -0.25365125212E+03  0.25365125212E+03  0.00000000000E+00 0. -1.
         21    1    1    2  503  501  0.42105365894E+01  0.12446112532E+03 -0.29634677631E+02  0.12800982170E+03  0.00000000000E+00 0. -1.
         21    1    1    2  504  503 -0.10796551639E+03 -0.43996232083E+02 -0.13597575879E+03  0.17911345048E+03  0.00000000000E+00 0. -1.
         21    1    1    2  505  502  0.32516232556E+02 -0.56364740824E+02  0.11157069350E+03  0.12916001330E+03  0.00000000000E+00 0.  1.
         -1    1    1    2    0  505  0.71238747241E+02 -0.24100152409E+02  0.15805770172E+03  0.17503717756E+03  0.00000000000E+00 0.  1.
<scales pt_clust_3="122.16153" pt_clust_4="116.58568" pt_clust_5="47.40109" pt_clust_6="47.40109"></scales>
<clustering>
<clus scale="   47.401">  5  6 -1 -1</clus>
<clus scale="  116.586">  2  4  1 -1</clus>
<clus scale="  122.162">  2  3  1 -1</clus>
<clus scale="  116.586">  2  3  1 -1</clus>
</clustering>
</event>
<event>
 6    0  0.4189111E+002  0.1395836E+03  0.7546771E-02  0.1213890E+00
          2   -1    0    0  503    0 -0.00000000000E+00  0.00000000000E+00  0.52756544316E+03  0.52756544316E+03  0.00000000000E+00 0.  1.
         21   -1    0    0  505  502  0.00000000000E+00 -0.00000000000E+00 -0.10123331603E+03  0.10123331603E+03  0.00000000000E+00 0.  1.
         21    1    1    2  503  504  0.87449071173E+02 -0.40693312963E+02 -0.33799947035E+02  0.10220431590E+03  0.00000000000E+00 0.  1.
         21    1    1    2  504  502 -0.17922153242E+02 -0.74166587658E+02  0.50900518992E+02  0.91721039763E+02  0.00000000000E+00 0. -1.
         21    1    1    2  505  501 -0.19096369237E+02  0.38619570954E+02  0.59928203592E+02  0.73807399117E+02  0.00000000000E+00 0.  1.
          2    1    1    2  501    0 -0.50430548695E+02  0.76240329667E+02  0.34930335158E+03  0.36106600440E+03  0.00000000000E+00 0.  1.
<scales pt_clust_3="125.96015" pt_clust_4="76.30129" pt_clust_5="41.29211" pt_clust_6="41.29211"></scales>
<clustering>
<clus scale="   41.292">  5  6 -1 -1</clus>
<clus scale="   76.301">  2  4  1 -1</clus>
<clus scale="  125.960">  2  3  1 -1</clus>
<clus scale="   76.301">  2  3  1 -1</clus>
</clustering>
</event>
<event>
 6    0  0.4189111E+002  0.7642016E+02  0.7546771E-02  0.1339529E+00
         21   -1    0    0  505  502  0.00000000000E+00  0.00000000000E+00  0.86824309504E+03  0.86824309504E+03  0.00000000000E+00 0.  1.
          1   -1    0    0  503    0 -0.00000000000E+00 -0.00000000000E+00 -0.52558851225E+02  0.52558851225E+02  0.00000000000E+00 0.  1.
         21    1    1    2  503  504 -0.10062149193E+03 -0.26786415465E+02  0.85764217480E+02  0.13489884244E+03  0.00000000000E+00 0.  1.
         21    1    1    2  504  502 -0.18273350627E+02  0.58119289535E+02  0.53108144015E+03  0.53456455478E+03  0.00000000000E+00 0.  1.
         21    1    1    2  505  501  0.75864005840E+02 -0.48331019444E+02  0.18030643595E+03  0.20149850041E+03  0.00000000000E+00 0.  1.
          1    1    1    2  501    0  0.43030836721E+02  0.16998145374E+02  0.18532150236E+02  0.49840048630E+02  0.00000000000E+00 0.  1.
<scales pt_clust_3="76.42016" pt_clust_4="61.11924" pt_clust_5="14000.00000" pt_clust_6="46.26651"></scales>
<clustering>
<clus scale="   46.267">  2  6  1 -1</clus>
<clus scale="   61.119">  1  4  2 -1</clus>
<clus scale="   76.420">  2  3  1 -1</clus>
<clus scale="   61.119">  1  3  2 -1</clus>
</clustering>
</event>
<event>
 6    0  0.4189111E+002  0.1071848E+03  0.7546771E-02  0.1265874E+00
         21   -1    0    0  504  502  0.00000000000E+00  0.00000000000E+00  0.82385823174E+01  0.82385823174E+01  0.00000000000E+00 0. -1.
          1   -1    0    0  505    0 -0.00000000000E+00 -0.00000000000E+00 -0.23740363753E+04  0.23740363753E+04  0.00000000000E+00 0.  1.
         21    1    1    2  503  501 -0.22373300897E+02 -0.55957186728E+02 -0.50856651962E+03  0.51212466862E+03  0.00000000000E+00 0.  1.
         21    1    1    2  504  503  0.20868576012E+01 -0.36332489432E+02 -0.12869178053E+03  0.13373847292E+03  0.00000000000E+00 0. -1.
         21    1    1    2  505  502 -0.31589793427E+02  0.10378692484E+03 -0.97939261819E+03  0.98538294149E+03  0.00000000000E+00 0. -1.
          1    1    1    2  501    0  0.51876236722E+02 -0.11497248676E+02 -0.74914687470E+03  0.75102887463E+03  0.00000000000E+00 0.  1.
<scales pt_clust_3="35.71381" pt_clust_4="35.71381" pt_clust_5="96.83203" pt_clust_6="53.13502"></scales>
<clustering>
<clus scale="   35.714">  3  4 -1 -1</clus>
<clus scale="   53.135">  2  6  1 -1</clus>
<clus scale="   96.832">  2  5  1 -1</clus>
<clus scale="  107.185">  1  3  2 -1</clus>
</clustering>
</event>
<event>
 6    0  0.4189111E+002  0.1258166E+03  0.7546771E-02  0.1233799E+00
         -2   -1    0    0    0  501 -0.00000000000E+00  0.00000000000E+00  0.47739529008E+03  0.47739529008E+03  0.00000000000E+00 0. -1.
         21   -1    0    0  505  502  0.00000000000E+00 -0.00000000000E+00 -0.20647040698E+04  0.20647040698E+04  0.00000000000E+00 0. -1.
         21    1    1    2  503  501  0.10043098496E+03 -0.15573642570E+03  0.40209572101E+02  0.18962338126E+03  0.00000000000E+00 0.  1.
         21    1    1    2  504  502 -0.51272928837E+02  0.20226716915E+02 -0.17890130507E+04  0.17898619301E+04  0.00000000000E+00 0. -1.
         21    1    1    2  505  503 -0.37229142400E+02  0.15986263976E+02 -0.18838348575E+03  0.19269122290E+03  0.00000000000E+00 0.  1.
         -2    1    1    2    0  504 -0.11928913724E+02  0.11952344481E+03  0.34987818462E+03  0.36992282562E+03  0.00000000000E+00 0. -1.
<scales pt_clust_3="14000.00000" pt_clust_4="93.79282" pt_clust_5="40.51629" pt_clust_6="125.81657"></scales>
<clustering>
<clus scale="   40.516">  2  5  1 -1</clus>
<clus scale="   93.793">  2  4  1 -1</clus>
<clus scale="  125.817">  1  6  2 -1</clus>
<clus scale="   40.516">  2  3  1 -1</clus>
</clustering>
</event>
<event>
 6    0  0.4189111E+002  0.2198160E+03  0.7546771E-02  0.1134020E+00
         -4   -1    0    0    0  501 -0.00000000000E+00  0.00000000000E+00  0.38036111867E+03  0.38036111867E+03  0.00000000000E+00 0. -1.
         21   -1    0    0  504  502  0.00000000000E+00 -0.00000000000E+00 -0.11086924504E+04  0.11086924504E+04  0.00000000000E+00 0.  1.
         21    1    1    2  503  502  0.15059465398E+03  0.97964416892E+02 -0.31282557926E+03  0.36074314937E+03  0.00000000000E+00 0.  1.
         21    1    1    2  504  501  0.26292171781E+02  0.27948244770E+02 -0.73639566042E+03  0.73739470528E+03  0.00000000000E+00 0.  1.
         21    1    1    2  505  503 -0.89851004438E+02 -0.41872246444E+02  0.11243240192E+03  0.14989173767E+03  0.00000000000E+00 0. -1.
         -4    1    1    2    0  505 -0.87035821321E+02 -0.84040415218E+02  0.20845750598E+03  0.24102397678E+03  0.00000000000E+00 0. -1.
<scales pt_clust_3="213.58201" pt_clust_4="38.37164" pt_clust_5="46.94916" pt_clust_6="46.94916"></scales>
<clustering>
<clus scale="   38.372">  2  4  1 -1</clus>
<clus scale="   46.949">  5  6 -1 -1</clus>
<clus scale="  213.582">  2  3  1 -1</clus>
<clus scale="   38.372">  2  3  1 -1</clus>
</clustering>
</event>
<event>
 6    0  0.4189111E+002  0.1771937E+03  0.7546771E-02  0.1170547E+00
         21   -1    0    0  503  502  0.00000000000E+00  0.00000000000E+00  0.84059366123E+02  0.84059366123E+02  0.00000000000E+00 0. -1.
          2   -1    0    0  505    0 -0.00000000000E+00 -0.00000000000E+00 -0.30234947016E+04  0.30234947016E+04  0.00000000000E+00 0.  1.
         21    1    1    2  503  501 -0.11743236041E+02  0.30250045381E+02 -0.19973084916E+02  0.38103713197E+02  0.00000000000E+00 0. -1.
         21    1    1    2  504  502 -0.19222655469E+02 -0.20659163993E+03 -0.79929028670E+02  0.22234717402E+03  0.00000000000E+00 0. -1.
         21    1    1    2  505  504  0.13843205468E+02  0.57050381704E+02 -0.36974650484E+03  0.37437796173E+03  0.00000000000E+00 0. -1.
          2    1    1    2  501    0  0.17122686042E+02  0.11929121284E+03 -0.24697867170E+04  0.24727252187E+04  0.00000000000E+00 0.  1.
<scales pt_clust_3="32.44948" pt_clust_4="14000.00000" pt_clust_5="59.53087" pt_clust_6="177.19365"></scales>
<clustering>
<clus scale="   32.449">  1  3  2 -1</clus>
<clus scale="   59.531">  2  5  1 -1</clus>
<clus scale="  177.194">  2  6  1 -1</clus>
<clus scale="   32.449">  1  3  2 -1</clus>
</clustering>
</event>
<event>
 6    0  0.4189111E+002  0.1056206E+03  0.7546771E-02  0.1268902E+00
         21   -1    0    0  505  502  0.00000000000E+00  0.00000000000E+00  0.13633406235E+04  0.13633406235E+04  0.00000000000E+00 0.  1.
          1   -1    0    0  504    0 -0.00000000000E+00 -0.00000000000E+00 -0.18181218489E+04  0.18181218489E+04  0.00000000000E+00 0. -1.
         21    1    1    2  503  502  0.34280650150E+02 -0.75081752952E+01  0.10958376211E+04  0.10963993923E+04  0.00000000000E+00 0.  1.
         21    1    1    2  504  503 -0.12554874826E+03  0.69132183501E+02  0.23714714627E+03  0.27709297351E+03  0.00000000000E+00 0.  1.
         21    1    1    2  505  501  0.55358453772E+02 -0.26635391454E+02 -0.87209749551E+02  0.10667494035E+03  0.00000000000E+00 0. -1.
          1    1    1    2  501    0  0.35909644342E+02 -0.34988616751E+02 -0.17005562433E+04  0.17012951662E+04  0.00000000000E+00 0. -1.
<scales pt_clust_3="35.09324" pt_clust_4="14000.00000" pt_clust_5="105.62057" pt_clust_6="50.17807"></scales>
<clustering>
<clus scale="   35.093">  1  3  2 -1</clus>
<clus scale="   50.178">  2  6  1 -1</clus>
<clus scale="  105.621">  2  5  1 -1</clus>
<clus scale="   35.093">  1  3  2 -1</clus>
</clustering>
</event>
<event>
 6    0  0.4189111E+002  0.1640647E+03  0.7546771E-02  0.1184183E+00
          2   -1    0    0  503    0 -0.00000000000E+00  0.00000000000E+00  0.18229997335E+04  0.18229997335E+04  0.00000000000E+00 0. -1.
         21   -1    0    0  505  502  0.00000000000E+00 -0.00000000000E+00 -0.12153697520E+03  0.12153697520E+03  0.00000000000E+00 0. -1.
         21    1    1    2  503  502  0.13098817331E+03 -0.50143556889E+02  0.38161410892E+03  0.40657300202E+03  0.00000000000E+00 0. -1.
         21    1    1    2  504  501 -0.57960635543E+01  0.36255651472E+02  0.29334268917E+03  0.29563152726E+03  0.00000000000E+00 0. -1.
         21    1    1    2  505  504 -0.10965736111E+02 -0.58546564919E+02 -0.95309885548E+02  0.11239182317E+03  0.00000000000E+00 0. -1.
          2    1    1    2  501    0 -0.11422637364E+03  0.72434470336E+02  0.11218158458E+04  0.11299403563E+04  0.00000000000E+00 0. -1.
<scales pt_clust_3="153.47520" pt_clust_4="30.21239" pt_clust_5="59.56465" pt_clust_6="30.21239"></scales>
<clustering>
<clus scale="   30.212">  4  6 -1 -1</clus>
<clus scale="   59.565">  2  5  1 -1</clus>
<clus scale="  153.475">  2  3  1 -1</clus>
<clus scale="   59.565">  2  3  1 -1</clus>
</clustering>
</event>
<event>
 6    0  0.4189111E+002  0.9997625E+02  0.7546771E-02  0.1280346E+00
         21   -1    0    0  501  502  0.00000000000E+00  0.00000000000E+00  0.15277827365E+04  0.15277827365E+04  0.00000000000E+00 0.  1.
          2   -1    0    0  504    0 -0.00000000000E+00 -0.00000000000E+00 -0.36797611459E+04  0.36797611459E+04  0.00000000000E+00 0. -1.
         21    1    1    2  503  505 -0.12280811096E+03  0.27053911812E+02  0.27272343735E+03  0.30031952907E+03  0.00000000000E+00 0. -1.
         21    1    1    2  504  503 -0.29190156059E+02 -0.15218616657E+02 -0.56250940407E+02  0.65175453972E+02  0.00000000000E+00 0. -1.
         21    1    1    2  505  502  0.85764070173E+02  0.52679947518E+02  0.12341570915E+04  0.12382545696E+04  0.00000000000E+00 0.  1.
          2    1    1    2  501    0  0.66234196845E+02 -0.64515242673E+02 -0.36026079979E+04  0.36037943298E+04  0.00000000000E+00 0. -1.
<scales pt_clust_3="14000.00000" pt_clust_4="32.91917" pt_clust_5="99.97625" pt_clust_6="87.91253"></scales>
<clustering>
<clus scale="   32.919">  2  4  1 -1</clus>
<clus scale="   87.913">  2  6  1 -1</clus>
<clus scale="   99.976">  1  5  2 -1</clus>
<clus scale="   99.976">  1  3  2 -1</clus>
</clustering>
</event>
<event>
 6    0  0.4189111E+002  0.1213494E+03  0.7546771E-02  0.1240887E+00
         21   -1    0    0  503  502  0.00000000000E+00  0.00000000000E+00  0.13051062535E+04  0.13051062535E+04  0.00000000000E+00 0. -1.
         -2   -1    0    0    0  501 -0.00000000000E+00 -0.00000000000E+00 -0.20385397762E+04  0.20385397762E+04  0.00000000000E+00 0. -1.
         21    1    1    2  503  505 -0.71734345220E+02 -0.25383792848E+02  0.11428941411E+04  0.11454244502E+04  0.00000000000E+00 0. -1.
         21    1    1    2  504  502 -0.12627670172E+02 -0.62691305860E+02  0.14939402485E+03  0.16250610003E+03  0.00000000000E+00 0. -1.
         21    1    1    2  505  501  0.82146351314E+02 -0.71982050499E+00 -0.44625840766E+03  0.45375666120E+03  0.00000000000E+00 0. -1.
         -2    1    1    2    0  504  0.22156640784E+01  0.88794919213E+02 -0.15794632810E+04  0.15819588183E+04  0.00000000000E+00 0. -1.
<scales pt_clust_3="121.34940" pt_clust_4="63.95043" pt_clust_5="82.11036" pt_clust_6="14000.00000"></scales>
<clustering>
<clus scale="   63.950">  1  4  2 -1</clus>
<clus scale="   82.110">  2  5  1 -1</clus>
<clus scale="  121.349">  1  3  2 -1</clus>
<clus scale="   63.950">  1  3  2 -1</clus>
</clustering>
</event>
<event>
 6    0  0.4189111E+002  0.6576300E+02  0.7546771E-02  0.1375124E+00
          2   -1    0    0  504    0 -0.00000000000E+00  0.00000000000E+00  0.19934802708E+04  0.19934802708E+04  0.00000000000E+00 0. -1.
         21   -1    0    0  503  502  0.00000000000E+00 -0.00000000000E+00 -0.20288400795E+03  0.20288400795E+03  0.00000000000E+00 0.  1.
         21    1    1    2  503  501  0.77618169910E+02 -0.18100886309E+02  0.51478587171E+02  0.94880278891E+02  0.00000000000E+00 0.  1.
         21    1    1    2  504  505 -0.36236723313E+02 -0.11621633342E+02  0.11472863100E+03  0.12087523009E+03  0.00000000000E+00 0. -1.
         21    1    1    2  505  502 -0.52197184440E+02 -0.41997098742E+02 -0.17105174238E+03  0.18370356812E+03  0.00000000000E+00 0.  1.
          2    1    1    2  501    0  0.10815737844E+02  0.71719618393E+02  0.17954407871E+04  0.17969052017E+04  0.00000000000E+00 0. -1.
<scales pt_clust_3="65.76300" pt_clust_4="38.05473" pt_clust_5="14000.00000" pt_clust_6="65.12844"></scales>
<clustering>
<clus scale="   38.055">  1  4  2 -1</clus>
<clus scale="   65.128">  1  6  2 -1</clus>
<clus scale="   65.763">  1  3  2 -1</clus>
<clus scale="   65.763">  2  3  1 -1</clus>
</clustering>
</event>
<event>
 6    0  0.4189111E+002  0.1032326E+03  0.7546771E-02  0.1273641E+00
          1   -1    0    0  503    0 -0.00000000000E+00  0.00000000000E+00  0.15490369338E+04  0.15490369338E+04  0.00000000000E+00 0.  1.
         21   -1    0    0  504  502  0.00000000000E+00 -0.00000000000E+00 -0.13061948407E+04  0.13061948407E+04  0.00000000000E+00 0. -1.
         21    1    1    2  503  505 -0.16098446620E+03 -0.29462278247E+02  0.87321034141E+03  0.88841450041E+03  0.00000000000E+00 0.  1.
         21    1    1    2  504  501  0.43640294955E+02  0.29752714569E+02 -0.12203493191E+04  0.12214917765E+04  0.00000000000E+00 0. -1.
         21    1    1    2  505  502  0.46781991879E+02  0.19503614897E+02 -0.67143988801E+02  0.84126458325E+02  0.00000000000E+00 0.  1.
          1    1    1    2  501    0  0.70562179365E+02 -0.19794051219E+02  0.65712505962E+03  0.66119903932E+03  0.00000000000E+00 0.  1.
<scales pt_clust_3="14000.00000" pt_clust_4="103.23259" pt_clust_5="50.68477" pt_clust_6="73.35178"></scales>
<clustering>
<clus scale="   50.685">  2  5  1 -1</clus>
<clus scale="   73.352">  1  6  2 -1</clus>
<clus scale="  103.233">  2  4  1 -1</clus>
<clus scale="   50.685">  2  3  1 -1</clus>
</clustering>
</event>
<event>
 6    0  0.4189111E+002  0.9085585E+02  0.7546771E-02  0.1300792E+00
         21   -1    0    0  505  502  0.00000000000E+00  0.00000000000E+00  0.11433886619E+03  0.11433886619E+03  0.00000000000E+00 0.  1.
          2   -1    0    0  503    0 -0.00000000000E+00 -0.00000000000E+00 -0.10538588934E+04  0.10538588934E+04  0.00000000000E+00 0. -1.
         21    1    1    2  503  504  0.75490368184E+02 -0.31875119604E+02 -0.48237173482E+03  0.48928244348E+03  0.00000000000E+00 0. -1.
         21    1    1    2  504  502 -0.58813188569E+02  0.48467301760E+01  0.47319011227E+02  0.75641065345E+02  0.00000000000E+00 0.  1.
         21    1    1    2  505  501  0.42488685786E+02 -0.90674707083E+02 -0.21176586101E+02  0.10235056777E+03  0.00000000000E+00 0.  1.
          2    1    1    2  501    0 -0.59165865401E+02  0.11770309651E+03 -0.48329071750E+03  0.50092368298E+03  0.00000000000E+00 0. -1.
<scales pt_clust_3="78.28821" pt_clust_4="59.01256" pt_clust_5="14000.00000" pt_clust_6="90.85585"></scales>
<clustering>
<clus scale="   59.013">  1  4  2 -1</clus>
<clus scale="   78.288">  2  3  1 -1</clus>
<clus scale="   90.856">  2  6  1 -1</clus>
<clus scale="   59.013">  1  3  2 -1</clus>
</clustering>
</event>
<event>
 6    0  0.4189111E+002  0.1091581E+03  0.7546771E-02  0.1262137E+00
         -1   -1    0    0    0  501 -0.00000000000E+00  0.00000000000E+00  0.29757599957E+02  0.29757599957E+02  0.00000000000E+00 0.  1.
         21   -1    0    0  504  502  0.00000000000E+00 -0.00000000000E+00 -0.16572325944E+04  0.16572325944E+04  0.00000000000E+00 0. -1.
         21    1    1    2  503  505  0.64745439569E+02 -0.28748805422E+02 -0.61411347639E+02  0.93754036590E+02  0.00000000000E+00 0.  1.
         21    1    1    2  504  501 -0.10321830008E+03  0.48572416874E+02 -0.11865309147E+04  0.11920020590E+04  0.00000000000E+00 0. -1.
         21    1    1    2  505  502  0.45573911090E+01 -0.35189727027E+02 -0.35471886791E+03  0.35648921716E+03  0.00000000000E+00 0.  1.
         -1    1    1    2    0  503  0.33915469401E+02  0.15366115576E+02 -0.24813864202E+02  0.44744881598E+02  0.00000000000E+00 0.  1.
<scales pt_clust_3="31.04832" pt_clust_4="100.40612" pt_clust_5="35.48361" pt_clust_6="31.04832"></scales>
<clustering>
<clus scale="   31.048">  3  6 -1 -1</clus>
<clus scale="   35.484">  2  5  1 -1</clus>
<clus scale="  100.406">  2  4  1 -1</clus>
<clus scale="   35.484">  2  3  1 -1</clus>
</clustering>
</event>
<event>
 6    0  0.4189111E+002  0.1309490E+03  0.7546771E-02  0.1226054E+00
         21   -1    0    0  505  502  0.00000000000E+00  0.00000000000E+00  0.26842086336E+03  0.26842086336E+03  0.00000000000E+00 0. -1.
          1   -1    0    0  503    0 -0.00000000000E+00 -0.00000000000E+00 -0.13516734867E+04  0.13516734867E+04  0.00000000000E+00 0. -1.
         21    1    1    2  503  504 -0.14790967035E+01  0.38966054026E+02 -0.71506708880E+02  0.81447839187E+02  0.00000000000E+00 0.  1.
         21    1    1    2  504  502 -0.10987636703E+03  0.54189657113E+02  0.21999822429E+03  0.25181055113E+03  0.00000000000E+00 0. -1.
         21    1    1    2  505  501 -0.21411008544E+02 -0.67909439664E+02 -0.29588574231E+02  0.77107762303E+02  0.00000000000E+00 0.  1.
          1    1    1    2  501    0  0.13276647228E+03 -0.25246271475E+02 -0.12021555645E+04  0.12097281975E+04  0.00000000000E+00 0. -1.
<scales pt_clust_3="38.99412" pt_clust_4="14000.00000" pt_clust_5="69.67086" pt_clust_6="130.94904"></scales>
<clustering>
<clus scale="   38.994">  2  3  1 -1</clus>
<clus scale="   69.671">  1  5  2 -1</clus>
<clus scale="  130.949">  2  6  1 -1</clus>
<clus scale="   69.671">  1  3  2 -1</clus>
</clustering>
</event>
<event>
 6    0  0.4189111E+002  0.9849480E+02  0.7546771E-02  0.1283493E+00
          2   -1    0    0  505    0 -0.00000000000E+00  0.00000000000E+00  0.30498110828E+03  0.30498110828E+03  0.00000000000E+00 0. -1.
         21   -1    0    0  503  502  0.00000000000E+00 -0.00000000000E+00 -0.33915550078E+03  0.33915550078E+03  0.00000000000E+00 0.  1.
         21    1    1    2  503  501 -0.24705317968E+02  0.93277512515E+02 -0.16048979749E+03  0.18726457801E+03  0.00000000000E+00 0.  1.
         21    1    1    2  504  502  0.28999466015E+02  0.10592594896E+02 -0.12873182283E+03  0.13238222805E+03  0.00000000000E+00 0.  1.
         21    1    1    2  505  504 -0.84077897202E+02 -0.46906085974E+02  0.86100639655E+02  0.12916111585E+03  0.00000000000E+00 0.  1.
          2    1    1    2  501    0  0.79783749154E+02 -0.56964021438E+02  0.16894658817E+03  0.19532868714E+03  0.00000000000E+00 0. -1.
<scales pt_clust_3="98.49480" pt_clust_4="30.87349" pt_clust_5="93.13189" pt_clust_6="14000.00000"></scales>
<clustering>
<clus scale="   30.873">  2  4  1 -1</clus>
<clus scale="   93.132">  1  5  2 -1</clus>
<clus scale="   98.495">  2  3  1 -1</clus>
<clus scale="   30.873">  2  3  1 -1</clus>
</clustering>
</event>
<event>
 6    0  0.4189111E+002  0.1683969E+03  0.7546771E-02  0.1179530E+00
          2   -1    0    0  503    0 -0.00000000000E+00  0.00000000000E+00  0.33932276922E+04  0.33932276922E+04  0.00000000000E+00 0. -1.
         21   -1    0    0  505  502  0.00000000000E+00 -0.00000000000E+00 -0.12511103122E+02  0.12511103122E+02  0.00000000000E+00 0. -1.
         21    1    1    2  503  502 -0.10017548756E+03 -0.15303860163E+03  0.11020800451E+04  0.11171554805E+04  0.00000000000E+00 0. -1.
         21    1    1    2  504  501  0.21095683906E+01  0.47808910016E+02  0.55370819353E+03  0.55577235064E+03  0.00000000000E+00 0. -1.
         21    1    1    2  505  504  0.16395556917E+02  0.30487715270E+02  0.14771655414E+03  0.15171847428E+03  0.00000000000E+00 0. -1.
          2    1    1    2  501    0  0.81670362248E+02  0.74741976345E+02  0.15772117963E+04  0.15810924898E+04  0.00000000000E+00 0. -1.
<scales pt_clust_3="158.18964" pt_clust_4="38.13548" pt_clust_5="34.61669" pt_clust_6="38.13548"></scales>
<clustering>
<clus scale="   34.617">  2  5  1 -1</clus>
<clus scale="   38.135">  4  6 -1 -1</clus>
<clus scale="  158.190">  2  3  1 -1</clus>
<clus scale="   34.617">  2  3  1 -1</clus>
</clustering>
</event>
<event>
 6    0  0.4189111E+002  0.1131807E+03  0.7546771E-02  0.1254791E+00
         -4   -1    0    0    0  501 -0.00000000000E+00  0.00000000000E+00  0.94740416079E+03  0.94740416079E+03  0.00000000000E+00 0. -1.
         21   -1    0    0  505  502  0.00000000000E+00 -0.00000000000E+00 -0.11913909855E+03  0.11913909855E+03  0.00000000000E+00 0.  1.
         21    1    1    2  503  502  0.56705229003E+02 -0.15756982039E+02 -0.25442786883E+01  0.58908733082E+02  0.00000000000E+00 0. -1.
         21    1    1    2  504  501 -0.47963924891E+02 -0.28048269898E+01  0.16162617552E+03  0.16861620847E+03  0.00000000000E+00 0.  1.
         21    1    1    2  505  504 -0.45694493142E+02  0.12777705790E+03 -0.22706011440E+02  0.13758824872E+03  0.00000000000E+00 0.  1.
         -4    1    1    2    0  503  0.36953189030E+02 -0.10921524887E+03  0.69188917684E+03  0.70143006907E+03  0.00000000000E+00 0. -1.
<scales pt_clust_3="57.21871" pt_clust_4="48.04587" pt_clust_5="14000.00000" pt_clust_6="113.18074"></scales>
<clustering>
<clus scale="   48.046">  1  4  2 -1</clus>
<clus scale="   57.219">  2  3  1 -1</clus>
<clus scale="  113.181">  1  6  2 -1</clus>
<clus scale="   57.219">  2  3  1 -1</clus>
</clustering>
</event>
<event>
 6    0  0.4189111E+002  0.1343462E+03  0.7546771E-02  0.1221146E+00
         21   -1    0    0  505  502  0.00000000000E+00  0.00000000000E+00  0.41184858166E+03  0.41184858166E+03  0.00000000000E+00 0.  1.
          1   -1    0    0  502    0 -0.00000000000E+00 -0.00000000000E+00 -0.23519988954E+04  0.23519988954E+04  0.00000000000E+00 0. -1.
         21    1    1    2  503  504 -0.11071699972E+03 -0.16819589427E+02  0.33813014835E+03  0.35619257409E+03  0.00000000000E+00 0.  1.
         21    1    1    2  504  501  0.54574950200E+02 -0.88311487044E+01 -0.65330908192E+03  0.65564408859E+03  0.00000000000E+00 0. -1.
         21    1    1    2  505  503 -0.14805526440E+02  0.36821318092E+02  0.56478477630E+02  0.69027759015E+02  0.00000000000E+00 0. -1.
          1    1    1    2  501    0  0.70947575962E+02 -0.11170579961E+02 -0.16814498578E+04  0.16829830554E+04  0.00000000000E+00 0. -1.
<scales pt_clust_3="126.99318" pt_clust_4="38.46018" pt_clust_5="39.68643" pt_clust_6="38.46018"></scales>
<clustering>
<clus scale="   38.460">  4  6 -1 -1</clus>
<clus scale="   39.686">  1  5  2 -1</clus>
<clus scale="  126.993">  1  3  2 -1</clus>
<clus scale="   39.686">  1  3  2 -1</clus>
</clustering>
</event>
<event>
 6    0  0.4189111E+002  0.1299542E+03  0.7546771E-02  0.1227524E+00
         21   -1    0    0  503  502  0.00000000000E+00  0.00000000000E+00  0.32363446778E+03  0.32363446778E+03  0.00000000000E+00 0.  1.
         -3   -1    0    0    0  501 -0.00000000000E+00 -0.00000000000E+00 -0.39957701389E+03  0.39957701389E+03  0.00000000000E+00 0. -1.
         21    1    1    2  503  504  0.10602118415E+03  0.63961261800E+02  0.29702189878E+03  0.32179736303E+03  0.00000000000E+00 0.  1.
         21    1    1    2  504  501 -0.30447700624E+02 -0.19588122130E+01 -0.16191007523E+03  0.16475973986E+03  0.00000000000E+00 0.  1.
         21    1    1    2  505  502 -0.51777962359E+02 -0.14377715593E+02 -0.10138668982E+03  0.11474727432E+03  0.00000000000E+00 0.  1.
         -3    1    1    2    0  505 -0.23795521165E+02 -0.47624733993E+02 -0.10966767984E+03  0.12190710446E+03  0.00000000000E+00 0. -1.
<scales pt_clust_3="122.40267" pt_clust_4="30.51064" pt_clust_5="41.89344" pt_clust_6="41.89344"></scales>
<clustering>
<clus scale="   30.511">  2  4  1 -1</clus>
<clus scale="   41.893">  5  6 -1 -1</clus>
<clus scale="  122.403">  1  3  2 -1</clus>
<clus scale="  122.403">  1  3  2 -1</clus>
</clustering>
</event>
<event>
 6    0  0.4189111E+002  0.7406829E+02  0.7546771E-02  0.1346781E+00
          2   -1    0    0  504    0 -0.00000000000E+00  0.00000000000E+00  0.71643401166E+03  0.71643401166E+03  0.00000000000E+00 0.  1.
         21   -1    0    0  505  502  0.00000000000E+00 -0.00000000000E+00 -0.27386810684E+03  0.27386810684E+03  0.00000000000E+00 0.  1.
         21    1    1    2  503  502  0.47746066983E+01  0.57711087851E+02 -0.19867758902E+03  0.20694480160E+03  0.00000000000E+00 0.  1.
         21    1    1    2  504  503  0.10546216572E+03 -0.29405907229E+02  0.52136199236E+02  0.12126483023E+03  0.00000000000E+00 0.  1.
         21    1    1    2  505  501 -0.38789847077E+02 -0.16196992559E+02 -0.21489856075E+02  0.47210260731E+02  0.00000000000E+00 0.  1.
          2    1    1    2  501    0 -0.71446925344E+02 -0.12108188063E+02  0.61059715068E+03  0.61488222594E+03  0.00000000000E+00 0.  1.
<scales pt_clust_3="52.18845" pt_clust_4="14000.00000" pt_clust_5="42.03564" pt_clust_6="74.06829"></scales>
<clustering>
<clus scale="   42.036">  2  5  1 -1</clus>
<clus scale="   52.188">  2  3  1 -1</clus>
<clus scale="   74.068">  1  6  2 -1</clus>
<clus scale="   42.036">  2  3  1 -1</clus>
</clustering>
</event>
<event>
 6    0  0.4189111E+002  0.1360630E+03  0.7546771E-02  0.1218727E+00
         21   -1    0    0  505  502  0.00000000000E+00  0.00000000000E+00  0.38649802599E+02  0.38649802599E+02  0.00000000000E+00 0.  1.
          2   -1    0    0  504    0 -0.00000000000E+00 -0.00000000000E+00 -0.10190787467E+04  0.10190787467E+04  0.00000000000E+00 0.  1.
         21    1    1    2  503  502  0.12002564223E+03  0.30671131129E+02 -0.18149060641E+03  0.21974010397E+03  0.00000000000E+00 0.  1.
         21    1    1    2  504  503  0.22018864701E+02 -0.45091082552E+02 -0.51479212965E+03  0.51723203002E+03  0.00000000000E+00 0. -1.
         21    1    1    2  505  501 -0.66340870753E+02  0.62197104635E+01 -0.88238196526E+02  0.11057022771E+03  0.00000000000E+00 0.  1.
          2    1    1    2  501    0 -0.75703636176E+02  0.82002409596E+01 -0.19590801157E+03  0.21018618765E+03  0.00000000000E+00 0.  1.
<scales pt_clust_3="129.42998" pt_clust_4="50.18004" pt_clust_5="39.25542" pt_clust_6="39.25542"></scales>
<clustering>
<clus scale="   39.255">  5  6 -1 -1</clus>
<clus scale="   50.180">  2  4  1 -1</clus>
<clus scale="  129.430">  1  3  2 -1</clus>
<clus scale="  129.430">  1  3  2 -1</clus>
</clustering>
</event>
<event>
 6    0  0.4189111E+002  0.7436710E+02  0.7546771E-02  0.1345842E+00
          1   -1    0    0  505    0 -0.00000000000E+00  0.00000000000E+00  0.10801491411E+04  0.10801491411E+04  0.00000000000E+00 0. -1.
         21   -1    0    0  503  502  0.00000000000E+00 -0.00000000000E+00 -0.73802670486E+02  0.73802670486E+02  0.00000000000E+00 0. -1.
         21    1    1    2  503  501  0.50061195652E+01 -0.10807477030E+03  0.54702408637E+02  0.12123353793E+03  0.00000000000E+00 0.  1.
         21    1    1    2  504  502 -0.10711659134E+02  0.63263063182E+02 -0.11225083535E+02  0.65137986651E+02  0.00000000000E+00 0. -1.
         21    1    1    2  505  504 -0.33336141107E+02  0.23315101835E+02  0.24721685279E+03  0.25054154262E+03  0.00000000000E+00 0.  1.
          1    1    1    2  501    0  0.39041680675E+02  0.21496605279E+02  0.71565229271E+03  0.71703874437E+03  0.00000000000E+00 0. -1.
<scales pt_clust_3="74.36710" pt_clust_4="14000.00000" pt_clust_5="40.68037" pt_clust_6="42.84830"></scales>
<clustering>
<clus scale="   40.680">  1  5  2 -1</clus>
<clus scale="   42.848">  1  6  2 -1</clus>
<clus scale="   74.367">  1  3  2 -1</clus>
<clus scale="   74.367">  2  3  1 -1</clus>
</clustering>
</event>
<event>
 6    0  0.4189111E+002  0.1937665E+03  0.7546771E-02  0.1155107E+00
          2   -1    0    0  504    0 -0.00000000000E+00  0.00000000000E+00  0.55934380114E+03  0.55934380114E+03  0.00000000000E+00 0. -1.
         21   -1    0    0  503  502  0.00000000000E+00 -0.00000000000E+00 -0.13602042851E+03  0.13602042851E+03  0.00000000000E+00 0.  1.
         21    1    1    2  503  505 -0.53005376247E+02 -0.79363517525E+02 -0.25637340788E+02  0.98820094453E+02  0.00000000000E+00 0. -1.
         21    1    1    2  504  502  0.13110130236E+03  0.19719582298E+03  0.30536163214E+03  0.38641877603E+03  0.00000000000E+00 0.  1.
         21    1    1    2  505  501 -0.43089075146E+02 -0.22432215096E+02  0.27452697483E+02  0.55798954024E+02  0.00000000000E+00 0. -1.
          2    1    1    2  501    0 -0.35006850971E+02 -0.95400090363E+02  0.11614638379E+03  0.15432640514E+03  0.00000000000E+00 0. -1.
<scales pt_clust_3="95.43656" pt_clust_4="184.38254" pt_clust_5="41.18673" pt_clust_6="41.18673"></scales>
<clustering>
<clus scale="   41.187">  5  6 -1 -1</clus>
<clus scale="   95.437">  2  3  1 -1</clus>
<clus scale="  184.383">  2  4  1 -1</clus>
<clus scale="   95.437">  2  3  1 -1</clus>
</clustering>
</event>
<event>
 6    0  0.4189111E+002  0.8192145E+02  0.7546771E-02  0.1323685E+00
         21   -1    0    0  504  502  0.00000000000E+00  0.00000000000E+00  0.48237330871E+02  0.48237330871E+02  0.00000000000E+00 0.  1.
          2   -1    0    0  503    0 -0.00000000000E+00 -0.00000000000E+00 -0.10430494886E+04  0.10430494886E+04  0.00000000000E+00 0. -1.
         21    1    1    2  503  502 -0.11941500204E+02 -0.49944233251E+02 -0.60526164977E+02  0.79375326828E+02  0.00000000000E+00 0.  1.
         21    1    1    2  504  505  0.10455558469E+03  0.33953033379E+02 -0.53032425638E+02  0.12205374609E+03  0.00000000000E+00 0.  1.
         21    1    1    2  505  501 -0.56860636991E+02 -0.92386912805E+01 -0.22887546407E+03  0.23601369348E+03  0.00000000000E+00 0.  1.
          2    1    1    2  501    0 -0.35753447493E+02  0.25229891153E+02 -0.65237810308E+03  0.65384405312E+03  0.00000000000E+00 0. -1.
<scales pt_clust_3="48.98709" pt_clust_4="81.92145" pt_clust_5="14000.00000" pt_clust_6="43.75907"></scales>
<clustering>
<clus scale="   43.759">  2  6  1 -1</clus>
<clus scale="   48.987">  1  3  2 -1</clus>
<clus scale="   81.921">  1  4  2 -1</clus>
<clus scale="   48.987">  1  3  2 -1</clus>
</clustering>
</event>
<event>
 6    0  0.4189111E+002  0.8683220E+02  0.7546771E-02  0.1310709E+00
          2   -1    0    0  504    0 -0.00000000000E+00  0.00000000000E+00  0.76200118308E+03  0.76200118308E+03  0.00000000000E+00 0.  1.
         21   -1    0    0  505  502  0.00000000000E+00 -0.00000000000E+00 -0.58886119491E+02  0.58886119491E+02  0.00000000000E+00 0.  1.
         21    1    1    2  503  502  0.53192547153E+02 -0.96069164823E+02  0.48526314344E+02  0.12005638128E+03  0.00000000000E+00 0.  1.
         21    1    1    2  504  503  0.36899521732E+02  0.72449439283E+02  0.93082061001E+02  0.12359112443E+03  0.00000000000E+00 0.  1.
         21    1    1    2  505  501 -0.46498113774E+02  0.16249274415E+02  0.81691321978E+02  0.95391748019E+02  0.00000000000E+00 0. -1.
          2    1    1    2  501    0 -0.43593955110E+02  0.73704511245E+01  0.47981536627E+03  0.48184804885E+03  0.00000000000E+00 0.  1.
<scales pt_clust_3="14000.00000" pt_clust_4="86.83220" pt_clust_5="63.02405" pt_clust_6="44.21263"></scales>
<clustering>
<clus scale="   44.213">  1  6  2 -1</clus>
<clus scale="   63.024">  1  5  2 -1</clus>
<clus scale="   86.832">  1  4  2 -1</clus>
<clus scale="   86.832">  2  3  1 -1</clus>
</clustering>
</event>
<event>
 6    0  0.4189111E+002  0.1937914E+03  0.7546771E-02  0.1155085E+00
          2   -1    0    0  504    0 -0.00000000000E+00  0.00000000000E+00  0.50855897093E+03  0.50855897093E+03  0.00000000000E+00 0.  1.
         21   -1    0    0  505  502  0.00000000000E+00 -0.00000000000E+00 -0.23460602163E+03  0.23460602163E+03  0.00000000000E+00 0.  1.
         21    1    1    2  503  501  0.15598898519E+03  0.50523822749E+02  0.28897368752E+02  0.16649407823E+03  0.00000000000E+00 0.  1.
         21    1    1    2  504  502  0.50039272718E+02  0.14713037901E+01  0.12264443127E+03  0.13246792091E+03  0.00000000000E+00 0.  1.
         21    1    1    2  505  503 -0.21730919483E+03 -0.21812685056E+02 -0.84959314583E+02  0.23434411562E+03  0.00000000000E+00 0.  1.
          2    1    1    2  501    0  0.11280936930E+02 -0.30182441484E+02  0.20737046386E+03  0.20985887780E+03  0.00000000000E+00 0.  1.
<scales pt_clust_3="14000.00000" pt_clust_4="56.00185" pt_clust_5="193.79145" pt_clust_6="32.22172"></scales>
<clustering>
<clus scale="   32.222">  1  6  2 -1</clus>
<clus scale="   56.002">  1  4  2 -1</clus>
<clus scale="  193.791">  2  5  1 -1</clus>
<clus scale="  193.791">  2  3  1 -1</clus>
</clustering>
</event>
<event>
 6    0  0.4189111E+002  0.2515535E+03  0.7546771E-02  0.1112327E+00
          2   -1    0    0  502    0 -0.00000000000E+00  0.00000000000E+00  0.98414564175E+03  0.98414564175E+03  0.00000000000E+00 0.  1.
         21   -1    0    0  505  502  0.00000000000E+00 -0.00000000000E+00 -0.30810516384E+03  0.30810516384E+03  0.00000000000E+00 0.  1.
         21    1    1    2  503  504  0.19855824002E+03  0.93328249612E+02 -0.14355970731E+03  0.26219253692E+03  0.00000000000E+00 0.  1.
         21    1    1    2  504  501 -0.10477288338E+03 -0.32609734223E+02  0.44247702931E+03  0.45588010850E+03  0.00000000000E+00 0. -1.
         21    1    1    2  505  503 -0.59263521778E+01  0.51191268877E+02 -0.80146865857E+02  0.95284771952E+02  0.00000000000E+00 0.  1.
          2    1    1    2  501    0 -0.87859004459E+02 -0.11190978426E+03  0.45727002177E+03  0.47889338823E+03  0.00000000000E+00 0.  1.
<scales pt_clust_3="238.77888" pt_clust_4="69.85542" pt_clust_5="51.53317" pt_clust_6="69.85542"></scales>
<clustering>
<clus scale="   51.533">  2  5  1 -1</clus>
<clus scale="   69.855">  4  6 -1 -1</clus>
<clus scale="  238.779">  2  3  1 -1</clus>
<clus scale="   51.533">  2  3  1 -1</clus>
</clustering>
</event>
<event>
 6    0  0.4189111E+002  0.8047840E+02  0.7546771E-02  0.1327699E+00
         21   -1    0    0  504  502  0.00000000000E+00  0.00000000000E+00  0.20445448593E+03  0.20445448593E+03  0.00000000000E+00 0. -1.
          1   -1    0    0  503    0 -0.00000000000E+00 -0.00000000000E+00 -0.20395041557E+04  0.20395041557E+04  0.00000000000E+00 0.  1.
         21    1    1    2  503  502 -0.36525822672E+02  0.47149219070E+02 -0.26959934487E+03  0.27611771283E+03  0.00000000000E+00 0. -1.
         21    1    1    2  504  505  0.10885839778E+02  0.35984425420E+02  0.17140403557E+03  0.17547855649E+03  0.00000000000E+00 0. -1.
         21    1    1    2  505  501 -0.84007246668E+02 -0.67851377092E+01 -0.45575761099E+02  0.95814433079E+02  0.00000000000E+00 0. -1.
          1    1    1    2  501    0  0.10964722956E+03 -0.76348506780E+02 -0.16912785993E+04  0.16965479392E+04  0.00000000000E+00 0.  1.
<scales pt_clust_3="62.01470" pt_clust_4="37.59495" pt_clust_5="80.47840" pt_clust_6="14000.00000"></scales>
<clustering>
<clus scale="   37.595">  1  4  2 -1</clus>
<clus scale="   62.015">  2  3  1 -1</clus>
<clus scale="   80.478">  1  5  2 -1</clus>
<clus scale="   37.595">  1  3  2 -1</clus>
</clustering>
</event>
<event>
 6    0  0.4189111E+002  0.1661215E+03  0.7546771E-02  0.1181954E+00
         21   -1    0    0  501  502  0.00000000000E+00  0.00000000000E+00  0.10259883424E+03  0.10259883424E+03  0.00000000000E+00 0. -1.
          2   -1    0    0  504    0 -0.00000000000E+00 -0.00000000000E+00 -0.14775575039E+04  0.14775575039E+04  0.00000000000E+00 0. -1.
         21    1    1    2  503  502 -0.24490545792E+02  0.64085731056E+02  0.21897546664E+02  0.72015764302E+02  0.00000000000E+00 0. -1.
         21    1    1    2  504  505 -0.38046959123E+02  0.13826316666E+02 -0.12001072003E+03  0.12665429741E+03  0.00000000000E+00 0. -1.
         21    1    1    2  505  503 -0.81090855828E+02  0.46227370992E+02 -0.28095820339E+01  0.93384101853E+02  0.00000000000E+00 0. -1.
          2    1    1    2  501    0  0.14362836074E+03 -0.12413941871E+03 -0.12740359143E+04  0.12881021746E+04  0.00000000000E+00 0. -1.
<scales pt_clust_3="51.77643" pt_clust_4="40.48133" pt_clust_5="51.77643" pt_clust_6="154.66088"></scales>
<clustering>
<clus scale="   40.481">  2  4  1 -1</clus>
<clus scale="   51.776">  3  5 -1 -1</clus>
<clus scale="  154.661">  2  6  1 -1</clus>
<clus scale="  166.121">  1  3  2 -1</clus>
</clustering>
</event>
<event>
 6    0  0.4189111E+002  0.2372793E+03  0.7546771E-02  0.1121619E+00
          2   -1    0    0  505    0 -0.00000000000E+00  0.00000000000E+00  0.97550499357E+03  0.97550499357E+03  0.00000000000E+00 0.  1.
         21   -1    0    0  503  502  0.00000000000E+00 -0.00000000000E+00 -0.88507486284E+02  0.88507486284E+02  0.00000000000E+00 0. -1.
         21    1    1    2  503  501  0.87137188578E+01 -0.39442629534E+02  0.24596388854E+03  0.24925866964E+03  0.00000000000E+00 0.  1.
         21    1    1    2  504  502  0.36205077596E+02  0.39941037673E+02  0.30469806907E+02  0.61923366084E+02  0.00000000000E+00 0.  1.
         21    1    1    2  505  504 -0.12796374285E+03  0.16839532827E+03  0.16209427378E+03  0.26646999767E+03  0.00000000000E+00 0. -1.
          2    1    1    2  501    0  0.83044946398E+02 -0.16889373641E+03  0.44846953806E+03  0.48636044646E+03  0.00000000000E+00 0.  1.
<scales pt_clust_3="38.96481" pt_clust_4="53.90820" pt_clust_5="221.87261" pt_clust_6="38.96481"></scales>
<clustering>
<clus scale="   38.965">  3  6 -1 -1</clus>
<clus scale="   53.908">  2  4  1 -1</clus>
<clus scale="  221.873">  2  5  1 -1</clus>
<clus scale="   53.908">  2  3  1 -1</clus>
</clustering>
</event>
<event>
 6    0  0.4189111E+002  0.9850987E+02  0.7546771E-02  0.1283461E+00
          2   -1    0    0  503    0 -0.00000000000E+00  0.00000000000E+00  0.14679549795E+04  0.14679549795E+04  0.00000000000E+00 0. -1.
         21   -1    0    0  505  502  0.00000000000E+00 -0.00000000000E+00 -0.17869942561E+03  0.17869942561E+03  0.00000000000E+00 0. -1.
         21    1    1    2  503  502 -0.69353803542E+02 -0.10504998042E+03 -0.13619472899E+03  0.18545741468E+03  0.00000000000E+00 0. -1.
         21    1    1    2  504  501  0.51629614228E+02  0.53550812350E+02  0.20409043683E+03  0.21722387754E+03  0.00000000000E+00 0. -1.
         21    1    1    2  505  504  0.30244146516E+02  0.10161100439E+02  0.12381793157E+02  0.34223751437E+02  0.00000000000E+00 0.  1.
          2    1    1    2  501    0 -0.12519957201E+02  0.41338067632E+02  0.12089780529E+04  0.12097493615E+04  0.00000000000E+00 0. -1.
<scales pt_clust_3="14000.00000" pt_clust_4="98.50987" pt_clust_5="31.90543" pt_clust_6="43.19468"></scales>
<clustering>
<clus scale="   31.905">  2  5  1 -1</clus>
<clus scale="   43.195">  1  6  2 -1</clus>
<clus scale="   98.510">  1  4  2 -1</clus>
<clus scale="   31.905">  2  3  1 -1</clus>
</clustering>
</event>
<event>
 6    0  0.4189111E+002  0.2213883E+03  0.7546771E-02  0.1132852E+00
         21   -1    0    0  504  502  0.00000000000E+00  0.00000000000E+00  0.15777474785E+03  0.15777474785E+03  0.00000000000E+00 0.  1.
          2   -1    0    0  505    0 -0.00000000000E+00 -0.00000000000E+00 -0.19774016765E+04  0.19774016765E+04  0.00000000000E+00 0.  1.
         21    1    1    2  503  502  0.34488652340E+02 -0.22923506074E+02  0.12923422128E+03  0.13570717822E+03  0.00000000000E+00 0.  1.
         21    1    1    2  504  501  0.18871486157E+02  0.11366057972E+03 -0.59210599887E+03  0.60321171596E+03  0.00000000000E+00 0.  1.
         21    1    1    2  505  503 -0.39680164030E+02 -0.20494200552E+03 -0.74052985812E+03  0.76938950592E+03  0.00000000000E+00 0.  1.
          2    1    1    2  501    0 -0.13679974467E+02  0.11420493188E+03 -0.61622529292E+03  0.62686802423E+03  0.00000000000E+00 0.  1.
<scales pt_clust_3="41.41201" pt_clust_4="32.86609" pt_clust_5="218.93092" pt_clust_6="32.86609"></scales>
<clustering>
<clus scale="   32.866">  4  6 -1 -1</clus>
<clus scale="   41.412">  1  3  2 -1</clus>
<clus scale="  218.931">  1  5  2 -1</clus>
<clus scale="   41.412">  1  3  2 -1</clus>
</clustering>
</event>
<event>
 6    0  0.4189111E+002  0.1374839E+03  0.7546771E-02  0.1216755E+00
         21   -1    0    0  505  502  0.00000000000E+00  0.00000000000E+00  0.18216871552E+03  0.18216871552E+03  0.00000000000E+00 0. -1.
          2   -1    0    0  504    0 -0.00000000000E+00 -0.00000000000E+00 -0.42674019797E+04  0.42674019797E+04  0.00000000000E+00 0. -1.
         21    1    1    2  503  502  0.48031308082E+02  0.13852436745E+02  0.96688067603E+01  0.50915443472E+02  0.00000000000E+00 0. -1.
         21    1    1    2  504  503  0.56259710528E+02 -0.78313053626E+02 -0.88052509271E+03  0.88578921211E+03  0.00000000000E+00 0.  1.
         21    1    1    2  505  501 -0.22242236091E+02 -0.14722123837E+03  0.10724498364E+03  0.18349467733E+03  0.00000000000E+00 0. -1.
          2    1    1    2  501    0 -0.82048782518E+02  0.21168185525E+03 -0.33216219618E+04  0.33293713623E+04  0.00000000000E+00 0. -1.
<scales pt_clust_3="49.98896" pt_clust_4="96.72073" pt_clust_5="14000.00000" pt_clust_6="137.48395"></scales>
<clustering>
<clus scale="   49.989">  1  3  2 -1</clus>
<clus scale="   96.721">  2  4  1 -1</clus>
<clus scale="  137.484">  2  6  1 -1</clus>
<clus scale="   49.989">  1  3  2 -1</clus>
</clustering>
</event>
<event>
 6    0  0.4189111E+002  0.1709298E+03  0.7546771E-02  0.1176882E+00
          2   -1    0    0  505    0 -0.00000000000E+00  0.00000000000E+00  0.47803404719E+03  0.47803404719E+03  0.00000000000E+00 0.  1.
         21   -1    0    0  503  502  0.00000000000E+00 -0.00000000000E+00 -0.23433071282E+03  0.23433071282E+03  0.00000000000E+00 0.  1.
         21    1    1    2  503  504 -0.32761692653E+01 -0.41978121949E+02 -0.12281444343E+03  0.12983175083E+03  0.00000000000E+00 0.  1.
         21    1    1    2  504  501  0.18553367541E+03 -0.21464257290E+02  0.49038765158E+02  0.19310168187E+03  0.00000000000E+00 0.  1.
         21    1    1    2  505  502 -0.69785148184E+02 -0.25758142840E+02  0.64013928689E+02  0.98138839895E+02  0.00000000000E+00 0.  1.
          2    1    1    2  501    0 -0.11247235796E+03  0.89200522079E+02  0.25346508395E+03  0.29129248742E+03  0.00000000000E+00 0.  1.
<scales pt_clust_3="42.10577" pt_clust_4="170.92980" pt_clust_5="77.40515" pt_clust_6="14000.00000"></scales>
<clustering>
<clus scale="   42.106">  2  3  1 -1</clus>
<clus scale="   77.405">  1  5  2 -1</clus>
<clus scale="  170.930">  2  4  1 -1</clus>
<clus scale="   42.106">  2  3  1 -1</clus>
</clustering>
</event>
<event>
 6    0  0.4189111E+002  0.1436374E+03  0.7546771E-02  0.1208517E+00
         21   -1    0    0  503  502  0.00000000000E+00  0.00000000000E+00  0.31471593931E+03  0.31471593931E+03  0.00000000000E+00 0. -1.
         -4   -1    0    0    0  501 -0.00000000000E+00 -0.00000000000E+00 -0.18184061850E+04  0.18184061850E+04  0.00000000000E+00 0. -1.
         21    1    1    2  503  501 -0.12448608559E+02  0.51484002015E+02 -0.26751787652E+03  0.27271117428E+03  0.00000000000E+00 0.  1.
         21    1    1    2  504  502  0.44030730172E+02  0.28042860738E+02  0.16927656964E+03  0.17714306159E+03  0.00000000000E+00 0. -1.
         21    1    1    2  505  504  0.82337305176E+02  0.11761336268E+02  0.12266095741E+03  0.14820078045E+03  0.00000000000E+00 0. -1.
         -4    1    1    2    0  505 -0.11391942679E+03 -0.91288199021E+02 -0.15281098962E+04  0.15350671080E+04  0.00000000000E+00 0. -1.
<scales pt_clust_3="52.96763" pt_clust_4="43.88044" pt_clust_5="43.88044" pt_clust_6="132.52870"></scales>
<clustering>
<clus scale="   43.880">  4  5 -1 -1</clus>
<clus scale="   52.968">  2  3  1 -1</clus>
<clus scale="  132.529">  2  6  1 -1</clus>
<clus scale="  143.637">  1  3  2 -1</clus>
</clustering>
</event>
<event>
 6    0  0.4189111E+002  0.1395873E+03  0.7546771E-02  0.1213885E+00
         21   -1    0    0  505  502  0.00000000000E+00  0.00000000000E+00  0.27593988354E+02  0.27593988354E+02  0.00000000000E+00 0.  1.
          2   -1    0    0  504    0 -0.00000000000E+00 -0.00000000000E+00 -0.17423906222E+04  0.17423906222E+04  0.00000000000E+00 0.  1.
         21    1    1    2  503  501  0.89667184623E+02 -0.33297890483E+02 -0.69506423610E+03  0.70161474173E+03  0.00000000000E+00 0.  1.
         21    1    1    2  504  502 -0.86448914534E+02 -0.32478237262E+02 -0.18774060013E+03  0.20922424252E+03  0.00000000000E+00 0.  1.
         21    1    1    2  505  503 -0.66843168124E+02  0.63375025676E+02 -0.16376153899E+03  0.18788891574E+03  0.00000000000E+00 0.  1.
          2    1    1    2  501    0  0.63624898035E+02  0.24011020690E+01 -0.66823025858E+03  0.67125671053E+03  0.00000000000E+00 0.  1.
<scales pt_clust_3="34.14107" pt_clust_4="133.16734" pt_clust_5="92.11082" pt_clust_6="34.14107"></scales>
<clustering>
<clus scale="   34.141">  3  6 -1 -1</clus>
<clus scale="   92.111">  1  5  2 -1</clus>
<clus scale="  133.167">  1  4  2 -1</clus>
<clus scale="   92.111">  1  3  2 -1</clus>
</clustering>
</event>
<event>
 6    0  0.4189111E+002  0.1070214E+03  0.7546771E-02  0.1266187E+00
         21   -1    0    0  505  502  0.00000000000E+00  0.00000000000E+00  0.94733651158E+02  0.94733651158E+02  0.00000000000E+00 0.  1.
          3   -1    0    0  503    0 -0.00000000000E+00 -0.00000000000E+00 -0.22246525431E+04  0.22246525431E+04  0.00000000000E+00 0.  1.
         21    1    1    2  503  504 -0.33246351741E+02 -0.27227493392E+01 -0.99672191407E+02  0.10510603697E+03  0.00000000000E+00 0. -1.
         21    1    1    2  504  502  0.41759341823E+01 -0.10540008146E+03  0.22964586471E+02  0.10795363741E+03  0.00000000000E+00 0.  1.
         21    1    1    2  505  501 -0.59250410895E+02  0.13174614278E+02 -0.13096076715E+02  0.62094193593E+02  0.00000000000E+00 0.  1.
          3    1    1    2  501    0  0.88320828454E+02  0.94948216523E+02 -0.20401152103E+04  0.20442323263E+04  0.00000000000E+00 0.  1.
<scales pt_clust_3="33.35766" pt_clust_4="107.02138" pt_clust_5="61.26215" pt_clust_6="14000.00000"></scales>
<clustering>
<clus scale="   33.358">  2  3  1 -1</clus>
<clus scale="   61.262">  1  5  2 -1</clus>
<clus scale="  107.021">  1  4  2 -1</clus>
<clus scale="   61.262">  1  3  2 -1</clus>
</clustering>
</event>
<event>
 6    0  0.4189111E+002  0.7886621E+02  0.7546771E-02  0.1332300E+00
         21   -1    0    0  501  502  0.00000000000E+00  0.00000000000E+00  0.88206072720E+03  0.88206072720E+03  0.00000000000E+00 0.  1.
          1   -1    0    0  505    0 -0.00000000000E+00 -0.00000000000E+00 -0.57844909321E+03  0.57844909321E+03  0.00000000000E+00 0. -1.
         21    1    1    2  503  502 -0.55979948086E+02  0.55792655523E+02  0.83594139402E+03  0.83966933327E+03  0.00000000000E+00 0.  1.
         21    1    1    2  504  503  0.67741575539E+02  0.39158724364E+02 -0.38982440446E+02  0.87418289925E+02  0.00000000000E+00 0.  1.
         21    1    1    2  505  504  0.25144142470E+01 -0.33011943435E+02  0.27944455161E+01  0.33225285765E+02  0.00000000000E+00 0. -1.
          1    1    1    2  501    0 -0.14276041700E+02 -0.61939436452E+02 -0.49614176509E+03  0.50019691145E+03  0.00000000000E+00 0. -1.
<scales pt_clust_3="78.86621" pt_clust_4="76.70883" pt_clust_5="33.10756" pt_clust_6="14000.00000"></scales>
<clustering>
<clus scale="   33.108">  2  5  1 -1</clus>
<clus scale="   76.709">  2  4  1 -1</clus>
<clus scale="   78.866">  1  3  2 -1</clus>
<clus scale="   78.866">  1  3  2 -1</clus>
</clustering>
</event>
<event>
 6    0  0.4189111E+002  0.9876355E+02  0.7546771E-02  0.1282918E+00
         21   -1    0    0  504  502  0.00000000000E+00  0.00000000000E+00  0.10154652231E+04  0.10154652231E+04  0.00000000000E+00 0.  1.
         -1   -1    0    0    0  501 -0.00000000000E+00 -0.00000000000E+00 -0.21768937904E+03  0.21768937904E+03  0.00000000000E+00 0. -1.
         21    1    1    2  503  501 -0.21073954365E+02  0.35340588610E+02 -0.27312894367E+02  0.49386870265E+02  0.00000000000E+00 0. -1.
         21    1    1    2  504  505 -0.41057702653E+02  0.10975727308E+02  0.38337232019E+03  0.38572080243E+03  0.00000000000E+00 0.  1.
         21    1    1    2  505  503 -0.11108755346E+02  0.73520252102E+02  0.58950078251E+03  0.59417152784E+03  0.00000000000E+00 0.  1.
         -1    1    1    2    0  502  0.73240412364E+02 -0.11983656802E+03 -0.14778436430E+03  0.20387540158E+03  0.00000000000E+00 0. -1.
<scales pt_clust_3="41.14692" pt_clust_4="42.69291" pt_clust_5="98.76355" pt_clust_6="14000.00000"></scales>
<clustering>
<clus scale="   41.147">  2  3  1 -1</clus>
<clus scale="   42.693">  1  4  2 -1</clus>
<clus scale="   98.764">  1  5  2 -1</clus>
<clus scale="   42.693">  1  3  2 -1</clus>
</clustering>
</event>
<event>
 6    0  0.4189111E+002  0.8963316E+02  0.7546771E-02  0.1303742E+00
         -4   -1    0    0    0  501 -0.00000000000E+00  0.00000000000E+00  0.13426543005E+03  0.13426543005E+03  0.00000000000E+00 0.  1.
         21   -1    0    0  503  502  0.00000000000E+00 -0.00000000000E+00 -0.12039320978E+04  0.12039320978E+04  0.00000000000E+00 0.  1.
         21    1    1    2  503  504 -0.70024400974E+02  0.58242104115E+02 -0.10632839224E+04  0.10671777074E+04  0.00000000000E+00 0.  1.
         21    1    1    2  504  505  0.89222347970E+02 -0.91321015744E+01 -0.89008731756E+02  0.12635892127E+03  0.00000000000E+00 0.  1.
         21    1    1    2  505  501 -0.30466879561E+02 -0.14109994152E+01 -0.16063467597E+02  0.34471098920E+02  0.00000000000E+00 0.  1.
         -4    1    1    2    0  502  0.11268932565E+02 -0.47699003126E+02  0.98689454047E+02  0.11018980026E+03  0.00000000000E+00 0.  1.
<scales pt_clust_3="89.63316" pt_clust_4="14000.00000" pt_clust_5="30.49954" pt_clust_6="50.89106"></scales>
<clustering>
<clus scale="   30.500">  1  5  2 -1</clus>
<clus scale="   50.891">  1  6  2 -1</clus>
<clus scale="   89.633">  2  3  1 -1</clus>
<clus scale="   89.633">  2  3  1 -1</clus>
</clustering>
</event>
<event>
 6    0  0.4189111E+002  0.1306169E+03  0.7546771E-02  0.1226543E+00
          2   -1    0    0  503    0 -0.00000000000E+00  0.00000000000E+00  0.11342340247E+04  0.11342340247E+04  0.00000000000E+00 0. -1.
         21   -1    0    0  505  502  0.00000000000E+00 -0.00000000000E+00 -0.14221961977E+03  0.14221961977E+03  0.00000000000E+00 0. -1.
         21    1    1    2  503  504 -0.11537961308E+03 -0.77714623815E+01  0.69896274631E+02  0.13512342488E+03  0.00000000000E+00 0. -1.
         21    1    1    2  504  502  0.54597478447E+01 -0.35292390620E+02 -0.10238826515E+03  0.10843762503E+03  0.00000000000E+00 0. -1.
         21    1    1    2  505  501  0.61443693397E+02 -0.22487518300E+01  0.37521472951E+03  0.38021898636E+03  0.00000000000E+00 0.  1.
          2    1    1    2  501    0  0.48476171842E+02  0.45312604831E+02  0.64929166595E+03  0.65267360822E+03  0.00000000000E+00 0. -1.
<scales pt_clust_3="117.23428" pt_clust_4="35.71221" pt_clust_5="56.05064" pt_clust_6="56.05064"></scales>
<clustering>
<clus scale="   35.712">  2  4  1 -1</clus>
<clus scale="   56.051">  5  6 -1 -1</clus>
<clus scale="  117.234">  2  3  1 -1</clus>
<clus scale="   35.712">  2  3  1 -1</clus>
</clustering>
</event>
<event>
 6    0  0.4189111E+002  0.1214325E+03  0.7546771E-02  0.1240752E+00
          2   -1    0    0  504    0 -0.00000000000E+00  0.00000000000E+00  0.13697546786E+04  0.13697546786E+04  0.00000000000E+00 0.  1.
         21   -1    0    0  501  502  0.00000000000E+00 -0.00000000000E+00 -0.25830564522E+03  0.25830564522E+03  0.00000000000E+00 0.  1.
         21    1    1    2  503  505 -0.11458621171E+03 -0.37591945745E+02 -0.18921618381E+00  0.12059514958E+03  0.00000000000E+00 0.  1.
         21    1    1    2  504  503  0.30633452448E+02  0.19215036430E+02  0.53658232873E+02  0.64705733818E+02  0.00000000000E+00 0.  1.
         21    1    1    2  505  502  0.31730571587E+02 -0.56920964769E+02 -0.18513599449E+03  0.19627063422E+03  0.00000000000E+00 0.  1.
          2    1    1    2  501    0  0.52222187674E+02  0.75297874083E+02  0.12431160112E+04  0.12464888062E+04  0.00000000000E+00 0.  1.
<scales pt_clust_3="121.43252" pt_clust_4="36.16111" pt_clust_5="65.15992" pt_clust_6="14000.00000"></scales>
<clustering>
<clus scale="   36.161">  1  4  2 -1</clus>
<clus scale="   65.160">  2  5  1 -1</clus>
<clus scale="  121.433">  2  3  1 -1</clus>
<clus scale="   65.160">  2  3  1 -1</clus>
</clustering>
</event>
<event>
 6    0  0.4189111E+002  0.8222171E+02  0.7546771E-02  0.1322862E+00
          2   -1    0    0  505    0 -0.00000000000E+00  0.00000000000E+00  0.28746618885E+03  0.28746618885E+03  0.00000000000E+00 0.  1.
         21   -1    0    0  503  502  0.00000000000E+00 -0.00000000000E+00 -0.32211690808E+03  0.32211690808E+03  0.00000000000E+00 0. -1.
         21    1    1    2  503  501  0.45666834000E+02  0.76360547699E+02 -0.25700298217E+03  0.27196861183E+03  0.00000000000E+00 0. -1.
         21    1    1    2  504  502 -0.47260363367E+02  0.88076818399E+01 -0.19238033821E+02  0.51780490054E+02  0.00000000000E+00 0. -1.
         21    1    1    2  505  504 -0.42092417764E+02 -0.24647433216E+02  0.21269938462E+02  0.53213512189E+02  0.00000000000E+00 0. -1.
          2    1    1    2  501    0  0.43685947130E+02 -0.60520796323E+02  0.22032035831E+03  0.23262048287E+03  0.00000000000E+00 0.  1.
<scales pt_clust_3="14000.00000" pt_clust_4="48.07408" pt_clust_5="50.83272" pt_clust_6="82.22171"></scales>
<clustering>
<clus scale="   48.074">  2  4  1 -1</clus>
<clus scale="   50.833">  1  5  2 -1</clus>
<clus scale="   82.222">  1  6  2 -1</clus>
<clus scale="   48.074">  2  3  1 -1</clus>
</clustering>
</event>
<event>
 6    0  0.4189111E+002  0.1144994E+03  0.7546771E-02  0.1252457E+00
         21   -1    0    0  503  502  0.00000000000E+00  0.00000000000E+00  0.40734259012E+03  0.40734259012E+03  0.00000000000E+00 0.  1.
          2   -1    0    0  504    0 -0.00000000000E+00 -0.00000000000E+00 -0.12075480951E+04  0.12075480951E+04  0.00000000000E+00 0.  1.
         21    1    1    2  503  505  0.47783606690E+02 -0.18075331113E+02  0.37346940212E+02  0.63283367534E+02  0.00000000000E+00 0. -1.
         21    1    1    2  504  502  0.34059674081E+02 -0.77848102164E+01 -0.15537179114E+02  0.38237005681E+02  0.00000000000E+00 0.  1.
         21    1    1    2  505  501 -0.18399998194E+03  0.76007622401E+02  0.31393334237E+03  0.37173551817E+03  0.00000000000E+00 0.  1.
          2    1    1    2  501    0  0.10215670116E+03 -0.50147481071E+02 -0.11359486085E+04  0.11416347939E+04  0.00000000000E+00 0.  1.
<scales pt_clust_3="55.48907" pt_clust_4="34.93801" pt_clust_5="14000.00000" pt_clust_6="114.49944"></scales>
<clustering>
<clus scale="   34.938">  1  4  2 -1</clus>
<clus scale="   55.489">  1  3  2 -1</clus>
<clus scale="  114.499">  2  6  1 -1</clus>
<clus scale="   34.938">  1  3  2 -1</clus>
</clustering>
</event>
<event>
 6    0  0.4189111E+002  0.9943456E+02  0.7546771E-02  0.1281489E+00
         21   -1    0    0  504  502  0.00000000000E+00  0.00000000000E+00  0.29258408830E+03  0.29258408830E+03  0.00000000000E+00 0. -1.
          2   -1    0    0  505    0 -0.00000000000E+00 -0.00000000000E+00 -0.73693061843E+03  0.73693061843E+03  0.00000000000E+00 0. -1.
         21    1    1    2  503  502  0.39475850668E+01  0.82650302838E+02  0.10097329562E+03  0.13054601647E+03  0.00000000000E+00 0. -1.
         21    1    1    2  504  501 -0.79438200713E+02 -0.11614380712E+02  0.16269654764E+03  0.18142626102E+03  0.00000000000E+00 0. -1.
         21    1    1    2  505  503  0.33429359010E+02 -0.13922560575E+02 -0.12235145659E+03  0.12759795714E+03  0.00000000000E+00 0.  1.
          2    1    1    2  501    0  0.42061256636E+02 -0.57113361552E+02 -0.58566491681E+03  0.58994447210E+03  0.00000000000E+00 0. -1.
<scales pt_clust_3="14000.00000" pt_clust_4="79.80790" pt_clust_5="36.21270" pt_clust_6="99.43456"></scales>
<clustering>
<clus scale="   36.213">  2  5  1 -1</clus>
<clus scale="   79.808">  1  4  2 -1</clus>
<clus scale="   99.435">  2  6  1 -1</clus>
<clus scale="   79.808">  1  3  2 -1</clus>
</clustering>
</event>
<event>
 6    0  0.4189111E+002  0.1614138E+03  0.7546771E-02  0.1187110E+00
         21   -1    0    0  504  502  0.00000000000E+00  0.00000000000E+00  0.31942628202E+03  0.31942628202E+03  0.00000000000E+00 0. -1.
          1   -1    0    0  503    0 -0.00000000000E+00 -0.00000000000E+00 -0.17636353527E+04  0.17636353527E+04  0.00000000000E+00 0. -1.
         21    1    1    2  503  502  0.19391317232E+02  0.82992449668E+02  0.81994294051E+02  0.11826594667E+03  0.00000000000E+00 0.  1.
         21    1    1    2  504  505  0.11881338980E+03 -0.16530000130E+03  0.15677926249E+03  0.25694444764E+03  0.00000000000E+00 0. -1.
         21    1    1    2  505  501 -0.62180450750E+02  0.16554049031E+03 -0.96389292064E+03  0.97997940021E+03  0.00000000000E+00 0. -1.
          1    1    1    2  501    0 -0.76024256277E+02 -0.83232938676E+02 -0.71908970658E+03  0.72787184018E+03  0.00000000000E+00 0. -1.
<scales pt_clust_3="85.22775" pt_clust_4="161.41378" pt_clust_5="14000.00000" pt_clust_6="111.24141"></scales>
<clustering>
<clus scale="   85.228">  1  3  2 -1</clus>
<clus scale="  111.241">  2  6  1 -1</clus>
<clus scale="  161.414">  1  4  2 -1</clus>
<clus scale="   85.228">  1  3  2 -1</clus>
</clustering>
</event>
<event>
 6    0  0.4189111E+002  0.1223839E+03  0.7546771E-02  0.1239215E+00
         21   -1    0    0  503  502  0.00000000000E+00  0.00000000000E+00  0.70071919940E+03  0.70071919940E+03  0.00000000000E+00 0. -1.
          2   -1    0    0  505    0 -0.00000000000E+00 -0.00000000000E+00 -0.29580730755E+03  0.29580730755E+03  0.00000000000E+00 0. -1.
         21    1    1    2  503  501  0.23810341109E+02  0.18662564490E+02  0.25560445960E+03  0.25738854563E+03  0.00000000000E+00 0. -1.
         21    1    1    2  504  502  0.11850626037E+02 -0.69867461047E+02  0.37244441858E+03  0.37912629081E+03  0.00000000000E+00 0. -1.
         21    1    1    2  505  504  0.45261960600E+02 -0.62122328898E+02  0.20355236443E+02  0.79512039816E+02  0.00000000000E+00 0.  1.
          2    1    1    2  501    0 -0.80922927745E+02  0.11332722545E+03 -0.24349222278E+03  0.28049963069E+03  0.00000000000E+00 0. -1.
<scales pt_clust_3="30.25266" pt_clust_4="62.83461" pt_clust_5="122.38387" pt_clust_6="14000.00000"></scales>
<clustering>
<clus scale="   30.253">  1  3  2 -1</clus>
<clus scale="   62.835">  1  4  2 -1</clus>
<clus scale="  122.384">  1  5  2 -1</clus>
<clus scale="   30.253">  1  3  2 -1</clus>
</clustering>
</event>
<event>
 6    0  0.4189111E+002  0.8439450E+02  0.7546771E-02  0.1317024E+00
         21   -1    0    0  501  502  0.00000000000E+00  0.00000000000E+00  0.20156256520E+03  0.20156256520E+03  0.00000000000E+00 0. -1.
          1   -1    0    0  505    0 -0.00000000000E+00 -0.00000000000E+00 -0.10468486544E+04  0.10468486544E+04  0.00000000000E+00 0. -1.
         21    1    1    2  503  504  0.14968249092E+03  0.60441083351E+02 -0.13239467845E+03  0.20877337840E+03  0.00000000000E+00 0. -1.
         21    1    1    2  504  502 -0.72322589067E+02 -0.33732100400E+02  0.14595723602E+03  0.16634880893E+03  0.00000000000E+00 0. -1.
         21    1    1    2  505  503 -0.54334221087E+02  0.36941674740E+02 -0.65945030654E+03  0.66271532479E+03  0.00000000000E+00 0. -1.
          1    1    1    2  501    0 -0.23025680763E+02 -0.63650657692E+02 -0.19939834019E+03  0.21057370745E+03  0.00000000000E+00 0. -1.
<scales pt_clust_3="84.39450" pt_clust_4="14000.00000" pt_clust_5="65.70308" pt_clust_6="68.05277"></scales>
<clustering>
<clus scale="   65.703">  2  5  1 -1</clus>
<clus scale="   68.053">  2  6  1 -1</clus>
<clus scale="   84.394">  2  3  1 -1</clus>
<clus scale="   84.394">  1  3  2 -1</clus>
</clustering>
</event>
<event>
 6    0  0.4189111E+002  0.1321868E+03  0.7546771E-02  0.1224246E+00
         21   -1    0    0  505  502  0.00000000000E+00  0.00000000000E+00  0.13145246754E+02  0.13145246754E+02  0.00000000000E+00 0. -1.
          1   -1    0    0  504    0 -0.00000000000E+00 -0.00000000000E+00 -0.31497470855E+04  0.31497470855E+04  0.00000000000E+00 0. -1.
         21    1    1    2  503  502  0.43125252007E+00  0.50388098720E+02 -0.77699610806E+02  0.92608725241E+02  0.00000000000E+00 0. -1.
         21    1    1    2  504  503 -0.12315541571E+03 -0.63549321490E+01 -0.12065444959E+04  0.12128302693E+04  0.00000000000E+00 0. -1.
         21    1    1    2  505  501  0.39960927334E+02 -0.30853816691E+02 -0.51371509816E+03  0.51618992221E+03  0.00000000000E+00 0.  1.
          1    1    1    2  501    0  0.82763235854E+02 -0.13179349880E+02 -0.13386426339E+04  0.13412634155E+04  0.00000000000E+00 0. -1.
<scales pt_clust_3="50.38994" pt_clust_4="124.77888" pt_clust_5="33.86374" pt_clust_6="33.86374"></scales>
<clustering>
<clus scale="   33.864">  5  6 -1 -1</clus>
<clus scale="   50.390">  1  3  2 -1</clus>
<clus scale="  124.779">  1  4  2 -1</clus>
<clus scale="   50.390">  1  3  2 -1</clus>
</clustering>
</event>
<event>
 6    0  0.4189111E+002  0.9309067E+02  0.7546771E-02  0.1295535E+00
         21   -1    0    0  501  502  0.00000000000E+00  0.00000000000E+00  0.71064241954E+02  0.71064241954E+02  0.00000000000E+00 0.  1.
          2   -1    0    0  504    0 -0.00000000000E+00 -0.00000000000E+00 -0.14315135081E+04  0.14315135081E+04  0.00000000000E+00 0.  1.
         21    1    1    2  503  502  0.59609912066E+02  0.59447797029E+02 -0.11635778148E+02  0.84986902057E+02  0.00000000000E+00 0.  1.
         21    1    1    2  504  505  0.33622521775E+02 -0.15536820391E+01 -0.38761715629E+03  0.38907576094E+03  0.00000000000E+00 0.  1.
         21    1    1    2  505  503 -0.11954880218E+03 -0.34006966685E+02 -0.82678586712E+02  0.14927872784E+03  0.00000000000E+00 0.  1.
          2    1    1    2  501    0  0.26316368340E+02 -0.23887148305E+02 -0.87851774498E+03  0.87923635920E+03  0.00000000000E+00 0.  1.
<scales pt_clust_3="93.09067" pt_clust_4="33.65840" pt_clust_5="14000.00000" pt_clust_6="60.17285"></scales>
<clustering>
<clus scale="   33.658">  2  4  1 -1</clus>
<clus scale="   60.173">  2  6  1 -1</clus>
<clus scale="   93.091">  1  3  2 -1</clus>
<clus scale="   93.091">  1  3  2 -1</clus>
</clustering>
</event>
<event>
 6    0  0.4189111E+002  0.1311200E+03  0.7546771E-02  0.1225803E+00
         21   -1    0    0  505  502  0.00000000000E+00  0.00000000000E+00  0.40771852141E+03  0.40771852141E+03  0.00000000000E+00 0. -1.
         -1   -1    0    0    0  501 -0.00000000000E+00 -0.00000000000E+00 -0.13444436753E+03  0.13444436753E+03  0.00000000000E+00 0. -1.
         21    1    1    2  503  502  0.66877150901E+02 -0.15938860372E+02  0.50200690085E+02  0.85127609314E+02  0.00000000000E+00 0. -1.
         21    1    1    2  504  501  0.13840751713E+02 -0.65726094544E+02  0.14681054942E+03  0.16144603845E+03  0.00000000000E+00 0. -1.
         21    1    1    2  505  504 -0.15805451597E+02 -0.28609889877E+02  0.14616813104E+03  0.14977803787E+03  0.00000000000E+00 0. -1.
         -1    1    1    2    0  503 -0.64912451017E+02  0.11027484479E+03 -0.69905216661E+02  0.14581120330E+03  0.00000000000E+00 0. -1.
<scales pt_clust_3="68.75028" pt_clust_4="32.12515" pt_clust_5="32.12515" pt_clust_6="122.76679"></scales>
<clustering>
<clus scale="   32.125">  4  5 -1 -1</clus>
<clus scale="   68.750">  1  3  2 -1</clus>
<clus scale="  122.767">  2  6  1 -1</clus>
<clus scale="   68.750">  1  3  2 -1</clus>
</clustering>
</event>
<event>
 6    0  0.4189111E+002  0.8527395E+02  0.7546771E-02  0.1314718E+00
         21   -1    0    0  505  502  0.00000000000E+00  0.00000000000E+00  0.27134083769E+02  0.27134083769E+02  0.00000000000E+00 0. -1.
          1   -1    0    0  503    0 -0.00000000000E+00 -0.00000000000E+00 -0.12843640842E+04  0.12843640842E+04  0.00000000000E+00 0. -1.
         21    1    1    2  503  502  0.25955756732E+02 -0.24859778071E+02 -0.16493194936E+03  0.16880242235E+03  0.00000000000E+00 0. -1.
         21    1    1    2  504  501 -0.12272058290E+03  0.39037573122E+02 -0.60920218772E+03  0.62266490114E+03  0.00000000000E+00 0. -1.
         21    1    1    2  505  504  0.37970278264E+02 -0.31748193609E+02 -0.20811921008E+02  0.53691953633E+02  0.00000000000E+00 0. -1.
          1    1    1    2  501    0  0.58794547903E+02  0.17570398557E+02 -0.46228394230E+03  0.46633889080E+03  0.00000000000E+00 0. -1.
<scales pt_clust_3="35.94037" pt_clust_4="85.27395" pt_clust_5="50.68976" pt_clust_6="14000.00000"></scales>
<clustering>
<clus scale="   35.940">  2  3  1 -1</clus>
<clus scale="   50.690">  1  5  2 -1</clus>
<clus scale="   85.274">  1  4  2 -1</clus>
<clus scale="   50.690">  1  3  2 -1</clus>
</clustering>
</event>
<event>
 6    0  0.4189111E+002  0.2046573E+03  0.7546771E-02  0.1145868E+00
          2   -1    0    0  504    0 -0.00000000000E+00  0.00000000000E+00  0.24011421062E+03  0.24011421062E+03  0.00000000000E+00 0. -1.
         21   -1    0    0  503  502  0.00000000000E+00 -0.00000000000E+00 -0.14627941050E+04  0.14627941050E+04  0.00000000000E+00 0.  1.
         21    1    1    2  503  501  0.17240409649E+03 -0.11636260881E+03 -0.13575523540E+04  0.13733942708E+04  0.00000000000E+00 0.  1.
         21    1    1    2  504  505  0.24695625374E+02  0.17323426501E+02  0.53487242473E+01  0.30636316186E+02  0.00000000000E+00 0.  1.
         21    1    1    2  505  502 -0.97087369798E+02  0.13096675530E+03  0.64107189023E+02  0.17517985059E+03  0.00000000000E+00 0. -1.
          2    1    1    2  501    0 -0.10001235207E+03 -0.31927572995E+02  0.65416546379E+02  0.12369787801E+03  0.00000000000E+00 0. -1.
<scales pt_clust_3="14000.00000" pt_clust_4="30.16579" pt_clust_5="204.65728" pt_clust_6="92.80623"></scales>
<clustering>
<clus scale="   30.166">  1  4  2 -1</clus>
<clus scale="   92.806">  1  6  2 -1</clus>
<clus scale="  204.657">  1  5  2 -1</clus>
<clus scale="  204.657">  2  3  1 -1</clus>
</clustering>
</event>
<event>
 6    0  0.4189111E+002  0.1042685E+03  0.7546771E-02  0.1271568E+00
         21   -1    0    0  504  502  0.00000000000E+00  0.00000000000E+00  0.32688374124E+03  0.32688374124E+03  0.00000000000E+00 0.  1.
          2   -1    0    0  505    0 -0.00000000000E+00 -0.00000000000E+00 -0.68721540612E+03  0.68721540612E+03  0.00000000000E+00 0.  1.
         21    1    1    2  503  502 -0.80476119730E+02  0.21657263028E+02  0.75739100465E+02  0.11261373907E+03  0.00000000000E+00 0.  1.
         21    1    1    2  504  501  0.95222024966E+02  0.85399447140E+02  0.19360281791E+03  0.23203954558E+03  0.00000000000E+00 0.  1.
         21    1    1    2  505  503 -0.84777078950E+02 -0.68111326653E+02 -0.16302995350E+03  0.19597211963E+03  0.00000000000E+00 0.  1.
          2    1    1    2  501    0  0.70031173714E+02 -0.38945383515E+02 -0.46664362976E+03  0.47347374308E+03  0.00000000000E+00 0.  1.
<scales pt_clust_3="76.75614" pt_clust_4="104.26848" pt_clust_5="14000.00000" pt_clust_6="80.13182"></scales>
<clustering>
<clus scale="   80.132">  2  6  1 -1</clus>
<clus scale="   76.756">  1  3  2 -1</clus>
<clus scale="  104.268">  1  4  2 -1</clus>
<clus scale="   76.756">  1  3  2 -1</clus>
</clustering>
</event>
<event>
 6    0  0.4189111E+002  0.1159277E+03  0.7546771E-02  0.1249970E+00
         21   -1    0    0  503  502  0.00000000000E+00  0.00000000000E+00  0.17700425156E+03  0.17700425156E+03  0.00000000000E+00 0.  1.
          1   -1    0    0  504    0 -0.00000000000E+00 -0.00000000000E+00 -0.40078810992E+03  0.40078810992E+03  0.00000000000E+00 0.  1.
         21    1    1    2  503  505  0.21831107286E+02 -0.34045503467E+02  0.55298611566E+02  0.68510072200E+02  0.00000000000E+00 0.  1.
         21    1    1    2  504  502 -0.52359968312E+02 -0.86731654064E+02  0.71218054068E+02  0.12383843234E+03  0.00000000000E+00 0.  1.
         21    1    1    2  505  501  0.58631494848E+02  0.87406773792E+02 -0.17003136960E+03  0.19997065520E+03  0.00000000000E+00 0.  1.
          1    1    1    2  501    0 -0.28102633822E+02  0.33370383739E+02 -0.18026915439E+03  0.18547320174E+03  0.00000000000E+00 0.  1.
<scales pt_clust_3="40.44371" pt_clust_4="115.92769" pt_clust_5="14000.00000" pt_clust_6="42.72084"></scales>
<clustering>
<clus scale="   40.444">  1  3  2 -1</clus>
<clus scale="   42.721">  2  6  1 -1</clus>
<clus scale="  115.928">  1  4  2 -1</clus>
<clus scale="   40.444">  1  3  2 -1</clus>
</clustering>
</event>
<event>
 6    0  0.4189111E+002  0.1036681E+03  0.7546771E-02  0.1272766E+00
          2   -1    0    0  505    0 -0.00000000000E+00  0.00000000000E+00  0.23022676558E+04  0.23022676558E+04  0.00000000000E+00 0.  1.
         21   -1    0    0  503  502  0.00000000000E+00 -0.00000000000E+00 -0.14172832601E+03  0.14172832601E+03  0.00000000000E+00 0. -1.
         21    1    1    2  503  501 -0.83019339856E+02 -0.40937851550E+02  0.15853209242E+03  0.18357707593E+03  0.00000000000E+00 0.  1.
         21    1    1    2  504  502  0.10664038545E+03  0.14184364099E+03 -0.62971702626E+02  0.18830089121E+03  0.00000000000E+00 0. -1.
         21    1    1    2  505  504  0.20508080842E+02 -0.22243712633E+02  0.87496407432E+02  0.92579616790E+02  0.00000000000E+00 0.  1.
          2    1    1    2  501    0 -0.44129126434E+02 -0.78662076805E+02  0.19774825326E+04  0.19795383979E+04  0.00000000000E+00 0.  1.
<scales pt_clust_3="91.92997" pt_clust_4="14000.00000" pt_clust_5="30.25499" pt_clust_6="103.66807"></scales>
<clustering>
<clus scale="   30.255">  1  5  2 -1</clus>
<clus scale="   91.930">  2  3  1 -1</clus>
<clus scale="  103.668">  1  6  2 -1</clus>
<clus scale="   91.930">  2  3  1 -1</clus>
</clustering>
</event>
<event>
 6    0  0.4189111E+002  0.1246055E+03  0.7546771E-02  0.1235687E+00
         21   -1    0    0  501  502  0.00000000000E+00  0.00000000000E+00  0.82651572342E+02  0.82651572342E+02  0.00000000000E+00 0.  1.
          2   -1    0    0  503    0 -0.00000000000E+00 -0.00000000000E+00 -0.17880370605E+04  0.17880370605E+04  0.00000000000E+00 0.  1.
         21    1    1    2  503  504 -0.40170296363E+02  0.54704397445E+02 -0.61707537655E+03  0.62079645953E+03  0.00000000000E+00 0.  1.
         21    1    1    2  504  505  0.10707843802E+03 -0.11429478066E+03 -0.72862399543E+03  0.74526640572E+03  0.00000000000E+00 0.  1.
         21    1    1    2  505  502  0.13244371969E+02 -0.31790773727E+02  0.59184288952E+02  0.68475154193E+02  0.00000000000E+00 0.  1.
          2    1    1    2  501    0 -0.80152513628E+02  0.91381156940E+02 -0.41887040513E+03  0.43615061341E+03  0.00000000000E+00 0.  1.
<scales pt_clust_3="64.56633" pt_clust_4="14000.00000" pt_clust_5="34.43932" pt_clust_6="124.60548"></scales>
<clustering>
<clus scale="   34.439">  1  5  2 -1</clus>
<clus scale="   64.566">  2  3  1 -1</clus>
<clus scale="  124.605">  1  6  2 -1</clus>
<clus scale="   34.439">  1  3  2 -1</clus>
</clustering>
</event>
<event>
 6    0  0.4189111E+002  0.5934213E+02  0.7546771E-02  0.1400613E+00
          2   -1    0    0  503    0 -0.00000000000E+00  0.00000000000E+00  0.38900804937E+04  0.38900804937E+04  0.00000000000E+00 0.  1.
         21   -1    0    0  504  502  0.00000000000E+00 -0.00000000000E+00 -0.11089304480E+03  0.11089304480E+03  0.00000000000E+00 0.  1.
         21    1    1    2  503  505 -0.24583012926E+02 -0.17804096238E+02  0.71616678078E+03  0.71680971552E+03  0.00000000000E+00 0.  1.
         21    1    1    2  504  501  0.30760887534E+02  0.31624783652E+02 -0.13501160988E+02  0.46137192058E+02  0.00000000000E+00 0.  1.
         21    1    1    2  505  502 -0.86844358817E+02 -0.48606607086E+02 -0.49235857274E+02  0.11103474480E+03  0.00000000000E+00 0.  1.
          2    1    1    2  501    0  0.80666484209E+02  0.34785919672E+02  0.31257576864E+04  0.31269918861E+04  0.00000000000E+00 0.  1.
<scales pt_clust_3="30.35309" pt_clust_4="43.96381" pt_clust_5="59.34213" pt_clust_6="14000.00000"></scales>
<clustering>
<clus scale="   30.353">  1  3  2 -1</clus>
<clus scale="   43.964">  2  4  1 -1</clus>
<clus scale="   59.342">  2  5  1 -1</clus>
<clus scale="   43.964">  2  3  1 -1</clus>
</clustering>
</event>
<event>
 6    0  0.4189111E+002  0.8886364E+02  0.7546771E-02  0.1305627E+00
         -2   -1    0    0    0  501 -0.00000000000E+00  0.00000000000E+00  0.97445597945E+03  0.97445597945E+03  0.00000000000E+00 0.  1.
         21   -1    0    0  505  502  0.00000000000E+00 -0.00000000000E+00 -0.18896837366E+03  0.18896837366E+03  0.00000000000E+00 0.  1.
         21    1    1    2  503  504  0.11435622000E+03  0.91568575424E+02 -0.12732344714E+03  0.19409639164E+03  0.00000000000E+00 0.  1.
         21    1    1    2  504  501 -0.22466145351E+02  0.25126912967E+02  0.88488636889E+02  0.94690698068E+02  0.00000000000E+00 0.  1.
         21    1    1    2  505  503 -0.80546766926E+02 -0.12853247610E+02  0.55281782123E+02  0.98534578048E+02  0.00000000000E+00 0.  1.
         -2    1    1    2    0  502 -0.11343307724E+02 -0.10384224078E+03  0.76904063392E+03  0.77610268535E+03  0.00000000000E+00 0.  1.
<scales pt_clust_3="88.86364" pt_clust_4="33.70593" pt_clust_5="83.19022" pt_clust_6="14000.00000"></scales>
<clustering>
<clus scale="   33.706">  1  4  2 -1</clus>
<clus scale="   83.190">  2  5  1 -1</clus>
<clus scale="   88.864">  2  3  1 -1</clus>
<clus scale="   83.190">  2  3  1 -1</clus>
</clustering>
</event>
<event>
 6    0  0.4189111E+002  0.1240655E+03  0.7546771E-02  0.1236537E+00
         21   -1    0    0  504  502  0.00000000000E+00  0.00000000000E+00  0.10444111715E+03  0.10444111715E+03  0.00000000000E+00 0. -1.
          1   -1    0    0  505    0 -0.00000000000E+00 -0.00000000000E+00 -0.11667128694E+04  0.11667128694E+04  0.00000000000E+00 0.  1.
         21    1    1    2  503  502 -0.48880000772E+02 -0.74151235167E+02  0.44485060107E+02  0.99330663568E+02  0.00000000000E+00 0. -1.
         21    1    1    2  504  501  0.43177605559E+02  0.19177456088E+03 -0.39579390829E+03  0.44192149265E+03  0.00000000000E+00 0.  1.
         21    1    1    2  505  503  0.22966815535E+02 -0.44021760448E+02 -0.78152081989E+02  0.92591241098E+02  0.00000000000E+00 0.  1.
          1    1    1    2  501    0 -0.17264420322E+02 -0.73601565266E+02 -0.63281082210E+03  0.63731058926E+03  0.00000000000E+00 0.  1.
<scales pt_clust_3="89.43081" pt_clust_4="124.06546" pt_clust_5="49.65269" pt_clust_6="14000.00000"></scales>
<clustering>
<clus scale="   49.653">  2  5  1 -1</clus>
<clus scale="   89.431">  1  3  2 -1</clus>
<clus scale="  124.065">  1  4  2 -1</clus>
<clus scale="   89.431">  1  3  2 -1</clus>
</clustering>
</event>
<event>
 6    0  0.4189111E+002  0.9863251E+02  0.7546771E-02  0.1283198E+00
          2   -1    0    0  503    0 -0.00000000000E+00  0.00000000000E+00  0.63783388914E+03  0.63783388914E+03  0.00000000000E+00 0. -1.
         21   -1    0    0  505  502  0.00000000000E+00 -0.00000000000E+00 -0.24971376816E+03  0.24971376816E+03  0.00000000000E+00 0.  1.
         21    1    1    2  503  504 -0.39058900178E+02 -0.25006844095E+02  0.11390890383E+03  0.12298852917E+03  0.00000000000E+00 0.  1.
         21    1    1    2  504  502  0.21556341364E+02  0.47970741086E+02  0.55374005367E+02  0.76368503480E+02  0.00000000000E+00 0.  1.
         21    1    1    2  505  501  0.87180432391E+02 -0.47435409769E+02 -0.22096484394E+03  0.24223131125E+03  0.00000000000E+00 0.  1.
          2    1    1    2  501    0 -0.69677873578E+02  0.24471512778E+02  0.43980205572E+03  0.44595931342E+03  0.00000000000E+00 0. -1.
<scales pt_clust_3="46.37823" pt_clust_4="47.77678" pt_clust_5="14000.00000" pt_clust_6="98.63251"></scales>
<clustering>
<clus scale="   46.378">  1  3  2 -1</clus>
<clus scale="   47.777">  1  4  2 -1</clus>
<clus scale="   98.633">  1  6  2 -1</clus>
<clus scale="   98.633">  2  3  1 -1</clus>
</clustering>
</event>
<event>
 6    0  0.4189111E+002  0.2043878E+03  0.7546771E-02  0.1146089E+00
         21   -1    0    0  503  502  0.00000000000E+00  0.00000000000E+00  0.51756448919E+02  0.51756448919E+02  0.00000000000E+00 0.  1.
          1   -1    0    0  505    0 -0.00000000000E+00 -0.00000000000E+00 -0.33101835270E+04  0.33101835270E+04  0.00000000000E+00 0.  1.
         21    1    1    2  503  501  0.39720456335E+01 -0.34783122662E+02 -0.71069982130E+02  0.79224902200E+02  0.00000000000E+00 0.  1.
         21    1    1    2  504  502 -0.13956204289E+01 -0.36026433871E+02  0.53592457085E+01  0.36449598193E+02  0.00000000000E+00 0.  1.
         21    1    1    2  505  504 -0.14192069494E+03 -0.88534229776E+02 -0.28211203318E+03  0.32797407330E+03  0.00000000000E+00 0.  1.
          1    1    1    2  501    0  0.13934426974E+03  0.15934378631E+03 -0.29106043084E+04  0.29182914022E+04  0.00000000000E+00 0.  1.
<scales pt_clust_3="35.00918" pt_clust_4="51.27795" pt_clust_5="14000.00000" pt_clust_6="204.38783"></scales>
<clustering>
<clus scale="   35.009">  1  3  2 -1</clus>
<clus scale="   51.278">  1  4  2 -1</clus>
<clus scale="  204.388">  2  6  1 -1</clus>
<clus scale="   35.009">  1  3  2 -1</clus>
</clustering>
</event>
<event>
 6    0  0.5487195E+002  0.1600161E+03  0.7546771E-02  0.1188679E+00
         21   -1    0    0  503  502  0.00000000000E+00  0.00000000000E+00  0.11854686910E+04  0.11854686910E+04  0.00000000000E+00 0.  1.
          2   -1    0    0  505    0 -0.00000000000E+00 -0.00000000000E+00 -0.10764953624E+04  0.10764953624E+04  0.00000000000E+00 0.  1.
         21    1    1    2  503  501  0.44995388627E+02 -0.13708988688E+03 -0.28751469460E+03  0.32168761508E+03  0.00000000000E+00 0. -1.
         21    1    1    2  504  502  0.13157384333E+03  0.19391844919E+02  0.11435644960E+04  0.11512721122E+04  0.00000000000E+00 0.  1.
         21    1    1    2  505  504 -0.93506831948E+01  0.30708209253E+02 -0.19838562665E+02  0.37735897503E+02  0.00000000000E+00 0. -1.
          2    1    1    2  501    0 -0.16721854877E+03  0.86989832710E+02 -0.72723791008E+03  0.75126842866E+03  0.00000000000E+00 0.  1.
<scales pt_clust_3="14000.00000" pt_clust_4="132.97768" pt_clust_5="32.10030" pt_clust_6="160.01615"></scales>
<clustering>
<clus scale="   32.100">  2  5  1 -1</clus>
<clus scale="  132.978">  1  4  2 -1</clus>
<clus scale="  160.016">  2  6  1 -1</clus>
<clus scale="  132.978">  1  3  2 -1</clus>
</clustering>
</event>
<event>
 6    0  0.4189111E+002  0.1016437E+03  0.7546771E-02  0.1276877E+00
          2   -1    0    0  505    0 -0.00000000000E+00  0.00000000000E+00  0.16626196798E+04  0.16626196798E+04  0.00000000000E+00 0. -1.
         21   -1    0    0  504  502  0.00000000000E+00 -0.00000000000E+00 -0.13225702321E+03  0.13225702321E+03  0.00000000000E+00 0.  1.
         21    1    1    2  503  502  0.16809586211E+02  0.52826990240E+02  0.13736302361E+03  0.14812782771E+03  0.00000000000E+00 0.  1.
         21    1    1    2  504  501 -0.75208827482E+02 -0.69269255528E+02 -0.10363802933E+03  0.14558653309E+03  0.00000000000E+00 0.  1.
         21    1    1    2  505  503  0.14157718889E+02 -0.29429075375E+02  0.17705326032E+03  0.18003990800E+03  0.00000000000E+00 0.  1.
          2    1    1    2  501    0  0.44241522382E+02  0.45871340664E+02  0.13195844020E+04  0.13211224342E+04  0.00000000000E+00 0. -1.
<scales pt_clust_3="53.19618" pt_clust_4="14000.00000" pt_clust_5="32.65749" pt_clust_6="101.64370"></scales>
<clustering>
<clus scale="   32.657">  1  5  2 -1</clus>
<clus scale="   53.196">  1  3  2 -1</clus>
<clus scale="  101.644">  1  6  2 -1</clus>
<clus scale="  101.644">  2  3  1 -1</clus>
</clustering>
</event>
<event>
 6    0  0.4189111E+002  0.2138513E+03  0.7546771E-02  0.1138552E+00
         21   -1    0    0  505  502  0.00000000000E+00  0.00000000000E+00  0.45239617069E+03  0.45239617069E+03  0.00000000000E+00 0. -1.
          2   -1    0    0  503    0 -0.00000000000E+00 -0.00000000000E+00 -0.20389820612E+04  0.20389820612E+04  0.00000000000E+00 0. -1.
         21    1    1    2  503  502  0.84377139411E+02 -0.11590807794E+02  0.10208940663E+03  0.13295147771E+03  0.00000000000E+00 0.  1.
         21    1    1    2  504  501  0.73200583127E+02 -0.69119311997E+01 -0.56052943299E+03  0.56533118207E+03  0.00000000000E+00 0. -1.
         21    1    1    2  505  504 -0.28313099787E+03 -0.36391742072E+02  0.26722048378E+03  0.39101701728E+03  0.00000000000E+00 0. -1.
          2    1    1    2  501    0  0.12555327533E+03  0.54894481066E+02 -0.13953663479E+04  0.14020785548E+04  0.00000000000E+00 0. -1.
<scales pt_clust_3="85.16953" pt_clust_4="42.50677" pt_clust_5="205.82772" pt_clust_6="42.50677"></scales>
<clustering>
<clus scale="   42.507">  4  6 -1 -1</clus>
<clus scale="   85.170">  1  3  2 -1</clus>
<clus scale="  205.828">  1  5  2 -1</clus>
<clus scale="   85.170">  1  3  2 -1</clus>
</clustering>
</event>
<event>
 6    0  0.4189111E+002  0.1413114E+03  0.7546771E-02  0.1211575E+00
          1   -1    0    0  503    0 -0.00000000000E+00  0.00000000000E+00  0.15955679020E+04  0.15955679020E+04  0.00000000000E+00 0.  1.
         21   -1    0    0  504  502  0.00000000000E+00 -0.00000000000E+00 -0.21867691079E+03  0.21867691079E+03  0.00000000000E+00 0. -1.
         21    1    1    2  503  505  0.68760829103E+00 -0.76211666316E+02  0.50971955075E+03  0.51538598283E+03  0.00000000000E+00 0.  1.
         21    1    1    2  504  501  0.55586729704E+02 -0.57336066971E+02  0.43246122807E+02  0.90815947018E+02  0.00000000000E+00 0.  1.
         21    1    1    2  505  502  0.86916095408E+02  0.79885054456E+02 -0.16748559540E+03  0.20490840449E+03  0.00000000000E+00 0. -1.
          1    1    1    2  501    0 -0.14319043340E+03  0.53662678831E+02  0.99141091301E+03  0.10031344784E+04  0.00000000000E+00 0.  1.
<scales pt_clust_3="76.21477" pt_clust_4="83.33785" pt_clust_5="141.31139" pt_clust_6="14000.00000"></scales>
<clustering>
<clus scale="   76.215">  1  3  2 -1</clus>
<clus scale="   83.338">  2  4  1 -1</clus>
<clus scale="  141.311">  2  5  1 -1</clus>
<clus scale="   83.338">  2  3  1 -1</clus>
</clustering>
</event>
<event>
 6    0  0.4189111E+002  0.1380209E+03  0.7546771E-02  0.1216017E+00
         21   -1    0    0  504  502  0.00000000000E+00  0.00000000000E+00  0.11065023806E+04  0.11065023806E+04  0.00000000000E+00 0. -1.
          2   -1    0    0  503    0 -0.00000000000E+00 -0.00000000000E+00 -0.10313430234E+03  0.10313430234E+03  0.00000000000E+00 0. -1.
         21    1    1    2  503  502 -0.41120848358E+02  0.13572017664E+02  0.70463565332E+03  0.70596496213E+03  0.00000000000E+00 0. -1.
         21    1    1    2  504  505 -0.67147918688E+00  0.11463753883E+03  0.33815751306E+03  0.35706122700E+03  0.00000000000E+00 0.  1.
         21    1    1    2  505  501 -0.17324684886E+01 -0.61073581122E+02 -0.19830697844E+02  0.64235818163E+02  0.00000000000E+00 0. -1.
          2    1    1    2  501    0  0.43524796033E+02 -0.67135975375E+02 -0.19594390253E+02  0.82374675652E+02  0.00000000000E+00 0. -1.
<scales pt_clust_3="43.30270" pt_clust_4="131.50569" pt_clust_5="36.61884" pt_clust_6="36.61884"></scales>
<clustering>
<clus scale="   36.619">  5  6 -1 -1</clus>
<clus scale="   43.303">  1  3  2 -1</clus>
<clus scale="  131.506">  1  4  2 -1</clus>
<clus scale="   43.303">  1  3  2 -1</clus>
</clustering>
</event>
<event>
 6    0  0.4189111E+002  0.2528538E+03  0.7546771E-02  0.1111514E+00
         21   -1    0    0  505  502  0.00000000000E+00  0.00000000000E+00  0.18464238409E+04  0.18464238409E+04  0.00000000000E+00 0. -1.
          1   -1    0    0  503    0 -0.00000000000E+00 -0.00000000000E+00 -0.47890027399E+03  0.47890027399E+03  0.00000000000E+00 0. -1.
         21    1    1    2  503  502  0.43458198653E+02 -0.26721551721E+03  0.71228814159E+02  0.27993980002E+03  0.00000000000E+00 0. -1.
         21    1    1    2  504  501  0.87281811313E+02  0.92994439855E+02  0.41123788427E+03  0.43056088755E+03  0.00000000000E+00 0.  1.
         21    1    1    2  505  504  0.51560060156E+02 -0.93582969356E+01  0.12034378380E+04  0.12045782031E+04  0.00000000000E+00 0. -1.
          1    1    1    2  501    0 -0.18230007012E+03  0.18357937429E+03 -0.31838096951E+03  0.41024522420E+03  0.00000000000E+00 0. -1.
<scales pt_clust_3="252.85380" pt_clust_4="149.00151" pt_clust_5="52.40246" pt_clust_6="14000.00000"></scales>
<clustering>
<clus scale="   52.402">  1  5  2 -1</clus>
<clus scale="  149.002">  1  4  2 -1</clus>
<clus scale="  252.854">  1  3  2 -1</clus>
<clus scale="   52.402">  1  3  2 -1</clus>
</clustering>
</event>
<event>
 6    0  0.4189111E+002  0.1552935E+03  0.7546771E-02  0.1194115E+00
         21   -1    0    0  505  502  0.00000000000E+00  0.00000000000E+00  0.40607647773E+03  0.40607647773E+03  0.00000000000E+00 0. -1.
          2   -1    0    0  504    0 -0.00000000000E+00 -0.00000000000E+00 -0.22081340237E+03  0.22081340237E+03  0.00000000000E+00 0.  1.
         21    1    1    2  503  501 -0.83265036803E+02 -0.75717725830E+02  0.24388271437E+03  0.26859824781E+03  0.00000000000E+00 0. -1.
         21    1    1    2  504  502  0.38692679561E+02 -0.10792075289E+01 -0.93877826115E+01  0.39829870736E+02  0.00000000000E+00 0. -1.
         21    1    1    2  505  503 -0.45179787992E+02 -0.59845429288E+00  0.11060666877E+03  0.11947973287E+03  0.00000000000E+00 0. -1.
          2    1    1    2  501    0  0.89752145234E+02  0.77395387652E+02 -0.15983852518E+03  0.19898202868E+03  0.00000000000E+00 0.  1.
<scales pt_clust_3="32.42976" pt_clust_4="38.70773" pt_clust_5="32.42976" pt_clust_6="146.61687"></scales>
<clustering>
<clus scale="   32.430">  3  5 -1 -1</clus>
<clus scale="   38.708">  2  4  1 -1</clus>
<clus scale="  146.617">  2  6  1 -1</clus>
<clus scale="  155.294">  1  3  2 -1</clus>
</clustering>
</event>
<event>
 6    0  0.4189111E+002  0.9133652E+02  0.7546771E-02  0.1299647E+00
         21   -1    0    0  503  502  0.00000000000E+00  0.00000000000E+00  0.40674104384E+02  0.40674104384E+02  0.00000000000E+00 0. -1.
          2   -1    0    0  504    0 -0.00000000000E+00 -0.00000000000E+00 -0.18835331419E+04  0.18835331419E+04  0.00000000000E+00 0.  1.
         21    1    1    2  503  501  0.90955525656E+02  0.36196607147E+02 -0.41849079919E+02  0.10646336227E+03  0.00000000000E+00 0. -1.
         21    1    1    2  504  505  0.32827421920E+02 -0.33058323287E+01 -0.16413654406E+03  0.16741975168E+03  0.00000000000E+00 0. -1.
         21    1    1    2  505  502 -0.73676448883E+02 -0.71999483262E+01 -0.21595889493E+03  0.22829433343E+03  0.00000000000E+00 0.  1.
          2    1    1    2  501    0 -0.50106498693E+02 -0.25690826493E+02 -0.14209145186E+04  0.14220297989E+04  0.00000000000E+00 0.  1.
<scales pt_clust_3="91.33652" pt_clust_4="32.99346" pt_clust_5="14000.00000" pt_clust_6="36.52895"></scales>
<clustering>
<clus scale="   32.993">  2  4  1 -1</clus>
<clus scale="   36.529">  2  6  1 -1</clus>
<clus scale="   91.337">  1  3  2 -1</clus>
<clus scale="   91.337">  1  3  2 -1</clus>
</clustering>
</event>
<event>
 6    0  0.4189111E+002  0.7683053E+02  0.7546771E-02  0.1338294E+00
         21   -1    0    0  503  502  0.00000000000E+00  0.00000000000E+00  0.14803109827E+04  0.14803109827E+04  0.00000000000E+00 0. -1.
         -1   -1    0    0    0  501 -0.00000000000E+00 -0.00000000000E+00 -0.64403831539E+03  0.64403831539E+03  0.00000000000E+00 0. -1.
         21    1    1    2  503  501  0.46632888650E+01  0.64401493357E+02  0.17321931480E+03  0.18486273186E+03  0.00000000000E+00 0.  1.
         21    1    1    2  504  502 -0.74493699986E+02 -0.30908482058E+02  0.12916501123E+04  0.12941656224E+04  0.00000000000E+00 0. -1.
         21    1    1    2  505  504  0.33675225389E+02 -0.72909741149E+02 -0.24048059201E+03  0.25353651866E+03  0.00000000000E+00 0.  1.
         -1    1    1    2    0  505  0.36155185732E+02  0.39416729851E+02 -0.38811616783E+03  0.39178442513E+03  0.00000000000E+00 0. -1.
<scales pt_clust_3="65.53512" pt_clust_4="76.83053" pt_clust_5="14000.00000" pt_clust_6="53.48716"></scales>
<clustering>
<clus scale="   53.487">  2  6  1 -1</clus>
<clus scale="   65.535">  1  3  2 -1</clus>
<clus scale="   76.831">  1  4  2 -1</clus>
<clus scale="   65.535">  1  3  2 -1</clus>
</clustering>
</event>
<event>
 6    0  0.4189111E+002  0.7766413E+02  0.7546771E-02  0.1335814E+00
         21   -1    0    0  504  502  0.00000000000E+00  0.00000000000E+00  0.48356627240E+03  0.48356627240E+03  0.00000000000E+00 0. -1.
          2   -1    0    0  503    0 -0.00000000000E+00 -0.00000000000E+00 -0.89021678962E+03  0.89021678962E+03  0.00000000000E+00 0.  1.
         21    1    1    2  503  505  0.47985814378E+02 -0.50867056050E+02 -0.39458228469E+03  0.40073092614E+03  0.00000000000E+00 0.  1.
         21    1    1    2  504  501 -0.41355953154E+02  0.11397987695E+02  0.38318633120E+03  0.38558007392E+03  0.00000000000E+00 0. -1.
         21    1    1    2  505  502  0.32947386103E+02 -0.41854381516E+02  0.84160361148E+02  0.99600631984E+02  0.00000000000E+00 0.  1.
          2    1    1    2  501    0 -0.39577247328E+02  0.81323449871E+02 -0.47941492487E+03  0.48787142998E+03  0.00000000000E+00 0.  1.
<scales pt_clust_3="77.66413" pt_clust_4="42.89789" pt_clust_5="31.75190" pt_clust_6="14000.00000"></scales>
<clustering>
<clus scale="   42.898">  1  4  2 -1</clus>
<clus scale="   31.752">  1  5  2 -1</clus>
<clus scale="   77.664">  2  3  1 -1</clus>
<clus scale="   42.898">  1  3  2 -1</clus>
</clustering>
</event>
<event>
 6    0  0.4189111E+002  0.1230444E+03  0.7546771E-02  0.1238158E+00
         -4   -1    0    0    0  501 -0.00000000000E+00  0.00000000000E+00  0.12932622152E+03  0.12932622152E+03  0.00000000000E+00 0. -1.
         21   -1    0    0  503  502  0.00000000000E+00 -0.00000000000E+00 -0.10543677229E+04  0.10543677229E+04  0.00000000000E+00 0.  1.
         21    1    1    2  503  505  0.54693079199E+02 -0.66344075888E+02 -0.23639127864E+03  0.25154265231E+03  0.00000000000E+00 0. -1.
         21    1    1    2  504  502  0.67392705894E+02  0.12497485866E+02 -0.72761150909E+03  0.73083272513E+03  0.00000000000E+00 0.  1.
         21    1    1    2  505  501 -0.54661183056E+01 -0.41734897708E+02 -0.90921411944E+01  0.43062131479E+02  0.00000000000E+00 0.  1.
         -4    1    1    2    0  504 -0.11661966679E+03  0.95581487729E+02  0.48053427544E+02  0.15825643550E+03  0.00000000000E+00 0. -1.
<scales pt_clust_3="14000.00000" pt_clust_4="68.35795" pt_clust_5="42.09133" pt_clust_6="123.04442"></scales>
<clustering>
<clus scale="   42.091">  1  5  2 -1</clus>
<clus scale="   68.358">  2  4  1 -1</clus>
<clus scale="  123.044">  1  6  2 -1</clus>
<clus scale="   68.358">  2  3  1 -1</clus>
</clustering>
</event>
<event>
 6    0  0.4189111E+002  0.1946488E+03  0.7546771E-02  0.1154334E+00
          2   -1    0    0  504    0 -0.00000000000E+00  0.00000000000E+00  0.30436115623E+04  0.30436115623E+04  0.00000000000E+00 0.  1.
         21   -1    0    0  503  502  0.00000000000E+00 -0.00000000000E+00 -0.17057752659E+03  0.17057752659E+03  0.00000000000E+00 0. -1.
         21    1    1    2  503  505  0.74476867143E+02  0.34040359634E+01 -0.14827053831E+03  0.16595946412E+03  0.00000000000E+00 0. -1.
         21    1    1    2  504  502 -0.16116481750E+03  0.14064705905E+03  0.13122506843E+04  0.13295704390E+04  0.00000000000E+00 0.  1.
         21    1    1    2  505  501  0.51680328424E+02 -0.11665629480E+03  0.98302707994E+03  0.99127281178E+03  0.00000000000E+00 0.  1.
          2    1    1    2  501    0  0.35007621936E+02 -0.27394800208E+02  0.72602680973E+03  0.72738637403E+03  0.00000000000E+00 0.  1.
<scales pt_clust_3="74.55462" pt_clust_4="182.28954" pt_clust_5="40.28729" pt_clust_6="40.28729"></scales>
<clustering>
<clus scale="   40.287">  5  6 -1 -1</clus>
<clus scale="   74.555">  2  3  1 -1</clus>
<clus scale="  182.290">  2  4  1 -1</clus>
<clus scale="   74.555">  2  3  1 -1</clus>
</clustering>
</event>
<event>
 6    0  0.4189111E+002  0.1449344E+03  0.7546771E-02  0.1206839E+00
         21   -1    0    0  504  502  0.00000000000E+00  0.00000000000E+00  0.90997891548E+02  0.90997891548E+02  0.00000000000E+00 0. -1.
          1   -1    0    0  505    0 -0.00000000000E+00 -0.00000000000E+00 -0.51879514922E+03  0.51879514922E+03  0.00000000000E+00 0.  1.
         21    1    1    2  503  502  0.15884772436E+02 -0.26043484144E+02  0.25092553088E+02  0.39499687115E+02  0.00000000000E+00 0.  1.
         21    1    1    2  504  501 -0.41632325697E+02  0.53879924881E+02 -0.13495271851E+03  0.15115731236E+03  0.00000000000E+00 0.  1.
         21    1    1    2  505  503  0.96034009583E+02 -0.51933968631E+02 -0.18644054419E+02  0.11075770339E+03  0.00000000000E+00 0. -1.
          1    1    1    2  501    0 -0.70286456322E+02  0.24097527894E+02 -0.29929303783E+03  0.30837833790E+03  0.00000000000E+00 0.  1.
<scales pt_clust_3="30.50556" pt_clust_4="59.35883" pt_clust_5="130.41723" pt_clust_6="59.35883"></scales>
<clustering>
<clus scale="   30.506">  1  3  2 -1</clus>
<clus scale="   59.359">  4  6 -1 -1</clus>
<clus scale="  130.417">  1  5  2 -1</clus>
<clus scale="   30.506">  1  3  2 -1</clus>
</clustering>
</event>
<event>
 6    0  0.4189111E+002  0.1190479E+03  0.7546771E-02  0.1244676E+00
          2   -1    0    0  503    0 -0.00000000000E+00  0.00000000000E+00  0.23404977771E+04  0.23404977771E+04  0.00000000000E+00 0.  1.
         21   -1    0    0  504  502  0.00000000000E+00 -0.00000000000E+00 -0.13866878354E+02  0.13866878354E+02  0.00000000000E+00 0.  1.
         21    1    1    2  503  502  0.28332045653E+02 -0.15931526571E+02  0.90654423836E+02  0.96305466671E+02  0.00000000000E+00 0.  1.
         21    1    1    2  504  505 -0.31999509101E+02  0.12341421178E+03  0.43415033978E+03  0.45248376080E+03  0.00000000000E+00 0.  1.
         21    1    1    2  505  501 -0.17245049321E+02 -0.59913826941E+02  0.11455569656E+04  0.11472522913E+04  0.00000000000E+00 0.  1.
          2    1    1    2  501    0  0.20912512770E+02 -0.47568858264E+02  0.65626916948E+03  0.65832313667E+03  0.00000000000E+00 0.  1.
<scales pt_clust_3="32.50413" pt_clust_4="110.51326" pt_clust_5="41.14588" pt_clust_6="41.14588"></scales>
<clustering>
<clus scale="   32.504">  2  3  1 -1</clus>
<clus scale="   41.146">  5  6 -1 -1</clus>
<clus scale="  110.513">  2  4  1 -1</clus>
<clus scale="   32.504">  2  3  1 -1</clus>
</clustering>
</event>
<event>
 6    0  0.4189111E+002  0.7913023E+02  0.7546771E-02  0.1331538E+00
         -1   -1    0    0    0  501 -0.00000000000E+00  0.00000000000E+00  0.14363434254E+03  0.14363434254E+03  0.00000000000E+00 0. -1.
         21   -1    0    0  504  502  0.00000000000E+00 -0.00000000000E+00 -0.15640066330E+03  0.15640066330E+03  0.00000000000E+00 0. -1.
         21    1    1    2  503  501  0.64637630583E+02 -0.54803158518E+02  0.37319212216E+01  0.84825330574E+02  0.00000000000E+00 0. -1.
         21    1    1    2  504  505  0.19741656850E+02  0.26939540127E+02 -0.36667604167E+02  0.49598236186E+02  0.00000000000E+00 0. -1.
         21    1    1    2  505  503 -0.44192259434E+02 -0.38769343709E+02 -0.36636184687E+02  0.69269241615E+02  0.00000000000E+00 0. -1.
         -1    1    1    2    0  502 -0.40187028000E+02  0.66632962100E+02  0.56805546876E+02  0.96342197471E+02  0.00000000000E+00 0. -1.
<scales pt_clust_3="14000.00000" pt_clust_4="33.39868" pt_clust_5="43.67550" pt_clust_6="79.13023"></scales>
<clustering>
<clus scale="   33.399">  2  4  1 -1</clus>
<clus scale="   43.675">  2  5  1 -1</clus>
<clus scale="   79.130">  1  6  2 -1</clus>
<clus scale="   33.399">  2  3  1 -1</clus>
</clustering>
</event>
<event>
 6    0  0.4189111E+002  0.8737157E+02  0.7546771E-02  0.1309345E+00
         21   -1    0    0  505  502  0.00000000000E+00  0.00000000000E+00  0.25605335281E+02  0.25605335281E+02  0.00000000000E+00 0.  1.
          2   -1    0    0  504    0 -0.00000000000E+00 -0.00000000000E+00 -0.50055465789E+04  0.50055465789E+04  0.00000000000E+00 0.  1.
         21    1    1    2  503  502 -0.10568706505E+03  0.45866981887E+02 -0.29874210136E+03  0.32018803674E+03  0.00000000000E+00 0.  1.
         21    1    1    2  504  503  0.80902876759E+02 -0.53185528531E+02 -0.30523388865E+04  0.30538740403E+04  0.00000000000E+00 0.  1.
         21    1    1    2  505  501  0.80083565848E+02  0.16548443588E+02 -0.10934883532E+03  0.13654448466E+03  0.00000000000E+00 0.  1.
          2    1    1    2  501    0 -0.55299377560E+02 -0.92298969442E+01 -0.15195114204E+04  0.15205453525E+04  0.00000000000E+00 0.  1.
<scales pt_clust_3="87.37157" pt_clust_4="69.33948" pt_clust_5="14000.00000" pt_clust_6="56.06436"></scales>
<clustering>
<clus scale="   56.064">  2  6  1 -1</clus>
<clus scale="   69.339">  2  4  1 -1</clus>
<clus scale="   87.372">  2  3  1 -1</clus>
<clus scale="   87.372">  1  3  2 -1</clus>
</clustering>
</event>
<event>
 6    0  0.4189111E+002  0.9727138E+02  0.7546771E-02  0.1286141E+00
         21   -1    0    0  503  502  0.00000000000E+00  0.00000000000E+00  0.78560528601E+03  0.78560528601E+03  0.00000000000E+00 0.  1.
          2   -1    0    0  504    0 -0.00000000000E+00 -0.00000000000E+00 -0.96333995639E+03  0.96333995639E+03  0.00000000000E+00 0.  1.
         21    1    1    2  503  505  0.96725710121E+01  0.40021042560E+02  0.65819651502E+03  0.65948305123E+03  0.00000000000E+00 0.  1.
         21    1    1    2  504  502  0.15670162386E+02 -0.30349639783E+02 -0.33906050591E+02  0.48127693595E+02  0.00000000000E+00 0.  1.
         21    1    1    2  505  501  0.82265117024E+02 -0.32252729003E+01  0.10190103647E+03  0.13100295072E+03  0.00000000000E+00 0. -1.
          2    1    1    2  501    0 -0.10760785042E+03 -0.64461298767E+01 -0.90392617128E+03  0.91033154685E+03  0.00000000000E+00 0.  1.
<scales pt_clust_3="41.15532" pt_clust_4="34.15633" pt_clust_5="14000.00000" pt_clust_6="97.27138"></scales>
<clustering>
<clus scale="   34.156">  2  4  1 -1</clus>
<clus scale="   41.155">  1  3  2 -1</clus>
<clus scale="   97.271">  2  6  1 -1</clus>
<clus scale="   41.155">  1  3  2 -1</clus>
</clustering>
</event>
<event>
 6    0  0.4189111E+002  0.1428853E+03  0.7546771E-02  0.1209498E+00
          1   -1    0    0  504    0 -0.00000000000E+00  0.00000000000E+00  0.93940451453E+03  0.93940451453E+03  0.00000000000E+00 0.  1.
         21   -1    0    0  505  502  0.00000000000E+00 -0.00000000000E+00 -0.16476067262E+03  0.16476067262E+03  0.00000000000E+00 0. -1.
         21    1    1    2  503  502  0.89611506435E+02  0.43124912754E+02  0.97302364918E+02  0.13913206102E+03  0.00000000000E+00 0. -1.
         21    1    1    2  504  503 -0.16757342187E+03 -0.41193894355E+02  0.47574208521E+03  0.50607145769E+03  0.00000000000E+00 0. -1.
         21    1    1    2  505  501  0.89861722065E+02  0.30320478749E+02 -0.11013268471E+03  0.14533983888E+03  0.00000000000E+00 0. -1.
          1    1    1    2  501    0 -0.11899806625E+02 -0.32251497148E+02  0.31173207649E+03  0.31362182956E+03  0.00000000000E+00 0.  1.
<scales pt_clust_3="14000.00000" pt_clust_4="142.88530" pt_clust_5="94.23581" pt_clust_6="34.37680"></scales>
<clustering>
<clus scale="   34.377">  1  6  2 -1</clus>
<clus scale="   94.236">  2  5  1 -1</clus>
<clus scale="  142.885">  1  4  2 -1</clus>
<clus scale="   94.236">  2  3  1 -1</clus>
</clustering>
</event>
<event>
 6    0  0.4189111E+002  0.1120761E+03  0.7546771E-02  0.1256773E+00
         21   -1    0    0  505  502  0.00000000000E+00  0.00000000000E+00  0.96107508832E+03  0.96107508832E+03  0.00000000000E+00 0. -1.
         -1   -1    0    0    0  501 -0.00000000000E+00 -0.00000000000E+00 -0.18397153163E+03  0.18397153163E+03  0.00000000000E+00 0. -1.
         21    1    1    2  503  502 -0.12634732263E+03 -0.12479347543E+02  0.13572308615E+03  0.18584976773E+03  0.00000000000E+00 0. -1.
         21    1    1    2  504  501  0.31734011375E+02 -0.12926291387E+02 -0.62414672178E+01  0.34829476022E+02  0.00000000000E+00 0. -1.
         21    1    1    2  505  504  0.17027480968E+02  0.57033378057E+02  0.77206040795E+03  0.77435135104E+03  0.00000000000E+00 0. -1.
         -1    1    1    2    0  503  0.77585830286E+02 -0.31627739127E+02 -0.12443847020E+03  0.15001602517E+03  0.00000000000E+00 0. -1.
<scales pt_clust_3="112.07614" pt_clust_4="34.26568" pt_clust_5="59.49823" pt_clust_6="14000.00000"></scales>
<clustering>
<clus scale="   34.266">  2  4  1 -1</clus>
<clus scale="   59.498">  1  5  2 -1</clus>
<clus scale="  112.076">  1  3  2 -1</clus>
<clus scale="   59.498">  1  3  2 -1</clus>
</clustering>
</event>
<event>
 6    0  0.4189111E+002  0.9517181E+02  0.7546771E-02  0.1290790E+00
         21   -1    0    0  503  502  0.00000000000E+00  0.00000000000E+00  0.14985513889E+02  0.14985513889E+02  0.00000000000E+00 0.  1.
          2   -1    0    0  504    0 -0.00000000000E+00 -0.00000000000E+00 -0.18247753572E+04  0.18247753572E+04  0.00000000000E+00 0.  1.
         21    1    1    2  503  505  0.26358510439E+02  0.68983171725E+02 -0.17801413718E+03  0.19272384930E+03  0.00000000000E+00 0.  1.
         21    1    1    2  504  502 -0.85504016438E+02  0.28584714970E+01 -0.31862712529E+03  0.32991264398E+03  0.00000000000E+00 0.  1.
         21    1    1    2  505  501  0.36031146986E+02 -0.12108980381E+02 -0.52965894004E+03  0.53102115186E+03  0.00000000000E+00 0.  1.
          2    1    1    2  501    0  0.23114359012E+02 -0.59732662841E+02 -0.78348964082E+03  0.78610322597E+03  0.00000000000E+00 0.  1.
<scales pt_clust_3="73.84747" pt_clust_4="85.20360" pt_clust_5="32.66619" pt_clust_6="32.66619"></scales>
<clustering>
<clus scale="   32.666">  5  6 -1 -1</clus>
<clus scale="   73.847">  1  3  2 -1</clus>
<clus scale="   85.204">  1  4  2 -1</clus>
<clus scale="   73.847">  1  3  2 -1</clus>
</clustering>
</event>
<event>
 6    0  0.4189111E+002  0.1097855E+03  0.7546771E-02  0.1260968E+00
          2   -1    0    0  503    0 -0.00000000000E+00  0.00000000000E+00  0.35945320830E+04  0.35945320830E+04  0.00000000000E+00 0. -1.
         21   -1    0    0  505  502  0.00000000000E+00 -0.00000000000E+00 -0.35269155570E+02  0.35269155570E+02  0.00000000000E+00 0. -1.
         21    1    1    2  503  502 -0.41244640318E+02 -0.71984414433E+02  0.26247267285E+02  0.87016063552E+02  0.00000000000E+00 0. -1.
         21    1    1    2  504  501 -0.41977659594E+02  0.41320656256E+02  0.10306543304E+04  0.10323361222E+04  0.00000000000E+00 0. -1.
         21    1    1    2  505  504  0.10192897432E+03 -0.16606097384E+02  0.72060243599E+03  0.72796507405E+03  0.00000000000E+00 0.  1.
          2    1    1    2  501    0 -0.18706674404E+02  0.47269855561E+02  0.17817588938E+04  0.17824839788E+04  0.00000000000E+00 0. -1.
<scales pt_clust_3="82.96310" pt_clust_4="41.68349" pt_clust_5="100.19817" pt_clust_6="41.68349"></scales>
<clustering>
<clus scale="   41.683">  4  6 -1 -1</clus>
<clus scale="   82.963">  2  3  1 -1</clus>
<clus scale="  100.198">  2  5  1 -1</clus>
<clus scale="   82.963">  2  3  1 -1</clus>
</clustering>
</event>
<event>
 6    0  0.4189111E+002  0.1232481E+03  0.7546771E-02  0.1237833E+00
          1   -1    0    0  503    0 -0.00000000000E+00  0.00000000000E+00  0.17884947334E+04  0.17884947334E+04  0.00000000000E+00 0.  1.
         21   -1    0    0  505  502  0.00000000000E+00 -0.00000000000E+00 -0.10945184580E+04  0.10945184580E+04  0.00000000000E+00 0. -1.
         21    1    1    2  503  504  0.98656831595E+02 -0.49583829657E+02  0.97791533571E+03  0.98412912283E+03  0.00000000000E+00 0.  1.
         21    1    1    2  504  502 -0.41866303096E+02  0.24129499065E+02 -0.27658089695E+03  0.28077039128E+03  0.00000000000E+00 0. -1.
         21    1    1    2  505  501  0.60491183449E+02 -0.84508211726E+02 -0.80132354266E+03  0.80803480194E+03  0.00000000000E+00 0. -1.
          1    1    1    2  501    0 -0.11728171195E+03  0.10996254232E+03  0.79396537934E+03  0.81007887533E+03  0.00000000000E+00 0.  1.
<scales pt_clust_3="123.24810" pt_clust_4="48.32205" pt_clust_5="63.67200" pt_clust_6="14000.00000"></scales>
<clustering>
<clus scale="   48.322">  2  4  1 -1</clus>
<clus scale="   63.672">  2  5  1 -1</clus>
<clus scale="  123.248">  1  3  2 -1</clus>
<clus scale="   48.322">  2  3  1 -1</clus>
</clustering>
</event>
<event>
 6    0  0.4189111E+002  0.1271201E+03  0.7546771E-02  0.1231793E+00
          2   -1    0    0  502    0 -0.00000000000E+00  0.00000000000E+00  0.12097835713E+04  0.12097835713E+04  0.00000000000E+00 0. -1.
         21   -1    0    0  503  502  0.00000000000E+00 -0.00000000000E+00 -0.56863117682E+03  0.56863117682E+03  0.00000000000E+00 0.  1.
         21    1    1    2  503  505  0.42858108835E+02 -0.28547278246E+02 -0.17483892465E+03  0.18226468161E+03  0.00000000000E+00 0.  1.
         21    1    1    2  504  501 -0.62302268612E+02  0.37691262712E+02  0.64708803371E+03  0.65117211805E+03  0.00000000000E+00 0. -1.
         21    1    1    2  505  504  0.72757735628E+02 -0.42460746054E+01 -0.38330908595E+03  0.39017633528E+03  0.00000000000E+00 0.  1.
          2    1    1    2  501    0 -0.53313575851E+02 -0.48979098608E+01  0.55221237141E+03  0.55480161322E+03  0.00000000000E+00 0. -1.
<scales pt_clust_3="34.83143" pt_clust_4="34.39234" pt_clust_5="34.83143" pt_clust_6="126.69325"></scales>
<clustering>
<clus scale="   34.392">  4  6 -1 -1</clus>
<clus scale="   34.831">  3  5 -1 -1</clus>
<clus scale="  126.693">  1  4  2 -1</clus>
<clus scale="  127.120">  2  3  1 -1</clus>
</clustering>
</event>
<event>
 6    0  0.4189111E+002  0.1080507E+03  0.7546771E-02  0.1264223E+00
         21   -1    0    0  503  502  0.00000000000E+00  0.00000000000E+00  0.41619752343E+02  0.41619752343E+02  0.00000000000E+00 0. -1.
          1   -1    0    0  505    0 -0.00000000000E+00 -0.00000000000E+00 -0.24239676792E+04  0.24239676792E+04  0.00000000000E+00 0.  1.
         21    1    1    2  503  504 -0.66758100307E+02 -0.22233299279E+02 -0.39010091643E+01  0.70471138957E+02  0.00000000000E+00 0. -1.
         21    1    1    2  504  501 -0.31462767722E+02 -0.64689744472E+02 -0.41078813647E+03  0.41703904117E+03  0.00000000000E+00 0.  1.
         21    1    1    2  505  502  0.10667134077E+03  0.11971909080E+03 -0.13497691657E+04  0.13592601798E+04  0.00000000000E+00 0.  1.
          1    1    1    2  501    0 -0.84504727398E+01 -0.32796047044E+02 -0.61788961553E+03  0.61881707165E+03  0.00000000000E+00 0.  1.
<scales pt_clust_3="70.74405" pt_clust_4="14000.00000" pt_clust_5="108.05066" pt_clust_6="33.86726"></scales>
<clustering>
<clus scale="   33.867">  2  6  1 -1</clus>
<clus scale="   70.744">  1  3  2 -1</clus>
<clus scale="  108.051">  2  5  1 -1</clus>
<clus scale="   70.744">  1  3  2 -1</clus>
</clustering>
</event>
<event>
 6    0  0.4189111E+002  0.8566165E+02  0.7546771E-02  0.1313711E+00
          2   -1    0    0  505    0 -0.00000000000E+00  0.00000000000E+00  0.89247492389E+03  0.89247492389E+03  0.00000000000E+00 0. -1.
         21   -1    0    0  504  502  0.00000000000E+00 -0.00000000000E+00 -0.49122206273E+02  0.49122206273E+02  0.00000000000E+00 0.  1.
         21    1    1    2  503  501 -0.64922117339E+02  0.75024820888E+00  0.71532706093E+02  0.96604204013E+02  0.00000000000E+00 0.  1.
         21    1    1    2  504  503 -0.15922010788E+02 -0.34047202390E+02 -0.15063382490E+02  0.40492319150E+02  0.00000000000E+00 0.  1.
         21    1    1    2  505  502 -0.36555051417E+02 -0.15257276751E+02  0.22211417819E+03  0.22561862607E+03  0.00000000000E+00 0.  1.
          2    1    1    2  501    0  0.11739917954E+03  0.48554230932E+02  0.56476921583E+03  0.57888198093E+03  0.00000000000E+00 0. -1.
<scales pt_clust_3="14000.00000" pt_clust_4="37.58620" pt_clust_5="41.94553" pt_clust_6="85.66165"></scales>
<clustering>
<clus scale="   37.586">  2  4  1 -1</clus>
<clus scale="   41.946">  1  5  2 -1</clus>
<clus scale="   85.662">  1  6  2 -1</clus>
<clus scale="   37.586">  2  3  1 -1</clus>
</clustering>
</event>
<event>
 6    0  0.4189111E+002  0.2334375E+03  0.7546771E-02  0.1124243E+00
          2   -1    0    0  503    0 -0.00000000000E+00  0.00000000000E+00  0.45346315713E+03  0.45346315713E+03  0.00000000000E+00 0. -1.
         21   -1    0    0  504  502  0.00000000000E+00 -0.00000000000E+00 -0.51810988634E+03  0.51810988634E+03  0.00000000000E+00 0. -1.
         21    1    1    2  503  502  0.20580786490E+02 -0.26125266881E+02 -0.12310341013E+03  0.12751685351E+03  0.00000000000E+00 0. -1.
         21    1    1    2  504  505 -0.10586659760E+03 -0.57444322117E+02 -0.16075388850E+03  0.20087159904E+03  0.00000000000E+00 0. -1.
         21    1    1    2  505  501  0.13677622866E+03 -0.15582575207E+03 -0.10856428798E+03  0.23404189018E+03  0.00000000000E+00 0. -1.
          2    1    1    2  501    0 -0.51490417549E+02  0.23939534107E+03  0.32777485740E+03  0.40914270074E+03  0.00000000000E+00 0. -1.
<scales pt_clust_3="33.25806" pt_clust_4="118.81795" pt_clust_5="233.43746" pt_clust_6="14000.00000"></scales>
<clustering>
<clus scale="   33.258">  2  3  1 -1</clus>
<clus scale="  118.818">  2  4  1 -1</clus>
<clus scale="  233.437">  2  5  1 -1</clus>
<clus scale="   33.258">  2  3  1 -1</clus>
</clustering>
</event>
<event>
 6    0  0.4189111E+002  0.1451216E+03  0.7546771E-02  0.1206599E+00
          2   -1    0    0  504    0 -0.00000000000E+00  0.00000000000E+00  0.12792350460E+04  0.12792350460E+04  0.00000000000E+00 0.  1.
         21   -1    0    0  503  502  0.00000000000E+00 -0.00000000000E+00 -0.21669862493E+03  0.21669862493E+03  0.00000000000E+00 0. -1.
         21    1    1    2  503  505 -0.39000565735E+02 -0.20326758952E+02  0.36344318649E+02  0.57053753209E+02  0.00000000000E+00 0. -1.
         21    1    1    2  504  502 -0.10004631415E+03 -0.54578419820E+02 -0.16178905613E+03  0.19789837687E+03  0.00000000000E+00 0. -1.
         21    1    1    2  505  501 -0.44479181641E+01  0.47790250300E+02  0.41485298233E+01  0.48175743890E+02  0.00000000000E+00 0. -1.
          2    1    1    2  501    0  0.14349479805E+03  0.27114928472E+02  0.11838326288E+04  0.11928057970E+04  0.00000000000E+00 0.  1.
<scales pt_clust_3="43.97978" pt_clust_4="14000.00000" pt_clust_5="46.42682" pt_clust_6="145.12164"></scales>
<clustering>
<clus scale="   43.980">  2  3  1 -1</clus>
<clus scale="   46.427">  2  5  1 -1</clus>
<clus scale="  145.122">  1  6  2 -1</clus>
<clus scale="   43.980">  2  3  1 -1</clus>
</clustering>
</event>
<event>
 6    0  0.4189111E+002  0.7780673E+02  0.7546771E-02  0.1335393E+00
          2   -1    0    0  504    0 -0.00000000000E+00  0.00000000000E+00  0.37505837972E+03  0.37505837972E+03  0.00000000000E+00 0. -1.
         21   -1    0    0  505  502  0.00000000000E+00 -0.00000000000E+00 -0.56885631897E+03  0.56885631897E+03  0.00000000000E+00 0. -1.
         21    1    1    2  503  501  0.13228807407E+02 -0.60881196007E+02  0.20433550178E+02  0.65567151422E+02  0.00000000000E+00 0. -1.
         21    1    1    2  504  502  0.84826774287E+02  0.83027549547E+02 -0.36762851071E+03  0.38631577434E+03  0.00000000000E+00 0. -1.
         21    1    1    2  505  503 -0.43342946868E+02 -0.13025817607E+02 -0.16384315403E+03  0.16997900485E+03  0.00000000000E+00 0. -1.
          2    1    1    2  501    0 -0.54712634826E+02 -0.91205359328E+01  0.31724017532E+03  0.32205276807E+03  0.00000000000E+00 0. -1.
<scales pt_clust_3="77.80673" pt_clust_4="14000.00000" pt_clust_5="45.25796" pt_clust_6="55.73640"></scales>
<clustering>
<clus scale="   45.258">  2  5  1 -1</clus>
<clus scale="   55.736">  1  6  2 -1</clus>
<clus scale="   77.807">  1  3  2 -1</clus>
<clus scale="   45.258">  2  3  1 -1</clus>
</clustering>
</event>
<event>
 6    0  0.4189111E+002  0.8058165E+02  0.7546771E-02  0.1327409E+00
         21   -1    0    0  505  502  0.00000000000E+00  0.00000000000E+00  0.37225697115E+02  0.37225697115E+02  0.00000000000E+00 0.  1.
          2   -1    0    0  504    0 -0.00000000000E+00 -0.00000000000E+00 -0.16497165587E+04  0.16497165587E+04  0.00000000000E+00 0.  1.
         21    1    1    2  503  502  0.12605005758E+02  0.82027717251E+02 -0.48468501725E+02  0.96107378630E+02  0.00000000000E+00 0.  1.
         21    1    1    2  504  503  0.42083721180E+02 -0.54876420303E+01 -0.39091503975E+03  0.39321205742E+03  0.00000000000E+00 0.  1.
         21    1    1    2  505  501 -0.85558751564E+02 -0.51694947353E+02 -0.19887232901E+03  0.22258227871E+03  0.00000000000E+00 0.  1.
          2    1    1    2  501    0  0.30870024626E+02 -0.24845127868E+02 -0.97423499106E+03  0.97504054100E+03  0.00000000000E+00 0.  1.
<scales pt_clust_3="80.58165" pt_clust_4="63.23072" pt_clust_5="14000.00000" pt_clust_6="39.62624"></scales>
<clustering>
<clus scale="   39.626">  2  6  1 -1</clus>
<clus scale="   63.231">  2  4  1 -1</clus>
<clus scale="   80.582">  1  3  2 -1</clus>
<clus scale="   80.582">  1  3  2 -1</clus>
</clustering>
</event>
<event>
 6    0  0.4189111E+002  0.1758946E+03  0.7546771E-02  0.1171837E+00
          2   -1    0    0  505    0 -0.00000000000E+00  0.00000000000E+00  0.30131764113E+04  0.30131764113E+04  0.00000000000E+00 0.  1.
         21   -1    0    0  504  502  0.00000000000E+00 -0.00000000000E+00 -0.21884825329E+02  0.21884825329E+02  0.00000000000E+00 0. -1.
         21    1    1    2  503  502 -0.29207636048E+02 -0.17267108655E+02  0.54899483726E+02  0.64538301482E+02  0.00000000000E+00 0. -1.
         21    1    1    2  504  501 -0.10719135062E+02 -0.28268926472E+02  0.15998071462E+03  0.16281234938E+03  0.00000000000E+00 0.  1.
         21    1    1    2  505  503 -0.24510660944E+02  0.20182798185E+03  0.85345072745E+03  0.87733314707E+03  0.00000000000E+00 0. -1.
          2    1    1    2  501    0  0.64437432054E+02 -0.15629194672E+03  0.19229606602E+04  0.19303774387E+04  0.00000000000E+00 0.  1.
<scales pt_clust_3="39.73908" pt_clust_4="30.23296" pt_clust_5="175.89456" pt_clust_6="14000.00000"></scales>
<clustering>
<clus scale="   30.233">  2  4  1 -1</clus>
<clus scale="   39.739">  2  3  1 -1</clus>
<clus scale="  175.895">  2  5  1 -1</clus>
<clus scale="   30.233">  2  3  1 -1</clus>
</clustering>
</event>
<event>
 6    0  0.4189111E+002  0.9846332E+02  0.7546771E-02  0.1283561E+00
          2   -1    0    0  505    0 -0.00000000000E+00  0.00000000000E+00  0.60903939080E+03  0.60903939080E+03  0.00000000000E+00 0. -1.
         21   -1    0    0  501  502  0.00000000000E+00 -0.00000000000E+00 -0.23087229221E+03  0.23087229221E+03  0.00000000000E+00 0.  1.
         21    1    1    2  503  504 -0.41264370504E+02  0.46518710382E+02  0.12666850028E+03  0.14110863777E+03  0.00000000000E+00 0. -1.
         21    1    1    2  504  502 -0.70315169713E+02 -0.70324190044E+02 -0.19984550220E+03  0.22322172732E+03  0.00000000000E+00 0.  1.
         21    1    1    2  505  503  0.38847205495E+02  0.74708407403E+01  0.35638223077E+02  0.53244734765E+02  0.00000000000E+00 0.  1.
          2    1    1    2  501    0  0.72732334722E+02  0.16334638921E+02  0.41570587743E+03  0.42233658316E+03  0.00000000000E+00 0. -1.
<scales pt_clust_3="57.95945" pt_clust_4="98.46332" pt_clust_5="39.55906" pt_clust_6="14000.00000"></scales>
<clustering>
<clus scale="   39.559">  1  5  2 -1</clus>
<clus scale="   57.959">  1  3  2 -1</clus>
<clus scale="   98.463">  2  4  1 -1</clus>
<clus scale="   98.463">  2  3  1 -1</clus>
</clustering>
</event>
<event>
 6    0  0.4189111E+002  0.1613222E+03  0.7546771E-02  0.1187212E+00
         21   -1    0    0  505  502  0.00000000000E+00  0.00000000000E+00  0.89627658730E+03  0.89627658730E+03  0.00000000000E+00 0.  1.
          1   -1    0    0  503    0 -0.00000000000E+00 -0.00000000000E+00 -0.16113801952E+04  0.16113801952E+04  0.00000000000E+00 0.  1.
         21    1    1    2  503  504  0.49559637065E+02  0.22039169079E+02 -0.11631942928E+03  0.12834364896E+03  0.00000000000E+00 0. -1.
         21    1    1    2  504  502 -0.50520667303E+02  0.18322065743E+03  0.76347332505E+03  0.78677421488E+03  0.00000000000E+00 0.  1.
         21    1    1    2  505  501  0.17758453024E+02 -0.25776146332E+02  0.10739923016E+03  0.11186763165E+03  0.00000000000E+00 0.  1.
          1    1    1    2  501    0 -0.16797422786E+02 -0.17948368018E+03 -0.14696567338E+04  0.14806712870E+04  0.00000000000E+00 0.  1.
<scales pt_clust_3="54.28360" pt_clust_4="14000.00000" pt_clust_5="31.30132" pt_clust_6="161.32215"></scales>
<clustering>
<clus scale="   31.301">  1  5  2 -1</clus>
<clus scale="   54.284">  2  3  1 -1</clus>
<clus scale="  161.322">  2  6  1 -1</clus>
<clus scale="   31.301">  1  3  2 -1</clus>
</clustering>
</event>
<event>
 6    0  0.4189111E+002  0.1411821E+03  0.7546771E-02  0.1211747E+00
         21   -1    0    0  505  502  0.00000000000E+00  0.00000000000E+00  0.72995407722E+03  0.72995407722E+03  0.00000000000E+00 0.  1.
          1   -1    0    0  503    0 -0.00000000000E+00 -0.00000000000E+00 -0.30870406077E+03  0.30870406077E+03  0.00000000000E+00 0. -1.
         21    1    1    2  503  502 -0.19413818585E+01 -0.44479930890E+02 -0.55670580723E+01  0.44868979831E+02  0.00000000000E+00 0.  1.
         21    1    1    2  504  501  0.74083896049E+02  0.44755829921E+02  0.16363551623E+03  0.18511642320E+03  0.00000000000E+00 0.  1.
         21    1    1    2  505  504  0.51791534438E+02  0.46681041310E+02  0.51734944654E+03  0.52202675458E+03  0.00000000000E+00 0.  1.
          1    1    1    2  501    0 -0.12393404863E+03 -0.46956940341E+02 -0.25416788825E+03  0.28664598039E+03  0.00000000000E+00 0. -1.
<scales pt_clust_3="44.52228" pt_clust_4="141.18209" pt_clust_5="69.46726" pt_clust_6="14000.00000"></scales>
<clustering>
<clus scale="   44.522">  2  3  1 -1</clus>
<clus scale="   69.467">  1  5  2 -1</clus>
<clus scale="  141.182">  1  4  2 -1</clus>
<clus scale="   69.467">  1  3  2 -1</clus>
</clustering>
</event>
<event>
 6    0  0.4189111E+002  0.6608753E+02  0.7546771E-02  0.1373927E+00
          2   -1    0    0  504    0 -0.00000000000E+00  0.00000000000E+00  0.10035198631E+04  0.10035198631E+04  0.00000000000E+00 0. -1.
         21   -1    0    0  505  502  0.00000000000E+00 -0.00000000000E+00 -0.34989295169E+02  0.34989295169E+02  0.00000000000E+00 0. -1.
         21    1    1    2  503  501 -0.38115006762E+02 -0.47390691245E+02  0.11342305065E+03  0.12869895017E+03  0.00000000000E+00 0. -1.
         21    1    1    2  504  502  0.54342252763E+02  0.41588144072E+02  0.22114341464E+03  0.23148879887E+03  0.00000000000E+00 0.  1.
         21    1    1    2  505  503  0.34831699768E+02 -0.49529350291E+02  0.26308539607E+02  0.66019263138E+02  0.00000000000E+00 0. -1.
          2    1    1    2  501    0 -0.51058945768E+02  0.55331897464E+02  0.60765556308E+03  0.61230214613E+03  0.00000000000E+00 0. -1.
<scales pt_clust_3="65.38953" pt_clust_4="14000.00000" pt_clust_5="60.55084" pt_clust_6="66.08753"></scales>
<clustering>
<clus scale="   60.551">  2  5  1 -1</clus>
<clus scale="   66.088">  1  6  2 -1</clus>
<clus scale="   65.390">  2  3  1 -1</clus>
<clus scale="   60.551">  2  3  1 -1</clus>
</clustering>
</event>
<event>
 6    0  0.4189111E+002  0.9452773E+02  0.7546771E-02  0.1292243E+00
          1   -1    0    0  503    0 -0.00000000000E+00  0.00000000000E+00  0.54903410282E+02  0.54903410282E+02  0.00000000000E+00 0. -1.
         21   -1    0    0  505  502  0.00000000000E+00 -0.00000000000E+00 -0.64609567067E+03  0.64609567067E+03  0.00000000000E+00 0.  1.
         21    1    1    2  503  504 -0.30241313234E+02 -0.36308409066E+02 -0.52985381757E+02  0.70994987675E+02  0.00000000000E+00 0.  1.
         21    1    1    2  504  502  0.11167707161E+03 -0.14791064386E+02 -0.50041583614E+03  0.51293913184E+03  0.00000000000E+00 0.  1.
         21    1    1    2  505  501 -0.53192042577E+02  0.21179383248E+02 -0.47954379112E+02  0.74683211931E+02  0.00000000000E+00 0.  1.
          1    1    1    2  501    0 -0.28243715796E+02  0.29920090204E+02  0.10163336625E+02  0.42381749506E+02  0.00000000000E+00 0. -1.
<scales pt_clust_3="47.47867" pt_clust_4="14000.00000" pt_clust_5="94.52773" pt_clust_6="41.14510"></scales>
<clustering>
<clus scale="   41.145">  1  6  2 -1</clus>
<clus scale="   47.479">  1  3  2 -1</clus>
<clus scale="   94.528">  1  5  2 -1</clus>
<clus scale="   94.528">  2  3  1 -1</clus>
</clustering>
</event>
<event>
 6    0  0.4189111E+002  0.6984857E+02  0.7546771E-02  0.1360609E+00
          1   -1    0    0  505    0 -0.00000000000E+00  0.00000000000E+00  0.67731338482E+02  0.67731338482E+02  0.00000000000E+00 0. -1.
         21   -1    0    0  503  502  0.00000000000E+00 -0.00000000000E+00 -0.78202478935E+03  0.78202478935E+03  0.00000000000E+00 0. -1.
         21    1    1    2  503  501  0.38519159685E+02 -0.36562203795E+02 -0.40621265842E+03  0.40966967702E+03  0.00000000000E+00 0. -1.
         21    1    1    2  504  502  0.36816479377E+02  0.62136896220E+02 -0.28901435029E+03  0.29790223514E+03  0.00000000000E+00 0. -1.
         21    1    1    2  505  504 -0.61451326771E+02  0.33927764602E+02 -0.35850311795E+02  0.78820071230E+02  0.00000000000E+00 0.  1.
          1    1    1    2  501    0 -0.13884312291E+02 -0.59502457027E+02  0.16783869646E+02  0.63364144438E+02  0.00000000000E+00 0. -1.
<scales pt_clust_3="53.10857" pt_clust_4="69.84857" pt_clust_5="62.35204" pt_clust_6="14000.00000"></scales>
<clustering>
<clus scale="   53.109">  2  3  1 -1</clus>
<clus scale="   62.352">  1  5  2 -1</clus>
<clus scale="   69.849">  2  4  1 -1</clus>
<clus scale="   53.109">  2  3  1 -1</clus>
</clustering>
</event>
<event>
 6    0  0.4189111E+002  0.1227058E+03  0.7546771E-02  0.1238699E+00
          3   -1    0    0  504    0 -0.00000000000E+00  0.00000000000E+00  0.20301514093E+04  0.20301514093E+04  0.00000000000E+00 0. -1.
         21   -1    0    0  503  502  0.00000000000E+00 -0.00000000000E+00 -0.11991224775E+04  0.11991224775E+04  0.00000000000E+00 0.  1.
         21    1    1    2  503  505  0.53247583150E+02 -0.10225554071E+03 -0.17039370043E+03  0.20573165499E+03  0.00000000000E+00 0. -1.
         21    1    1    2  504  502  0.32769149926E+02  0.34479015524E+02 -0.99372082652E+03  0.99485863355E+03  0.00000000000E+00 0.  1.
         21    1    1    2  505  501 -0.12097709129E+03 -0.55150094740E+02  0.29306347723E+03  0.32181235410E+03  0.00000000000E+00 0.  1.
          3    1    1    2  501    0  0.34960358214E+02  0.12292661993E+03  0.17020799816E+04  0.17068712442E+04  0.00000000000E+00 0. -1.
<scales pt_clust_3="109.21907" pt_clust_4="47.56700" pt_clust_5="122.70583" pt_clust_6="14000.00000"></scales>
<clustering>
<clus scale="   47.567">  2  4  1 -1</clus>
<clus scale="  109.219">  2  3  1 -1</clus>
<clus scale="  122.706">  2  5  1 -1</clus>
<clus scale="   47.567">  2  3  1 -1</clus>
</clustering>
</event>
<event>
 6    0  0.4189111E+002  0.1037359E+03  0.7546771E-02  0.1272630E+00
          3   -1    0    0  503    0 -0.00000000000E+00  0.00000000000E+00  0.44334333069E+02  0.44334333069E+02  0.00000000000E+00 0. -1.
         21   -1    0    0  501  502  0.00000000000E+00 -0.00000000000E+00 -0.31923740408E+04  0.31923740408E+04  0.00000000000E+00 0.  1.
         21    1    1    2  503  505  0.25295778139E+02  0.27663175613E+02 -0.12953205207E+02  0.39659969766E+02  0.00000000000E+00 0. -1.
         21    1    1    2  504  502  0.48287415321E+02  0.36254178853E+02 -0.17457046162E+04  0.17467485929E+04  0.00000000000E+00 0.  1.
         21    1    1    2  505  504 -0.49983546529E+01  0.42135064885E+02 -0.12870490391E+04  0.12877482582E+04  0.00000000000E+00 0.  1.
          3    1    1    2  501    0 -0.68584838808E+02 -0.10605241935E+03 -0.10233284716E+03  0.16255155297E+03  0.00000000000E+00 0. -1.
<scales pt_clust_3="37.48503" pt_clust_4="42.31496" pt_clust_5="42.31496" pt_clust_6="90.57349"></scales>
<clustering>
<clus scale="   37.485">  1  3  2 -1</clus>
<clus scale="   42.315">  4  5 -1 -1</clus>
<clus scale="   90.573">  1  6  2 -1</clus>
<clus scale="  103.736">  2  3  1 -1</clus>
</clustering>
</event>
<event>
 6    0  0.4189111E+002  0.1020788E+03  0.7546771E-02  0.1275984E+00
          1   -1    0    0  505    0 -0.00000000000E+00  0.00000000000E+00  0.89169041408E+02  0.89169041408E+02  0.00000000000E+00 0.  1.
         21   -1    0    0  501  502  0.00000000000E+00 -0.00000000000E+00 -0.14193642011E+04  0.14193642011E+04  0.00000000000E+00 0. -1.
         21    1    1    2  503  502  0.53717301166E+02  0.26389589476E+02 -0.69121125461E+03  0.69379749018E+03  0.00000000000E+00 0. -1.
         21    1    1    2  504  503  0.35600779811E+02 -0.21854023038E+02 -0.51878922052E+03  0.52046831717E+03  0.00000000000E+00 0. -1.
         21    1    1    2  505  504  0.92035334831E+01  0.93330323786E+02 -0.12385019743E+03  0.15535161978E+03  0.00000000000E+00 0. -1.
          1    1    1    2  501    0 -0.98521614460E+02 -0.97865890224E+02  0.36555128773E+01  0.13891581537E+03  0.00000000000E+00 0.  1.
<scales pt_clust_3="40.43095" pt_clust_4="40.43095" pt_clust_5="93.78302" pt_clust_6="89.87804"></scales>
<clustering>
<clus scale="   40.431">  3  4 -1 -1</clus>
<clus scale="   93.783">  1  5  2 -1</clus>
<clus scale="   89.878">  1  6  2 -1</clus>
<clus scale="  102.079">  2  3  1 -1</clus>
</clustering>
</event>
<event>
 6    0  0.4189111E+002  0.1457406E+03  0.7546771E-02  0.1205807E+00
         21   -1    0    0  505  502  0.00000000000E+00  0.00000000000E+00  0.27945748246E+04  0.27945748246E+04  0.00000000000E+00 0. -1.
          2   -1    0    0  504    0 -0.00000000000E+00 -0.00000000000E+00 -0.74892197864E+03  0.74892197864E+03  0.00000000000E+00 0. -1.
         21    1    1    2  503  502 -0.12024452041E+03 -0.12072602198E+02  0.35405531903E+03  0.37411183000E+03  0.00000000000E+00 0.  1.
         21    1    1    2  504  503  0.29632570771E+02 -0.14174639976E+02 -0.20733183732E+02  0.38844234792E+02  0.00000000000E+00 0.  1.
         21    1    1    2  505  501  0.26831236463E+02  0.12516787232E+03  0.24148446647E+04  0.24182352379E+04  0.00000000000E+00 0. -1.
          2    1    1    2  501    0  0.63780713179E+02 -0.98920630149E+02 -0.70251395402E+03  0.71230550050E+03  0.00000000000E+00 0. -1.
<scales pt_clust_3="120.45787" pt_clust_4="32.84828" pt_clust_5="145.74061" pt_clust_6="14000.00000"></scales>
<clustering>
<clus scale="   32.848">  2  4  1 -1</clus>
<clus scale="  120.458">  1  3  2 -1</clus>
<clus scale="  145.741">  1  5  2 -1</clus>
<clus scale="  120.458">  1  3  2 -1</clus>
</clustering>
</event>
<event>
 6    0  0.4189111E+002  0.1512453E+03  0.7546771E-02  0.1198951E+00
         -4   -1    0    0    0  501 -0.00000000000E+00  0.00000000000E+00  0.16887332851E+04  0.16887332851E+04  0.00000000000E+00 0.  1.
         21   -1    0    0  504  502  0.00000000000E+00 -0.00000000000E+00 -0.42438353926E+03  0.42438353926E+03  0.00000000000E+00 0.  1.
         21    1    1    2  503  502 -0.99428390643E+02  0.57456454763E+02 -0.15826956096E+03  0.19554156333E+03  0.00000000000E+00 0.  1.
         21    1    1    2  504  505  0.72751517835E+02  0.97261583646E+02 -0.21981504890E+03  0.25113991065E+03  0.00000000000E+00 0.  1.
         21    1    1    2  505  501  0.50458125322E+02 -0.60225264139E+02  0.13761396420E+03  0.15846358570E+03  0.00000000000E+00 0.  1.
         -4    1    1    2    0  503 -0.23781252514E+02 -0.94492774270E+02  0.15048203915E+04  0.15079717646E+04  0.00000000000E+00 0.  1.
<scales pt_clust_3="113.94328" pt_clust_4="151.24527" pt_clust_5="78.56911" pt_clust_6="14000.00000"></scales>
<clustering>
<clus scale="   78.569">  1  5  2 -1</clus>
<clus scale="  113.943">  2  3  1 -1</clus>
<clus scale="  151.245">  2  4  1 -1</clus>
<clus scale="  113.943">  2  3  1 -1</clus>
</clustering>
</event>
<event>
 6    0  0.4189111E+002  0.9687874E+02  0.7546771E-02  0.1287000E+00
         -2   -1    0    0    0  501 -0.00000000000E+00  0.00000000000E+00  0.13539903874E+04  0.13539903874E+04  0.00000000000E+00 0. -1.
         21   -1    0    0  505  502  0.00000000000E+00 -0.00000000000E+00 -0.55413342514E+03  0.55413342514E+03  0.00000000000E+00 0.  1.
         21    1    1    2  503  502  0.23761866644E+02  0.78332323534E+02 -0.14722655965E+02  0.83170522514E+02  0.00000000000E+00 0. -1.
         21    1    1    2  504  501  0.75510492358E+02 -0.34107288800E+02  0.26011694015E+03  0.27299443979E+03  0.00000000000E+00 0.  1.
         21    1    1    2  505  504 -0.45478724994E+02  0.22855925897E+02 -0.49568769821E+03  0.49829409181E+03  0.00000000000E+00 0.  1.
         -2    1    1    2    0  503 -0.53793634008E+02 -0.67080960631E+02  0.10501503763E+04  0.10536647584E+04  0.00000000000E+00 0. -1.
<scales pt_clust_3="96.87874" pt_clust_4="77.12620" pt_clust_5="50.89900" pt_clust_6="14000.00000"></scales>
<clustering>
<clus scale="   50.899">  2  5  1 -1</clus>
<clus scale="   77.126">  1  4  2 -1</clus>
<clus scale="   96.879">  2  3  1 -1</clus>
<clus scale="   50.899">  2  3  1 -1</clus>
</clustering>
</event>
<event>
 6    0  0.4189111E+002  0.1088697E+03  0.7546771E-02  0.1262678E+00
          1   -1    0    0  504    0 -0.00000000000E+00  0.00000000000E+00  0.15375918820E+04  0.15375918820E+04  0.00000000000E+00 0. -1.
         21   -1    0    0  505  502  0.00000000000E+00 -0.00000000000E+00 -0.26692415497E+02  0.26692415497E+02  0.00000000000E+00 0.  1.
         21    1    1    2  503  502  0.10697245825E+03  0.50568442614E+02  0.15749372278E+03  0.19698869746E+03  0.00000000000E+00 0.  1.
         21    1    1    2  504  503  0.28955524559E+02 -0.15846967383E+02  0.44474811416E+03  0.44597133745E+03  0.00000000000E+00 0. -1.
         21    1    1    2  505  501 -0.82769776275E+02 -0.30620913607E+02  0.38629566065E+03  0.39624842416E+03  0.00000000000E+00 0. -1.
          1    1    1    2  501    0 -0.53158206537E+02 -0.41005616237E+01  0.52236196896E+03  0.52507583847E+03  0.00000000000E+00 0. -1.
<scales pt_clust_3="14000.00000" pt_clust_4="33.00831" pt_clust_5="108.86966" pt_clust_6="40.97965"></scales>
<clustering>
<clus scale="   33.008">  1  4  2 -1</clus>
<clus scale="   40.980">  1  6  2 -1</clus>
<clus scale="  108.870">  1  5  2 -1</clus>
<clus scale="  108.870">  2  3  1 -1</clus>
</clustering>
</event>
<event>
 6    0  0.4189111E+002  0.1658239E+03  0.7546771E-02  0.1182274E+00
          1   -1    0    0  504    0 -0.00000000000E+00  0.00000000000E+00  0.44333814456E+03  0.44333814456E+03  0.00000000000E+00 0. -1.
         21   -1    0    0  505  502  0.00000000000E+00 -0.00000000000E+00 -0.88173038371E+03  0.88173038371E+03  0.00000000000E+00 0.  1.
         21    1    1    2  503  501  0.44886475607E+02  0.18559958503E+00  0.11837608502E+03  0.12660066210E+03  0.00000000000E+00 0. -1.
         21    1    1    2  504  502 -0.20719427394E+03 -0.72564951689E+02 -0.16413410737E+03  0.27410790680E+03  0.00000000000E+00 0. -1.
         21    1    1    2  505  503  0.15266267379E+03  0.35995302176E+02 -0.64775651515E+03  0.66647584852E+03  0.00000000000E+00 0.  1.
          1    1    1    2  501    0  0.96451245352E+01  0.36384049928E+02  0.25512229835E+03  0.25788411085E+03  0.00000000000E+00 0. -1.
<scales pt_clust_3="56.57128" pt_clust_4="165.82385" pt_clust_5="14000.00000" pt_clust_6="37.64077"></scales>
<clustering>
<clus scale="   37.641">  1  6  2 -1</clus>
<clus scale="   56.571">  1  3  2 -1</clus>
<clus scale="  165.824">  1  4  2 -1</clus>
<clus scale="  165.824">  2  3  1 -1</clus>
</clustering>
</event>
<event>
 6    0  0.4189111E+002  0.1695489E+03  0.7546771E-02  0.1178319E+00
         21   -1    0    0  504  502  0.00000000000E+00  0.00000000000E+00  0.10841006708E+03  0.10841006708E+03  0.00000000000E+00 0.  1.
          1   -1    0    0  503    0 -0.00000000000E+00 -0.00000000000E+00 -0.68817955507E+03  0.68817955507E+03  0.00000000000E+00 0.  1.
         21    1    1    2  503  502 -0.13210722067E+03  0.10270507292E+03 -0.27810653266E+01  0.16735705567E+03  0.00000000000E+00 0.  1.
         21    1    1    2  504  505 -0.10230316095E+02 -0.29147311628E+02 -0.31720143686E+01  0.31052967937E+02  0.00000000000E+00 0. -1.
         21    1    1    2  505  501  0.71600370587E+02 -0.54398817946E+02 -0.23706914924E+03  0.25355004631E+03  0.00000000000E+00 0.  1.
          1    1    1    2  501    0  0.70737166180E+02 -0.19158943348E+02 -0.33674725905E+03  0.34462955223E+03  0.00000000000E+00 0.  1.
<scales pt_clust_3="160.82282" pt_clust_4="30.89053" pt_clust_5="48.21341" pt_clust_6="48.21341"></scales>
<clustering>
<clus scale="   30.891">  1  4  2 -1</clus>
<clus scale="   48.213">  5  6 -1 -1</clus>
<clus scale="  160.823">  1  3  2 -1</clus>
<clus scale="   30.891">  1  3  2 -1</clus>
</clustering>
</event>
<event>
 6    0  0.4189111E+002  0.8791393E+02  0.7546771E-02  0.1307983E+00
         21   -1    0    0  501  502  0.00000000000E+00  0.00000000000E+00  0.69261398667E+03  0.69261398667E+03  0.00000000000E+00 0.  1.
          3   -1    0    0  504    0 -0.00000000000E+00 -0.00000000000E+00 -0.72306772479E+02  0.72306772479E+02  0.00000000000E+00 0. -1.
         21    1    1    2  503  502  0.61432692184E+01 -0.94313089565E+02  0.53902834606E+03  0.54725154772E+03  0.00000000000E+00 0.  1.
         21    1    1    2  504  505 -0.28035701359E+02  0.28389624833E+02 -0.13282702576E+01  0.39921618839E+02  0.00000000000E+00 0. -1.
         21    1    1    2  505  503 -0.49457564223E+02  0.35995246285E+02  0.79504397697E+02  0.10031279912E+03  0.00000000000E+00 0.  1.
          3    1    1    2  501    0  0.71349996363E+02  0.29928218447E+02  0.31027406883E+01  0.77434793473E+02  0.00000000000E+00 0. -1.
<scales pt_clust_3="14000.00000" pt_clust_4="39.89952" pt_clust_5="69.10815" pt_clust_6="87.91393"></scales>
<clustering>
<clus scale="   39.900">  2  4  1 -1</clus>
<clus scale="   69.108">  2  5  1 -1</clus>
<clus scale="   87.914">  2  6  1 -1</clus>
<clus scale="   87.914">  1  3  2 -1</clus>
</clustering>
</event>
<event>
 6    0  0.4189111E+002  0.1325657E+03  0.7546771E-02  0.1223698E+00
         21   -1    0    0  503  502  0.00000000000E+00  0.00000000000E+00  0.21013183373E+03  0.21013183373E+03  0.00000000000E+00 0.  1.
          2   -1    0    0  505    0 -0.00000000000E+00 -0.00000000000E+00 -0.26061479654E+04  0.26061479654E+04  0.00000000000E+00 0. -1.
         21    1    1    2  503  504 -0.36113538752E+02  0.92302427838E+00  0.70780229177E+02  0.79466222367E+02  0.00000000000E+00 0.  1.
         21    1    1    2  504  501 -0.28734323771E+02  0.65215019799E+02 -0.65628237331E+02  0.96879955126E+02  0.00000000000E+00 0.  1.
         21    1    1    2  505  502  0.10650656678E+01  0.58776158435E+02  0.11006855118E+03  0.12478324056E+03  0.00000000000E+00 0.  1.
          2    1    1    2  501    0  0.63782796855E+02 -0.12491420251E+03 -0.25112366747E+04  0.25151503811E+04  0.00000000000E+00 0. -1.
<scales pt_clust_3="36.12533" pt_clust_4="14000.00000" pt_clust_5="66.86172" pt_clust_6="132.56571"></scales>
<clustering>
<clus scale="   36.125">  1  3  2 -1</clus>
<clus scale="   66.862">  1  5  2 -1</clus>
<clus scale="  132.566">  2  6  1 -1</clus>
<clus scale="   36.125">  1  3  2 -1</clus>
</clustering>
</event>
<event>
 6    0  0.4189111E+002  0.3554910E+03  0.7546771E-02  0.1060384E+00
          2   -1    0    0  505    0 -0.00000000000E+00  0.00000000000E+00  0.76152894908E+03  0.76152894908E+03  0.00000000000E+00 0. -1.
         21   -1    0    0  503  502  0.00000000000E+00 -0.00000000000E+00 -0.72328266754E+03  0.72328266754E+03  0.00000000000E+00 0.  1.
         21    1    1    2  503  504  0.22095343671E+03 -0.37281418703E+03 -0.24452840180E+03  0.49759921477E+03  0.00000000000E+00 0.  1.
         21    1    1    2  504  501 -0.82232434612E+02  0.15686416335E+03  0.29962966797E+03  0.34806102479E+03  0.00000000000E+00 0. -1.
         21    1    1    2  505  502 -0.10578394328E+03  0.50387721673E+02 -0.29296490725E+03  0.31552749806E+03  0.00000000000E+00 0.  1.
          2    1    1    2  501    0 -0.32937058817E+02  0.16556230201E+03  0.27610992263E+03  0.32362387901E+03  0.00000000000E+00 0. -1.
<scales pt_clust_3="352.01159" pt_clust_4="48.43826" pt_clust_5="117.17152" pt_clust_6="48.43826"></scales>
<clustering>
<clus scale="   48.438">  4  6 -1 -1</clus>
<clus scale="  117.172">  2  5  1 -1</clus>
<clus scale="  352.012">  2  3  1 -1</clus>
<clus scale="  117.172">  2  3  1 -1</clus>
</clustering>
</event>
<event>
 6    0  0.4189111E+002  0.1027398E+03  0.7546771E-02  0.1274638E+00
          2   -1    0    0  503    0 -0.00000000000E+00  0.00000000000E+00  0.22224138512E+04  0.22224138512E+04  0.00000000000E+00 0. -1.
         21   -1    0    0  501  502  0.00000000000E+00 -0.00000000000E+00 -0.13641690797E+03  0.13641690797E+03  0.00000000000E+00 0.  1.
         21    1    1    2  503  505  0.50493278729E+02  0.90516926103E+01  0.58851290414E+03  0.59074439707E+03  0.00000000000E+00 0.  1.
         21    1    1    2  504  502  0.15006169612E+02 -0.38448270557E+02 -0.39709215991E+02  0.57273697889E+02  0.00000000000E+00 0.  1.
         21    1    1    2  505  504 -0.88220914195E+02 -0.35742157417E+02 -0.59746406061E+02  0.11238355999E+03  0.00000000000E+00 0.  1.
          2    1    1    2  501    0  0.22721465854E+02  0.65138735364E+02  0.15969396612E+04  0.15984291042E+04  0.00000000000E+00 0. -1.
<scales pt_clust_3="51.40210" pt_clust_4="41.27293" pt_clust_5="14000.00000" pt_clust_6="102.73979"></scales>
<clustering>
<clus scale="   41.273">  2  4  1 -1</clus>
<clus scale="   51.402">  1  3  2 -1</clus>
<clus scale="  102.740">  1  6  2 -1</clus>
<clus scale="   41.273">  2  3  1 -1</clus>
</clustering>
</event>
<event>
 6    0  0.4189111E+002  0.1658870E+03  0.7546771E-02  0.1182206E+00
          2   -1    0    0  503    0 -0.00000000000E+00  0.00000000000E+00  0.13666860668E+04  0.13666860668E+04  0.00000000000E+00 0.  1.
         21   -1    0    0  504  502  0.00000000000E+00 -0.00000000000E+00 -0.61360208617E+02  0.61360208617E+02  0.00000000000E+00 0.  1.
         21    1    1    2  503  502  0.16786812362E+02 -0.27516336532E+02  0.28811197184E+03  0.28990938957E+03  0.00000000000E+00 0. -1.
         21    1    1    2  504  505  0.12711949844E+03 -0.44038195817E+02  0.17987907651E+03  0.22462237587E+03  0.00000000000E+00 0.  1.
         21    1    1    2  505  501 -0.21156015691E+03  0.51306036451E+02  0.29513510140E+03  0.36673524162E+03  0.00000000000E+00 0.  1.
          2    1    1    2  501    0  0.67653846111E+02  0.20248495897E+02  0.54219970840E+03  0.54677926832E+03  0.00000000000E+00 0.  1.
<scales pt_clust_3="32.23268" pt_clust_4="14000.00000" pt_clust_5="165.88696" pt_clust_6="76.39931"></scales>
<clustering>
<clus scale="   32.233">  1  3  2 -1</clus>
<clus scale="   76.399">  1  6  2 -1</clus>
<clus scale="  165.887">  1  5  2 -1</clus>
<clus scale="  165.887">  2  3  1 -1</clus>
</clustering>
</event>
<event>
 6    0  0.4189111E+002  0.2102553E+03  0.7546771E-02  0.1141364E+00
         21   -1    0    0  503  502  0.00000000000E+00  0.00000000000E+00  0.65286325703E+03  0.65286325703E+03  0.00000000000E+00 0.  1.
         -3   -1    0    0    0  501 -0.00000000000E+00 -0.00000000000E+00 -0.26707401458E+03  0.26707401458E+03  0.00000000000E+00 0.  1.
         21    1    1    2  503  501 -0.46548394604E+02 -0.28285446603E+03  0.16883229322E+03  0.33268264942E+03  0.00000000000E+00 0.  1.
         21    1    1    2  504  502 -0.18376647419E+02 -0.23769108333E+02  0.19888991010E+03  0.20114638455E+03  0.00000000000E+00 0.  1.
         21    1    1    2  505  504 -0.37016475990E+02  0.14101954718E+03  0.98195641823E+02  0.17578144457E+03  0.00000000000E+00 0.  1.
         -3    1    1    2    0  505  0.10194151801E+03  0.16560402717E+03 -0.80128602695E+02  0.21032679307E+03  0.00000000000E+00 0.  1.
<scales pt_clust_3="210.25531" pt_clust_4="30.04450" pt_clust_5="140.43839" pt_clust_6="14000.00000"></scales>
<clustering>
<clus scale="   30.044">  1  4  2 -1</clus>
<clus scale="  140.438">  1  5  2 -1</clus>
<clus scale="  210.255">  1  3  2 -1</clus>
<clus scale="   30.044">  1  3  2 -1</clus>
</clustering>
</event>
<event>
 6    0  0.4189111E+002  0.6369150E+03  0.7546771E-02  0.9831647E-01
          2   -1    0    0  503    0 -0.00000000000E+00  0.00000000000E+00  0.20941324071E+04  0.20941324071E+04  0.00000000000E+00 0. -1.
         21   -1    0    0  505  502  0.00000000000E+00 -0.00000000000E+00 -0.17820726564E+04  0.17820726564E+04  0.00000000000E+00 0. -1.
         21    1    1    2  503  504  0.90277491717E+02 -0.10137411790E+03  0.16091143621E+04  0.16148299501E+04  0.00000000000E+00 0. -1.
         21    1    1    2  504  502  0.54498891667E+03  0.24738424051E+03 -0.96619013235E+03  0.11365453152E+04  0.00000000000E+00 0. -1.
         21    1    1    2  505  501 -0.66050770682E+03 -0.28658339222E+03 -0.51977071735E+03  0.88801017454E+03  0.00000000000E+00 0. -1.
          2    1    1    2  501    0  0.25241298432E+02  0.14057326961E+03  0.18890623827E+03  0.23681962362E+03  0.00000000000E+00 0. -1.
<scales pt_clust_3="135.74512" pt_clust_4="14000.00000" pt_clust_5="636.91503" pt_clust_6="115.83975"></scales>
<clustering>
<clus scale="  135.745">  1  3  2 -1</clus>
<clus scale="  115.840">  1  6  2 -1</clus>
<clus scale="  636.915">  1  5  2 -1</clus>
<clus scale="  636.915">  2  3  1 -1</clus>
</clustering>
</event>
<event>
 6    0  0.4189111E+002  0.9655741E+02  0.7546771E-02  0.1287706E+00
          2   -1    0    0  503    0 -0.00000000000E+00  0.00000000000E+00  0.17388594433E+04  0.17388594433E+04  0.00000000000E+00 0. -1.
         21   -1    0    0  504  502  0.00000000000E+00 -0.00000000000E+00 -0.11440487255E+04  0.11440487255E+04  0.00000000000E+00 0.  1.
         21    1    1    2  503  502  0.89246115718E+02  0.46096514608E+02 -0.10322468452E+04  0.10371226096E+04  0.00000000000E+00 0.  1.
         21    1    1    2  504  505 -0.30650993125E+02 -0.82496950947E+02 -0.86947128595E+02  0.12371351368E+03  0.00000000000E+00 0.  1.
         21    1    1    2  505  501 -0.43251352033E+02 -0.21070875673E+01  0.12077546760E+03  0.12830367432E+03  0.00000000000E+00 0.  1.
          2    1    1    2  501    0 -0.15343770559E+02  0.38507523907E+02  0.15932292240E+04  0.15937683712E+04  0.00000000000E+00 0. -1.
<scales pt_clust_3="96.55741" pt_clust_4="14000.00000" pt_clust_5="64.30026" pt_clust_6="41.45191"></scales>
<clustering>
<clus scale="   41.452">  1  6  2 -1</clus>
<clus scale="   64.300">  1  5  2 -1</clus>
<clus scale="   96.557">  2  3  1 -1</clus>
<clus scale="   96.557">  2  3  1 -1</clus>
</clustering>
</event>
<event>
 6    0  0.4189111E+002  0.1015079E+03  0.7546771E-02  0.1277157E+00
          2   -1    0    0  504    0 -0.00000000000E+00  0.00000000000E+00  0.11277947203E+04  0.11277947203E+04  0.00000000000E+00 0.  1.
         21   -1    0    0  503  502  0.00000000000E+00 -0.00000000000E+00 -0.29045393348E+03  0.29045393348E+03  0.00000000000E+00 0.  1.
         21    1    1    2  503  501  0.57248194869E+02  0.37086288770E+02 -0.90147413045E+01  0.68804172776E+02  0.00000000000E+00 0. -1.
         21    1    1    2  504  505  0.48445066196E+02  0.49606277682E+02  0.23641429651E+03  0.24637253665E+03  0.00000000000E+00 0.  1.
         21    1    1    2  505  502  0.14504129850E+02  0.41309557009E+02 -0.23552741989E+03  0.23956213140E+03  0.00000000000E+00 0.  1.
          2    1    1    2  501    0 -0.12019739091E+03 -0.12800212346E+03  0.84546865151E+03  0.86350981296E+03  0.00000000000E+00 0.  1.
<scales pt_clust_3="101.50793" pt_clust_4="73.09325" pt_clust_5="43.78184" pt_clust_6="14000.00000"></scales>
<clustering>
<clus scale="   43.782">  2  5  1 -1</clus>
<clus scale="   73.093">  1  4  2 -1</clus>
<clus scale="  101.508">  2  3  1 -1</clus>
<clus scale="   43.782">  2  3  1 -1</clus>
</clustering>
</event>
<event>
 6    0  0.4189111E+002  0.1511052E+03  0.7546771E-02  0.1199122E+00
         21   -1    0    0  505  502  0.00000000000E+00  0.00000000000E+00  0.82661246963E+03  0.82661246963E+03  0.00000000000E+00 0. -1.
          2   -1    0    0  503    0 -0.00000000000E+00 -0.00000000000E+00 -0.37438509299E+03  0.37438509299E+03  0.00000000000E+00 0. -1.
         21    1    1    2  503  504  0.51503643725E+02 -0.28585109533E+02 -0.87386344617E+02  0.10538551622E+03  0.00000000000E+00 0.  1.
         21    1    1    2  504  502  0.13244954507E+03  0.80936108686E+02  0.72359773584E+03  0.74005892941E+03  0.00000000000E+00 0. -1.
         21    1    1    2  505  501 -0.14508344570E+03  0.19831345395E+02  0.81501359545E+01  0.14665917357E+03  0.00000000000E+00 0.  1.
          2    1    1    2  501    0 -0.38869743091E+02 -0.72182344547E+02 -0.19213415054E+03  0.20889394342E+03  0.00000000000E+00 0. -1.
<scales pt_clust_3="58.90445" pt_clust_4="14000.00000" pt_clust_5="151.10516" pt_clust_6="92.81605"></scales>
<clustering>
<clus scale="   58.904">  2  3  1 -1</clus>
<clus scale="   92.816">  2  6  1 -1</clus>
<clus scale="  151.105">  2  5  1 -1</clus>
<clus scale="  151.105">  1  3  2 -1</clus>
</clustering>
</event>
<event>
 6    0  0.4189111E+002  0.1327084E+03  0.7546771E-02  0.1223491E+00
         21   -1    0    0  504  502  0.00000000000E+00  0.00000000000E+00  0.32072649588E+03  0.32072649588E+03  0.00000000000E+00 0.  1.
          1   -1    0    0  505    0 -0.00000000000E+00 -0.00000000000E+00 -0.90364762513E+03  0.90364762513E+03  0.00000000000E+00 0.  1.
         21    1    1    2  503  501  0.41293163084E+02  0.95481087472E+01 -0.15367569319E+03  0.15941301821E+03  0.00000000000E+00 0.  1.
         21    1    1    2  504  503 -0.15307553055E+03 -0.70725075678E+02  0.82422532258E+02  0.18769024537E+03  0.00000000000E+00 0. -1.
         21    1    1    2  505  502  0.35878998389E+02  0.42428152334E+02  0.17631309333E+03  0.18486145493E+03  0.00000000000E+00 0.  1.
          1    1    1    2  501    0  0.75903369079E+02  0.18748814597E+02 -0.68798106165E+03  0.69240940251E+03  0.00000000000E+00 0.  1.
<scales pt_clust_3="38.11259" pt_clust_4="122.19622" pt_clust_5="55.56483" pt_clust_6="38.11259"></scales>
<clustering>
<clus scale="   38.113">  3  6 -1 -1</clus>
<clus scale="   55.565">  1  5  2 -1</clus>
<clus scale="  122.196">  1  4  2 -1</clus>
<clus scale="   55.565">  1  3  2 -1</clus>
</clustering>
</event>
<event>
 6    0  0.4189111E+002  0.1565702E+03  0.7546771E-02  0.1192624E+00
         21   -1    0    0  505  502  0.00000000000E+00  0.00000000000E+00  0.57755181733E+03  0.57755181733E+03  0.00000000000E+00 0. -1.
          2   -1    0    0  504    0 -0.00000000000E+00 -0.00000000000E+00 -0.10496289516E+03  0.10496289516E+03  0.00000000000E+00 0. -1.
         21    1    1    2  503  501  0.72830172317E+01 -0.48608931257E+02  0.34088053507E+02  0.59815265023E+02  0.00000000000E+00 0. -1.
         21    1    1    2  504  502 -0.12418790796E+03  0.15405273446E+03  0.31898775220E+03  0.37537723363E+03  0.00000000000E+00 0. -1.
         21    1    1    2  505  503 -0.20697061740E+02 -0.46759311307E+02  0.75868265130E+02  0.91492049996E+02  0.00000000000E+00 0. -1.
          2    1    1    2  501    0  0.13760195247E+03 -0.58684491896E+02  0.43644851338E+02  0.15583016383E+03  0.00000000000E+00 0. -1.
<scales pt_clust_3="38.32990" pt_clust_4="156.57016" pt_clust_5="103.93994" pt_clust_6="14000.00000"></scales>
<clustering>
<clus scale="   38.330">  3  5 -1 -1</clus>
<clus scale="  103.940">  1  3  2 -1</clus>
<clus scale="  156.570">  1  4  2 -1</clus>
<clus scale="  103.940">  1  3  2 -1</clus>
</clustering>
</event>
<event>
 6    0  0.4189111E+002  0.9038486E+02  0.7546771E-02  0.1301922E+00
         21   -1    0    0  504  502  0.00000000000E+00  0.00000000000E+00  0.11181071012E+03  0.11181071012E+03  0.00000000000E+00 0. -1.
         -1   -1    0    0    0  501 -0.00000000000E+00 -0.00000000000E+00 -0.29661264248E+04  0.29661264248E+04  0.00000000000E+00 0. -1.
         21    1    1    2  503  502 -0.47276455353E+02 -0.30588877674E+02  0.55375413566E+02  0.78975813359E+02  0.00000000000E+00 0. -1.
         21    1    1    2  504  505  0.10929744995E+03  0.90369057261E+02 -0.79857173888E+02  0.16275646622E+03  0.00000000000E+00 0. -1.
         21    1    1    2  505  501  0.35825010738E+02 -0.18625098908E+02 -0.19025410926E+03  0.19449152114E+03  0.00000000000E+00 0.  1.
         -1    1    1    2    0  503 -0.97846005338E+02 -0.41155080679E+02 -0.26395798451E+04  0.26417133342E+04  0.00000000000E+00 0. -1.
<scales pt_clust_3="56.22463" pt_clust_4="90.38486" pt_clust_5="40.37729" pt_clust_6="14000.00000"></scales>
<clustering>
<clus scale="   40.377">  2  5  1 -1</clus>
<clus scale="   56.225">  1  3  2 -1</clus>
<clus scale="   90.385">  1  4  2 -1</clus>
<clus scale="   56.225">  1  3  2 -1</clus>
</clustering>
</event>
<event>
 6    0  0.4189111E+002  0.1069505E+03  0.7546771E-02  0.1266324E+00
         21   -1    0    0  501  502  0.00000000000E+00  0.00000000000E+00  0.13959974882E+03  0.13959974882E+03  0.00000000000E+00 0. -1.
          1   -1    0    0  503    0 -0.00000000000E+00 -0.00000000000E+00 -0.10696384689E+04  0.10696384689E+04  0.00000000000E+00 0.  1.
         21    1    1    2  503  505 -0.20198034113E+02  0.28633145602E+02 -0.93648574655E+02  0.99989365154E+02  0.00000000000E+00 0.  1.
         21    1    1    2  504  502  0.56765998633E+02 -0.50005123650E+01  0.81875047434E+02  0.99754233580E+02  0.00000000000E+00 0. -1.
         21    1    1    2  505  504  0.35862616357E+02  0.69041224870E+02  0.57606071216E+01  0.78012835982E+02  0.00000000000E+00 0.  1.
          1    1    1    2  501    0 -0.72430580877E+02 -0.92673858108E+02 -0.92402580002E+03  0.93148178303E+03  0.00000000000E+00 0.  1.
<scales pt_clust_3="35.04023" pt_clust_4="56.77837" pt_clust_5="106.95049" pt_clust_6="14000.00000"></scales>
<clustering>
<clus scale="   35.040">  2  3  1 -1</clus>
<clus scale="   56.778">  1  4  2 -1</clus>
<clus scale="  106.950">  1  5  2 -1</clus>
<clus scale="   56.778">  1  3  2 -1</clus>
</clustering>
</event>
<event>
 6    0  0.4189111E+002  0.1295328E+03  0.7546771E-02  0.1228151E+00
          1   -1    0    0  505    0 -0.00000000000E+00  0.00000000000E+00  0.80670692498E+03  0.80670692498E+03  0.00000000000E+00 0.  1.
         21   -1    0    0  504  502  0.00000000000E+00 -0.00000000000E+00 -0.29340138746E+03  0.29340138746E+03  0.00000000000E+00 0.  1.
         21    1    1    2  503  501 -0.69778271354E+02 -0.42909693448E+02  0.10047799086E+03  0.12963824895E+03  0.00000000000E+00 0.  1.
         21    1    1    2  504  503 -0.33777836988E+02 -0.23933887651E+02 -0.18512495714E+03  0.18969718766E+03  0.00000000000E+00 0.  1.
         21    1    1    2  505  502  0.13002793826E+03  0.13420827927E+03  0.86759663695E+01  0.18706790036E+03  0.00000000000E+00 0. -1.
          1    1    1    2  501    0 -0.26471829920E+02 -0.67364698174E+02  0.58927653742E+03  0.59370497547E+03  0.00000000000E+00 0.  1.
<scales pt_clust_3="129.53285" pt_clust_4="41.39774" pt_clust_5="14000.00000" pt_clust_6="73.10425"></scales>
<clustering>
<clus scale="   41.398">  2  4  1 -1</clus>
<clus scale="   73.104">  1  6  2 -1</clus>
<clus scale="  129.533">  1  3  2 -1</clus>
<clus scale="   41.398">  2  3  1 -1</clus>
</clustering>
</event>
<event>
 6    0  0.4189111E+002  0.7923432E+02  0.7546771E-02  0.1331238E+00
         21   -1    0    0  501  502  0.00000000000E+00  0.00000000000E+00  0.15029503100E+02  0.15029503100E+02  0.00000000000E+00 0.  1.
          2   -1    0    0  505    0 -0.00000000000E+00 -0.00000000000E+00 -0.13342829870E+04  0.13342829870E+04  0.00000000000E+00 0. -1.
         21    1    1    2  503  502 -0.43455150648E+02  0.35597837699E+02 -0.24293841555E+03  0.24934841069E+03  0.00000000000E+00 0. -1.
         21    1    1    2  504  503 -0.59755884892E+02 -0.37786394614E+02 -0.20267602472E+03  0.21465355435E+03  0.00000000000E+00 0.  1.
         21    1    1    2  505  504  0.72468355284E+02  0.39899499818E+02 -0.70363046553E+03  0.70847686245E+03  0.00000000000E+00 0. -1.
          2    1    1    2  501    0  0.30742680257E+02 -0.37710942904E+02 -0.17000857809E+03  0.17683366260E+03  0.00000000000E+00 0. -1.
<scales pt_clust_3="43.10310" pt_clust_4="14000.00000" pt_clust_5="79.23432" pt_clust_6="48.65416"></scales>
<clustering>
<clus scale="   48.654">  1  6  2 -1</clus>
<clus scale="   43.103">  1  3  2 -1</clus>
<clus scale="   79.234">  2  5  1 -1</clus>
<clus scale="   48.654">  1  3  2 -1</clus>
</clustering>
</event>
<event>
 6    0  0.4189111E+002  0.1149175E+03  0.7546771E-02  0.1251725E+00
         21   -1    0    0  504  502  0.00000000000E+00  0.00000000000E+00  0.52985059612E+02  0.52985059612E+02  0.00000000000E+00 0.  1.
         -1   -1    0    0    0  501 -0.00000000000E+00 -0.00000000000E+00 -0.12206954673E+04  0.12206954673E+04  0.00000000000E+00 0.  1.
         21    1    1    2  503  502  0.30186590220E+02 -0.10688960761E+03 -0.35788766750E+02  0.11669384846E+03  0.00000000000E+00 0.  1.
         21    1    1    2  504  505  0.40696976170E+02  0.11301669663E+01 -0.45814612344E+02  0.61290291654E+02  0.00000000000E+00 0.  1.
         21    1    1    2  505  501 -0.12547076370E+02  0.64830464269E+02 -0.35212838539E+03  0.35826640649E+03  0.00000000000E+00 0.  1.
         -1    1    1    2    0  503 -0.58336490020E+02  0.40928976370E+02 -0.73397864321E+03  0.73742998032E+03  0.00000000000E+00 0.  1.
<scales pt_clust_3="14000.00000" pt_clust_4="40.71267" pt_clust_5="65.64079" pt_clust_6="114.91751"></scales>
<clustering>
<clus scale="   40.713">  1  4  2 -1</clus>
<clus scale="   65.641">  2  5  1 -1</clus>
<clus scale="  114.918">  2  6  1 -1</clus>
<clus scale="   40.713">  1  3  2 -1</clus>
</clustering>
</event>
<event>
 6    0  0.4189111E+002  0.1940419E+03  0.7546771E-02  0.1154865E+00
         21   -1    0    0  505  502  0.00000000000E+00  0.00000000000E+00  0.36621046344E+03  0.36621046344E+03  0.00000000000E+00 0. -1.
          1   -1    0    0  502    0 -0.00000000000E+00 -0.00000000000E+00 -0.44010000036E+03  0.44010000036E+03  0.00000000000E+00 0. -1.
         21    1    1    2  503  504  0.48661885543E+02 -0.17128637847E+02  0.95970360190E+02  0.10895723645E+03  0.00000000000E+00 0. -1.
         21    1    1    2  504  501 -0.51916209875E+02  0.42827840036E+02 -0.18511257495E+03  0.19696746466E+03  0.00000000000E+00 0.  1.
         21    1    1    2  505  503  0.68945332686E+02 -0.12415045083E+03  0.22119440650E+03  0.26285691698E+03  0.00000000000E+00 0. -1.
          1    1    1    2  501    0 -0.65691008354E+02  0.98451248640E+02 -0.20594172866E+03  0.23752884570E+03  0.00000000000E+00 0. -1.
<scales pt_clust_3="37.45149" pt_clust_4="34.32807" pt_clust_5="37.45149" pt_clust_6="189.37681"></scales>
<clustering>
<clus scale="   34.328">  4  6 -1 -1</clus>
<clus scale="   37.451">  3  5 -1 -1</clus>
<clus scale="  189.377">  2  4  1 -1</clus>
<clus scale="  194.042">  1  3  2 -1</clus>
</clustering>
</event>
<event>
 6    0  0.4189111E+002  0.8330951E+02  0.7546771E-02  0.1319913E+00
         21   -1    0    0  505  502  0.00000000000E+00  0.00000000000E+00  0.71002577926E+02  0.71002577926E+02  0.00000000000E+00 0.  1.
          2   -1    0    0  503    0 -0.00000000000E+00 -0.00000000000E+00 -0.12711215956E+04  0.12711215956E+04  0.00000000000E+00 0.  1.
         21    1    1    2  503  504  0.53555202532E+02  0.11711414281E+02 -0.40073712938E+03  0.40446948439E+03  0.00000000000E+00 0.  1.
         21    1    1    2  504  502 -0.91563071795E+02  0.98208184482E+02 -0.65975329442E+02  0.14960410326E+03  0.00000000000E+00 0.  1.
         21    1    1    2  505  501  0.31144072650E+02 -0.42118752208E+02 -0.90972194232E+00  0.52390553946E+02  0.00000000000E+00 0.  1.
          2    1    1    2  501    0  0.68637966140E+01 -0.67800846555E+02 -0.73249683692E+03  0.73566003194E+03  0.00000000000E+00 0.  1.
<scales pt_clust_3="55.73908" pt_clust_4="14000.00000" pt_clust_5="52.38266" pt_clust_6="83.30951"></scales>
<clustering>
<clus scale="   52.383">  1  5  2 -1</clus>
<clus scale="   55.739">  2  3  1 -1</clus>
<clus scale="   83.310">  2  6  1 -1</clus>
<clus scale="   52.383">  1  3  2 -1</clus>
</clustering>
</event>
<event>
 6    0  0.4189111E+002  0.6399157E+02  0.7546771E-02  0.1381805E+00
         21   -1    0    0  505  502  0.00000000000E+00  0.00000000000E+00  0.88917033839E+03  0.88917033839E+03  0.00000000000E+00 0. -1.
          2   -1    0    0  503    0 -0.00000000000E+00 -0.00000000000E+00 -0.17126504448E+03  0.17126504448E+03  0.00000000000E+00 0.  1.
         21    1    1    2  503  502 -0.56596527720E+02 -0.19497875797E+02  0.12685862745E+03  0.14027275384E+03  0.00000000000E+00 0. -1.
         21    1    1    2  504  501  0.22757005764E+02 -0.70463619652E+02 -0.12740731726E+02  0.75135406106E+02  0.00000000000E+00 0. -1.
         21    1    1    2  505  504  0.84837087056E+02  0.51230206038E+02  0.71222784418E+03  0.71908995777E+03  0.00000000000E+00 0. -1.
          2    1    1    2  501    0 -0.50997565100E+02  0.38731289411E+02 -0.10844044599E+03  0.12593726514E+03  0.00000000000E+00 0.  1.
<scales pt_clust_3="59.86096" pt_clust_4="14000.00000" pt_clust_5="45.26473" pt_clust_6="63.99157"></scales>
<clustering>
<clus scale="   59.861">  1  3  2 -1</clus>
<clus scale="   45.265">  1  5  2 -1</clus>
<clus scale="   63.992">  2  6  1 -1</clus>
<clus scale="   59.861">  1  3  2 -1</clus>
</clustering>
</event>
<event>
 6    0  0.4189111E+002  0.1607439E+03  0.7546771E-02  0.1187859E+00
          1   -1    0    0  504    0 -0.00000000000E+00  0.00000000000E+00  0.16426350091E+04  0.16426350091E+04  0.00000000000E+00 0. -1.
         21   -1    0    0  503  502  0.00000000000E+00 -0.00000000000E+00 -0.28269349945E+02  0.28269349945E+02  0.00000000000E+00 0.  1.
         21    1    1    2  503  505 -0.25708172294E+02 -0.13102803177E+03  0.33937615400E+03  0.36469909396E+03  0.00000000000E+00 0.  1.
         21    1    1    2  504  502  0.20882602308E+02 -0.28765246793E+02  0.21801633261E+02  0.41699325115E+02  0.00000000000E+00 0.  1.
         21    1    1    2  505  501  0.15636758033E+02  0.60639621008E+02  0.32531755896E+03  0.33129018398E+03  0.00000000000E+00 0. -1.
          1    1    1    2  501    0 -0.10811188046E+02  0.99153657551E+02  0.92787031291E+03  0.93321575596E+03  0.00000000000E+00 0. -1.
<scales pt_clust_3="151.32865" pt_clust_4="35.54606" pt_clust_5="42.69312" pt_clust_6="42.69312"></scales>
<clustering>
<clus scale="   35.546">  2  4  1 -1</clus>
<clus scale="   42.693">  5  6 -1 -1</clus>
<clus scale="  151.329">  2  3  1 -1</clus>
<clus scale="   35.546">  2  3  1 -1</clus>
</clustering>
</event>
<event>
 6    0  0.4189111E+002  0.1538442E+03  0.7546771E-02  0.1195827E+00
         21   -1    0    0  505  502  0.00000000000E+00  0.00000000000E+00  0.63737987541E+03  0.63737987541E+03  0.00000000000E+00 0.  1.
         -2   -1    0    0    0  501 -0.00000000000E+00 -0.00000000000E+00 -0.51384559576E+03  0.51384559576E+03  0.00000000000E+00 0.  1.
         21    1    1    2  503  502 -0.13260657456E+02 -0.32232237913E+02  0.94559129830E+02  0.10077793028E+03  0.00000000000E+00 0. -1.
         21    1    1    2  504  503  0.84878339421E+01 -0.94212100003E+02  0.16951363496E+02  0.96100529845E+02  0.00000000000E+00 0.  1.
         21    1    1    2  505  501  0.28767938234E+02 -0.41847292984E+02  0.46642899684E+03  0.46918525050E+03  0.00000000000E+00 0.  1.
         -2    1    1    2    0  504 -0.23995114721E+02  0.16829163090E+03 -0.45440521051E+03  0.48516176055E+03  0.00000000000E+00 0.  1.
<scales pt_clust_3="34.85344" pt_clust_4="153.84418" pt_clust_5="71.89145" pt_clust_6="14000.00000"></scales>
<clustering>
<clus scale="   34.853">  1  3  2 -1</clus>
<clus scale="   71.891">  1  5  2 -1</clus>
<clus scale="  153.844">  1  4  2 -1</clus>
<clus scale="   34.853">  1  3  2 -1</clus>
</clustering>
</event>
<event>
 6    0  0.4189111E+002  0.1470239E+03  0.7546771E-02  0.1204178E+00
         21   -1    0    0  505  502  0.00000000000E+00  0.00000000000E+00  0.67943242813E+03  0.67943242813E+03  0.00000000000E+00 0.  1.
          4   -1    0    0  503    0 -0.00000000000E+00 -0.00000000000E+00 -0.30608194016E+03  0.30608194016E+03  0.00000000000E+00 0. -1.
         21    1    1    2  503  502 -0.30582679447E+02  0.11299669656E+02  0.50040133638E+02  0.59724348393E+02  0.00000000000E+00 0. -1.
         21    1    1    2  504  501  0.50008275330E+02  0.70233068324E+02 -0.11700863027E+03  0.14534280527E+03  0.00000000000E+00 0. -1.
         21    1    1    2  505  504 -0.70297159365E+02 -0.95357755739E+02  0.60036539477E+03  0.61194231707E+03  0.00000000000E+00 0.  1.
          4    1    1    2  501    0  0.50871563482E+02  0.13825017759E+02 -0.16004641017E+03  0.16850489754E+03  0.00000000000E+00 0. -1.
<scales pt_clust_3="32.60342" pt_clust_4="52.41349" pt_clust_5="130.83437" pt_clust_6="52.41349"></scales>
<clustering>
<clus scale="   32.603">  1  3  2 -1</clus>
<clus scale="   52.413">  4  6 -1 -1</clus>
<clus scale="  130.834">  1  5  2 -1</clus>
<clus scale="   32.603">  1  3  2 -1</clus>
</clustering>
</event>
<event>
 6    0  0.4189111E+002  0.1590045E+03  0.7546771E-02  0.1189825E+00
         21   -1    0    0  505  502  0.00000000000E+00  0.00000000000E+00  0.39733916242E+03  0.39733916242E+03  0.00000000000E+00 0.  1.
          1   -1    0    0  503    0 -0.00000000000E+00 -0.00000000000E+00 -0.27960187922E+04  0.27960187922E+04  0.00000000000E+00 0. -1.
         21    1    1    2  503  504 -0.67548669961E+01  0.64371781255E+02 -0.79906619439E+02  0.10283201000E+03  0.00000000000E+00 0.  1.
         21    1    1    2  504  502 -0.35933422528E+02 -0.85726095435E+02  0.35173916810E+03  0.36381398636E+03  0.00000000000E+00 0.  1.
         21    1    1    2  505  501  0.26089263864E+02 -0.77361022328E+02 -0.34225454532E+02  0.88525472055E+02  0.00000000000E+00 0. -1.
          1    1    1    2  501    0  0.16599025660E+02  0.98715336508E+02 -0.26362867239E+04  0.26381864862E+04  0.00000000000E+00 0. -1.
<scales pt_clust_3="64.72522" pt_clust_4="159.00450" pt_clust_5="80.20925" pt_clust_6="14000.00000"></scales>
<clustering>
<clus scale="   64.725">  2  3  1 -1</clus>
<clus scale="   80.209">  1  5  2 -1</clus>
<clus scale="  159.004">  1  4  2 -1</clus>
<clus scale="   80.209">  1  3  2 -1</clus>
</clustering>
</event>
<event>
 6    0  0.4189111E+002  0.6919404E+02  0.7546771E-02  0.1362855E+00
         21   -1    0    0  504  502  0.00000000000E+00  0.00000000000E+00  0.75033034889E+01  0.75033034889E+01  0.00000000000E+00 0. -1.
          2   -1    0    0  505    0 -0.00000000000E+00 -0.00000000000E+00 -0.26196970002E+04  0.26196970002E+04  0.00000000000E+00 0. -1.
         21    1    1    2  503  501 -0.35458635904E+02 -0.71294261329E+02 -0.96787835317E+03  0.97114813139E+03  0.00000000000E+00 0. -1.
         21    1    1    2  504  503 -0.60694015811E+02  0.19909908255E+02 -0.67562651557E+03  0.67863934202E+03  0.00000000000E+00 0. -1.
         21    1    1    2  505  502  0.59922471205E+02  0.24549809038E+01 -0.29855219250E+03  0.30451624116E+03  0.00000000000E+00 0. -1.
          2    1    1    2  501    0  0.36230180510E+02  0.48929372171E+02 -0.67013663547E+03  0.67289658911E+03  0.00000000000E+00 0. -1.
<scales pt_clust_3="69.19404" pt_clust_4="45.69995" pt_clust_5="59.97274" pt_clust_6="14000.00000"></scales>
<clustering>
<clus scale="   59.973">  1  5  2 -1</clus>
<clus scale="   45.700">  1  4  2 -1</clus>
<clus scale="   69.194">  1  3  2 -1</clus>
<clus scale="   59.973">  1  3  2 -1</clus>
</clustering>
</event>
<event>
 6    0  0.4189111E+002  0.7412921E+02  0.7546771E-02  0.1346589E+00
         21   -1    0    0  504  502  0.00000000000E+00  0.00000000000E+00  0.92815609581E+02  0.92815609581E+02  0.00000000000E+00 0. -1.
          2   -1    0    0  505    0 -0.00000000000E+00 -0.00000000000E+00 -0.47814825983E+03  0.47814825983E+03  0.00000000000E+00 0. -1.
         21    1    1    2  503  502 -0.20459352321E+02  0.28772025084E+02  0.21376224448E+02  0.41271751798E+02  0.00000000000E+00 0. -1.
         21    1    1    2  504  501  0.55549940908E+02 -0.48647106427E+02  0.19540023925E+02  0.76381604026E+02  0.00000000000E+00 0. -1.
         21    1    1    2  505  503  0.51605737161E+01  0.80885190430E+02 -0.21451417147E+03  0.22931501328E+03  0.00000000000E+00 0. -1.
          2    1    1    2  501    0 -0.40251162303E+02 -0.61010109087E+02 -0.21173472715E+03  0.22399550031E+03  0.00000000000E+00 0. -1.
<scales pt_clust_3="35.30460" pt_clust_4="47.47980" pt_clust_5="14000.00000" pt_clust_6="74.12921"></scales>
<clustering>
<clus scale="   35.305">  1  3  2 -1</clus>
<clus scale="   47.480">  1  4  2 -1</clus>
<clus scale="   74.129">  2  6  1 -1</clus>
<clus scale="   35.305">  1  3  2 -1</clus>
</clustering>
</event>
<event>
 6    0  0.4189111E+002  0.7713989E+02  0.7546771E-02  0.1337370E+00
         21   -1    0    0  505  502  0.00000000000E+00  0.00000000000E+00  0.13408253384E+03  0.13408253384E+03  0.00000000000E+00 0. -1.
         -1   -1    0    0    0  501 -0.00000000000E+00 -0.00000000000E+00 -0.30347110177E+03  0.30347110177E+03  0.00000000000E+00 0. -1.
         21    1    1    2  503  502  0.14026720241E+02  0.42063466339E+02  0.47746681803E+02  0.65160031495E+02  0.00000000000E+00 0. -1.
         21    1    1    2  504  501  0.47604181728E+02  0.30906598372E+02 -0.71772512301E+02  0.91502292119E+02  0.00000000000E+00 0. -1.
         21    1    1    2  505  504  0.33765784332E+02 -0.27229932043E+02  0.45377715697E+02  0.62775269593E+02  0.00000000000E+00 0. -1.
         -1    1    1    2    0  503 -0.95396686302E+02 -0.45740132668E+02 -0.19074045313E+03  0.21811604240E+03  0.00000000000E+00 0. -1.
<scales pt_clust_3="44.21431" pt_clust_4="77.13989" pt_clust_5="43.37738" pt_clust_6="14000.00000"></scales>
<clustering>
<clus scale="   43.377">  1  5  2 -1</clus>
<clus scale="   44.214">  1  3  2 -1</clus>
<clus scale="   77.140">  2  4  1 -1</clus>
<clus scale="   43.377">  1  3  2 -1</clus>
</clustering>
</event>
<event>
 6    0  0.4189111E+002  0.7400891E+02  0.7546771E-02  0.1346968E+00
          2   -1    0    0  503    0 -0.00000000000E+00  0.00000000000E+00  0.15143106577E+04  0.15143106577E+04  0.00000000000E+00 0.  1.
         21   -1    0    0  501  502  0.00000000000E+00 -0.00000000000E+00 -0.11006186000E+03  0.11006186000E+03  0.00000000000E+00 0.  1.
         21    1    1    2  503  504  0.44763053613E+02 -0.17515083308E+02  0.18059175575E+03  0.18687934974E+03  0.00000000000E+00 0. -1.
         21    1    1    2  504  505 -0.14092325324E+03 -0.13248235471E+02  0.20939559551E+03  0.25274768934E+03  0.00000000000E+00 0. -1.
         21    1    1    2  505  502  0.69676541318E+02 -0.58022705901E+01 -0.70355860618E+02  0.99188879807E+02  0.00000000000E+00 0.  1.
          2    1    1    2  501    0  0.26483658308E+02  0.36565589369E+02  0.10846173070E+04  0.10855565988E+04  0.00000000000E+00 0.  1.
<scales pt_clust_3="56.13069" pt_clust_4="74.00891" pt_clust_5="14000.00000" pt_clust_6="45.14894"></scales>
<clustering>
<clus scale="   45.149">  1  6  2 -1</clus>
<clus scale="   56.131">  1  3  2 -1</clus>
<clus scale="   74.009">  1  4  2 -1</clus>
<clus scale="   74.009">  2  3  1 -1</clus>
</clustering>
</event>
<event>
 6    0  0.4189111E+002  0.1385518E+03  0.7546771E-02  0.1215291E+00
         21   -1    0    0  504  502  0.00000000000E+00  0.00000000000E+00  0.16699176329E+03  0.16699176329E+03  0.00000000000E+00 0.  1.
          1   -1    0    0  505    0 -0.00000000000E+00 -0.00000000000E+00 -0.13403193277E+04  0.13403193277E+04  0.00000000000E+00 0.  1.
         21    1    1    2  503  502  0.10718643784E+02  0.81472889959E+02 -0.61581866029E+01  0.82405366239E+02  0.00000000000E+00 0.  1.
         21    1    1    2  504  501  0.18971627218E+02  0.68103960499E+02  0.11243371044E+03  0.13281344555E+03  0.00000000000E+00 0.  1.
         21    1    1    2  505  503  0.14033974663E+02 -0.38594762775E+02 -0.13037016618E+03  0.13668536274E+03  0.00000000000E+00 0. -1.
          1    1    1    2  501    0 -0.43724245666E+02 -0.11098208768E+03 -0.11492329221E+04  0.11554069165E+04  0.00000000000E+00 0.  1.
<scales pt_clust_3="14000.00000" pt_clust_4="70.41520" pt_clust_5="41.06712" pt_clust_6="138.55177"></scales>
<clustering>
<clus scale="   41.067">  2  5  1 -1</clus>
<clus scale="   70.415">  1  4  2 -1</clus>
<clus scale="  138.552">  2  6  1 -1</clus>
<clus scale="   70.415">  1  3  2 -1</clus>
</clustering>
</event>
<event>
 6    0  0.4189111E+002  0.1971703E+03  0.7546771E-02  0.1152149E+00
         -2   -1    0    0    0  501 -0.00000000000E+00  0.00000000000E+00  0.39320448131E+03  0.39320448131E+03  0.00000000000E+00 0.  1.
         21   -1    0    0  503  502  0.00000000000E+00 -0.00000000000E+00 -0.22256401986E+03  0.22256401986E+03  0.00000000000E+00 0. -1.
         21    1    1    2  503  501  0.12681146785E+01 -0.55233906968E+02 -0.34383911008E+02  0.65074157160E+02  0.00000000000E+00 0. -1.
         21    1    1    2  504  502 -0.18480390239E+03  0.58686691793E+02 -0.75580557845E+02  0.20810821910E+03  0.00000000000E+00 0. -1.
         21    1    1    2  505  504  0.14373437978E+03  0.18960516079E+02  0.24495152240E+03  0.28464068828E+03  0.00000000000E+00 0.  1.
         -2    1    1    2    0  505  0.39801407933E+02 -0.22413300904E+02  0.35653407907E+02  0.57945436630E+02  0.00000000000E+00 0.  1.
<scales pt_clust_3="55.24846" pt_clust_4="184.24794" pt_clust_5="39.40697" pt_clust_6="39.40697"></scales>
<clustering>
<clus scale="   39.407">  5  6 -1 -1</clus>
<clus scale="   55.248">  2  3  1 -1</clus>
<clus scale="  184.248">  2  4  1 -1</clus>
<clus scale="   55.248">  2  3  1 -1</clus>
</clustering>
</event>
<event>
 6    0  0.4189111E+002  0.1350417E+03  0.7546771E-02  0.1220161E+00
          2   -1    0    0  503    0 -0.00000000000E+00  0.00000000000E+00  0.24309949253E+04  0.24309949253E+04  0.00000000000E+00 0. -1.
         21   -1    0    0  504  502  0.00000000000E+00 -0.00000000000E+00 -0.26541550704E+03  0.26541550704E+03  0.00000000000E+00 0. -1.
         21    1    1    2  503  502  0.64863124049E+01  0.11813540612E+03 -0.20821544253E+03  0.23948218501E+03  0.00000000000E+00 0. -1.
         21    1    1    2  504  505  0.29569190343E+02 -0.20392094953E+02  0.38721914650E+02  0.52816296995E+02  0.00000000000E+00 0. -1.
         21    1    1    2  505  501 -0.74841883603E+02  0.31826176864E+02  0.18257366829E+02  0.83351931702E+02  0.00000000000E+00 0. -1.
          2    1    1    2  501    0  0.38786380855E+02 -0.12956948803E+03  0.23168155793E+04  0.23207600187E+04  0.00000000000E+00 0. -1.
<scales pt_clust_3="135.04167" pt_clust_4="35.91900" pt_clust_5="76.90004" pt_clust_6="14000.00000"></scales>
<clustering>
<clus scale="   35.919">  2  4  1 -1</clus>
<clus scale="   76.900">  2  5  1 -1</clus>
<clus scale="  135.042">  2  3  1 -1</clus>
<clus scale="   35.919">  2  3  1 -1</clus>
</clustering>
</event>
<event>
 6    0  0.4189111E+002  0.1949203E+03  0.7546771E-02  0.1154097E+00
         21   -1    0    0  503  502  0.00000000000E+00  0.00000000000E+00  0.80623824159E+03  0.80623824159E+03  0.00000000000E+00 0. -1.
         -2   -1    0    0    0  501 -0.00000000000E+00 -0.00000000000E+00 -0.43247418097E+03  0.43247418097E+03  0.00000000000E+00 0. -1.
         21    1    1    2  503  501  0.63716471812E+02  0.48645550643E+02  0.16083429215E+03  0.17970489117E+03  0.00000000000E+00 0. -1.
         21    1    1    2  504  502 -0.47316684075E+02  0.13172818627E+03  0.60466036057E+03  0.62064912414E+03  0.00000000000E+00 0. -1.
         21    1    1    2  505  504 -0.25376173716E+02 -0.84522586729E+02 -0.11240805145E+03  0.14291111885E+03  0.00000000000E+00 0. -1.
         -2    1    1    2    0  505  0.89763859788E+01 -0.95851150184E+02 -0.27932254066E+03  0.29544728839E+03  0.00000000000E+00 0. -1.
<scales pt_clust_3="80.16345" pt_clust_4="179.14336" pt_clust_5="73.55206" pt_clust_6="73.55206"></scales>
<clustering>
<clus scale="   73.552">  5  6 -1 -1</clus>
<clus scale="   80.163">  1  3  2 -1</clus>
<clus scale="  179.143">  1  4  2 -1</clus>
<clus scale="   80.163">  1  3  2 -1</clus>
</clustering>
</event>
<event>
 6    0  0.4189111E+002  0.9154669E+02  0.7546771E-02  0.1299149E+00
          2   -1    0    0  503    0 -0.00000000000E+00  0.00000000000E+00  0.35589147859E+04  0.35589147859E+04  0.00000000000E+00 0. -1.
         21   -1    0    0  505  502  0.00000000000E+00 -0.00000000000E+00 -0.11323362119E+02  0.11323362119E+02  0.00000000000E+00 0.  1.
         21    1    1    2  503  502  0.34056911075E+02 -0.34750738213E+02  0.25567527272E+03  0.26026396616E+03  0.00000000000E+00 0.  1.
         21    1    1    2  504  501 -0.64017150265E+02  0.15175362599E+01  0.98353206546E+03  0.98561443893E+03  0.00000000000E+00 0. -1.
         21    1    1    2  505  504  0.78342255126E+02  0.69411734998E+02  0.35667025814E+03  0.37171113910E+03  0.00000000000E+00 0.  1.
          2    1    1    2  501    0 -0.48382015936E+02 -0.36178533045E+02  0.19517138274E+04  0.19526486038E+04  0.00000000000E+00 0. -1.
<scales pt_clust_3="48.65683" pt_clust_4="91.54669" pt_clust_5="14000.00000" pt_clust_6="60.13003"></scales>
<clustering>
<clus scale="   48.657">  2  3  1 -1</clus>
<clus scale="   60.130">  1  6  2 -1</clus>
<clus scale="   91.547">  1  4  2 -1</clus>
<clus scale="   48.657">  2  3  1 -1</clus>
</clustering>
</event>
<event>
 6    0  0.4189111E+002  0.1527948E+03  0.7546771E-02  0.1197080E+00
         21   -1    0    0  503  502  0.00000000000E+00  0.00000000000E+00  0.16749212234E+03  0.16749212234E+03  0.00000000000E+00 0.  1.
          4   -1    0    0  505    0 -0.00000000000E+00 -0.00000000000E+00 -0.14369547282E+04  0.14369547282E+04  0.00000000000E+00 0. -1.
         21    1    1    2  503  504 -0.11233786390E+03  0.11671330371E+03  0.30731416298E+02  0.16488241530E+03  0.00000000000E+00 0. -1.
         21    1    1    2  504  501  0.64316433172E+02 -0.86574812884E+02 -0.45537106544E+03  0.46796859835E+03  0.00000000000E+00 0. -1.
         21    1    1    2  505  502 -0.33033961324E+02 -0.42763952041E+02  0.49641467503E+02  0.73377608920E+02  0.00000000000E+00 0.  1.
          4    1    1    2  501    0  0.81055392051E+02  0.12625461216E+02 -0.89446442421E+03  0.89821822795E+03  0.00000000000E+00 0. -1.
<scales pt_clust_3="152.79479" pt_clust_4="14000.00000" pt_clust_5="54.03701" pt_clust_6="81.34085"></scales>
<clustering>
<clus scale="   54.037">  1  5  2 -1</clus>
<clus scale="   81.341">  2  6  1 -1</clus>
<clus scale="  152.795">  1  3  2 -1</clus>
<clus scale="   54.037">  1  3  2 -1</clus>
</clustering>
</event>
<event>
 6    0  0.4189111E+002  0.1644581E+03  0.7546771E-02  0.1183754E+00
         21   -1    0    0  503  502  0.00000000000E+00  0.00000000000E+00  0.59770892149E+03  0.59770892149E+03  0.00000000000E+00 0.  1.
          2   -1    0    0  504    0 -0.00000000000E+00 -0.00000000000E+00 -0.11180879691E+04  0.11180879691E+04  0.00000000000E+00 0.  1.
         21    1    1    2  503  505  0.35013211960E+02  0.34448620399E+01  0.52313604969E+03  0.52431776488E+03  0.00000000000E+00 0.  1.
         21    1    1    2  504  502 -0.60798595718E+02  0.11986624905E+03 -0.13732093662E+03  0.19214949008E+03  0.00000000000E+00 0.  1.
         21    1    1    2  505  501  0.60061854831E+02 -0.22805651031E+03 -0.29207643382E+03  0.37540090769E+03  0.00000000000E+00 0. -1.
          2    1    1    2  501    0 -0.34276471073E+02  0.10474539922E+03 -0.61411772688E+03  0.62392872798E+03  0.00000000000E+00 0.  1.
<scales pt_clust_3="35.18227" pt_clust_4="164.45809" pt_clust_5="14000.00000" pt_clust_6="109.72974"></scales>
<clustering>
<clus scale="   35.182">  1  3  2 -1</clus>
<clus scale="  109.730">  2  6  1 -1</clus>
<clus scale="  164.458">  1  4  2 -1</clus>
<clus scale="   35.182">  1  3  2 -1</clus>
</clustering>
</event>
<event>
 6    0  0.4189111E+002  0.1204246E+03  0.7546771E-02  0.1242398E+00
         21   -1    0    0  504  502  0.00000000000E+00  0.00000000000E+00  0.45709601283E+02  0.45709601283E+02  0.00000000000E+00 0.  1.
          1   -1    0    0  505    0 -0.00000000000E+00 -0.00000000000E+00 -0.22054924025E+04  0.22054924025E+04  0.00000000000E+00 0.  1.
         21    1    1    2  503  501  0.18333152986E+03  0.17608179919E+02 -0.28777269821E+03  0.34166302650E+03  0.00000000000E+00 0.  1.
         21    1    1    2  504  503 -0.79823459131E+02  0.15046072346E+02 -0.11003960969E+03  0.13677311367E+03  0.00000000000E+00 0.  1.
         21    1    1    2  505  502 -0.12106591436E+03  0.34026702858E+02 -0.12045069936E+04  0.12110540326E+04  0.00000000000E+00 0.  1.
          1    1    1    2  501    0  0.17557843637E+02 -0.66680955123E+02 -0.55746349968E+03  0.56171183104E+03  0.00000000000E+00 0.  1.
<scales pt_clust_3="14000.00000" pt_clust_4="79.14722" pt_clust_5="120.42464" pt_clust_6="68.95381"></scales>
<clustering>
<clus scale="   68.954">  2  6  1 -1</clus>
<clus scale="   79.147">  1  4  2 -1</clus>
<clus scale="  120.425">  2  5  1 -1</clus>
<clus scale="   79.147">  1  3  2 -1</clus>
</clustering>
</event>
<event>
 6    0  0.4189111E+002  0.6937359E+02  0.7546771E-02  0.1362236E+00
         21   -1    0    0  504  502  0.00000000000E+00  0.00000000000E+00  0.19938056051E+04  0.19938056051E+04  0.00000000000E+00 0. -1.
          3   -1    0    0  503    0 -0.00000000000E+00 -0.00000000000E+00 -0.37468903363E+02  0.37468903363E+02  0.00000000000E+00 0. -1.
         21    1    1    2  503  502 -0.50946309702E+01 -0.55388693538E+02  0.10011203983E+03  0.11452634263E+03  0.00000000000E+00 0. -1.
         21    1    1    2  504  505  0.15545191270E+02 -0.36846987052E+02  0.58227926727E+03  0.58365100747E+03  0.00000000000E+00 0. -1.
         21    1    1    2  505  501  0.54022908388E+02  0.18339878916E+02  0.12196850348E+04  0.12210185952E+04  0.00000000000E+00 0. -1.
          3    1    1    2  501    0 -0.64473468688E+02  0.73895801674E+02  0.54260359880E+02  0.11207856318E+03  0.00000000000E+00 0. -1.
<scales pt_clust_3="58.32291" pt_clust_4="39.99192" pt_clust_5="69.37359" pt_clust_6="14000.00000"></scales>
<clustering>
<clus scale="   39.992">  1  4  2 -1</clus>
<clus scale="   58.323">  2  3  1 -1</clus>
<clus scale="   69.374">  1  5  2 -1</clus>
<clus scale="   39.992">  1  3  2 -1</clus>
</clustering>
</event>
<event>
 6    0  0.4189111E+002  0.8702060E+02  0.7546771E-02  0.1310231E+00
          2   -1    0    0  503    0 -0.00000000000E+00  0.00000000000E+00  0.80370956717E+03  0.80370956717E+03  0.00000000000E+00 0. -1.
         21   -1    0    0  504  502  0.00000000000E+00 -0.00000000000E+00 -0.94430232165E+02  0.94430232165E+02  0.00000000000E+00 0.  1.
         21    1    1    2  503  505  0.55074512424E+02 -0.15107501608E+02  0.23261746143E+03  0.23952520094E+03  0.00000000000E+00 0. -1.
         21    1    1    2  504  501  0.25586770660E+02  0.30482015653E+02 -0.21672644628E+02  0.45315997575E+02  0.00000000000E+00 0.  1.
         21    1    1    2  505  502 -0.11750625479E+03 -0.31641706698E+02  0.86914942574E+01  0.12200188355E+03  0.00000000000E+00 0.  1.
          2    1    1    2  501    0  0.36844971709E+02  0.16267192653E+02  0.48964302395E+03  0.49129671727E+03  0.00000000000E+00 0. -1.
<scales pt_clust_3="14000.00000" pt_clust_4="39.79744" pt_clust_5="87.02060" pt_clust_6="40.76158"></scales>
<clustering>
<clus scale="   39.797">  2  4  1 -1</clus>
<clus scale="   40.762">  1  6  2 -1</clus>
<clus scale="   87.021">  2  5  1 -1</clus>
<clus scale="   39.797">  2  3  1 -1</clus>
</clustering>
</event>
<event>
 6    0  0.4189111E+002  0.9774072E+02  0.7546771E-02  0.1285120E+00
          2   -1    0    0  505    0 -0.00000000000E+00  0.00000000000E+00  0.13541066015E+04  0.13541066015E+04  0.00000000000E+00 0. -1.
         21   -1    0    0  504  502  0.00000000000E+00 -0.00000000000E+00 -0.18915924481E+03  0.18915924481E+03  0.00000000000E+00 0. -1.
         21    1    1    2  503  502  0.56385500281E+02  0.43819132629E+02  0.12166863829E+02  0.72439447829E+02  0.00000000000E+00 0.  1.
         21    1    1    2  504  501 -0.93192671838E+02 -0.58322023905E+02 -0.13646132973E+03  0.17523705963E+03  0.00000000000E+00 0. -1.
         21    1    1    2  505  503 -0.24546380237E+02 -0.20147395632E+02  0.11703859200E+03  0.12127025336E+03  0.00000000000E+00 0.  1.
          2    1    1    2  501    0  0.61353551794E+02  0.34650286907E+02  0.11722032306E+04  0.11743190855E+04  0.00000000000E+00 0. -1.
<scales pt_clust_3="14000.00000" pt_clust_4="97.74072" pt_clust_5="31.75598" pt_clust_6="41.07404"></scales>
<clustering>
<clus scale="   31.756">  1  5  2 -1</clus>
<clus scale="   41.074">  1  6  2 -1</clus>
<clus scale="   97.741">  2  4  1 -1</clus>
<clus scale="   97.741">  2  3  1 -1</clus>
</clustering>
</event>
<event>
 6    0  0.4189111E+002  0.1180954E+03  0.7546771E-02  0.1246272E+00
         21   -1    0    0  503  502  0.00000000000E+00  0.00000000000E+00  0.49987541008E+02  0.49987541008E+02  0.00000000000E+00 0. -1.
          1   -1    0    0  505    0 -0.00000000000E+00 -0.00000000000E+00 -0.15705879273E+04  0.15705879273E+04  0.00000000000E+00 0. -1.
         21    1    1    2  503  504  0.13720752894E+02 -0.40247309873E+02  0.90399500867E+00  0.42531426251E+02  0.00000000000E+00 0. -1.
         21    1    1    2  504  501 -0.40845186630E+02 -0.65398319800E+02 -0.38293238359E+02  0.86090891548E+02  0.00000000000E+00 0. -1.
         21    1    1    2  505  502 -0.43523040053E+02  0.64952401135E+02 -0.82978309016E+03  0.83345848496E+03  0.00000000000E+00 0. -1.
          1    1    1    2  501    0  0.70647473789E+02  0.40693228539E+02 -0.65342805281E+03  0.65849466558E+03  0.00000000000E+00 0. -1.
<scales pt_clust_3="42.32906" pt_clust_4="42.32906" pt_clust_5="78.18612" pt_clust_6="103.42881"></scales>
<clustering>
<clus scale="   42.329">  3  4 -1 -1</clus>
<clus scale="   78.186">  2  5  1 -1</clus>
<clus scale="  103.429">  2  6  1 -1</clus>
<clus scale="  118.095">  1  3  2 -1</clus>
</clustering>
</event>
<event>
 6    0  0.4189111E+002  0.1889867E+03  0.7546771E-02  0.1159378E+00
          2   -1    0    0  505    0 -0.00000000000E+00  0.00000000000E+00  0.14657843203E+04  0.14657843203E+04  0.00000000000E+00 0. -1.
         21   -1    0    0  504  502  0.00000000000E+00 -0.00000000000E+00 -0.85132347965E+02  0.85132347965E+02  0.00000000000E+00 0. -1.
         21    1    1    2  503  501  0.46517129700E+02  0.17762420498E+02  0.61096105320E+03  0.61298674983E+03  0.00000000000E+00 0. -1.
         21    1    1    2  504  503 -0.77521683580E+02 -0.40754056778E+01 -0.11327439350E+02  0.78450820510E+02  0.00000000000E+00 0. -1.
         21    1    1    2  505  502 -0.89539589386E+02 -0.79847359606E+02  0.77904906660E+02  0.14304584365E+03  0.00000000000E+00 0. -1.
          2    1    1    2  501    0  0.12054414327E+03  0.66160344785E+02  0.70311345181E+03  0.71643325426E+03  0.00000000000E+00 0. -1.
<scales pt_clust_3="45.08472" pt_clust_4="77.62873" pt_clust_5="173.50138" pt_clust_6="45.08472"></scales>
<clustering>
<clus scale="   45.085">  3  6 -1 -1</clus>
<clus scale="   77.629">  2  4  1 -1</clus>
<clus scale="  173.501">  2  5  1 -1</clus>
<clus scale="   77.629">  2  3  1 -1</clus>
</clustering>
</event>
<event>
 6    0  0.4189111E+002  0.1327728E+03  0.7546771E-02  0.1223398E+00
          2   -1    0    0  504    0 -0.00000000000E+00  0.00000000000E+00  0.19171422873E+04  0.19171422873E+04  0.00000000000E+00 0. -1.
         21   -1    0    0  505  502  0.00000000000E+00 -0.00000000000E+00 -0.96808640089E+02  0.96808640089E+02  0.00000000000E+00 0. -1.
         21    1    1    2  503  501 -0.65666272221E+02 -0.35529824600E+02  0.72157905870E+03  0.72543143418E+03  0.00000000000E+00 0. -1.
         21    1    1    2  504  502  0.11839515096E+03 -0.12017613849E+02 -0.42457925702E+02  0.12635074305E+03  0.00000000000E+00 0. -1.
         21    1    1    2  505  503 -0.55700698398E+01  0.60537667210E+02  0.83293834511E+02  0.10311982204E+03  0.00000000000E+00 0.  1.
          2    1    1    2  501    0 -0.47158808900E+02 -0.12990228761E+02  0.10579186797E+04  0.10590489282E+04  0.00000000000E+00 0. -1.
<scales pt_clust_3="41.85761" pt_clust_4="122.28795" pt_clust_5="60.79338" pt_clust_6="41.85761"></scales>
<clustering>
<clus scale="   41.858">  3  6 -1 -1</clus>
<clus scale="   60.793">  2  5  1 -1</clus>
<clus scale="  122.288">  2  4  1 -1</clus>
<clus scale="   60.793">  2  3  1 -1</clus>
</clustering>
</event>
<event>
 6    0  0.4189111E+002  0.9506147E+02  0.7546771E-02  0.1291038E+00
         -2   -1    0    0    0  501 -0.00000000000E+00  0.00000000000E+00  0.95144774584E+03  0.95144774584E+03  0.00000000000E+00 0. -1.
         21   -1    0    0  505  502  0.00000000000E+00 -0.00000000000E+00 -0.20193466389E+03  0.20193466389E+03  0.00000000000E+00 0. -1.
         21    1    1    2  503  502  0.60022900038E+02 -0.22424175880E+00 -0.11358865000E+03  0.12847248819E+03  0.00000000000E+00 0. -1.
         21    1    1    2  504  501  0.50919243469E+02  0.14788915159E+02  0.52328981863E+03  0.52596931056E+03  0.00000000000E+00 0. -1.
         21    1    1    2  505  504 -0.15258850424E+03  0.30880773219E+02  0.21484500640E+01  0.15569678744E+03  0.00000000000E+00 0. -1.
         -2    1    1    2    0  503  0.41646360737E+02 -0.45445446619E+02  0.33766346325E+03  0.34324382353E+03  0.00000000000E+00 0. -1.
<scales pt_clust_3="60.91073" pt_clust_4="53.02340" pt_clust_5="95.06147" pt_clust_6="14000.00000"></scales>
<clustering>
<clus scale="   53.023">  1  4  2 -1</clus>
<clus scale="   60.911">  2  3  1 -1</clus>
<clus scale="   95.061">  2  5  1 -1</clus>
<clus scale="   60.911">  2  3  1 -1</clus>
</clustering>
</event>
<event>
 6    0  0.4189111E+002  0.3051666E+03  0.7546771E-02  0.1082686E+00
         21   -1    0    0  504  502  0.00000000000E+00  0.00000000000E+00  0.60089518839E+03  0.60089518839E+03  0.00000000000E+00 0. -1.
         -1   -1    0    0    0  501 -0.00000000000E+00 -0.00000000000E+00 -0.23201133540E+03  0.23201133540E+03  0.00000000000E+00 0. -1.
         21    1    1    2  503  501  0.28365350506E+03 -0.14217805685E+03  0.34522707093E+03  0.46888766382E+03  0.00000000000E+00 0. -1.
         21    1    1    2  504  503 -0.32607883824E+02 -0.45856093507E+01  0.54386463085E+02  0.63578213781E+02  0.00000000000E+00 0.  1.
         21    1    1    2  505  502 -0.45708828843E+02  0.51435659507E+02  0.12574075488E+02  0.69950207130E+02  0.00000000000E+00 0. -1.
         -1    1    1    2    0  505 -0.20533679239E+03  0.95328006690E+02 -0.43303756515E+02  0.23049043906E+03  0.00000000000E+00 0. -1.
<scales pt_clust_3="297.27074" pt_clust_4="32.92874" pt_clust_5="38.01389" pt_clust_6="38.01389"></scales>
<clustering>
<clus scale="   32.929">  1  4  2 -1</clus>
<clus scale="   38.014">  5  6 -1 -1</clus>
<clus scale="  297.271">  1  3  2 -1</clus>
<clus scale="   32.929">  1  3  2 -1</clus>
</clustering>
</event>
<event>
 6    0  0.4189111E+002  0.1404997E+03  0.7546771E-02  0.1212658E+00
         -1   -1    0    0    0  501 -0.00000000000E+00  0.00000000000E+00  0.30976728890E+02  0.30976728890E+02  0.00000000000E+00 0.  1.
         21   -1    0    0  503  502  0.00000000000E+00 -0.00000000000E+00 -0.16405894449E+04  0.16405894449E+04  0.00000000000E+00 0.  1.
         21    1    1    2  503  504 -0.16442602165E+02  0.49003306684E+02 -0.79666958785E+03  0.79834460945E+03  0.00000000000E+00 0.  1.
         21    1    1    2  504  501 -0.17960725938E+02 -0.15967552572E+03 -0.61771170268E+03  0.63826844573E+03  0.00000000000E+00 0.  1.
         21    1    1    2  505  502  0.42886771927E+02  0.38941515086E+02 -0.97784276530E+02  0.11365509905E+03  0.00000000000E+00 0.  1.
         -1    1    1    2    0  505 -0.84834438242E+01  0.71730703954E+02 -0.97447148924E+02  0.12129801953E+03  0.00000000000E+00 0.  1.
<scales pt_clust_3="51.68833" pt_clust_4="126.82445" pt_clust_5="53.11792" pt_clust_6="53.11792"></scales>
<clustering>
<clus scale="   51.688">  2  3  1 -1</clus>
<clus scale="   53.118">  5  6 -1 -1</clus>
<clus scale="  126.824">  2  4  1 -1</clus>
<clus scale="   51.688">  2  3  1 -1</clus>
</clustering>
</event>
<event>
 6    0  0.4189111E+002  0.1581163E+03  0.7546771E-02  0.1190840E+00
          2   -1    0    0  505    0 -0.00000000000E+00  0.00000000000E+00  0.45677013916E+04  0.45677013916E+04  0.00000000000E+00 0.  1.
         21   -1    0    0  503  502  0.00000000000E+00 -0.00000000000E+00 -0.52934140537E+02  0.52934140537E+02  0.00000000000E+00 0.  1.
         21    1    1    2  503  504  0.16428993208E+02  0.10815671074E+03  0.32222241606E+03  0.34028674865E+03  0.00000000000E+00 0. -1.
         21    1    1    2  504  501  0.43364640551E+02 -0.70464300963E+02  0.20980158929E+04  0.20996467314E+04  0.00000000000E+00 0.  1.
         21    1    1    2  505  502 -0.71248595126E+02  0.47183172901E+02  0.10396953777E+01  0.85461658532E+02  0.00000000000E+00 0.  1.
          2    1    1    2  501    0  0.11454961368E+02 -0.84875582682E+02  0.20934892467E+04  0.20952403935E+04  0.00000000000E+00 0.  1.
<scales pt_clust_3="154.18747" pt_clust_4="34.42892" pt_clust_5="85.45533" pt_clust_6="34.42892"></scales>
<clustering>
<clus scale="   34.429">  4  6 -1 -1</clus>
<clus scale="   85.455">  2  5  1 -1</clus>
<clus scale="  154.187">  2  3  1 -1</clus>
<clus scale="   85.455">  2  3  1 -1</clus>
</clustering>
</event>
<event>
 6    0  0.4189111E+002  0.7598950E+02  0.7546771E-02  0.1340834E+00
         21   -1    0    0  503  502  0.00000000000E+00  0.00000000000E+00  0.61239236478E+03  0.61239236478E+03  0.00000000000E+00 0. -1.
          2   -1    0    0  504    0 -0.00000000000E+00 -0.00000000000E+00 -0.28799944052E+03  0.28799944052E+03  0.00000000000E+00 0. -1.
         21    1    1    2  503  501 -0.41564475190E+02  0.11630900810E+02  0.60737670705E+02  0.74511395734E+02  0.00000000000E+00 0. -1.
         21    1    1    2  504  505 -0.27899661989E+02 -0.26706979465E+02  0.51569134368E+01  0.38964697450E+02  0.00000000000E+00 0. -1.
         21    1    1    2  505  502  0.11667228246E+03 -0.13763715256E+02  0.51309775216E+03  0.52637549774E+03  0.00000000000E+00 0. -1.
          2    1    1    2  501    0 -0.47208145284E+02  0.28839793911E+02 -0.25459941204E+03  0.26054021437E+03  0.00000000000E+00 0. -1.
<scales pt_clust_3="43.66901" pt_clust_4="38.62194" pt_clust_5="75.98950" pt_clust_6="14000.00000"></scales>
<clustering>
<clus scale="   38.622">  2  4  1 -1</clus>
<clus scale="   43.669">  1  3  2 -1</clus>
<clus scale="   75.989">  1  5  2 -1</clus>
<clus scale="   43.669">  1  3  2 -1</clus>
</clustering>
</event>
<event>
 6    0  0.4189111E+002  0.1046947E+03  0.7546771E-02  0.1270722E+00
         -1   -1    0    0    0  501 -0.00000000000E+00  0.00000000000E+00  0.12756328922E+04  0.12756328922E+04  0.00000000000E+00 0. -1.
         21   -1    0    0  505  502  0.00000000000E+00 -0.00000000000E+00 -0.39198161438E+03  0.39198161438E+03  0.00000000000E+00 0. -1.
         21    1    1    2  503  502 -0.52543534202E+02 -0.11943847033E+03  0.13988094884E+03  0.19129310241E+03  0.00000000000E+00 0.  1.
         21    1    1    2  504  501 -0.49190533501E+02  0.13788840884E+02  0.71878671581E+03  0.72059987757E+03  0.00000000000E+00 0. -1.
         21    1    1    2  505  504  0.92104312004E+02  0.49808529878E+02 -0.35572659820E+03  0.37081734939E+03  0.00000000000E+00 0. -1.
         -1    1    1    2    0  503  0.96297556986E+01  0.55841099570E+02  0.38071021139E+03  0.38490417724E+03  0.00000000000E+00 0. -1.
<scales pt_clust_3="14000.00000" pt_clust_4="51.08660" pt_clust_5="104.69467" pt_clust_6="69.68805"></scales>
<clustering>
<clus scale="   51.087">  1  4  2 -1</clus>
<clus scale="   69.688">  1  6  2 -1</clus>
<clus scale="  104.695">  2  5  1 -1</clus>
<clus scale="  104.695">  2  3  1 -1</clus>
</clustering>
</event>
<event>
 6    0  0.4189111E+002  0.1810422E+03  0.7546771E-02  0.1166798E+00
         21   -1    0    0  504  502  0.00000000000E+00  0.00000000000E+00  0.15252916327E+03  0.15252916327E+03  0.00000000000E+00 0.  1.
          2   -1    0    0  503    0 -0.00000000000E+00 -0.00000000000E+00 -0.17022010793E+04  0.17022010793E+04  0.00000000000E+00 0. -1.
         21    1    1    2  503  502 -0.11882501631E+03  0.25938180489E+02  0.94577555530E+02  0.15406845141E+03  0.00000000000E+00 0.  1.
         21    1    1    2  504  505 -0.35603910981E+02  0.56605331438E+02 -0.25493338654E+02  0.71566139620E+02  0.00000000000E+00 0. -1.
         21    1    1    2  505  501  0.46298838706E+02 -0.33619094192E+02 -0.33362482203E+03  0.33849571317E+03  0.00000000000E+00 0. -1.
          2    1    1    2  501    0  0.10813008859E+03 -0.48924417735E+02 -0.12851313109E+04  0.12905999384E+04  0.00000000000E+00 0. -1.
<scales pt_clust_3="172.79109" pt_clust_4="66.87153" pt_clust_5="37.51659" pt_clust_6="37.51659"></scales>
<clustering>
<clus scale="   37.517">  5  6 -1 -1</clus>
<clus scale="   66.872">  1  4  2 -1</clus>
<clus scale="  172.791">  1  3  2 -1</clus>
<clus scale="   66.872">  1  3  2 -1</clus>
</clustering>
</event>
<event>
 6    0  0.4189111E+002  0.1695288E+03  0.7546771E-02  0.1178340E+00
          2   -1    0    0  504    0 -0.00000000000E+00  0.00000000000E+00  0.42946628320E+04  0.42946628320E+04  0.00000000000E+00 0.  1.
         21   -1    0    0  505  502  0.00000000000E+00 -0.00000000000E+00 -0.26386320197E+02  0.26386320197E+02  0.00000000000E+00 0. -1.
         21    1    1    2  503  502  0.26750465849E+02  0.45959341152E+02  0.58528656341E+03  0.58769737941E+03  0.00000000000E+00 0.  1.
         21    1    1    2  504  503  0.11472265578E+03  0.67072329900E+01  0.11204662611E+04  0.11263440491E+04  0.00000000000E+00 0.  1.
         21    1    1    2  505  501  0.13601964851E+02 -0.42927232049E+02  0.56117514404E+01  0.45378986915E+02  0.00000000000E+00 0. -1.
          2    1    1    2  501    0 -0.15507508648E+03 -0.97393420925E+01  0.25569119358E+04  0.25616287367E+04  0.00000000000E+00 0.  1.
<scales pt_clust_3="46.83223" pt_clust_4="46.83223" pt_clust_5="45.03066" pt_clust_6="152.25998"></scales>
<clustering>
<clus scale="   45.031">  2  5  1 -1</clus>
<clus scale="   46.832">  3  4 -1 -1</clus>
<clus scale="  152.260">  1  6  2 -1</clus>
<clus scale="   45.031">  2  3  1 -1</clus>
</clustering>
</event>
<event>
 6    0  0.4189111E+002  0.1297356E+03  0.7546771E-02  0.1227849E+00
         21   -1    0    0  503  502  0.00000000000E+00  0.00000000000E+00  0.45561629831E+03  0.45561629831E+03  0.00000000000E+00 0. -1.
          2   -1    0    0  505    0 -0.00000000000E+00 -0.00000000000E+00 -0.23636961222E+04  0.23636961222E+04  0.00000000000E+00 0.  1.
         21    1    1    2  503  501  0.63582821584E+02  0.10662850582E+01  0.21821516345E+03  0.22729225619E+03  0.00000000000E+00 0. -1.
         21    1    1    2  504  502 -0.51069013877E+02  0.12835168318E+03  0.20935387768E+03  0.25082114116E+03  0.00000000000E+00 0. -1.
         21    1    1    2  505  504 -0.30169374310E+02 -0.13301022415E+02 -0.23907324453E+03  0.24133612369E+03  0.00000000000E+00 0. -1.
          2    1    1    2  501    0  0.17655566602E+02 -0.11611694583E+03 -0.20965756205E+04  0.20998628995E+04  0.00000000000E+00 0.  1.
<scales pt_clust_3="63.52682" pt_clust_4="129.73560" pt_clust_5="32.97133" pt_clust_6="14000.00000"></scales>
<clustering>
<clus scale="   32.971">  2  5  1 -1</clus>
<clus scale="   63.527">  1  3  2 -1</clus>
<clus scale="  129.736">  1  4  2 -1</clus>
<clus scale="   63.527">  1  3  2 -1</clus>
</clustering>
</event>
<event>
 6    0  0.4189111E+002  0.8338970E+02  0.7546771E-02  0.1319698E+00
          2   -1    0    0  504    0 -0.00000000000E+00  0.00000000000E+00  0.94288027756E+03  0.94288027756E+03  0.00000000000E+00 0.  1.
         21   -1    0    0  501  502  0.00000000000E+00 -0.00000000000E+00 -0.10330120209E+03  0.10330120209E+03  0.00000000000E+00 0.  1.
         21    1    1    2  503  505  0.37472760810E+02 -0.72616412051E+02  0.92634494326E+02  0.12352530365E+03  0.00000000000E+00 0. -1.
         21    1    1    2  504  503  0.24841322225E+02 -0.43338192738E+02  0.24361671928E+03  0.24868533562E+03  0.00000000000E+00 0.  1.
         21    1    1    2  505  502 -0.84185915323E+02  0.10410301749E+01 -0.56928639935E+02  0.10163278077E+03  0.00000000000E+00 0.  1.
          2    1    1    2  501    0  0.21871832288E+02  0.11491357461E+03  0.56025650180E+03  0.57233805962E+03  0.00000000000E+00 0.  1.
<scales pt_clust_3="82.52089" pt_clust_4="49.95288" pt_clust_5="83.38970" pt_clust_6="14000.00000"></scales>
<clustering>
<clus scale="   49.953">  1  4  2 -1</clus>
<clus scale="   83.390">  2  5  1 -1</clus>
<clus scale="   82.521">  2  3  1 -1</clus>
<clus scale="   83.390">  2  3  1 -1</clus>
</clustering>
</event>
<event>
 6    0  0.4189111E+002  0.1350475E+03  0.7546771E-02  0.1220153E+00
         21   -1    0    0  504  502  0.00000000000E+00  0.00000000000E+00  0.60802314570E+02  0.60802314570E+02  0.00000000000E+00 0. -1.
          2   -1    0    0  505    0 -0.00000000000E+00 -0.00000000000E+00 -0.42896828157E+04  0.42896828157E+04  0.00000000000E+00 0.  1.
         21    1    1    2  503  502 -0.17336533358E+03  0.39643303239E+02 -0.10019229106E+03  0.20412159505E+03  0.00000000000E+00 0. -1.
         21    1    1    2  504  501  0.31769778162E+02 -0.15307242666E+02 -0.41504058231E+02  0.54462990481E+02  0.00000000000E+00 0. -1.
         21    1    1    2  505  503  0.79578107340E+02  0.42126569871E+01 -0.78988780346E+03  0.79389745163E+03  0.00000000000E+00 0. -1.
          2    1    1    2  501    0  0.62017448072E+02 -0.28548717561E+02 -0.32972963484E+04  0.32980030931E+04  0.00000000000E+00 0.  1.
<scales pt_clust_3="14000.00000" pt_clust_4="35.26515" pt_clust_5="135.04755" pt_clust_6="68.50230"></scales>
<clustering>
<clus scale="   35.265">  1  4  2 -1</clus>
<clus scale="   68.502">  2  6  1 -1</clus>
<clus scale="  135.048">  2  5  1 -1</clus>
<clus scale="   35.265">  1  3  2 -1</clus>
</clustering>
</event>
<event>
 6    0  0.4189111E+002  0.8394815E+02  0.7546771E-02  0.1318206E+00
          1   -1    0    0  505    0 -0.00000000000E+00  0.00000000000E+00  0.76799292454E+02  0.76799292454E+02  0.00000000000E+00 0. -1.
         21   -1    0    0  504  502  0.00000000000E+00 -0.00000000000E+00 -0.11420554157E+04  0.11420554157E+04  0.00000000000E+00 0. -1.
         21    1    1    2  503  502 -0.37078086432E+02 -0.58638275197E+02 -0.13683124264E+03  0.15341453899E+03  0.00000000000E+00 0. -1.
         21    1    1    2  504  501  0.44925215510E+02 -0.73208198559E+02 -0.90630275766E+03  0.91036388541E+03  0.00000000000E+00 0. -1.
         21    1    1    2  505  503 -0.25614213143E+02  0.51719707637E+02  0.22155515560E+02  0.61821379334E+02  0.00000000000E+00 0. -1.
          1    1    1    2  501    0  0.17767084065E+02  0.80126766119E+02 -0.44277638500E+02  0.93254904407E+02  0.00000000000E+00 0. -1.
<scales pt_clust_3="63.32376" pt_clust_4="83.94815" pt_clust_5="57.71496" pt_clust_6="14000.00000"></scales>
<clustering>
<clus scale="   57.715">  1  5  2 -1</clus>
<clus scale="   63.324">  1  3  2 -1</clus>
<clus scale="   83.948">  2  4  1 -1</clus>
<clus scale="   83.948">  2  3  1 -1</clus>
</clustering>
</event>
<event>
 6    0  0.4189111E+002  0.9675439E+02  0.7546771E-02  0.1287273E+00
         21   -1    0    0  501  502  0.00000000000E+00  0.00000000000E+00  0.31233412165E+02  0.31233412165E+02  0.00000000000E+00 0.  1.
          1   -1    0    0  505    0 -0.00000000000E+00 -0.00000000000E+00 -0.10696468739E+04  0.10696468739E+04  0.00000000000E+00 0.  1.
         21    1    1    2  503  502 -0.13182465011E+02  0.48427742834E+02 -0.52313366256E+02  0.72496289206E+02  0.00000000000E+00 0.  1.
         21    1    1    2  504  503 -0.49800559260E+02 -0.51872336570E+02 -0.13383432358E+03  0.15192913207E+03  0.00000000000E+00 0.  1.
         21    1    1    2  505  504  0.12669598800E+03 -0.28059573792E+02 -0.62518920224E+03  0.63851448821E+03  0.00000000000E+00 0.  1.
          1    1    1    2  501    0 -0.63712963728E+02  0.31504167529E+02 -0.22707656968E+03  0.23794037660E+03  0.00000000000E+00 0.  1.
<scales pt_clust_3="50.18988" pt_clust_4="63.59257" pt_clust_5="96.75439" pt_clust_6="14000.00000"></scales>
<clustering>
<clus scale="   50.190">  1  3  2 -1</clus>
<clus scale="   63.593">  1  4  2 -1</clus>
<clus scale="   96.754">  1  5  2 -1</clus>
<clus scale="   50.190">  1  3  2 -1</clus>
</clustering>
</event>
<event>
 6    0  0.4189111E+002  0.7627115E+02  0.7546771E-02  0.1339979E+00
          2   -1    0    0  504    0 -0.00000000000E+00  0.00000000000E+00  0.32902329637E+04  0.32902329637E+04  0.00000000000E+00 0.  1.
         21   -1    0    0  503  502  0.00000000000E+00 -0.00000000000E+00 -0.42237516132E+02  0.42237516132E+02  0.00000000000E+00 0. -1.
         21    1    1    2  503  501  0.38869244610E+02 -0.65367493944E+02  0.35616361178E+02  0.83977691231E+02  0.00000000000E+00 0. -1.
         21    1    1    2  504  505  0.27869397453E+02  0.30982798141E+02  0.29644430081E+03  0.29935908301E+03  0.00000000000E+00 0.  1.
         21    1    1    2  505  502  0.33229852084E+02  0.37975831072E+02  0.24724302217E+02  0.56193219656E+02  0.00000000000E+00 0. -1.
          2    1    1    2  501    0 -0.99968494148E+02 -0.35911352698E+01  0.28912104833E+04  0.28929404859E+04  0.00000000000E+00 0.  1.
<scales pt_clust_3="14000.00000" pt_clust_4="41.67298" pt_clust_5="51.02514" pt_clust_6="76.27115"></scales>
<clustering>
<clus scale="   41.673">  1  4  2 -1</clus>
<clus scale="   51.025">  2  5  1 -1</clus>
<clus scale="   76.271">  1  6  2 -1</clus>
<clus scale="   51.025">  2  3  1 -1</clus>
</clustering>
</event>
<event>
 6    0  0.4189111E+002  0.1320480E+03  0.7546771E-02  0.1224448E+00
         21   -1    0    0  504  502  0.00000000000E+00  0.00000000000E+00  0.25865295719E+03  0.25865295719E+03  0.00000000000E+00 0.  1.
         -3   -1    0    0    0  501 -0.00000000000E+00 -0.00000000000E+00 -0.26725204956E+03  0.26725204956E+03  0.00000000000E+00 0.  1.
         21    1    1    2  503  501  0.46228064676E+02  0.26110685095E+02 -0.10663337914E+03  0.11911960119E+03  0.00000000000E+00 0.  1.
         21    1    1    2  504  505 -0.52450781717E+02 -0.35703510961E+02  0.87612075931E+02  0.10817440107E+03  0.00000000000E+00 0.  1.
         21    1    1    2  505  503  0.26898292763E+02 -0.11296234715E+03  0.93525257330E+02  0.14910058278E+03  0.00000000000E+00 0.  1.
         -3    1    1    2    0  502 -0.20675575722E+02  0.12255517302E+03 -0.83103046490E+02  0.14951042171E+03  0.00000000000E+00 0.  1.
<scales pt_clust_3="53.09239" pt_clust_4="59.92657" pt_clust_5="14000.00000" pt_clust_6="132.04796"></scales>
<clustering>
<clus scale="   53.092">  2  3  1 -1</clus>
<clus scale="   59.927">  1  4  2 -1</clus>
<clus scale="  132.048">  2  6  1 -1</clus>
<clus scale="   59.927">  1  3  2 -1</clus>
</clustering>
</event>
<event>
 6    0  0.4189111E+002  0.1146830E+03  0.7546771E-02  0.1252136E+00
         21   -1    0    0  504  502  0.00000000000E+00  0.00000000000E+00  0.39616258845E+02  0.39616258845E+02  0.00000000000E+00 0. -1.
          2   -1    0    0  505    0 -0.00000000000E+00 -0.00000000000E+00 -0.20504136105E+04  0.20504136105E+04  0.00000000000E+00 0. -1.
         21    1    1    2  503  502  0.49596962727E+02  0.31687201882E+01 -0.76520822082E+02  0.91243277624E+02  0.00000000000E+00 0. -1.
         21    1    1    2  504  501  0.73667682923E+02  0.19262359497E+02 -0.21234246917E+02  0.79049726393E+02  0.00000000000E+00 0. -1.
         21    1    1    2  505  503 -0.87596614075E+02 -0.51710447409E+02 -0.91668404446E+03  0.92231056296E+03  0.00000000000E+00 0.  1.
          2    1    1    2  501    0 -0.35668031575E+02  0.29279367723E+02 -0.99635823821E+03  0.99742630239E+03  0.00000000000E+00 0. -1.
<scales pt_clust_3="47.07942" pt_clust_4="114.68295" pt_clust_5="14000.00000" pt_clust_6="46.14640"></scales>
<clustering>
<clus scale="   46.146">  2  6  1 -1</clus>
<clus scale="   47.079">  1  3  2 -1</clus>
<clus scale="  114.683">  1  4  2 -1</clus>
<clus scale="   47.079">  1  3  2 -1</clus>
</clustering>
</event>
<event>
 6    0  0.4189111E+002  0.1600027E+03  0.7546771E-02  0.1188694E+00
         21   -1    0    0  505  502  0.00000000000E+00  0.00000000000E+00  0.22008685001E+03  0.22008685001E+03  0.00000000000E+00 0.  1.
          1   -1    0    0  504    0 -0.00000000000E+00 -0.00000000000E+00 -0.14386394119E+04  0.14386394119E+04  0.00000000000E+00 0. -1.
         21    1    1    2  503  501  0.53107867560E+01 -0.51860909176E+02 -0.27073235574E+03  0.27570594263E+03  0.00000000000E+00 0. -1.
         21    1    1    2  504  502  0.47988978072E+02  0.18384524110E+02  0.12000147605E+03  0.13054228049E+03  0.00000000000E+00 0.  1.
         21    1    1    2  505  503 -0.69171571737E+02  0.13067725701E+03  0.29479612390E+02  0.15076571024E+03  0.00000000000E+00 0.  1.
          1    1    1    2  501    0  0.15871806910E+02 -0.97200871946E+02 -0.10973012946E+04  0.11017123285E+04  0.00000000000E+00 0. -1.
<scales pt_clust_3="40.48786" pt_clust_4="51.39001" pt_clust_5="150.01319" pt_clust_6="40.48786"></scales>
<clustering>
<clus scale="   40.488">  3  6 -1 -1</clus>
<clus scale="   51.390">  1  4  2 -1</clus>
<clus scale="  150.013">  1  5  2 -1</clus>
<clus scale="   51.390">  1  3  2 -1</clus>
</clustering>
</event>
<event>
 6    0  0.4189111E+002  0.1104546E+03  0.7546771E-02  0.1259730E+00
         21   -1    0    0  503  502  0.00000000000E+00  0.00000000000E+00  0.31772328166E+03  0.31772328166E+03  0.00000000000E+00 0. -1.
          1   -1    0    0  504    0 -0.00000000000E+00 -0.00000000000E+00 -0.10090903590E+04  0.10090903590E+04  0.00000000000E+00 0. -1.
         21    1    1    2  503  501 -0.45244831790E+02 -0.14715790236E+02  0.32649095210E+02  0.57702796327E+02  0.00000000000E+00 0.  1.
         21    1    1    2  504  505 -0.31433594885E+02  0.89161907353E+01 -0.15269635000E+03  0.15615295273E+03  0.00000000000E+00 0. -1.
         21    1    1    2  505  502  0.10498662382E+03 -0.78854263183E+02  0.25234992946E+03  0.28446559178E+03  0.00000000000E+00 0. -1.
          1    1    1    2  501    0 -0.28308197144E+02  0.84653862684E+02 -0.82366975201E+03  0.82849229982E+03  0.00000000000E+00 0. -1.
<scales pt_clust_3="47.97628" pt_clust_4="32.67368" pt_clust_5="110.45459" pt_clust_6="14000.00000"></scales>
<clustering>
<clus scale="   32.674">  2  4  1 -1</clus>
<clus scale="   47.976">  1  3  2 -1</clus>
<clus scale="  110.455">  1  5  2 -1</clus>
<clus scale="   47.976">  1  3  2 -1</clus>
</clustering>
</event>
<event>
 6    0  0.4189111E+002  0.1522355E+03  0.7546771E-02  0.1197753E+00
         21   -1    0    0  503  502  0.00000000000E+00  0.00000000000E+00  0.78626426475E+03  0.78626426475E+03  0.00000000000E+00 0. -1.
         -1   -1    0    0    0  501 -0.00000000000E+00 -0.00000000000E+00 -0.94241642417E+02  0.94241642417E+02  0.00000000000E+00 0.  1.
         21    1    1    2  503  505 -0.14653858650E+03  0.27982429263E+02  0.68023955097E+03  0.69640679232E+03  0.00000000000E+00 0. -1.
         21    1    1    2  504  502  0.46414464234E+02 -0.14289724534E+02  0.33060677746E+02  0.58749528767E+02  0.00000000000E+00 0.  1.
         21    1    1    2  505  501  0.28751935039E+02  0.25445672021E+02 -0.21388990778E+02  0.43950482587E+02  0.00000000000E+00 0.  1.
         -1    1    1    2    0  504  0.71372187225E+02 -0.39138376751E+02  0.11138439783E+00  0.81399103499E+02  0.00000000000E+00 0.  1.
<scales pt_clust_3="146.15966" pt_clust_4="32.88878" pt_clust_5="38.39474" pt_clust_6="32.88878"></scales>
<clustering>
<clus scale="   32.889">  4  6 -1 -1</clus>
<clus scale="   38.395">  2  5  1 -1</clus>
<clus scale="  146.160">  1  3  2 -1</clus>
<clus scale="  146.160">  1  3  2 -1</clus>
</clustering>
</event>
<event>
 6    0  0.4189111E+002  0.1245687E+03  0.7546771E-02  0.1235745E+00
         21   -1    0    0  501  502  0.00000000000E+00  0.00000000000E+00  0.32141264089E+03  0.32141264089E+03  0.00000000000E+00 0. -1.
          2   -1    0    0  505    0 -0.00000000000E+00 -0.00000000000E+00 -0.33809221947E+03  0.33809221947E+03  0.00000000000E+00 0. -1.
         21    1    1    2  503  504  0.48344529321E+02  0.67102997854E+02  0.15016350650E+03  0.17143244886E+03  0.00000000000E+00 0. -1.
         21    1    1    2  504  502 -0.36692218825E+02  0.25310529368E+02  0.92664232275E+02  0.10282802032E+03  0.00000000000E+00 0.  1.
         21    1    1    2  505  503  0.11695304047E+03  0.25162456523E+01 -0.15530567930E+03  0.19443301981E+03  0.00000000000E+00 0. -1.
          2    1    1    2  501    0 -0.12860535097E+03 -0.94929772874E+02 -0.10420163805E+03  0.19081137138E+03  0.00000000000E+00 0. -1.
<scales pt_clust_3="88.08207" pt_clust_4="44.57513" pt_clust_5="124.56870" pt_clust_6="14000.00000"></scales>
<clustering>
<clus scale="   44.575">  1  4  2 -1</clus>
<clus scale="   88.082">  1  3  2 -1</clus>
<clus scale="  124.569">  2  5  1 -1</clus>
<clus scale="   44.575">  1  3  2 -1</clus>
</clustering>
</event>
<event>
 6    0  0.4189111E+002  0.2077416E+03  0.7546771E-02  0.1143367E+00
         21   -1    0    0  505  502  0.00000000000E+00  0.00000000000E+00  0.68050517154E+03  0.68050517154E+03  0.00000000000E+00 0. -1.
          2   -1    0    0  503    0 -0.00000000000E+00 -0.00000000000E+00 -0.57940490464E+03  0.57940490464E+03  0.00000000000E+00 0. -1.
         21    1    1    2  503  504  0.79706790344E+02  0.91676418123E+01 -0.30400140919E+02  0.85798523596E+02  0.00000000000E+00 0. -1.
         21    1    1    2  504  502  0.15323061984E+03 -0.11028182993E+03  0.55542695241E+03  0.58663515436E+03  0.00000000000E+00 0. -1.
         21    1    1    2  505  501  0.31994844419E+02  0.19233414674E+02  0.35069650749E+02  0.51219866391E+02  0.00000000000E+00 0.  1.
          2    1    1    2  501    0 -0.26493225460E+03  0.81880773448E+02 -0.45899619534E+03  0.53625653183E+03  0.00000000000E+00 0. -1.
<scales pt_clust_3="81.71191" pt_clust_4="14000.00000" pt_clust_5="37.33088" pt_clust_6="207.74161"></scales>
<clustering>
<clus scale="   37.331">  1  5  2 -1</clus>
<clus scale="   81.712">  2  3  1 -1</clus>
<clus scale="  207.742">  2  6  1 -1</clus>
<clus scale="   37.331">  1  3  2 -1</clus>
</clustering>
</event>
<event>
 6    0  0.4189111E+002  0.1406110E+03  0.7546771E-02  0.1212509E+00
          2   -1    0    0  504    0 -0.00000000000E+00  0.00000000000E+00  0.37984464671E+04  0.37984464671E+04  0.00000000000E+00 0. -1.
         21   -1    0    0  503  502  0.00000000000E+00 -0.00000000000E+00 -0.30724384207E+02  0.30724384207E+02  0.00000000000E+00 0.  1.
         21    1    1    2  503  505  0.52559788389E+02 -0.64747918450E+02  0.49676242330E+02  0.97069837494E+02  0.00000000000E+00 0.  1.
         21    1    1    2  504  502 -0.24266562900E+02 -0.61737571880E+02  0.19197546170E+03  0.20311319936E+03  0.00000000000E+00 0.  1.
         21    1    1    2  505  501 -0.53523360006E+01  0.70027533285E+02  0.11542691486E+04  0.11564038094E+04  0.00000000000E+00 0. -1.
          2    1    1    2  501    0 -0.22940889488E+02  0.56457957045E+02  0.23718012303E+04  0.23725840051E+04  0.00000000000E+00 0. -1.
<scales pt_clust_3="126.44312" pt_clust_4="66.33546" pt_clust_5="57.29801" pt_clust_6="57.29801"></scales>
<clustering>
<clus scale="   57.298">  5  6 -1 -1</clus>
<clus scale="   66.335">  2  4  1 -1</clus>
<clus scale="  126.443">  2  3  1 -1</clus>
<clus scale="   66.335">  2  3  1 -1</clus>
</clustering>
</event>
<event>
 6    0  0.4189111E+002  0.9487810E+02  0.7546771E-02  0.1291451E+00
          1   -1    0    0  505    0 -0.00000000000E+00  0.00000000000E+00  0.36613420963E+03  0.36613420963E+03  0.00000000000E+00 0.  1.
         21   -1    0    0  504  502  0.00000000000E+00 -0.00000000000E+00 -0.10422420892E+03  0.10422420892E+03  0.00000000000E+00 0.  1.
         21    1    1    2  503  501 -0.65664844765E+02  0.63948141481E+02  0.68103729203E+02  0.11418999329E+03  0.00000000000E+00 0.  1.
         21    1    1    2  504  503 -0.48144687773E+02 -0.22618282455E+02 -0.40190225212E+02  0.66668972277E+02  0.00000000000E+00 0.  1.
         21    1    1    2  505  502  0.57489735612E+02 -0.78961689911E+02  0.10251375509E+03  0.14159480272E+03  0.00000000000E+00 0.  1.
          1    1    1    2  501    0  0.56319796926E+02  0.37631830886E+02  0.13148274164E+03  0.14790465026E+03  0.00000000000E+00 0.  1.
<scales pt_clust_3="14000.00000" pt_clust_4="53.19302" pt_clust_5="94.87810" pt_clust_6="59.24694"></scales>
<clustering>
<clus scale="   53.193">  2  4  1 -1</clus>
<clus scale="   59.247">  1  6  2 -1</clus>
<clus scale="   94.878">  1  5  2 -1</clus>
<clus scale="   53.193">  2  3  1 -1</clus>
</clustering>
</event>
<event>
 6    0  0.4189111E+002  0.1718146E+03  0.7546771E-02  0.1175969E+00
         21   -1    0    0  503  502  0.00000000000E+00  0.00000000000E+00  0.55432812145E+03  0.55432812145E+03  0.00000000000E+00 0. -1.
          1   -1    0    0  505    0 -0.00000000000E+00 -0.00000000000E+00 -0.57093730522E+03  0.57093730522E+03  0.00000000000E+00 0. -1.
         21    1    1    2  503  501 -0.26059082576E+02 -0.16799465533E+02  0.50100030262E+03  0.50195876430E+03  0.00000000000E+00 0. -1.
         21    1    1    2  504  502 -0.71827580369E+02 -0.68175635814E+02 -0.57333127531E+02  0.11442991800E+03  0.00000000000E+00 0. -1.
         21    1    1    2  505  504 -0.16888773950E+02 -0.41900906067E+02 -0.79715660107E+02  0.91626977911E+02  0.00000000000E+00 0. -1.
          1    1    1    2  501    0  0.11477543689E+03  0.12687600741E+03 -0.38056069876E+03  0.41724976647E+03  0.00000000000E+00 0. -1.
<scales pt_clust_3="31.00480" pt_clust_4="39.18254" pt_clust_5="39.18254" pt_clust_6="160.71910"></scales>
<clustering>
<clus scale="   31.005">  1  3  2 -1</clus>
<clus scale="   39.183">  4  5 -1 -1</clus>
<clus scale="  160.719">  2  6  1 -1</clus>
<clus scale="   31.005">  1  3  2 -1</clus>
</clustering>
</event>
<event>
 6    0  0.4189111E+002  0.1274259E+03  0.7546771E-02  0.1231326E+00
         21   -1    0    0  504  502  0.00000000000E+00  0.00000000000E+00  0.85588723139E+02  0.85588723139E+02  0.00000000000E+00 0.  1.
          1   -1    0    0  503    0 -0.00000000000E+00 -0.00000000000E+00 -0.10441883967E+04  0.10441883967E+04  0.00000000000E+00 0.  1.
         21    1    1    2  503  505 -0.31321944776E+02 -0.28786309419E+02 -0.11769131074E+03  0.12514375917E+03  0.00000000000E+00 0.  1.
         21    1    1    2  504  501 -0.92854970827E+01  0.18417339580E+03 -0.65832416240E+02  0.19580594272E+03  0.00000000000E+00 0.  1.
         21    1    1    2  505  502  0.24495064938E+02 -0.57726400191E+02 -0.59519707849E+02  0.86457741746E+02  0.00000000000E+00 0. -1.
          1    1    1    2  501    0  0.16112376922E+02 -0.97660686188E+02 -0.71555623873E+03  0.72236967620E+03  0.00000000000E+00 0.  1.
<scales pt_clust_3="42.54075" pt_clust_4="14000.00000" pt_clust_5="63.91535" pt_clust_6="127.42590"></scales>
<clustering>
<clus scale="   42.541">  2  3  1 -1</clus>
<clus scale="   63.915">  1  5  2 -1</clus>
<clus scale="  127.426">  2  6  1 -1</clus>
<clus scale="   63.915">  1  3  2 -1</clus>
</clustering>
</event>
<event>
 6    0  0.4189111E+002  0.9404019E+02  0.7546771E-02  0.1293353E+00
          2   -1    0    0  502    0 -0.00000000000E+00  0.00000000000E+00  0.39854666839E+03  0.39854666839E+03  0.00000000000E+00 0.  1.
         21   -1    0    0  504  502  0.00000000000E+00 -0.00000000000E+00 -0.30628889708E+03  0.30628889708E+03  0.00000000000E+00 0.  1.
         21    1    1    2  503  501 -0.12740190978E+02 -0.80860611487E+02  0.98377269178E+01  0.82447145658E+02  0.00000000000E+00 0.  1.
         21    1    1    2  504  505  0.95491775936E+01 -0.29040068868E+02 -0.18449153040E+03  0.18700705115E+03  0.00000000000E+00 0.  1.
         21    1    1    2  505  503  0.39233792370E+02  0.18466547003E+02 -0.71150461563E+02  0.83322818018E+02  0.00000000000E+00 0.  1.
          2    1    1    2  501    0 -0.36042778986E+02  0.91434133353E+02  0.33806203635E+03  0.35205855064E+03  0.00000000000E+00 0.  1.
<scales pt_clust_3="14000.00000" pt_clust_4="30.56980" pt_clust_5="45.35272" pt_clust_6="94.04019"></scales>
<clustering>
<clus scale="   30.570">  2  4  1 -1</clus>
<clus scale="   45.353">  2  5  1 -1</clus>
<clus scale="   94.040">  1  6  2 -1</clus>
<clus scale="   30.570">  2  3  1 -1</clus>
</clustering>
</event>
<event>
 6    0  0.4189111E+002  0.1147027E+03  0.7546771E-02  0.1252101E+00
         21   -1    0    0  505  502  0.00000000000E+00  0.00000000000E+00  0.26677407137E+03  0.26677407137E+03  0.00000000000E+00 0. -1.
          1   -1    0    0  504    0 -0.00000000000E+00 -0.00000000000E+00 -0.40704091383E+03  0.40704091383E+03  0.00000000000E+00 0.  1.
         21    1    1    2  503  501 -0.27956910638E+01 -0.56620810836E+02 -0.19250892197E+03  0.20068237877E+03  0.00000000000E+00 0.  1.
         21    1    1    2  504  502 -0.13341559736E+02 -0.30559746312E+02  0.54001868655E+01  0.33779540095E+02  0.00000000000E+00 0. -1.
         21    1    1    2  505  503 -0.23474828193E+02  0.12829052624E+03  0.22070363779E+03  0.25635838667E+03  0.00000000000E+00 0. -1.
          1    1    1    2  501    0  0.39612078992E+02 -0.41109969092E+02 -0.17386174514E+03  0.18299467966E+03  0.00000000000E+00 0.  1.
<scales pt_clust_3="45.49139" pt_clust_4="33.34509" pt_clust_5="105.27502" pt_clust_6="45.49139"></scales>
<clustering>
<clus scale="   33.345">  1  4  2 -1</clus>
<clus scale="   45.491">  3  6 -1 -1</clus>
<clus scale="  105.275">  1  5  2 -1</clus>
<clus scale="   33.345">  1  3  2 -1</clus>
</clustering>
</event>
<event>
 6    0  0.4189111E+002  0.1230559E+03  0.7546771E-02  0.1238139E+00
         21   -1    0    0  501  502  0.00000000000E+00  0.00000000000E+00  0.82443748085E+02  0.82443748085E+02  0.00000000000E+00 0.  1.
          2   -1    0    0  505    0 -0.00000000000E+00 -0.00000000000E+00 -0.98177437658E+03  0.98177437658E+03  0.00000000000E+00 0. -1.
         21    1    1    2  503  502  0.35707056964E+02 -0.30280557749E+01  0.16474456255E+02  0.39440724483E+02  0.00000000000E+00 0.  1.
         21    1    1    2  504  503 -0.89605513204E+00  0.67405713332E+02  0.43208883274E+01  0.67550005037E+02  0.00000000000E+00 0.  1.
         21    1    1    2  505  504  0.20617979554E+02  0.75652334704E+02 -0.12206016361E+03  0.14507605029E+03  0.00000000000E+00 0. -1.
          2    1    1    2  501    0 -0.55428981387E+02 -0.14002999226E+03 -0.79806580947E+03  0.81215134486E+03  0.00000000000E+00 0. -1.
<scales pt_clust_3="35.83522" pt_clust_4="69.22057" pt_clust_5="14000.00000" pt_clust_6="123.05595"></scales>
<clustering>
<clus scale="   35.835">  1  3  2 -1</clus>
<clus scale="   69.221">  1  4  2 -1</clus>
<clus scale="  123.056">  2  6  1 -1</clus>
<clus scale="   35.835">  1  3  2 -1</clus>
</clustering>
</event>
<event>
 6    0  0.4189111E+002  0.1352188E+03  0.7546771E-02  0.1219911E+00
         -1   -1    0    0    0  501 -0.00000000000E+00  0.00000000000E+00  0.17570486015E+03  0.17570486015E+03  0.00000000000E+00 0.  1.
         21   -1    0    0  505  502  0.00000000000E+00 -0.00000000000E+00 -0.39877111032E+03  0.39877111032E+03  0.00000000000E+00 0.  1.
         21    1    1    2  503  501 -0.27210480961E+02 -0.29775727113E+02  0.49903385889E+02  0.64166596625E+02  0.00000000000E+00 0. -1.
         21    1    1    2  504  502 -0.64748106781E+01 -0.38905515820E+02 -0.80035709152E+02  0.89225988781E+02  0.00000000000E+00 0.  1.
         21    1    1    2  505  503 -0.11840186967E+03  0.77597564980E+02 -0.22458836878E+03  0.26548129920E+03  0.00000000000E+00 0.  1.
         -1    1    1    2    0  504  0.15208716131E+03 -0.89163220463E+01  0.31654441876E+02  0.15560208586E+03  0.00000000000E+00 0.  1.
<scales pt_clust_3="41.09018" pt_clust_4="39.44062" pt_clust_5="14000.00000" pt_clust_6="135.21885"></scales>
<clustering>
<clus scale="   39.441">  2  4  1 -1</clus>
<clus scale="   41.090">  1  3  2 -1</clus>
<clus scale="  135.219">  1  6  2 -1</clus>
<clus scale="   39.441">  2  3  1 -1</clus>
</clustering>
</event>
<event>
 6    0  0.4189111E+002  0.1877566E+03  0.7546771E-02  0.1160500E+00
         21   -1    0    0  501  502  0.00000000000E+00  0.00000000000E+00  0.28112985766E+03  0.28112985766E+03  0.00000000000E+00 0. -1.
          2   -1    0    0  503    0 -0.00000000000E+00 -0.00000000000E+00 -0.79507472152E+03  0.79507472152E+03  0.00000000000E+00 0. -1.
         21    1    1    2  503  505  0.36907514542E+02 -0.33573392134E+02 -0.20794655728E+03  0.21384832937E+03  0.00000000000E+00 0. -1.
         21    1    1    2  504  502 -0.12298093091E+03 -0.15212820697E+03  0.18721023448E+03  0.27076737731E+03  0.00000000000E+00 0. -1.
         21    1    1    2  505  504 -0.18995815529E+02  0.13425395848E+03 -0.70170337926E+02  0.15267233770E+03  0.00000000000E+00 0.  1.
          2    1    1    2  501    0  0.10506923189E+03  0.51447640619E+02 -0.42303820312E+03  0.43891653479E+03  0.00000000000E+00 0. -1.
<scales pt_clust_3="49.89326" pt_clust_4="187.75663" pt_clust_5="128.40829" pt_clust_6="14000.00000"></scales>
<clustering>
<clus scale="   49.893">  2  3  1 -1</clus>
<clus scale="  128.408">  2  5  1 -1</clus>
<clus scale="  187.757">  1  4  2 -1</clus>
<clus scale="  187.757">  1  3  2 -1</clus>
</clustering>
</event>
<event>
 6    0  0.4189111E+002  0.1301657E+03  0.7546771E-02  0.1227210E+00
         21   -1    0    0  505  502  0.00000000000E+00  0.00000000000E+00  0.48492696410E+02  0.48492696410E+02  0.00000000000E+00 0.  1.
         -3   -1    0    0    0  501 -0.00000000000E+00 -0.00000000000E+00 -0.10825480773E+04  0.10825480773E+04  0.00000000000E+00 0. -1.
         21    1    1    2  503  502 -0.30205965290E+02 -0.97301925605E+01 -0.23834839465E+02  0.39688494035E+02  0.00000000000E+00 0.  1.
         21    1    1    2  504  503 -0.46616747639E+02 -0.93806797576E+02 -0.20193160765E+03  0.22748452826E+03  0.00000000000E+00 0.  1.
         21    1    1    2  505  501  0.74252085422E+02 -0.45835040969E+02 -0.73631928425E+02  0.11417479605E+03  0.00000000000E+00 0.  1.
         -3    1    1    2    0  504  0.25706275076E+01  0.14937203110E+03 -0.73465700534E+03  0.74969295535E+03  0.00000000000E+00 0. -1.
<scales pt_clust_3="31.73448" pt_clust_4="14000.00000" pt_clust_5="77.90927" pt_clust_6="130.16574"></scales>
<clustering>
<clus scale="   31.734">  1  3  2 -1</clus>
<clus scale="   77.909">  1  5  2 -1</clus>
<clus scale="  130.166">  2  6  1 -1</clus>
<clus scale="   31.734">  1  3  2 -1</clus>
</clustering>
</event>
<event>
 6    0  0.4189111E+002  0.8856833E+02  0.7546771E-02  0.1306356E+00
         21   -1    0    0  503  502  0.00000000000E+00  0.00000000000E+00  0.93301712134E+02  0.93301712134E+02  0.00000000000E+00 0. -1.
          2   -1    0    0  505    0 -0.00000000000E+00 -0.00000000000E+00 -0.15710229394E+04  0.15710229394E+04  0.00000000000E+00 0.  1.
         21    1    1    2  503  501  0.30920317570E+02 -0.62088156697E+01  0.82758771171E+01  0.32605299765E+02  0.00000000000E+00 0. -1.
         21    1    1    2  504  502  0.21909022259E+02 -0.37208493308E+02  0.56982177349E+02  0.71494375765E+02  0.00000000000E+00 0. -1.
         21    1    1    2  505  504  0.36774918453E+02  0.74761883837E+02 -0.24500617412E+03  0.25878516043E+03  0.00000000000E+00 0.  1.
          2    1    1    2  501    0 -0.89604258282E+02 -0.31344574859E+02 -0.12979731076E+04  0.13014398156E+04  0.00000000000E+00 0.  1.
<scales pt_clust_3="31.53752" pt_clust_4="65.11136" pt_clust_5="88.56833" pt_clust_6="14000.00000"></scales>
<clustering>
<clus scale="   31.538">  1  3  2 -1</clus>
<clus scale="   65.111">  1  4  2 -1</clus>
<clus scale="   88.568">  1  5  2 -1</clus>
<clus scale="   31.538">  1  3  2 -1</clus>
</clustering>
</event>
<event>
 6    0  0.4189111E+002  0.1028332E+03  0.7546771E-02  0.1274448E+00
         21   -1    0    0  503  502  0.00000000000E+00  0.00000000000E+00  0.80999383515E+02  0.80999383515E+02  0.00000000000E+00 0.  1.
         -1   -1    0    0    0  501 -0.00000000000E+00 -0.00000000000E+00 -0.12568641506E+04  0.12568641506E+04  0.00000000000E+00 0.  1.
         21    1    1    2  503  505 -0.10529847729E+03 -0.16594048236E+02 -0.12098371826E+02  0.10728234877E+03  0.00000000000E+00 0.  1.
         21    1    1    2  504  502  0.24632826696E+02 -0.53112518892E+02  0.18756149450E+01  0.58576733825E+02  0.00000000000E+00 0.  1.
         21    1    1    2  505  501  0.13100099012E+02  0.33344796638E+02 -0.18986954204E+03  0.19321990335E+03  0.00000000000E+00 0. -1.
         -1    1    1    2    0  504  0.67565551578E+02  0.36361770490E+02 -0.97577246816E+03  0.97878454816E+03  0.00000000000E+00 0.  1.
<scales pt_clust_3="14000.00000" pt_clust_4="57.89247" pt_clust_5="35.82580" pt_clust_6="102.83323"></scales>
<clustering>
<clus scale="   35.826">  2  5  1 -1</clus>
<clus scale="   57.892">  1  4  2 -1</clus>
<clus scale="  102.833">  2  6  1 -1</clus>
<clus scale="   57.892">  1  3  2 -1</clus>
</clustering>
</event>
<event>
 6    0  0.4189111E+002  0.7427873E+02  0.7546771E-02  0.1346119E+00
          3   -1    0    0  504    0 -0.00000000000E+00  0.00000000000E+00  0.65596618058E+02  0.65596618058E+02  0.00000000000E+00 0.  1.
         21   -1    0    0  503  502  0.00000000000E+00 -0.00000000000E+00 -0.12769316693E+04  0.12769316693E+04  0.00000000000E+00 0.  1.
         21    1    1    2  503  505 -0.21058686452E+02  0.37734176361E+02 -0.57423967375E+03  0.57586329909E+03  0.00000000000E+00 0.  1.
         21    1    1    2  504  502 -0.57900357962E+02  0.69715595377E+02 -0.35531806404E+02  0.97340767191E+02  0.00000000000E+00 0.  1.
         21    1    1    2  505  501  0.78820602476E+02 -0.74393913282E+02 -0.62139446984E+03  0.63077589432E+03  0.00000000000E+00 0.  1.
          3    1    1    2  501    0  0.13844193805E+00 -0.33055858456E+02  0.19830898798E+02  0.38548326702E+02  0.00000000000E+00 0.  1.
<scales pt_clust_3="42.56904" pt_clust_4="14000.00000" pt_clust_5="74.27873" pt_clust_6="33.05615"></scales>
<clustering>
<clus scale="   33.056">  1  6  2 -1</clus>
<clus scale="   42.569">  2  3  1 -1</clus>
<clus scale="   74.279">  2  5  1 -1</clus>
<clus scale="   42.569">  2  3  1 -1</clus>
</clustering>
</event>
<event>
 6    0  0.4189111E+002  0.1045905E+03  0.7546771E-02  0.1270929E+00
         21   -1    0    0  505  502  0.00000000000E+00  0.00000000000E+00  0.46319925752E+02  0.46319925752E+02  0.00000000000E+00 0. -1.
          2   -1    0    0  504    0 -0.00000000000E+00 -0.00000000000E+00 -0.19667064541E+04  0.19667064541E+04  0.00000000000E+00 0. -1.
         21    1    1    2  503  502 -0.30216399410E+02 -0.80815655229E+01  0.21164319136E+02  0.37766001895E+02  0.00000000000E+00 0. -1.
         21    1    1    2  504  503 -0.53903881724E+02  0.43342574402E+02 -0.44204532991E+03  0.44742405045E+03  0.00000000000E+00 0.  1.
         21    1    1    2  505  501  0.13517947344E+03 -0.50425727344E+02 -0.37088567206E+03  0.39796033189E+03  0.00000000000E+00 0. -1.
          2    1    1    2  501    0 -0.51059192301E+02  0.15164718464E+02 -0.11286198455E+04  0.11298759956E+04  0.00000000000E+00 0. -1.
<scales pt_clust_3="31.27847" pt_clust_4="104.59049" pt_clust_5="14000.00000" pt_clust_6="54.26065"></scales>
<clustering>
<clus scale="   31.278">  1  3  2 -1</clus>
<clus scale="   54.261">  2  6  1 -1</clus>
<clus scale="  104.590">  2  4  1 -1</clus>
<clus scale="   31.278">  1  3  2 -1</clus>
</clustering>
</event>
<event>
 6    0  0.4189111E+002  0.1334489E+03  0.7546771E-02  0.1222426E+00
         21   -1    0    0  503  502  0.00000000000E+00  0.00000000000E+00  0.11660320223E+04  0.11660320223E+04  0.00000000000E+00 0. -1.
          2   -1    0    0  505    0 -0.00000000000E+00 -0.00000000000E+00 -0.26260643531E+03  0.26260643531E+03  0.00000000000E+00 0. -1.
         21    1    1    2  503  504  0.14368515480E+03 -0.61299551391E+02  0.41922524469E+03  0.44738447056E+03  0.00000000000E+00 0. -1.
         21    1    1    2  504  501 -0.22928984433E+02  0.38585399734E+02 -0.42345388406E+02  0.61706590564E+02  0.00000000000E+00 0. -1.
         21    1    1    2  505  502 -0.50428062786E+02 -0.13568017288E+02  0.71408679887E+03  0.71599374085E+03  0.00000000000E+00 0. -1.
          2    1    1    2  501    0 -0.70328107583E+02  0.36282168944E+02 -0.18754106814E+03  0.20355365567E+03  0.00000000000E+00 0. -1.
<scales pt_clust_3="120.81151" pt_clust_4="42.69010" pt_clust_5="52.22146" pt_clust_6="42.69010"></scales>
<clustering>
<clus scale="   42.690">  4  6 -1 -1</clus>
<clus scale="   52.221">  1  5  2 -1</clus>
<clus scale="  120.812">  1  3  2 -1</clus>
<clus scale="   52.221">  1  3  2 -1</clus>
</clustering>
</event>
<event>
 6    0  0.4189111E+002  0.1196655E+03  0.7546771E-02  0.1243650E+00
         21   -1    0    0  504  502  0.00000000000E+00  0.00000000000E+00  0.14323222780E+04  0.14323222780E+04  0.00000000000E+00 0. -1.
         -1   -1    0    0    0  501 -0.00000000000E+00 -0.00000000000E+00 -0.24573910377E+03  0.24573910377E+03  0.00000000000E+00 0.  1.
         21    1    1    2  503  501 -0.40752080232E+02 -0.13120076472E+03 -0.19009563027E+03  0.23454364488E+03  0.00000000000E+00 0.  1.
         21    1    1    2  504  503 -0.15503620950E+02  0.34130940359E+02  0.12090696411E+03  0.12658505963E+03  0.00000000000E+00 0.  1.
         21    1    1    2  505  502  0.65838154200E+02  0.16502835755E+02  0.12299017897E+04  0.12317732821E+04  0.00000000000E+00 0. -1.
         -1    1    1    2    0  505 -0.95824530174E+01  0.80566988604E+02  0.25870050625E+02  0.85159395125E+02  0.00000000000E+00 0.  1.
<scales pt_clust_3="14000.00000" pt_clust_4="37.48711" pt_clust_5="70.63774" pt_clust_6="119.66549"></scales>
<clustering>
<clus scale="   37.487">  1  4  2 -1</clus>
<clus scale="   70.638">  1  5  2 -1</clus>
<clus scale="  119.665">  1  6  2 -1</clus>
<clus scale="   37.487">  1  3  2 -1</clus>
</clustering>
</event>
<event>
 6    0  0.4189111E+002  0.9316423E+02  0.7546771E-02  0.1295365E+00
         -4   -1    0    0    0  501 -0.00000000000E+00  0.00000000000E+00  0.16911166895E+03  0.16911166895E+03  0.00000000000E+00 0.  1.
         21   -1    0    0  504  502  0.00000000000E+00 -0.00000000000E+00 -0.64318812843E+03  0.64318812843E+03  0.00000000000E+00 0. -1.
         21    1    1    2  503  502  0.11183508390E+03 -0.44338455440E+02 -0.13975026078E+03  0.18439934927E+03  0.00000000000E+00 0. -1.
         21    1    1    2  504  505 -0.51649615465E+02  0.74968666185E+02 -0.46595014106E+03  0.47476048450E+03  0.00000000000E+00 0. -1.
         21    1    1    2  505  501 -0.26648129900E+02 -0.18609208003E+02  0.25854830959E+02  0.41531888154E+02  0.00000000000E+00 0. -1.
         -4    1    1    2    0  503 -0.33537338535E+02 -0.12021002742E+02  0.10576911140E+03  0.11160807547E+03  0.00000000000E+00 0.  1.
<scales pt_clust_3="14000.00000" pt_clust_4="93.16423" pt_clust_5="32.50270" pt_clust_6="61.18407"></scales>
<clustering>
<clus scale="   32.503">  1  5  2 -1</clus>
<clus scale="   61.184">  1  6  2 -1</clus>
<clus scale="   93.164">  2  4  1 -1</clus>
<clus scale="   93.164">  2  3  1 -1</clus>
</clustering>
</event>
<event>
 6    0  0.4189111E+002  0.2139815E+03  0.7546771E-02  0.1138451E+00
          2   -1    0    0  504    0 -0.00000000000E+00  0.00000000000E+00  0.56831735704E+03  0.56831735704E+03  0.00000000000E+00 0. -1.
         21   -1    0    0  505  502  0.00000000000E+00 -0.00000000000E+00 -0.19067674541E+03  0.19067674541E+03  0.00000000000E+00 0.  1.
         21    1    1    2  503  502 -0.10252449386E+03  0.17891447856E+03 -0.59100920104E+02  0.21451009588E+03  0.00000000000E+00 0.  1.
         21    1    1    2  504  503  0.39753713155E+02  0.72548839000E+01  0.63379002593E+02  0.75165743658E+02  0.00000000000E+00 0. -1.
         21    1    1    2  505  501  0.21152302170E+02  0.23561834174E+02 -0.75000034278E+01  0.32539667610E+02  0.00000000000E+00 0.  1.
          2    1    1    2  501    0  0.41618478533E+02 -0.20973119663E+03  0.38086253257E+03  0.43677859530E+03  0.00000000000E+00 0. -1.
<scales pt_clust_3="213.98151" pt_clust_4="41.28038" pt_clust_5="31.66354" pt_clust_6="14000.00000"></scales>
<clustering>
<clus scale="   31.664">  2  5  1 -1</clus>
<clus scale="   41.280">  1  4  2 -1</clus>
<clus scale="  213.982">  2  3  1 -1</clus>
<clus scale="   31.664">  2  3  1 -1</clus>
</clustering>
</event>
<event>
 6    0  0.4189111E+002  0.1083305E+03  0.7546771E-02  0.1263693E+00
         21   -1    0    0  503  502  0.00000000000E+00  0.00000000000E+00  0.44123109977E+02  0.44123109977E+02  0.00000000000E+00 0. -1.
          2   -1    0    0  504    0 -0.00000000000E+00 -0.00000000000E+00 -0.17624198270E+04  0.17624198270E+04  0.00000000000E+00 0. -1.
         21    1    1    2  503  505  0.57007337121E+02 -0.10750289884E+03 -0.11039975022E+03  0.16430098780E+03  0.00000000000E+00 0. -1.
         21    1    1    2  504  502  0.63322069008E+01  0.31489778849E+02 -0.13747598220E+01  0.32149540910E+02  0.00000000000E+00 0. -1.
         21    1    1    2  505  501 -0.36422000948E+02  0.43698388717E+02 -0.12121202066E+04  0.12134543694E+04  0.00000000000E+00 0. -1.
          2    1    1    2  501    0 -0.26917543074E+02  0.32314731271E+02 -0.39440200033E+03  0.39663803883E+03  0.00000000000E+00 0. -1.
<scales pt_clust_3="100.20696" pt_clust_4="32.12013" pt_clust_5="35.57592" pt_clust_6="35.57592"></scales>
<clustering>
<clus scale="   32.120">  1  4  2 -1</clus>
<clus scale="   35.576">  5  6 -1 -1</clus>
<clus scale="  100.207">  1  3  2 -1</clus>
<clus scale="   32.120">  1  3  2 -1</clus>
</clustering>
</event>
<event>
 6    0  0.4189111E+002  0.9551463E+02  0.7546771E-02  0.1290021E+00
         21   -1    0    0  503  502  0.00000000000E+00  0.00000000000E+00  0.24596374216E+02  0.24596374216E+02  0.00000000000E+00 0. -1.
          1   -1    0    0  504    0 -0.00000000000E+00 -0.00000000000E+00 -0.29941222802E+04  0.29941222802E+04  0.00000000000E+00 0.  1.
         21    1    1    2  503  501  0.54365387433E+02  0.80636181123E+02 -0.92510995033E+02  0.13422396678E+03  0.00000000000E+00 0. -1.
         21    1    1    2  504  505  0.18335573422E+02 -0.35621159824E+02 -0.58878530221E+03  0.59014675495E+03  0.00000000000E+00 0.  1.
         21    1    1    2  505  502  0.24038615705E+02 -0.34865685447E+02 -0.23297279867E+03  0.23679061634E+03  0.00000000000E+00 0.  1.
          1    1    1    2  501    0 -0.96739576560E+02 -0.10149335853E+02 -0.20552568101E+04  0.20575573163E+04  0.00000000000E+00 0.  1.
<scales pt_clust_3="14000.00000" pt_clust_4="40.06320" pt_clust_5="46.23325" pt_clust_6="95.51463"></scales>
<clustering>
<clus scale="   40.063">  2  4  1 -1</clus>
<clus scale="   46.233">  2  5  1 -1</clus>
<clus scale="   95.515">  2  6  1 -1</clus>
<clus scale="   95.515">  1  3  2 -1</clus>
</clustering>
</event>
<event>
 6    0  0.4189111E+002  0.2305457E+03  0.7546771E-02  0.1126256E+00
         21   -1    0    0  505  502  0.00000000000E+00  0.00000000000E+00  0.23112748389E+03  0.23112748389E+03  0.00000000000E+00 0.  1.
         -2   -1    0    0    0  501 -0.00000000000E+00 -0.00000000000E+00 -0.12516206724E+04  0.12516206724E+04  0.00000000000E+00 0. -1.
         21    1    1    2  503  502 -0.10267110418E+02 -0.22042719292E+03  0.14061087852E+03  0.26165813592E+03  0.00000000000E+00 0.  1.
         21    1    1    2  504  503 -0.32774790267E+02  0.23829069809E+02 -0.11945976481E+03  0.12614534020E+03  0.00000000000E+00 0. -1.
         21    1    1    2  505  501  0.79389364428E+02  0.14771469919E+02 -0.73465772903E+02  0.10916999265E+03  0.00000000000E+00 0. -1.
         -2    1    1    2    0  504 -0.36347463744E+02  0.18182665320E+03 -0.96817852931E+03  0.98577468751E+03  0.00000000000E+00 0. -1.
<scales pt_clust_3="216.36633" pt_clust_4="37.21349" pt_clust_5="80.75189" pt_clust_6="37.21349"></scales>
<clustering>
<clus scale="   37.213">  4  6 -1 -1</clus>
<clus scale="   80.752">  1  5  2 -1</clus>
<clus scale="  216.366">  1  3  2 -1</clus>
<clus scale="   80.752">  1  3  2 -1</clus>
</clustering>
</event>
<event>
 6    0  0.4189111E+002  0.2753422E+03  0.7546771E-02  0.1098260E+00
         21   -1    0    0  504  502  0.00000000000E+00  0.00000000000E+00  0.37420158816E+03  0.37420158816E+03  0.00000000000E+00 0. -1.
          1   -1    0    0  503    0 -0.00000000000E+00 -0.00000000000E+00 -0.32014517258E+03  0.32014517258E+03  0.00000000000E+00 0. -1.
         21    1    1    2  503  502  0.32549037085E+02 -0.16120254469E+02  0.10623465606E+03  0.11227245685E+03  0.00000000000E+00 0. -1.
         21    1    1    2  504  505 -0.57446493448E+02 -0.25628583199E+03  0.77773612505E+02  0.27391834931E+03  0.00000000000E+00 0. -1.
         21    1    1    2  505  501  0.73100625560E+01  0.95121346978E+02 -0.16159181724E+02  0.96760667729E+02  0.00000000000E+00 0. -1.
          1    1    1    2  501    0  0.17587393807E+02  0.17728473948E+03 -0.11379267126E+03  0.21139528686E+03  0.00000000000E+00 0. -1.
<scales pt_clust_3="36.32220" pt_clust_4="269.38017" pt_clust_5="41.54316" pt_clust_6="41.54316"></scales>
<clustering>
<clus scale="   36.322">  1  3  2 -1</clus>
<clus scale="   41.543">  5  6 -1 -1</clus>
<clus scale="  269.380">  1  4  2 -1</clus>
<clus scale="   36.322">  1  3  2 -1</clus>
</clustering>
</event>
<event>
 6    0  0.4189111E+002  0.6720686E+02  0.7546771E-02  0.1369857E+00
         21   -1    0    0  504  502  0.00000000000E+00  0.00000000000E+00  0.57761426045E+02  0.57761426045E+02  0.00000000000E+00 0. -1.
          2   -1    0    0  505    0 -0.00000000000E+00 -0.00000000000E+00 -0.10297805017E+04  0.10297805017E+04  0.00000000000E+00 0. -1.
         21    1    1    2  503  502  0.41167681686E+02 -0.25782203308E+02 -0.70528293017E+02  0.85637259056E+02  0.00000000000E+00 0.  1.
         21    1    1    2  504  501 -0.10521246644E+03  0.46851731772E+02 -0.37822364650E+02  0.12122408643E+03  0.00000000000E+00 0. -1.
         21    1    1    2  505  503  0.10675002711E+02 -0.65329281857E+02 -0.69740585766E+03  0.70054036362E+03  0.00000000000E+00 0. -1.
          2    1    1    2  501    0  0.53369782042E+02  0.44259753392E+02 -0.16626256030E+03  0.18014021862E+03  0.00000000000E+00 0. -1.
<scales pt_clust_3="48.57468" pt_clust_4="14000.00000" pt_clust_5="67.20686" pt_clust_6="66.94025"></scales>
<clustering>
<clus scale="   48.575">  1  3  2 -1</clus>
<clus scale="   67.207">  2  5  1 -1</clus>
<clus scale="   66.940">  2  6  1 -1</clus>
<clus scale="   48.575">  1  3  2 -1</clus>
</clustering>
</event>
<event>
 6    0  0.4189111E+002  0.1047515E+03  0.7546771E-02  0.1270610E+00
         -1   -1    0    0    0  501 -0.00000000000E+00  0.00000000000E+00  0.36847247484E+03  0.36847247484E+03  0.00000000000E+00 0. -1.
         21   -1    0    0  505  502  0.00000000000E+00 -0.00000000000E+00 -0.96738936145E+03  0.96738936145E+03  0.00000000000E+00 0. -1.
         21    1    1    2  503  501 -0.23437730806E+02  0.56166399430E+02  0.45730436620E+02  0.76126634523E+02  0.00000000000E+00 0. -1.
         21    1    1    2  504  503 -0.54329956141E+02 -0.14131166979E+03 -0.85687950292E+02  0.17396309085E+03  0.00000000000E+00 0.  1.
         21    1    1    2  505  504  0.90140200076E+01  0.49908697264E+02 -0.81589648753E+03  0.81747122823E+03  0.00000000000E+00 0. -1.
         -1    1    1    2    0  502  0.68753666940E+02  0.35236573091E+02  0.25693711459E+03  0.26830088270E+03  0.00000000000E+00 0. -1.
<scales pt_clust_3="65.21443" pt_clust_4="14000.00000" pt_clust_5="50.71618" pt_clust_6="104.75149"></scales>
<clustering>
<clus scale="   50.716">  2  5  1 -1</clus>
<clus scale="   65.214">  1  3  2 -1</clus>
<clus scale="  104.751">  1  6  2 -1</clus>
<clus scale="   50.716">  2  3  1 -1</clus>
</clustering>
</event>
<event>
 6    0  0.4189111E+002  0.9620690E+02  0.7546771E-02  0.1288481E+00
         21   -1    0    0  505  502  0.00000000000E+00  0.00000000000E+00  0.94879629628E+02  0.94879629628E+02  0.00000000000E+00 0. -1.
          2   -1    0    0  504    0 -0.00000000000E+00 -0.00000000000E+00 -0.15107526424E+04  0.15107526424E+04  0.00000000000E+00 0. -1.
         21    1    1    2  503  502 -0.48133417062E+02  0.17495579463E+02 -0.30370838442E+02  0.59542497147E+02  0.00000000000E+00 0. -1.
         21    1    1    2  504  503 -0.34891389997E+02 -0.75392409221E+01 -0.25877895565E+03  0.26122939562E+03  0.00000000000E+00 0.  1.
         21    1    1    2  505  501 -0.45657168076E+02 -0.39971686172E+02  0.63204142244E+02  0.87618926545E+02  0.00000000000E+00 0. -1.
          2    1    1    2  501    0  0.12868197514E+03  0.30015347631E+02 -0.11899273609E+04  0.11972414527E+04  0.00000000000E+00 0. -1.
<scales pt_clust_3="52.30503" pt_clust_4="35.69663" pt_clust_5="14000.00000" pt_clust_6="96.20690"></scales>
<clustering>
<clus scale="   35.697">  2  4  1 -1</clus>
<clus scale="   52.305">  1  3  2 -1</clus>
<clus scale="   96.207">  2  6  1 -1</clus>
<clus scale="   52.305">  1  3  2 -1</clus>
</clustering>
</event>
<event>
 6    0  0.4189111E+002  0.1026807E+03  0.7546771E-02  0.1274758E+00
          1   -1    0    0  505    0 -0.00000000000E+00  0.00000000000E+00  0.12414353736E+04  0.12414353736E+04  0.00000000000E+00 0.  1.
         21   -1    0    0  504  502  0.00000000000E+00 -0.00000000000E+00 -0.18473810888E+03  0.18473810888E+03  0.00000000000E+00 0.  1.
         21    1    1    2  503  502 -0.28859503544E+02 -0.13435169270E+02 -0.24168364600E+02  0.39968544701E+02  0.00000000000E+00 0. -1.
         21    1    1    2  504  501  0.20379124525E+01  0.97343024513E+02  0.33663273451E+03  0.35043032896E+03  0.00000000000E+00 0.  1.
         21    1    1    2  505  503  0.10262975167E+03 -0.61057038834E+02 -0.11919414805E+03  0.16872484360E+03  0.00000000000E+00 0.  1.
          1    1    1    2  501    0 -0.75808160578E+02 -0.22850816409E+02  0.86342704291E+03  0.86704976526E+03  0.00000000000E+00 0.  1.
<scales pt_clust_3="31.83355" pt_clust_4="102.68075" pt_clust_5="14000.00000" pt_clust_6="79.55111"></scales>
<clustering>
<clus scale="   31.834">  2  3  1 -1</clus>
<clus scale="   79.551">  1  6  2 -1</clus>
<clus scale="  102.681">  1  4  2 -1</clus>
<clus scale="   31.834">  2  3  1 -1</clus>
</clustering>
</event>
<event>
 6    0  0.4189111E+002  0.7454279E+02  0.7546771E-02  0.1345293E+00
         21   -1    0    0  501  502  0.00000000000E+00  0.00000000000E+00  0.50011931420E+02  0.50011931420E+02  0.00000000000E+00 0. -1.
          2   -1    0    0  503    0 -0.00000000000E+00 -0.00000000000E+00 -0.34579249436E+04  0.34579249436E+04  0.00000000000E+00 0.  1.
         21    1    1    2  503  505 -0.28608128500E+02  0.26651607337E+02 -0.71060195596E+03  0.71167680375E+03  0.00000000000E+00 0. -1.
         21    1    1    2  504  502  0.34575744558E+02  0.19108519217E+02  0.33058511353E+02  0.51511967457E+02  0.00000000000E+00 0. -1.
         21    1    1    2  505  504 -0.51281576600E+02  0.52026201908E+02 -0.21501810572E+03  0.22708877465E+03  0.00000000000E+00 0. -1.
          2    1    1    2  501    0  0.45313960543E+02 -0.97786328462E+02 -0.25153514619E+04  0.25176593292E+04  0.00000000000E+00 0.  1.
<scales pt_clust_3="39.09902" pt_clust_4="39.46405" pt_clust_5="74.54279" pt_clust_6="14000.00000"></scales>
<clustering>
<clus scale="   39.099">  2  3  1 -1</clus>
<clus scale="   39.464">  1  4  2 -1</clus>
<clus scale="   74.543">  1  5  2 -1</clus>
<clus scale="   39.464">  1  3  2 -1</clus>
</clustering>
</event>
<event>
 6    0  0.4189111E+002  0.1069711E+03  0.7546771E-02  0.1266284E+00
          1   -1    0    0  505    0 -0.00000000000E+00  0.00000000000E+00  0.17538730389E+04  0.17538730389E+04  0.00000000000E+00 0. -1.
         21   -1    0    0  503  502  0.00000000000E+00 -0.00000000000E+00 -0.34094602785E+02  0.34094602785E+02  0.00000000000E+00 0. -1.
         21    1    1    2  503  501  0.68527992859E+02  0.91536006004E+02  0.92363005594E+02  0.14698928873E+03  0.00000000000E+00 0. -1.
         21    1    1    2  504  502 -0.47111185015E+02  0.22217298981E+02  0.17180817073E+03  0.17953027504E+03  0.00000000000E+00 0.  1.
         21    1    1    2  505  504 -0.21749052542E+02 -0.35523265703E+02  0.26301596183E+03  0.26629367223E+03  0.00000000000E+00 0.  1.
          1    1    1    2  501    0  0.33224469799E+00 -0.78230039282E+02  0.11925912979E+04  0.11951544057E+04  0.00000000000E+00 0. -1.
<scales pt_clust_3="106.97105" pt_clust_4="52.84645" pt_clust_5="41.65242" pt_clust_6="14000.00000"></scales>
<clustering>
<clus scale="   41.652">  1  5  2 -1</clus>
<clus scale="   52.846">  2  4  1 -1</clus>
<clus scale="  106.971">  2  3  1 -1</clus>
<clus scale="   52.846">  2  3  1 -1</clus>
</clustering>
</event>
<event>
 6    0  0.4189111E+002  0.7281986E+02  0.7546771E-02  0.1350758E+00
         21   -1    0    0  504  502  0.00000000000E+00  0.00000000000E+00  0.14442833562E+03  0.14442833562E+03  0.00000000000E+00 0.  1.
          1   -1    0    0  503    0 -0.00000000000E+00 -0.00000000000E+00 -0.12966190462E+04  0.12966190462E+04  0.00000000000E+00 0.  1.
         21    1    1    2  503  505 -0.90854220650E+02 -0.10699424319E+02 -0.12397848288E+03  0.15407670592E+03  0.00000000000E+00 0. -1.
         21    1    1    2  504  501  0.38874868079E+02 -0.41236967003E+02 -0.17400396604E+03  0.18300033610E+03  0.00000000000E+00 0. -1.
         21    1    1    2  505  502 -0.18502493405E+02  0.41781434700E+02  0.11935662671E+03  0.12780467475E+03  0.00000000000E+00 0.  1.
          1    1    1    2  501    0  0.70481845976E+02  0.10154956621E+02 -0.97356488833E+03  0.97616566501E+03  0.00000000000E+00 0.  1.
<scales pt_clust_3="14000.00000" pt_clust_4="47.48748" pt_clust_5="45.69497" pt_clust_6="72.81986"></scales>
<clustering>
<clus scale="   45.695">  1  5  2 -1</clus>
<clus scale="   47.487">  1  4  2 -1</clus>
<clus scale="   72.820">  2  6  1 -1</clus>
<clus scale="   45.695">  1  3  2 -1</clus>
</clustering>
</event>
<event>
 6    0  0.4189111E+002  0.7649628E+02  0.7546771E-02  0.1339299E+00
          2   -1    0    0  505    0 -0.00000000000E+00  0.00000000000E+00  0.12881853580E+04  0.12881853580E+04  0.00000000000E+00 0.  1.
         21   -1    0    0  503  502  0.00000000000E+00 -0.00000000000E+00 -0.41061810290E+03  0.41061810290E+03  0.00000000000E+00 0.  1.
         21    1    1    2  503  504 -0.35306871748E+02 -0.57271996907E+02 -0.21072768283E+03  0.22120762449E+03  0.00000000000E+00 0.  1.
         21    1    1    2  504  501 -0.39479675449E+02  0.72391816538E+02 -0.17898611062E+03  0.19706660719E+03  0.00000000000E+00 0.  1.
         21    1    1    2  505  502  0.10693482655E+03  0.12909810042E+02  0.47321869264E+03  0.48532221399E+03  0.00000000000E+00 0.  1.
          2    1    1    2  501    0 -0.32148279348E+02 -0.28029629674E+02  0.79406235587E+03  0.79520701519E+03  0.00000000000E+00 0.  1.
<scales pt_clust_3="67.71300" pt_clust_4="76.49628" pt_clust_5="14000.00000" pt_clust_6="42.65175"></scales>
<clustering>
<clus scale="   42.652">  1  6  2 -1</clus>
<clus scale="   67.713">  2  3  1 -1</clus>
<clus scale="   76.496">  2  4  1 -1</clus>
<clus scale="   67.713">  2  3  1 -1</clus>
</clustering>
</event>
<event>
 6    0  0.4189111E+002  0.1028240E+03  0.7546771E-02  0.1274467E+00
         21   -1    0    0  504  502  0.00000000000E+00  0.00000000000E+00  0.40013329440E+03  0.40013329440E+03  0.00000000000E+00 0. -1.
          1   -1    0    0  505    0 -0.00000000000E+00 -0.00000000000E+00 -0.69059192313E+03  0.69059192313E+03  0.00000000000E+00 0. -1.
         21    1    1    2  503  501  0.63183450744E+02  0.20270435565E+02  0.36538792694E+02  0.75750395230E+02  0.00000000000E+00 0. -1.
         21    1    1    2  504  503 -0.12321541898E+03 -0.17252470315E+02  0.32877487499E+03  0.35152895418E+03  0.00000000000E+00 0. -1.
         21    1    1    2  505  502  0.30485523582E+02  0.14172649743E+02 -0.81562212517E+02  0.88219190993E+02  0.00000000000E+00 0. -1.
          1    1    1    2  501    0  0.29546444649E+02 -0.17190614993E+02 -0.57421008389E+03  0.57522667712E+03  0.00000000000E+00 0. -1.
<scales pt_clust_3="102.82397" pt_clust_4="14000.00000" pt_clust_5="33.61891" pt_clust_6="58.59225"></scales>
<clustering>
<clus scale="   33.619">  2  5  1 -1</clus>
<clus scale="   58.592">  2  6  1 -1</clus>
<clus scale="  102.824">  2  3  1 -1</clus>
<clus scale="  102.824">  1  3  2 -1</clus>
</clustering>
</event>
<event>
 6    0  0.4189111E+002  0.1617153E+03  0.7546771E-02  0.1186774E+00
         -2   -1    0    0    0  501 -0.00000000000E+00  0.00000000000E+00  0.55259427878E+03  0.55259427878E+03  0.00000000000E+00 0.  1.
         21   -1    0    0  503  502  0.00000000000E+00 -0.00000000000E+00 -0.20571937960E+03  0.20571937960E+03  0.00000000000E+00 0. -1.
         21    1    1    2  503  501  0.39932408961E+02 -0.82752754485E+01  0.88780198100E+01  0.41736036047E+02  0.00000000000E+00 0. -1.
         21    1    1    2  504  505  0.32424857075E+02  0.50568272274E+02 -0.10248491586E+03  0.11879259024E+03  0.00000000000E+00 0. -1.
         21    1    1    2  505  502  0.62526584416E+02  0.31817617168E+02 -0.48412282906E+02  0.85238979681E+02  0.00000000000E+00 0. -1.
         -2    1    1    2    0  504 -0.13488385045E+03 -0.74110613993E+02  0.48889407813E+03  0.51254605242E+03  0.00000000000E+00 0.  1.
<scales pt_clust_3="40.78085" pt_clust_4="51.87523" pt_clust_5="51.87523" pt_clust_6="151.97415"></scales>
<clustering>
<clus scale="   40.781">  2  3  1 -1</clus>
<clus scale="   51.875">  4  5 -1 -1</clus>
<clus scale="  151.974">  1  6  2 -1</clus>
<clus scale="   40.781">  2  3  1 -1</clus>
</clustering>
</event>
<event>
 6    0  0.4189111E+002  0.1280536E+03  0.7546771E-02  0.1230373E+00
         21   -1    0    0  503  502  0.00000000000E+00  0.00000000000E+00  0.88423819789E+03  0.88423819789E+03  0.00000000000E+00 0. -1.
          2   -1    0    0  505    0 -0.00000000000E+00 -0.00000000000E+00 -0.15125555470E+04  0.15125555470E+04  0.00000000000E+00 0. -1.
         21    1    1    2  503  501  0.46480317451E+02 -0.26473919437E+01 -0.13194423442E+02  0.48389269517E+02  0.00000000000E+00 0. -1.
         21    1    1    2  504  502  0.31386831834E+02  0.59720490745E+01  0.14464253456E+03  0.14812920504E+03  0.00000000000E+00 0. -1.
         21    1    1    2  505  504 -0.15785243787E+03  0.96447068428E+02  0.70554670101E+03  0.72939397890E+03  0.00000000000E+00 0. -1.
          2    1    1    2  501    0  0.79985288583E+02 -0.99771725559E+02 -0.14653121613E+04  0.14708812915E+04  0.00000000000E+00 0. -1.
<scales pt_clust_3="47.29526" pt_clust_4="31.94994" pt_clust_5="14000.00000" pt_clust_6="128.05361"></scales>
<clustering>
<clus scale="   31.950">  1  4  2 -1</clus>
<clus scale="   47.295">  1  3  2 -1</clus>
<clus scale="  128.054">  2  6  1 -1</clus>
<clus scale="   31.950">  1  3  2 -1</clus>
</clustering>
</event>
<event>
 6    0  0.4189111E+002  0.9185338E+02  0.7546771E-02  0.1298425E+00
          2   -1    0    0  503    0 -0.00000000000E+00  0.00000000000E+00  0.25601860446E+04  0.25601860446E+04  0.00000000000E+00 0. -1.
         21   -1    0    0  505  502  0.00000000000E+00 -0.00000000000E+00 -0.67299621573E+02  0.67299621573E+02  0.00000000000E+00 0.  1.
         21    1    1    2  503  504 -0.40518663629E+01  0.34584260113E+02  0.14196173233E+03  0.14616983996E+03  0.00000000000E+00 0. -1.
         21    1    1    2  504  502  0.82276371518E+02  0.66150604659E+02 -0.17041634545E+01  0.10558507461E+03  0.00000000000E+00 0.  1.
         21    1    1    2  505  501 -0.52083387208E+02 -0.40437108428E+02  0.87075922254E+02  0.10922479205E+03  0.00000000000E+00 0.  1.
          2    1    1    2  501    0 -0.26141117947E+02 -0.60297756345E+02  0.22655529319E+04  0.22665059596E+04  0.00000000000E+00 0. -1.
<scales pt_clust_3="34.82081" pt_clust_4="91.85338" pt_clust_5="14000.00000" pt_clust_6="40.89945"></scales>
<clustering>
<clus scale="   34.821">  1  3  2 -1</clus>
<clus scale="   40.899">  1  6  2 -1</clus>
<clus scale="   91.853">  2  4  1 -1</clus>
<clus scale="   91.853">  2  3  1 -1</clus>
</clustering>
</event>
<event>
 6    0  0.4189111E+002  0.3377843E+03  0.7546771E-02  0.1067744E+00
         21   -1    0    0  503  502  0.00000000000E+00  0.00000000000E+00  0.20983660693E+03  0.20983660693E+03  0.00000000000E+00 0.  1.
          1   -1    0    0  502    0 -0.00000000000E+00 -0.00000000000E+00 -0.89539606897E+03  0.89539606897E+03  0.00000000000E+00 0.  1.
         21    1    1    2  503  505  0.30228245844E+03  0.54391537807E+01 -0.16181564183E+03  0.34291189979E+03  0.00000000000E+00 0.  1.
         21    1    1    2  504  501  0.35472545045E+02  0.66325510407E+02 -0.12623459536E+03  0.14694402965E+03  0.00000000000E+00 0.  1.
         21    1    1    2  505  504 -0.38926112091E+03 -0.10934511950E+03 -0.32445680142E+03  0.51841372608E+03  0.00000000000E+00 0.  1.
          1    1    1    2  501    0  0.51506117424E+02  0.37580455309E+02 -0.73052423425E+02  0.96963020382E+02  0.00000000000E+00 0.  1.
<scales pt_clust_3="14000.00000" pt_clust_4="34.61614" pt_clust_5="337.78428" pt_clust_6="140.62480"></scales>
<clustering>
<clus scale="   34.616">  4  6 -1 -1</clus>
<clus scale="  140.625">  2  4  1 -1</clus>
<clus scale="  337.784">  2  5  1 -1</clus>
<clus scale="  337.784">  1  3  2 -1</clus>
</clustering>
</event>
<event>
 6    0  0.4189111E+002  0.1359547E+03  0.7546771E-02  0.1218878E+00
          2   -1    0    0  504    0 -0.00000000000E+00  0.00000000000E+00  0.31078317855E+03  0.31078317855E+03  0.00000000000E+00 0.  1.
         21   -1    0    0  501  502  0.00000000000E+00 -0.00000000000E+00 -0.10966480911E+04  0.10966480911E+04  0.00000000000E+00 0.  1.
         21    1    1    2  503  505 -0.80618280507E+02  0.73261484583E+02 -0.44620900248E+03  0.45931364684E+03  0.00000000000E+00 0.  1.
         21    1    1    2  504  503  0.87202179428E+02 -0.27631471874E+02  0.25089774765E+03  0.26705317468E+03  0.00000000000E+00 0.  1.
         21    1    1    2  505  502 -0.33980774505E+02  0.72155595192E+01 -0.61553158236E+03  0.61651105928E+03  0.00000000000E+00 0.  1.
          2    1    1    2  501    0  0.27396875584E+02 -0.52845572228E+02  0.24977924624E+02  0.64553388868E+02  0.00000000000E+00 0.  1.
<scales pt_clust_3="14000.00000" pt_clust_4="135.95471" pt_clust_5="34.73841" pt_clust_6="58.62793"></scales>
<clustering>
<clus scale="   34.738">  2  5  1 -1</clus>
<clus scale="   58.628">  1  6  2 -1</clus>
<clus scale="  135.955">  1  4  2 -1</clus>
<clus scale="   34.738">  2  3  1 -1</clus>
</clustering>
</event>
<event>
 6    0  0.4189111E+002  0.2463974E+03  0.7546771E-02  0.1115603E+00
         21   -1    0    0  503  502  0.00000000000E+00  0.00000000000E+00  0.26027246388E+03  0.26027246388E+03  0.00000000000E+00 0. -1.
          2   -1    0    0  504    0 -0.00000000000E+00 -0.00000000000E+00 -0.67188804111E+03  0.67188804111E+03  0.00000000000E+00 0. -1.
         21    1    1    2  503  505 -0.11173677975E+02  0.16731698211E+03  0.57738833928E+02  0.17735161833E+03  0.00000000000E+00 0. -1.
         21    1    1    2  504  502  0.94756608809E+02 -0.81103798610E+02 -0.26493660239E+03  0.29282767005E+03  0.00000000000E+00 0. -1.
         21    1    1    2  505  501  0.47728293019E+02  0.67023611855E+02  0.78995117105E+02  0.11406306601E+03  0.00000000000E+00 0. -1.
          2    1    1    2  501    0 -0.13131122385E+03 -0.15323679535E+03 -0.28341292588E+03  0.34791815060E+03  0.00000000000E+00 0. -1.
<scales pt_clust_3="69.95907" pt_clust_4="124.72626" pt_clust_5="69.95907" pt_clust_6="225.24895"></scales>
<clustering>
<clus scale="   69.959">  3  5 -1 -1</clus>
<clus scale="  124.726">  2  4  1 -1</clus>
<clus scale="  225.249">  2  6  1 -1</clus>
<clus scale="  246.397">  1  3  2 -1</clus>
</clustering>
</event>
<event>
 6    0  0.4189111E+002  0.1124648E+03  0.7546771E-02  0.1256072E+00
         21   -1    0    0  503  502  0.00000000000E+00  0.00000000000E+00  0.11791465854E+04  0.11791465854E+04  0.00000000000E+00 0. -1.
         -3   -1    0    0    0  501 -0.00000000000E+00 -0.00000000000E+00 -0.72300822022E+03  0.72300822022E+03  0.00000000000E+00 0. -1.
         21    1    1    2  503  501 -0.16216366879E+02  0.32854126327E+02 -0.11754516528E+03  0.12312282507E+03  0.00000000000E+00 0. -1.
         21    1    1    2  504  505  0.14672038850E+03 -0.53946395401E+02  0.55030933017E+03  0.57208167672E+03  0.00000000000E+00 0. -1.
         21    1    1    2  505  502 -0.44894168928E+02  0.64470847543E+01  0.61113062926E+03  0.61281130646E+03  0.00000000000E+00 0. -1.
         -3    1    1    2    0  504 -0.85609852691E+02  0.14645184320E+02 -0.58775642901E+03  0.59413899733E+03  0.00000000000E+00 0. -1.
<scales pt_clust_3="36.63829" pt_clust_4="14000.00000" pt_clust_5="45.38364" pt_clust_6="112.46483"></scales>
<clustering>
<clus scale="   36.638">  2  3  1 -1</clus>
<clus scale="   45.384">  1  5  2 -1</clus>
<clus scale="  112.465">  2  6  1 -1</clus>
<clus scale="   45.384">  1  3  2 -1</clus>
</clustering>
</event>
<event>
 6    0  0.4189111E+002  0.1435069E+03  0.7546771E-02  0.1208687E+00
          2   -1    0    0  505    0 -0.00000000000E+00  0.00000000000E+00  0.19576153286E+04  0.19576153286E+04  0.00000000000E+00 0. -1.
         21   -1    0    0  504  502  0.00000000000E+00 -0.00000000000E+00 -0.11975664256E+03  0.11975664256E+03  0.00000000000E+00 0. -1.
         21    1    1    2  503  501 -0.39512171360E+02  0.55137867702E+02 -0.46458327405E+01  0.67992498867E+02  0.00000000000E+00 0. -1.
         21    1    1    2  504  503 -0.52963228599E+02  0.38081446028E+02 -0.66726305284E+02  0.93315057370E+02  0.00000000000E+00 0. -1.
         21    1    1    2  505  502  0.57624634669E+02 -0.89590958761E+02  0.90903516169E+03  0.91525519043E+03  0.00000000000E+00 0. -1.
          2    1    1    2  501    0  0.34850765290E+02 -0.36283549691E+01  0.10001956624E+04  0.10008092245E+04  0.00000000000E+00 0. -1.
<scales pt_clust_3="59.66988" pt_clust_4="59.66988" pt_clust_5="130.03704" pt_clust_6="35.03913"></scales>
<clustering>
<clus scale="   35.039">  1  6  2 -1</clus>
<clus scale="   59.670">  3  4 -1 -1</clus>
<clus scale="  130.037">  1  5  2 -1</clus>
<clus scale="  143.507">  2  3  1 -1</clus>
</clustering>
</event>
<event>
 6    0  0.4189111E+002  0.1722464E+03  0.7546771E-02  0.1175525E+00
         21   -1    0    0  504  502  0.00000000000E+00  0.00000000000E+00  0.23266014350E+03  0.23266014350E+03  0.00000000000E+00 0.  1.
         -4   -1    0    0    0  501 -0.00000000000E+00 -0.00000000000E+00 -0.18350430359E+03  0.18350430359E+03  0.00000000000E+00 0.  1.
         21    1    1    2  503  502  0.41278227284E+02  0.18826744552E+02  0.58153812589E+02  0.73757740454E+02  0.00000000000E+00 0. -1.
         21    1    1    2  504  501 -0.12757937340E+03 -0.13797717551E+03 -0.18394680187E+02  0.18881885959E+03  0.00000000000E+00 0.  1.
         21    1    1    2  505  503  0.42757103857E+02  0.51766072063E+02 -0.16762279711E+02  0.69201663045E+02  0.00000000000E+00 0.  1.
         -4    1    1    2    0  505  0.43544042254E+02  0.67384358890E+02  0.26158987213E+02  0.84386184004E+02  0.00000000000E+00 0.  1.
<scales pt_clust_3="45.36891" pt_clust_4="166.77115" pt_clust_5="39.41316" pt_clust_6="39.41316"></scales>
<clustering>
<clus scale="   39.413">  5  6 -1 -1</clus>
<clus scale="   45.369">  1  3  2 -1</clus>
<clus scale="  166.771">  1  4  2 -1</clus>
<clus scale="   45.369">  1  3  2 -1</clus>
</clustering>
</event>
<event>
 6    0  0.4189111E+002  0.7846989E+02  0.7546771E-02  0.1333451E+00
         21   -1    0    0  505  502  0.00000000000E+00  0.00000000000E+00  0.37673777968E+03  0.37673777968E+03  0.00000000000E+00 0.  1.
         -2   -1    0    0    0  501 -0.00000000000E+00 -0.00000000000E+00 -0.24512932505E+03  0.24512932505E+03  0.00000000000E+00 0.  1.
         21    1    1    2  503  501  0.34369998944E+02  0.63426104907E+02 -0.11326526984E+03  0.13428770965E+03  0.00000000000E+00 0.  1.
         21    1    1    2  504  502  0.21847950829E+02  0.46467416740E+02  0.27658633869E+03  0.28131220472E+03  0.00000000000E+00 0.  1.
         21    1    1    2  505  503  0.12983317082E+02 -0.46941269974E+02  0.58626369988E+02  0.76217456053E+02  0.00000000000E+00 0.  1.
         -2    1    1    2    0  504 -0.69201266856E+02 -0.62952251672E+02 -0.90338984215E+02  0.13004973431E+03  0.00000000000E+00 0.  1.
<scales pt_clust_3="14000.00000" pt_clust_4="33.81040" pt_clust_5="48.70369" pt_clust_6="78.46989"></scales>
<clustering>
<clus scale="   48.704">  1  5  2 -1</clus>
<clus scale="   33.810">  1  4  2 -1</clus>
<clus scale="   78.470">  1  6  2 -1</clus>
<clus scale="   48.704">  1  3  2 -1</clus>
</clustering>
</event>
<event>
 6    0  0.4189111E+002  0.1122022E+03  0.7546771E-02  0.1256545E+00
         21   -1    0    0  504  502  0.00000000000E+00  0.00000000000E+00  0.18201549180E+03  0.18201549180E+03  0.00000000000E+00 0.  1.
          1   -1    0    0  503    0 -0.00000000000E+00 -0.00000000000E+00 -0.18951797022E+04  0.18951797022E+04  0.00000000000E+00 0. -1.
         21    1    1    2  503  505  0.37308454657E+02 -0.13155290609E+02 -0.75272288162E+03  0.75376171233E+03  0.00000000000E+00 0. -1.
         21    1    1    2  504  501  0.99510361194E+02  0.10215278673E+03 -0.34765136409E+02  0.14678596163E+03  0.00000000000E+00 0.  1.
         21    1    1    2  505  502 -0.18107816086E+02 -0.30331403827E+02  0.11873349535E+03  0.12387707608E+03  0.00000000000E+00 0.  1.
          1    1    1    2  501    0 -0.11871099976E+03 -0.58666092298E+02 -0.10444096877E+04  0.10527704440E+04  0.00000000000E+00 0. -1.
<scales pt_clust_3="39.50116" pt_clust_4="112.20217" pt_clust_5="35.32544" pt_clust_6="14000.00000"></scales>
<clustering>
<clus scale="   35.325">  1  5  2 -1</clus>
<clus scale="   39.501">  2  3  1 -1</clus>
<clus scale="  112.202">  1  4  2 -1</clus>
<clus scale="   35.325">  1  3  2 -1</clus>
</clustering>
</event>
<event>
 6    0  0.4189111E+002  0.7475455E+02  0.7546771E-02  0.1344633E+00
         21   -1    0    0  505  502  0.00000000000E+00  0.00000000000E+00  0.16520102714E+03  0.16520102714E+03  0.00000000000E+00 0. -1.
          2   -1    0    0  504    0 -0.00000000000E+00 -0.00000000000E+00 -0.43648209820E+04  0.43648209820E+04  0.00000000000E+00 0.  1.
         21    1    1    2  503  502 -0.67224209236E+01  0.72067184121E+02  0.12522545130E+03  0.14463845831E+03  0.00000000000E+00 0. -1.
         21    1    1    2  504  503 -0.34048094758E+02 -0.21056717155E+02 -0.18770221682E+04  0.18774490347E+04  0.00000000000E+00 0.  1.
         21    1    1    2  505  501  0.38472898450E+02 -0.90858096055E+02 -0.51538613876E+02  0.11131750201E+03  0.00000000000E+00 0.  1.
          2    1    1    2  501    0  0.22976172314E+01  0.39847629090E+02 -0.23962846241E+04  0.23966170141E+04  0.00000000000E+00 0.  1.
<scales pt_clust_3="74.75455" pt_clust_4="36.08359" pt_clust_5="14000.00000" pt_clust_6="39.91381"></scales>
<clustering>
<clus scale="   39.914">  2  6  1 -1</clus>
<clus scale="   36.084">  2  4  1 -1</clus>
<clus scale="   74.755">  1  3  2 -1</clus>
<clus scale="   74.755">  1  3  2 -1</clus>
</clustering>
</event>
<event>
 6    0  0.4189111E+002  0.1038188E+03  0.7546771E-02  0.1272464E+00
          1   -1    0    0  503    0 -0.00000000000E+00  0.00000000000E+00  0.15048020798E+04  0.15048020798E+04  0.00000000000E+00 0. -1.
         21   -1    0    0  504  502  0.00000000000E+00 -0.00000000000E+00 -0.13980238480E+03  0.13980238480E+03  0.00000000000E+00 0.  1.
         21    1    1    2  503  505 -0.49453239416E+02 -0.35324668873E+01  0.15261020874E+03  0.16046176188E+03  0.00000000000E+00 0. -1.
         21    1    1    2  504  501  0.63990795335E+02  0.12857040902E+03  0.48359248395E+03  0.50446690922E+03  0.00000000000E+00 0. -1.
         21    1    1    2  505  502  0.33020800703E+02 -0.74160846286E+02 -0.11071051948E+03  0.13728446206E+03  0.00000000000E+00 0.  1.
          1    1    1    2  501    0 -0.47558356622E+02 -0.50877095845E+02  0.83950752178E+03  0.84239133144E+03  0.00000000000E+00 0. -1.
<scales pt_clust_3="49.57924" pt_clust_4="103.81883" pt_clust_5="81.01494" pt_clust_6="14000.00000"></scales>
<clustering>
<clus scale="   49.579">  1  3  2 -1</clus>
<clus scale="   81.015">  2  5  1 -1</clus>
<clus scale="  103.819">  2  4  1 -1</clus>
<clus scale="   81.015">  2  3  1 -1</clus>
</clustering>
</event>
<event>
 6    0  0.4189111E+002  0.3179095E+03  0.7546771E-02  0.1076615E+00
          1   -1    0    0  503    0 -0.00000000000E+00  0.00000000000E+00  0.12442020770E+04  0.12442020770E+04  0.00000000000E+00 0.  1.
         21   -1    0    0  505  502  0.00000000000E+00 -0.00000000000E+00 -0.63742991123E+03  0.63742991123E+03  0.00000000000E+00 0.  1.
         21    1    1    2  503  504  0.22329624606E+03  0.23984577213E+03  0.33863377411E+03  0.47123247010E+03  0.00000000000E+00 0.  1.
         21    1    1    2  504  502 -0.48155120467E+02  0.42782628228E+01 -0.54130605956E+03  0.54346064189E+03  0.00000000000E+00 0.  1.
         21    1    1    2  505  501 -0.30292288246E+02 -0.53549470042E+02  0.92526273196E+02  0.11111381417E+03  0.00000000000E+00 0.  1.
          1    1    1    2  501    0 -0.14484883734E+03 -0.19057456491E+03  0.71691817801E+03  0.75582506206E+03  0.00000000000E+00 0.  1.
<scales pt_clust_3="308.14727" pt_clust_4="48.34479" pt_clust_5="39.63376" pt_clust_6="39.63376"></scales>
<clustering>
<clus scale="   39.634">  5  6 -1 -1</clus>
<clus scale="   48.345">  2  4  1 -1</clus>
<clus scale="  308.147">  2  3  1 -1</clus>
<clus scale="   48.345">  2  3  1 -1</clus>
</clustering>
</event>
<event>
 6    0  0.4189111E+002  0.7762996E+02  0.7546771E-02  0.1335915E+00
          2   -1    0    0  504    0 -0.00000000000E+00  0.00000000000E+00  0.79827864958E+03  0.79827864958E+03  0.00000000000E+00 0.  1.
         21   -1    0    0  503  502  0.00000000000E+00 -0.00000000000E+00 -0.56020935832E+02  0.56020935832E+02  0.00000000000E+00 0. -1.
         21    1    1    2  503  505  0.73246585213E+02  0.17362623393E+02  0.14590758041E+02  0.76677331440E+02  0.00000000000E+00 0. -1.
         21    1    1    2  504  502 -0.90192582231E+02  0.62488367533E+01  0.17528563187E+03  0.19722779365E+03  0.00000000000E+00 0.  1.
         21    1    1    2  505  501  0.76087266442E+02 -0.19832743338E+02  0.11680298706E+03  0.14080322301E+03  0.00000000000E+00 0. -1.
          2    1    1    2  501    0 -0.59141269424E+02 -0.37787168085E+01  0.43557833677E+03  0.43959123731E+03  0.00000000000E+00 0.  1.
<scales pt_clust_3="77.62996" pt_clust_4="14000.00000" pt_clust_5="58.90812" pt_clust_6="59.26186"></scales>
<clustering>
<clus scale="   59.262">  1  6  2 -1</clus>
<clus scale="   58.908">  1  5  2 -1</clus>
<clus scale="   77.630">  2  3  1 -1</clus>
<clus scale="   77.630">  2  3  1 -1</clus>
</clustering>
</event>
<event>
 6    0  0.4189111E+002  0.8842856E+02  0.7546771E-02  0.1306702E+00
          2   -1    0    0  505    0 -0.00000000000E+00  0.00000000000E+00  0.63445983805E+03  0.63445983805E+03  0.00000000000E+00 0.  1.
         21   -1    0    0  504  502  0.00000000000E+00 -0.00000000000E+00 -0.85892176617E+02  0.85892176617E+02  0.00000000000E+00 0. -1.
         21    1    1    2  503  501  0.33359307312E+02 -0.33654257229E+02  0.18058271859E+03  0.18669646667E+03  0.00000000000E+00 0. -1.
         21    1    1    2  504  503 -0.51358513040E+02  0.10318269311E+03  0.23662103639E+01  0.11528210603E+03  0.00000000000E+00 0. -1.
         21    1    1    2  505  502 -0.19717028175E+02 -0.72172229205E+02  0.29961193866E+02  0.80593206949E+02  0.00000000000E+00 0. -1.
          2    1    1    2  501    0  0.37716233903E+02  0.26437933284E+01  0.33565753861E+03  0.33778023502E+03  0.00000000000E+00 0.  1.
<scales pt_clust_3="65.05029" pt_clust_4="14000.00000" pt_clust_5="88.42856" pt_clust_6="37.80878"></scales>
<clustering>
<clus scale="   37.809">  1  6  2 -1</clus>
<clus scale="   65.050">  1  3  2 -1</clus>
<clus scale="   88.429">  2  5  1 -1</clus>
<clus scale="   88.429">  2  3  1 -1</clus>
</clustering>
</event>
<event>
 6    0  0.4189111E+002  0.7639205E+02  0.7546771E-02  0.1339614E+00
          1   -1    0    0  505    0 -0.00000000000E+00  0.00000000000E+00  0.68442021499E+03  0.68442021499E+03  0.00000000000E+00 0.  1.
         21   -1    0    0  504  502  0.00000000000E+00 -0.00000000000E+00 -0.93350477769E+02  0.93350477769E+02  0.00000000000E+00 0. -1.
         21    1    1    2  503  502 -0.71547315968E+02  0.54727354074E+02  0.81384363582E+02  0.12139817273E+03  0.00000000000E+00 0. -1.
         21    1    1    2  504  501  0.18508681773E+02  0.37458430742E+02 -0.56070415312E+02  0.69925652002E+02  0.00000000000E+00 0. -1.
         21    1    1    2  505  503 -0.90939738382E+00 -0.79349974163E+02  0.46234555699E+03  0.46910623474E+03  0.00000000000E+00 0.  1.
          1    1    1    2  501    0  0.53948031579E+02 -0.12835810654E+02  0.10341023196E+03  0.11734063329E+03  0.00000000000E+00 0.  1.
<scales pt_clust_3="76.39205" pt_clust_4="41.78164" pt_clust_5="14000.00000" pt_clust_6="58.34961"></scales>
<clustering>
<clus scale="   41.782">  2  4  1 -1</clus>
<clus scale="   58.350">  2  6  1 -1</clus>
<clus scale="   76.392">  2  3  1 -1</clus>
<clus scale="   41.782">  2  3  1 -1</clus>
</clustering>
</event>
<event>
 6    0  0.4189111E+002  0.1400279E+03  0.7546771E-02  0.1213291E+00
          1   -1    0    0  503    0 -0.00000000000E+00  0.00000000000E+00  0.87322020696E+03  0.87322020696E+03  0.00000000000E+00 0. -1.
         21   -1    0    0  501  502  0.00000000000E+00 -0.00000000000E+00 -0.14587578545E+04  0.14587578545E+04  0.00000000000E+00 0. -1.
         21    1    1    2  503  505  0.30219786885E+02 -0.34763058039E+02  0.47162794398E+03  0.47387194817E+03  0.00000000000E+00 0. -1.
         21    1    1    2  504  502 -0.35258629429E+02  0.28642961917E+02 -0.43846409552E+03  0.44081101765E+03  0.00000000000E+00 0. -1.
         21    1    1    2  505  504 -0.98582635353E+02 -0.71722604658E+02 -0.10036952641E+04  0.10110721295E+04  0.00000000000E+00 0. -1.
          1    1    1    2  501    0  0.10362147790E+03  0.77842700780E+02  0.38499376806E+03  0.40622296611E+03  0.00000000000E+00 0. -1.
<scales pt_clust_3="46.01271" pt_clust_4="45.42676" pt_clust_5="14000.00000" pt_clust_6="140.02785"></scales>
<clustering>
<clus scale="   45.427">  2  4  1 -1</clus>
<clus scale="   46.013">  1  3  2 -1</clus>
<clus scale="  140.028">  1  6  2 -1</clus>
<clus scale="   45.427">  2  3  1 -1</clus>
</clustering>
</event>
<event>
 6    0  0.4189111E+002  0.7750299E+02  0.7546771E-02  0.1336291E+00
          2   -1    0    0  502    0 -0.00000000000E+00  0.00000000000E+00  0.23982791121E+04  0.23982791121E+04  0.00000000000E+00 0.  1.
         21   -1    0    0  505  502  0.00000000000E+00 -0.00000000000E+00 -0.33420974323E+02  0.33420974323E+02  0.00000000000E+00 0. -1.
         21    1    1    2  503  504 -0.88226682819E+01 -0.63570779182E+02  0.13168856836E+02  0.65517190354E+02  0.00000000000E+00 0. -1.
         21    1    1    2  504  501  0.26423940207E+02  0.10816061072E+03  0.88569254200E+03  0.89266355436E+03  0.00000000000E+00 0.  1.
         21    1    1    2  505  503 -0.17080264047E+02  0.24993706347E+02  0.76364466800E+02  0.82145922397E+02  0.00000000000E+00 0.  1.
          2    1    1    2  501    0 -0.52100787880E+00 -0.69583537888E+02  0.13896322721E+04  0.13913734193E+04  0.00000000000E+00 0.  1.
<scales pt_clust_3="48.23585" pt_clust_4="14000.00000" pt_clust_5="30.27244" pt_clust_6="77.50299"></scales>
<clustering>
<clus scale="   30.272">  2  5  1 -1</clus>
<clus scale="   48.236">  2  3  1 -1</clus>
<clus scale="   77.503">  1  6  2 -1</clus>
<clus scale="   30.272">  2  3  1 -1</clus>
</clustering>
</event>
<event>
 6    0  0.4189111E+002  0.9015792E+02  0.7546771E-02  0.1302470E+00
         21   -1    0    0  504  502  0.00000000000E+00  0.00000000000E+00  0.48968883400E+03  0.48968883400E+03  0.00000000000E+00 0. -1.
          2   -1    0    0  503    0 -0.00000000000E+00 -0.00000000000E+00 -0.11937643716E+04  0.11937643716E+04  0.00000000000E+00 0.  1.
         21    1    1    2  503  502 -0.71939150160E+02 -0.19079012352E+02 -0.10580451415E+03  0.12935936477E+03  0.00000000000E+00 0. -1.
         21    1    1    2  504  505  0.30586115497E+02 -0.71296067062E+01  0.21003617398E+03  0.21237122247E+03  0.00000000000E+00 0. -1.
         21    1    1    2  505  501 -0.14393386241E+02 -0.51649243299E+02  0.26185339610E+03  0.26728639125E+03  0.00000000000E+00 0. -1.
          2    1    1    2  501    0  0.55746420904E+02  0.77857862356E+02 -0.10701605935E+04  0.10744362271E+04  0.00000000000E+00 0.  1.
<scales pt_clust_3="90.15792" pt_clust_4="31.40608" pt_clust_5="60.23492" pt_clust_6="14000.00000"></scales>
<clustering>
<clus scale="   31.406">  1  4  2 -1</clus>
<clus scale="   60.235">  1  5  2 -1</clus>
<clus scale="   90.158">  1  3  2 -1</clus>
<clus scale="   31.406">  1  3  2 -1</clus>
</clustering>
</event>
<event>
 6    0  0.4189111E+002  0.1261801E+03  0.7546771E-02  0.1233236E+00
         -2   -1    0    0    0  501 -0.00000000000E+00  0.00000000000E+00  0.51834577484E+03  0.51834577484E+03  0.00000000000E+00 0. -1.
         21   -1    0    0  505  502  0.00000000000E+00 -0.00000000000E+00 -0.22962426025E+03  0.22962426025E+03  0.00000000000E+00 0. -1.
         21    1    1    2  503  501 -0.31193116420E+02 -0.13034201947E+02  0.32823740544E+02  0.47120047492E+02  0.00000000000E+00 0.  1.
         21    1    1    2  504  502 -0.29546878584E+02  0.30248668352E+02 -0.30529483848E+02  0.52154092411E+02  0.00000000000E+00 0. -1.
         21    1    1    2  505  503  0.48169485743E+02  0.97790945033E+02 -0.15660350850E+03  0.19080887600E+03  0.00000000000E+00 0. -1.
         -2    1    1    2    0  504  0.12570509261E+02 -0.11500541144E+03  0.44303076639E+03  0.45788701918E+03  0.00000000000E+00 0. -1.
<scales pt_clust_3="33.80682" pt_clust_4="42.57258" pt_clust_5="14000.00000" pt_clust_6="126.18013"></scales>
<clustering>
<clus scale="   33.807">  1  3  2 -1</clus>
<clus scale="   42.573">  2  4  1 -1</clus>
<clus scale="  126.180">  1  6  2 -1</clus>
<clus scale="   42.573">  2  3  1 -1</clus>
</clustering>
</event>
<event>
 6    0  0.4189111E+002  0.1026755E+03  0.7546771E-02  0.1274768E+00
         21   -1    0    0  505  502  0.00000000000E+00  0.00000000000E+00  0.43125435076E+03  0.43125435076E+03  0.00000000000E+00 0.  1.
         -1   -1    0    0    0  501 -0.00000000000E+00 -0.00000000000E+00 -0.14795726110E+04  0.14795726110E+04  0.00000000000E+00 0.  1.
         21    1    1    2  503  502  0.59272485583E+02  0.13084198930E+02  0.27139485884E+02  0.66490416624E+02  0.00000000000E+00 0.  1.
         21    1    1    2  504  501  0.82775168776E+02  0.20632429187E+01 -0.83634163046E+02  0.11768882175E+03  0.00000000000E+00 0.  1.
         21    1    1    2  505  504 -0.78637326548E+02  0.88110149308E+02  0.35513138624E+03  0.37425329528E+03  0.00000000000E+00 0.  1.
         -1    1    1    2    0  503 -0.63410327810E+02 -0.10325759116E+03 -0.13469549693E+04  0.13523944281E+04  0.00000000000E+00 0.  1.
<scales pt_clust_3="60.69945" pt_clust_4="85.44131" pt_clust_5="102.67553" pt_clust_6="14000.00000"></scales>
<clustering>
<clus scale="   60.699">  1  3  2 -1</clus>
<clus scale="   85.441">  2  4  1 -1</clus>
<clus scale="  102.676">  1  5  2 -1</clus>
<clus scale="   60.699">  1  3  2 -1</clus>
</clustering>
</event>
<event>
 6    0  0.4189111E+002  0.1318519E+03  0.7546771E-02  0.1224733E+00
          2   -1    0    0  503    0 -0.00000000000E+00  0.00000000000E+00  0.10726013948E+04  0.10726013948E+04  0.00000000000E+00 0.  1.
         21   -1    0    0  504  502  0.00000000000E+00 -0.00000000000E+00 -0.12477830049E+04  0.12477830049E+04  0.00000000000E+00 0. -1.
         21    1    1    2  503  505 -0.25120806224E+02  0.12719459477E+03  0.11746303747E+03  0.17494880684E+03  0.00000000000E+00 0. -1.
         21    1    1    2  504  501 -0.41586883918E+02 -0.51272241718E+02 -0.13433534060E+03  0.14968064477E+03  0.00000000000E+00 0.  1.
         21    1    1    2  505  502  0.14733903660E+03  0.37008811943E+02 -0.10663783752E+04  0.10771449684E+04  0.00000000000E+00 0. -1.
          2    1    1    2  501    0 -0.80631346458E+02 -0.11293116499E+03  0.90806906824E+03  0.91860997967E+03  0.00000000000E+00 0.  1.
<scales pt_clust_3="14000.00000" pt_clust_4="66.01751" pt_clust_5="107.78058" pt_clust_6="131.85187"></scales>
<clustering>
<clus scale="   66.018">  2  4  1 -1</clus>
<clus scale="  107.781">  2  5  1 -1</clus>
<clus scale="  131.852">  1  6  2 -1</clus>
<clus scale="   66.018">  2  3  1 -1</clus>
</clustering>
</event>
<event>
 6    0  0.4189111E+002  0.1127657E+03  0.7546771E-02  0.1255532E+00
          1   -1    0    0  503    0 -0.00000000000E+00  0.00000000000E+00  0.21138560879E+04  0.21138560879E+04  0.00000000000E+00 0. -1.
         21   -1    0    0  505  502  0.00000000000E+00 -0.00000000000E+00 -0.26172083948E+03  0.26172083948E+03  0.00000000000E+00 0. -1.
         21    1    1    2  503  504 -0.19345392503E+02 -0.53282351074E+02  0.28582913775E+03  0.29139586327E+03  0.00000000000E+00 0. -1.
         21    1    1    2  504  502  0.10271460502E+03 -0.16296468346E+02 -0.15556146541E+03  0.18712358079E+03  0.00000000000E+00 0. -1.
         21    1    1    2  505  501 -0.41383584857E+02  0.11548635130E+03 -0.43824297047E+02  0.13026997906E+03  0.00000000000E+00 0. -1.
          1    1    1    2  501    0 -0.41985627663E+02 -0.45907531881E+02  0.17656918731E+04  0.17667875042E+04  0.00000000000E+00 0. -1.
<scales pt_clust_3="56.68556" pt_clust_4="103.90746" pt_clust_5="112.76571" pt_clust_6="14000.00000"></scales>
<clustering>
<clus scale="   56.686">  1  3  2 -1</clus>
<clus scale="  103.907">  2  4  1 -1</clus>
<clus scale="  112.766">  2  5  1 -1</clus>
<clus scale="  103.907">  2  3  1 -1</clus>
</clustering>
</event>
<event>
 6    0  0.4189111E+002  0.1153001E+03  0.7546771E-02  0.1251058E+00
         -3   -1    0    0    0  501 -0.00000000000E+00  0.00000000000E+00  0.61676179452E+02  0.61676179452E+02  0.00000000000E+00 0.  1.
         21   -1    0    0  505  502  0.00000000000E+00 -0.00000000000E+00 -0.15530006826E+04  0.15530006826E+04  0.00000000000E+00 0.  1.
         21    1    1    2  503  502  0.53905924433E+02 -0.26313350044E+02 -0.11082534398E+04  0.11098756363E+04  0.00000000000E+00 0.  1.
         21    1    1    2  504  503  0.62503828222E+02  0.99135218097E+00 -0.23024685861E+03  0.23858190883E+03  0.00000000000E+00 0.  1.
         21    1    1    2  505  501  0.17729385134E+02  0.59370459335E+02 -0.10090022295E+03  0.11840623940E+03  0.00000000000E+00 0.  1.
         -3    1    1    2    0  504 -0.13413913779E+03 -0.34048461472E+02 -0.51923981773E+02  0.14781307756E+03  0.00000000000E+00 0.  1.
<scales pt_clust_3="59.98534" pt_clust_4="14000.00000" pt_clust_5="61.31142" pt_clust_6="115.30010"></scales>
<clustering>
<clus scale="   59.985">  2  3  1 -1</clus>
<clus scale="   61.311">  2  5  1 -1</clus>
<clus scale="  115.300">  1  6  2 -1</clus>
<clus scale="   59.985">  2  3  1 -1</clus>
</clustering>
</event>
<event>
 6    0  0.4189111E+002  0.9365248E+02  0.7546771E-02  0.1294240E+00
          1   -1    0    0  504    0 -0.00000000000E+00  0.00000000000E+00  0.60677132029E+03  0.60677132029E+03  0.00000000000E+00 0.  1.
         21   -1    0    0  503  502  0.00000000000E+00 -0.00000000000E+00 -0.47780303895E+03  0.47780303895E+03  0.00000000000E+00 0.  1.
         21    1    1    2  503  501 -0.66577075523E+02 -0.83093419314E+02 -0.39325430869E+03  0.40741376342E+03  0.00000000000E+00 0.  1.
         21    1    1    2  504  505  0.96002547916E+02  0.85747919264E+01  0.50076730319E+03  0.50995873187E+03  0.00000000000E+00 0.  1.
         21    1    1    2  505  502  0.50603047880E+02  0.46192194454E+02 -0.21830835899E+02  0.71909475588E+02  0.00000000000E+00 0.  1.
          1    1    1    2  501    0 -0.80028520273E+02  0.28326432934E+02  0.43286122734E+02  0.95292388370E+02  0.00000000000E+00 0.  1.
<scales pt_clust_3="44.69226" pt_clust_4="93.65248" pt_clust_5="68.51560" pt_clust_6="14000.00000"></scales>
<clustering>
<clus scale="   68.516">  2  5  1 -1</clus>
<clus scale="   44.692">  2  3  1 -1</clus>
<clus scale="   93.652">  1  4  2 -1</clus>
<clus scale="   68.516">  2  3  1 -1</clus>
</clustering>
</event>
<event>
 6    0  0.4189111E+002  0.3108354E+03  0.7546771E-02  0.1079946E+00
          1   -1    0    0  503    0 -0.00000000000E+00  0.00000000000E+00  0.15456322431E+04  0.15456322431E+04  0.00000000000E+00 0.  1.
         21   -1    0    0  504  502  0.00000000000E+00 -0.00000000000E+00 -0.12539784847E+03  0.12539784847E+03  0.00000000000E+00 0. -1.
         21    1    1    2  503  502  0.35593887750E+02  0.16504751312E+02 -0.31586792014E+02  0.50369207764E+02  0.00000000000E+00 0. -1.
         21    1    1    2  504  505  0.28894584818E+02  0.28959073568E+03  0.26923968240E+03  0.39646903763E+03  0.00000000000E+00 0. -1.
         21    1    1    2  505  501 -0.56134877655E+02 -0.15187640146E+03  0.59017706023E+03  0.61198572552E+03  0.00000000000E+00 0.  1.
          1    1    1    2  501    0 -0.83535949141E+01 -0.15421908553E+03  0.59240444402E+03  0.61220612067E+03  0.00000000000E+00 0.  1.
<scales pt_clust_3="39.23432" pt_clust_4="307.12404" pt_clust_5="46.97027" pt_clust_6="46.97027"></scales>
<clustering>
<clus scale="   39.234">  2  3  1 -1</clus>
<clus scale="   46.970">  5  6 -1 -1</clus>
<clus scale="  307.124">  2  4  1 -1</clus>
<clus scale="   39.234">  2  3  1 -1</clus>
</clustering>
</event>
<event>
 6    0  0.4189111E+002  0.1108851E+03  0.7546771E-02  0.1258940E+00
         21   -1    0    0  505  502  0.00000000000E+00  0.00000000000E+00  0.50332859921E+03  0.50332859921E+03  0.00000000000E+00 0. -1.
         -2   -1    0    0    0  501 -0.00000000000E+00 -0.00000000000E+00 -0.33729754123E+03  0.33729754123E+03  0.00000000000E+00 0. -1.
         21    1    1    2  503  501  0.24174600831E+01  0.37903228052E+02 -0.15235354818E+02  0.40922058190E+02  0.00000000000E+00 0. -1.
         21    1    1    2  504  503 -0.47851862664E+02 -0.12231654999E+03  0.32977297665E+02  0.13542023971E+03  0.00000000000E+00 0. -1.
         21    1    1    2  505  504  0.87167746323E+02  0.67474591652E+02  0.39674746181E+03  0.41177613454E+03  0.00000000000E+00 0. -1.
         -2    1    1    2    0  502 -0.41733343742E+02  0.16938730283E+02 -0.24845834668E+03  0.25250770800E+03  0.00000000000E+00 0. -1.
<scales pt_clust_3="37.98024" pt_clust_4="110.88511" pt_clust_5="14000.00000" pt_clust_6="62.06322"></scales>
<clustering>
<clus scale="   37.980">  2  3  1 -1</clus>
<clus scale="   62.063">  2  6  1 -1</clus>
<clus scale="  110.885">  2  4  1 -1</clus>
<clus scale="  110.885">  1  3  2 -1</clus>
</clustering>
</event>
<event>
 6    0  0.4189111E+002  0.9594918E+02  0.7546771E-02  0.1289052E+00
          2   -1    0    0  503    0 -0.00000000000E+00  0.00000000000E+00  0.23421713199E+04  0.23421713199E+04  0.00000000000E+00 0. -1.
         21   -1    0    0  504  502  0.00000000000E+00 -0.00000000000E+00 -0.10824844436E+03  0.10824844436E+03  0.00000000000E+00 0. -1.
         21    1    1    2  503  505 -0.49097709856E+02  0.44277443175E+01  0.47624761843E+03  0.47879221391E+03  0.00000000000E+00 0. -1.
         21    1    1    2  504  501  0.24842042913E+02 -0.48382914589E+02 -0.86356049169E+02  0.10205587072E+03  0.00000000000E+00 0. -1.
         21    1    1    2  505  502  0.80578130101E+02  0.40092496472E+02  0.15234892926E+03  0.17694756164E+03  0.00000000000E+00 0. -1.
          2    1    1    2  501    0 -0.56322463159E+02  0.38626737987E+01  0.16916823770E+04  0.16926241180E+04  0.00000000000E+00 0. -1.
<scales pt_clust_3="49.29696" pt_clust_4="54.27710" pt_clust_5="14000.00000" pt_clust_6="95.94918"></scales>
<clustering>
<clus scale="   49.297">  1  3  2 -1</clus>
<clus scale="   54.277">  2  4  1 -1</clus>
<clus scale="   95.949">  1  6  2 -1</clus>
<clus scale="   54.277">  2  3  1 -1</clus>
</clustering>
</event>
<event>
 6    0  0.5958070E+002  0.1365734E+03  0.7546771E-02  0.1218015E+00
          1   -1    0    0  505    0 -0.00000000000E+00  0.00000000000E+00  0.21305425697E+04  0.21305425697E+04  0.00000000000E+00 0.  1.
         21   -1    0    0  501  502  0.00000000000E+00 -0.00000000000E+00 -0.62878293469E+03  0.62878293469E+03  0.00000000000E+00 0. -1.
         21    1    1    2  503  504 -0.16558248851E+02 -0.78494063750E+02 -0.56397523205E+01  0.80419527823E+02  0.00000000000E+00 0.  1.
         21    1    1    2  504  502 -0.68042207174E+02 -0.39549345875E+02 -0.57927076115E+03  0.58459259954E+03  0.00000000000E+00 0. -1.
         21    1    1    2  505  503  0.14824100958E+02  0.40689576329E+02  0.19383498310E+03  0.19861368599E+03  0.00000000000E+00 0.  1.
          1    1    1    2  501    0  0.69776355067E+02  0.77353833296E+02  0.18928351653E+04  0.18956996910E+04  0.00000000000E+00 0.  1.
<scales pt_clust_3="136.57342" pt_clust_4="78.65554" pt_clust_5="43.30584" pt_clust_6="14000.00000"></scales>
<clustering>
<clus scale="   43.306">  1  5  2 -1</clus>
<clus scale="   78.656">  2  4  1 -1</clus>
<clus scale="  136.573">  2  3  1 -1</clus>
<clus scale="   78.656">  2  3  1 -1</clus>
</clustering>
</event>
<event>
 6    0  0.4189111E+002  0.6053689E+02  0.7546771E-02  0.1395592E+00
          1   -1    0    0  503    0 -0.00000000000E+00  0.00000000000E+00  0.74115895634E+03  0.74115895634E+03  0.00000000000E+00 0. -1.
         21   -1    0    0  501  502  0.00000000000E+00 -0.00000000000E+00 -0.73853245057E+02  0.73853245057E+02  0.00000000000E+00 0.  1.
         21    1    1    2  503  504  0.34837038971E+02 -0.13673360766E+02  0.90333957303E+02  0.97779363472E+02  0.00000000000E+00 0.  1.
         21    1    1    2  504  505  0.83039961356E+02 -0.31620646263E+01  0.55967492408E+02  0.10018979010E+03  0.00000000000E+00 0.  1.
         21    1    1    2  505  502 -0.41059045498E+02  0.38973837110E+02 -0.27364301451E+02  0.62877740021E+02  0.00000000000E+00 0.  1.
          1    1    1    2  501    0 -0.76817954829E+02 -0.22138411718E+02  0.54836856302E+03  0.55416530780E+03  0.00000000000E+00 0. -1.
<scales pt_clust_3="37.42432" pt_clust_4="14000.00000" pt_clust_5="55.66070" pt_clust_6="60.53689"></scales>
<clustering>
<clus scale="   37.424">  1  3  2 -1</clus>
<clus scale="   55.661">  2  5  1 -1</clus>
<clus scale="   60.537">  1  6  2 -1</clus>
<clus scale="   55.661">  2  3  1 -1</clus>
</clustering>
</event>
<event>
 6    0  0.4189111E+002  0.1272987E+03  0.7546771E-02  0.1231520E+00
         21   -1    0    0  503  502  0.00000000000E+00  0.00000000000E+00  0.16400604305E+03  0.16400604305E+03  0.00000000000E+00 0.  1.
         -1   -1    0    0    0  501 -0.00000000000E+00 -0.00000000000E+00 -0.73498524008E+03  0.73498524008E+03  0.00000000000E+00 0. -1.
         21    1    1    2  503  501 -0.45813704360E+02 -0.33484058622E+02 -0.19924375102E+03  0.20716696168E+03  0.00000000000E+00 0.  1.
         21    1    1    2  504  502  0.54485740019E+01  0.99262354878E+02  0.89509798203E+02  0.13377109564E+03  0.00000000000E+00 0.  1.
         21    1    1    2  505  504 -0.11613385238E+03 -0.31693405016E+02 -0.80025249669E+02  0.14455304969E+03  0.00000000000E+00 0.  1.
         -1    1    1    2    0  505  0.15649898274E+03 -0.34084891239E+02 -0.38121999455E+03  0.41350017612E+03  0.00000000000E+00 0. -1.
<scales pt_clust_3="56.74573" pt_clust_4="97.93295" pt_clust_5="127.29868" pt_clust_6="14000.00000"></scales>
<clustering>
<clus scale="   56.746">  2  3  1 -1</clus>
<clus scale="   97.933">  1  4  2 -1</clus>
<clus scale="  127.299">  1  5  2 -1</clus>
<clus scale="   97.933">  1  3  2 -1</clus>
</clustering>
</event>
<event>
 6    0  0.4189111E+002  0.9264782E+02  0.7546771E-02  0.1296563E+00
          2   -1    0    0  503    0 -0.00000000000E+00  0.00000000000E+00  0.13631228015E+04  0.13631228015E+04  0.00000000000E+00 0.  1.
         21   -1    0    0  501  502  0.00000000000E+00 -0.00000000000E+00 -0.14191915727E+03  0.14191915727E+03  0.00000000000E+00 0.  1.
         21    1    1    2  503  504  0.63019311814E+02 -0.14415117970E+02  0.49334977139E+03  0.49756730823E+03  0.00000000000E+00 0.  1.
         21    1    1    2  504  505 -0.10198485291E+03  0.72653304858E+02  0.35013731886E+02  0.13002066893E+03  0.00000000000E+00 0.  1.
         21    1    1    2  505  502  0.30452256042E+02 -0.10790441905E+02 -0.88714473862E+02  0.94414148342E+02  0.00000000000E+00 0.  1.
          2    1    1    2  501    0  0.85132850512E+01 -0.47447744982E+02  0.78155461480E+03  0.78303983324E+03  0.00000000000E+00 0.  1.
<scales pt_clust_3="92.64782" pt_clust_4="14000.00000" pt_clust_5="32.30748" pt_clust_6="48.44315"></scales>
<clustering>
<clus scale="   32.307">  2  5  1 -1</clus>
<clus scale="   48.443">  1  6  2 -1</clus>
<clus scale="   92.648">  1  3  2 -1</clus>
<clus scale="   32.307">  2  3  1 -1</clus>
</clustering>
</event>
<event>
 6    0  0.4189111E+002  0.2513919E+03  0.7546771E-02  0.1112428E+00
         21   -1    0    0  503  502  0.00000000000E+00  0.00000000000E+00  0.18364703102E+03  0.18364703102E+03  0.00000000000E+00 0. -1.
         -3   -1    0    0    0  501 -0.00000000000E+00 -0.00000000000E+00 -0.14827857613E+04  0.14827857613E+04  0.00000000000E+00 0. -1.
         21    1    1    2  503  501  0.16433917297E+03  0.21470904910E+03 -0.55848474824E+03  0.62049379816E+03  0.00000000000E+00 0. -1.
         21    1    1    2  504  505 -0.24836744709E+02 -0.10093430744E+03 -0.41891576408E+03  0.43161906318E+03  0.00000000000E+00 0. -1.
         21    1    1    2  505  502 -0.33847622635E+02 -0.35704167445E+02  0.13256722831E+03  0.14140197719E+03  0.00000000000E+00 0. -1.
         -3    1    1    2    0  504 -0.10565480562E+03 -0.78070574210E+02 -0.45430544630E+03  0.47291795383E+03  0.00000000000E+00 0. -1.
<scales pt_clust_3="237.90074" pt_clust_4="71.69162" pt_clust_5="49.19806" pt_clust_6="71.69162"></scales>
<clustering>
<clus scale="   49.198">  1  5  2 -1</clus>
<clus scale="   71.692">  4  6 -1 -1</clus>
<clus scale="  237.901">  1  3  2 -1</clus>
<clus scale="   49.198">  1  3  2 -1</clus>
</clustering>
</event>
<event>
 6    0  0.4189111E+002  0.1339173E+03  0.7546771E-02  0.1221756E+00
          4   -1    0    0  505    0 -0.00000000000E+00  0.00000000000E+00  0.12277651493E+03  0.12277651493E+03  0.00000000000E+00 0. -1.
         21   -1    0    0  501  502  0.00000000000E+00 -0.00000000000E+00 -0.12134454798E+04  0.12134454798E+04  0.00000000000E+00 0.  1.
         21    1    1    2  503  502 -0.15769249294E+01  0.81731302092E+02 -0.36967039268E+03  0.37860096627E+03  0.00000000000E+00 0.  1.
         21    1    1    2  504  503 -0.85362483589E+02  0.27709150146E+02 -0.78273226195E+03  0.78786061236E+03  0.00000000000E+00 0.  1.
         21    1    1    2  505  504 -0.84757039541E+01 -0.29403859199E+02 -0.35382030725E+00  0.30603099224E+02  0.00000000000E+00 0. -1.
          4    1    1    2  501    0  0.95415112473E+02 -0.80036593039E+02  0.62087510128E+02  0.13915731683E+03  0.00000000000E+00 0. -1.
<scales pt_clust_3="80.53475" pt_clust_4="133.91735" pt_clust_5="30.60105" pt_clust_6="14000.00000"></scales>
<clustering>
<clus scale="   30.601">  1  5  2 -1</clus>
<clus scale="   80.535">  2  3  1 -1</clus>
<clus scale="  133.917">  2  4  1 -1</clus>
<clus scale="   80.535">  2  3  1 -1</clus>
</clustering>
</event>
<event>
 6    0  0.8191580E+002  0.1011166E+03  0.7546771E-02  0.1277965E+00
          2   -1    0    0  503    0 -0.00000000000E+00  0.00000000000E+00  0.10299186146E+04  0.10299186146E+04  0.00000000000E+00 0. -1.
         21   -1    0    0  505  502  0.00000000000E+00 -0.00000000000E+00 -0.28513193041E+03  0.28513193041E+03  0.00000000000E+00 0. -1.
         21    1    1    2  503  502  0.31753623222E+02  0.56332509094E+01  0.75812856509E+02  0.82386985111E+02  0.00000000000E+00 0. -1.
         21    1    1    2  504  501  0.39175385710E+02  0.63062104309E+02  0.48188553541E+02  0.88508059168E+02  0.00000000000E+00 0. -1.
         21    1    1    2  505  504 -0.37625503053E+02 -0.98559473656E+02 -0.25045527504E+03  0.27176735110E+03  0.00000000000E+00 0. -1.
          2    1    1    2  501    0 -0.33303505879E+02  0.29864118438E+02  0.87124054922E+03  0.87238814967E+03  0.00000000000E+00 0. -1.
<scales pt_clust_3="32.24944" pt_clust_4="101.11661" pt_clust_5="14000.00000" pt_clust_6="35.27880"></scales>
<clustering>
<clus scale="   32.249">  1  3  2 -1</clus>
<clus scale="   35.279">  1  6  2 -1</clus>
<clus scale="  101.117">  1  4  2 -1</clus>
<clus scale="  101.117">  2  3  1 -1</clus>
</clustering>
</event>
<event>
 6    0  0.4189111E+002  0.1309188E+03  0.7546771E-02  0.1226099E+00
         21   -1    0    0  504  502  0.00000000000E+00  0.00000000000E+00  0.24106073434E+02  0.24106073434E+02  0.00000000000E+00 0. -1.
          2   -1    0    0  503    0 -0.00000000000E+00 -0.00000000000E+00 -0.38054152210E+04  0.38054152210E+04  0.00000000000E+00 0. -1.
         21    1    1    2  503  505 -0.97370906784E+02  0.68227823130E+01 -0.19584931467E+03  0.21882549646E+03  0.00000000000E+00 0. -1.
         21    1    1    2  504  501  0.53552108344E+02  0.15444331630E+02 -0.10966231100E+04  0.10980385244E+04  0.00000000000E+00 0. -1.
         21    1    1    2  505  502 -0.21742200287E+02 -0.60211646272E+02 -0.79231345483E+02  0.10186153213E+03  0.00000000000E+00 0. -1.
          2    1    1    2  501    0  0.65560998726E+02  0.37944532329E+02 -0.24096053774E+04  0.24107957414E+04  0.00000000000E+00 0. -1.
<scales pt_clust_3="126.08865" pt_clust_4="30.22228" pt_clust_5="64.01692" pt_clust_6="30.22228"></scales>
<clustering>
<clus scale="   30.222">  4  6 -1 -1</clus>
<clus scale="   64.017">  1  5  2 -1</clus>
<clus scale="  126.089">  1  3  2 -1</clus>
<clus scale="   64.017">  1  3  2 -1</clus>
</clustering>
</event>
<event>
 6    0  0.4189111E+002  0.8125177E+02  0.7546771E-02  0.1325536E+00
          1   -1    0    0  503    0 -0.00000000000E+00  0.00000000000E+00  0.29290092659E+04  0.29290092659E+04  0.00000000000E+00 0. -1.
         21   -1    0    0  504  502  0.00000000000E+00 -0.00000000000E+00 -0.10232788934E+02  0.10232788934E+02  0.00000000000E+00 0.  1.
         21    1    1    2  503  502 -0.33229066053E+02  0.30234497623E+02  0.43051102892E+03  0.43284875152E+03  0.00000000000E+00 0.  1.
         21    1    1    2  504  505  0.49929028632E+02 -0.81119565624E+02  0.38592732869E+03  0.39750873557E+03  0.00000000000E+00 0.  1.
         21    1    1    2  505  501  0.53112602589E+02  0.72736459431E+02  0.96386736483E+03  0.96806602981E+03  0.00000000000E+00 0. -1.
          1    1    1    2  501    0 -0.69812565168E+02 -0.21851391430E+02  0.11384707545E+04  0.11408185379E+04  0.00000000000E+00 0. -1.
<scales pt_clust_3="44.92545" pt_clust_4="14000.00000" pt_clust_5="81.25177" pt_clust_6="85.35732"></scales>
<clustering>
<clus scale="   44.925">  1  3  2 -1</clus>
<clus scale="   85.357">  1  6  2 -1</clus>
<clus scale="   81.252">  1  5  2 -1</clus>
<clus scale="   81.252">  2  3  1 -1</clus>
</clustering>
</event>
<event>
 6    0  0.4189111E+002  0.9532678E+02  0.7546771E-02  0.1290442E+00
         -1   -1    0    0    0  501 -0.00000000000E+00  0.00000000000E+00  0.20484273495E+03  0.20484273495E+03  0.00000000000E+00 0.  1.
         21   -1    0    0  504  502  0.00000000000E+00 -0.00000000000E+00 -0.23641660493E+03  0.23641660493E+03  0.00000000000E+00 0.  1.
         21    1    1    2  503  501 -0.22846680320E+02 -0.93999258349E+02  0.11479793958E+03  0.15012127865E+03  0.00000000000E+00 0.  1.
         21    1    1    2  504  505  0.10417878781E+03  0.13077831473E+02 -0.69161329307E+02  0.12572803577E+03  0.00000000000E+00 0.  1.
         21    1    1    2  505  503 -0.55000028641E+02  0.98390227239E+02 -0.70968659374E+02  0.13319981449E+03  0.00000000000E+00 0.  1.
         -1    1    1    2    0  502 -0.26332078851E+02 -0.17468800363E+02 -0.62418208793E+01  0.32210210969E+02  0.00000000000E+00 0.  1.
<scales pt_clust_3="95.32678" pt_clust_4="92.51318" pt_clust_5="14000.00000" pt_clust_6="31.59964"></scales>
<clustering>
<clus scale="   31.600">  2  6  1 -1</clus>
<clus scale="   92.513">  2  4  1 -1</clus>
<clus scale="   95.327">  1  3  2 -1</clus>
<clus scale="   31.600">  2  3  1 -1</clus>
</clustering>
</event>
<event>
 6    0  0.4189111E+002  0.2622596E+03  0.7546771E-02  0.1105793E+00
         21   -1    0    0  503  502  0.00000000000E+00  0.00000000000E+00  0.92843753139E+03  0.92843753139E+03  0.00000000000E+00 0. -1.
          2   -1    0    0  504    0 -0.00000000000E+00 -0.00000000000E+00 -0.25651738134E+03  0.25651738134E+03  0.00000000000E+00 0. -1.
         21    1    1    2  503  505 -0.19778021752E+02 -0.15551818043E+03  0.30613808944E+03  0.34394418791E+03  0.00000000000E+00 0. -1.
         21    1    1    2  504  502 -0.15902690366E+03 -0.37390144623E+02  0.50380481142E+03  0.52962898996E+03  0.00000000000E+00 0. -1.
         21    1    1    2  505  501  0.43859509782E+01  0.59146995164E+02 -0.30205257770E+02  0.66557953693E+02  0.00000000000E+00 0.  1.
          2    1    1    2  501    0  0.17441897443E+03  0.13376132989E+03 -0.10781749304E+03  0.24482378116E+03  0.00000000000E+00 0. -1.
<scales pt_clust_3="156.77077" pt_clust_4="245.06447" pt_clust_5="48.51636" pt_clust_6="48.51636"></scales>
<clustering>
<clus scale="   48.516">  5  6 -1 -1</clus>
<clus scale="  156.771">  1  3  2 -1</clus>
<clus scale="  245.064">  1  4  2 -1</clus>
<clus scale="  156.771">  1  3  2 -1</clus>
</clustering>
</event>
<event>
 6    0  0.4189111E+002  0.7499106E+02  0.7546771E-02  0.1343899E+00
          2   -1    0    0  505    0 -0.00000000000E+00  0.00000000000E+00  0.56245784049E+03  0.56245784049E+03  0.00000000000E+00 0. -1.
         21   -1    0    0  503  502  0.00000000000E+00 -0.00000000000E+00 -0.87112706005E+02  0.87112706005E+02  0.00000000000E+00 0. -1.
         21    1    1    2  503  501  0.19836849812E+02  0.55745254396E+02  0.75102195568E+02  0.95610531728E+02  0.00000000000E+00 0.  1.
         21    1    1    2  504  502  0.43788584844E+02 -0.32402231708E+02 -0.34637717152E+01  0.54583353660E+02  0.00000000000E+00 0. -1.
         21    1    1    2  505  504 -0.11788678027E+02 -0.79954434388E+02 -0.74079340852E+01  0.81157636703E+02  0.00000000000E+00 0. -1.
          2    1    1    2  501    0 -0.51836756629E+02  0.56611411700E+02  0.41111464472E+03  0.41821902441E+03  0.00000000000E+00 0. -1.
<scales pt_clust_3="57.11799" pt_clust_4="54.47334" pt_clust_5="74.99106" pt_clust_6="14000.00000"></scales>
<clustering>
<clus scale="   54.473">  2  4  1 -1</clus>
<clus scale="   57.118">  2  3  1 -1</clus>
<clus scale="   74.991">  2  5  1 -1</clus>
<clus scale="   54.473">  2  3  1 -1</clus>
</clustering>
</event>
<event>
 6    0  0.4189111E+002  0.1466635E+03  0.7546771E-02  0.1204634E+00
         21   -1    0    0  504  502  0.00000000000E+00  0.00000000000E+00  0.29921349771E+04  0.29921349771E+04  0.00000000000E+00 0. -1.
          1   -1    0    0  502    0 -0.00000000000E+00 -0.00000000000E+00 -0.29229672174E+03  0.29229672174E+03  0.00000000000E+00 0. -1.
         21    1    1    2  503  505 -0.82431800959E+02  0.57738677928E+02  0.84061506785E+02  0.13113006391E+03  0.00000000000E+00 0. -1.
         21    1    1    2  504  503 -0.65429251525E+02  0.28394922470E+01  0.27979024993E+04  0.27986688703E+04  0.00000000000E+00 0. -1.
         21    1    1    2  505  501  0.19976688520E+03 -0.52264291395E+02 -0.50034780868E+02  0.21246610053E+03  0.00000000000E+00 0. -1.
          1    1    1    2  501    0 -0.51905832712E+02 -0.83138787799E+01 -0.13209096992E+03  0.14216666411E+03  0.00000000000E+00 0. -1.
<scales pt_clust_3="146.66347" pt_clust_4="65.61801" pt_clust_5="14000.00000" pt_clust_6="52.56744"></scales>
<clustering>
<clus scale="   52.567">  2  6  1 -1</clus>
<clus scale="   65.618">  1  4  2 -1</clus>
<clus scale="  146.663">  1  3  2 -1</clus>
<clus scale="   65.618">  1  3  2 -1</clus>
</clustering>
</event>
<event>
 6    0  0.4189111E+002  0.1175250E+03  0.7546771E-02  0.1247237E+00
         21   -1    0    0  505  502  0.00000000000E+00  0.00000000000E+00  0.16194817275E+03  0.16194817275E+03  0.00000000000E+00 0. -1.
          1   -1    0    0  502    0 -0.00000000000E+00 -0.00000000000E+00 -0.17884880825E+04  0.17884880825E+04  0.00000000000E+00 0.  1.
         21    1    1    2  503  504  0.10885669259E+03 -0.55513618416E+02  0.11962517777E+03  0.17100211843E+03  0.00000000000E+00 0. -1.
         21    1    1    2  504  501 -0.61616749739E+02  0.92776886386E+01 -0.63997547792E+03  0.64300179758E+03  0.00000000000E+00 0.  1.
         21    1    1    2  505  503 -0.17211516600E+01  0.42696406784E+02 -0.16530338704E+02  0.45817001353E+02  0.00000000000E+00 0. -1.
          1    1    1    2  501    0 -0.45518791192E+02  0.35395229937E+01 -0.10896592709E+04  0.10906153379E+04  0.00000000000E+00 0.  1.
<scales pt_clust_3="107.99268" pt_clust_4="39.68768" pt_clust_5="42.73108" pt_clust_6="39.68768"></scales>
<clustering>
<clus scale="   39.688">  4  6 -1 -1</clus>
<clus scale="   42.731">  1  5  2 -1</clus>
<clus scale="  107.993">  1  3  2 -1</clus>
<clus scale="   42.731">  1  3  2 -1</clus>
</clustering>
</event>
<event>
 6    0  0.4189111E+002  0.3548631E+03  0.7546771E-02  0.1060637E+00
         21   -1    0    0  505  502  0.00000000000E+00  0.00000000000E+00  0.28329740644E+03  0.28329740644E+03  0.00000000000E+00 0. -1.
         -1   -1    0    0    0  501 -0.00000000000E+00 -0.00000000000E+00 -0.11540647599E+04  0.11540647599E+04  0.00000000000E+00 0. -1.
         21    1    1    2  503  502  0.46431824400E+02 -0.59803556100E+02 -0.31945047774E+02  0.82175821971E+02  0.00000000000E+00 0.  1.
         21    1    1    2  504  503  0.10024107105E+03 -0.12016326815E+03 -0.33411824773E+03  0.36894781041E+03  0.00000000000E+00 0. -1.
         21    1    1    2  505  501 -0.29529450118E+03  0.29101363204E+03  0.34483803848E+02  0.41602513048E+03  0.00000000000E+00 0. -1.
         -1    1    1    2    0  504  0.14862160573E+03 -0.11104680779E+03 -0.53918786179E+03  0.57021340348E+03  0.00000000000E+00 0. -1.
<scales pt_clust_3="75.71248" pt_clust_4="57.86309" pt_clust_5="349.22529" pt_clust_6="57.86309"></scales>
<clustering>
<clus scale="   57.863">  4  6 -1 -1</clus>
<clus scale="   75.712">  1  3  2 -1</clus>
<clus scale="  349.225">  1  5  2 -1</clus>
<clus scale="   75.712">  1  3  2 -1</clus>
</clustering>
</event>
<event>
 6    0  0.4189111E+002  0.7614105E+02  0.7546771E-02  0.1340374E+00
         21   -1    0    0  504  502  0.00000000000E+00  0.00000000000E+00  0.16858737521E+03  0.16858737521E+03  0.00000000000E+00 0. -1.
          2   -1    0    0  505    0 -0.00000000000E+00 -0.00000000000E+00 -0.76919881109E+03  0.76919881109E+03  0.00000000000E+00 0. -1.
         21    1    1    2  503  502 -0.91861757373E+02  0.67343944560E+02 -0.13545831902E+03  0.17698233112E+03  0.00000000000E+00 0. -1.
         21    1    1    2  504  501  0.64794281850E+02 -0.40845720211E+01  0.13269906858E+03  0.14772956877E+03  0.00000000000E+00 0. -1.
         21    1    1    2  505  503 -0.43963112221E+02 -0.42151946382E+02 -0.30229969927E+03  0.30837420449E+03  0.00000000000E+00 0. -1.
          2    1    1    2  501    0  0.71030587744E+02 -0.21107426157E+02 -0.29555248617E+03  0.30470008191E+03  0.00000000000E+00 0. -1.
<scales pt_clust_3="14000.00000" pt_clust_4="64.25911" pt_clust_5="60.90601" pt_clust_6="76.14105"></scales>
<clustering>
<clus scale="   60.906">  2  5  1 -1</clus>
<clus scale="   64.259">  1  4  2 -1</clus>
<clus scale="   76.141">  2  6  1 -1</clus>
<clus scale="   64.259">  1  3  2 -1</clus>
</clustering>
</event>
<event>
 6    0  0.4189111E+002  0.8401165E+02  0.7546771E-02  0.1318038E+00
         21   -1    0    0  505  502  0.00000000000E+00  0.00000000000E+00  0.17527993121E+04  0.17527993121E+04  0.00000000000E+00 0. -1.
          1   -1    0    0  504    0 -0.00000000000E+00 -0.00000000000E+00 -0.52172693086E+03  0.52172693086E+03  0.00000000000E+00 0.  1.
         21    1    1    2  503  501 -0.10146182071E+03  0.38109221443E+02  0.55703536870E+03  0.56748146737E+03  0.00000000000E+00 0. -1.
         21    1    1    2  504  502 -0.30544529487E+02 -0.18305740639E+02 -0.80634217182E+02  0.88147293790E+02  0.00000000000E+00 0. -1.
         21    1    1    2  505  503  0.35829348225E+02  0.13598679449E+02  0.11804719752E+04  0.11810938788E+04  0.00000000000E+00 0. -1.
          1    1    1    2  501    0  0.96177001974E+02 -0.33402160253E+02 -0.42580074545E+03  0.43780360305E+03  0.00000000000E+00 0.  1.
<scales pt_clust_3="14000.00000" pt_clust_4="35.60995" pt_clust_5="38.29826" pt_clust_6="84.01165"></scales>
<clustering>
<clus scale="   35.610">  2  4  1 -1</clus>
<clus scale="   38.298">  1  5  2 -1</clus>
<clus scale="   84.012">  2  6  1 -1</clus>
<clus scale="   38.298">  1  3  2 -1</clus>
</clustering>
</event>
<event>
 6    0  0.4189111E+002  0.8989327E+02  0.7546771E-02  0.1303110E+00
          2   -1    0    0  503    0 -0.00000000000E+00  0.00000000000E+00  0.29111724881E+04  0.29111724881E+04  0.00000000000E+00 0. -1.
         21   -1    0    0  504  502  0.00000000000E+00 -0.00000000000E+00 -0.22436064445E+02  0.22436064445E+02  0.00000000000E+00 0.  1.
         21    1    1    2  503  505 -0.73560772446E+01 -0.33142415426E+02  0.33935670933E+03  0.34105059410E+03  0.00000000000E+00 0.  1.
         21    1    1    2  504  501 -0.42220943811E+02 -0.10265432079E+02  0.55895534269E+02  0.70797584304E+02  0.00000000000E+00 0.  1.
         21    1    1    2  505  502  0.14562976997E+02 -0.75576783786E+02  0.10567988682E+03  0.13073702239E+03  0.00000000000E+00 0.  1.
          2    1    1    2  501    0  0.35014044059E+02  0.11898463129E+03  0.23878042932E+04  0.23910233517E+04  0.00000000000E+00 0. -1.
<scales pt_clust_3="33.94896" pt_clust_4="43.82645" pt_clust_5="89.89327" pt_clust_6="14000.00000"></scales>
<clustering>
<clus scale="   33.949">  1  3  2 -1</clus>
<clus scale="   43.826">  2  4  1 -1</clus>
<clus scale="   89.893">  2  5  1 -1</clus>
<clus scale="   43.826">  2  3  1 -1</clus>
</clustering>
</event>
<event>
 6    0  0.4189111E+002  0.9942486E+02  0.7546771E-02  0.1281510E+00
         21   -1    0    0  504  502  0.00000000000E+00  0.00000000000E+00  0.25439839581E+02  0.25439839581E+02  0.00000000000E+00 0.  1.
          1   -1    0    0  505    0 -0.00000000000E+00 -0.00000000000E+00 -0.26038235285E+04  0.26038235285E+04  0.00000000000E+00 0.  1.
         21    1    1    2  503  502  0.70036130839E+02 -0.72867310298E+02 -0.10607872384E+03  0.14651757637E+03  0.00000000000E+00 0.  1.
         21    1    1    2  504  501 -0.18745254573E+02  0.10349129545E+03 -0.70679568221E+03  0.71457817571E+03  0.00000000000E+00 0.  1.
         21    1    1    2  505  503 -0.23410213851E+02  0.24935112172E+02 -0.53897690583E+03  0.54006101780E+03  0.00000000000E+00 0.  1.
          1    1    1    2  501    0 -0.27880662415E+02 -0.55559097322E+02 -0.12265323771E+04  0.12281065982E+04  0.00000000000E+00 0.  1.
<scales pt_clust_3="99.42486" pt_clust_4="14000.00000" pt_clust_5="34.20231" pt_clust_6="58.36460"></scales>
<clustering>
<clus scale="   34.202">  2  5  1 -1</clus>
<clus scale="   58.365">  2  6  1 -1</clus>
<clus scale="   99.425">  1  3  2 -1</clus>
<clus scale="   99.425">  1  3  2 -1</clus>
</clustering>
</event>
<event>
 6    0  0.4189111E+002  0.7454107E+02  0.7546771E-02  0.1345298E+00
         21   -1    0    0  503  502  0.00000000000E+00  0.00000000000E+00  0.92975599384E+02  0.92975599384E+02  0.00000000000E+00 0.  1.
          1   -1    0    0  502    0 -0.00000000000E+00 -0.00000000000E+00 -0.77130532648E+03  0.77130532648E+03  0.00000000000E+00 0. -1.
         21    1    1    2  503  505  0.32188288931E+02  0.37617905618E+02  0.62089433449E+02  0.79412155955E+02  0.00000000000E+00 0.  1.
         21    1    1    2  504  501 -0.58404987572E+02 -0.52774721588E+02 -0.25483469999E+03  0.26671527540E+03  0.00000000000E+00 0. -1.
         21    1    1    2  505  504 -0.57269220253E+02  0.27244209022E+02 -0.71540577486E+02  0.95603685811E+02  0.00000000000E+00 0. -1.
          1    1    1    2  501    0  0.83485918895E+02 -0.12087393052E+02 -0.41404388307E+03  0.42254980870E+03  0.00000000000E+00 0. -1.
<scales pt_clust_3="49.50952" pt_clust_4="74.54107" pt_clust_5="62.08175" pt_clust_6="14000.00000"></scales>
<clustering>
<clus scale="   49.510">  1  3  2 -1</clus>
<clus scale="   62.082">  1  5  2 -1</clus>
<clus scale="   74.541">  1  4  2 -1</clus>
<clus scale="   49.510">  1  3  2 -1</clus>
</clustering>
</event>
<event>
 6    0  0.4189111E+002  0.7218099E+02  0.7546771E-02  0.1352830E+00
         -2   -1    0    0    0  501 -0.00000000000E+00  0.00000000000E+00  0.44023298765E+02  0.44023298765E+02  0.00000000000E+00 0. -1.
         21   -1    0    0  504  502  0.00000000000E+00 -0.00000000000E+00 -0.11226200824E+04  0.11226200824E+04  0.00000000000E+00 0.  1.
         21    1    1    2  503  501 -0.21830873244E+02 -0.64468298720E+02 -0.67910212436E+02  0.96148559633E+02  0.00000000000E+00 0.  1.
         21    1    1    2  504  503  0.10948237918E+03  0.30274873657E+02 -0.84344099791E+03  0.85105562467E+03  0.00000000000E+00 0.  1.
         21    1    1    2  505  502 -0.41018843587E+02 -0.32030316303E+01 -0.15238856840E+03  0.15784511624E+03  0.00000000000E+00 0.  1.
         -2    1    1    2    0  505 -0.46632662353E+02  0.37396456694E+02 -0.14857004864E+02  0.61594080600E+02  0.00000000000E+00 0. -1.
<scales pt_clust_3="14000.00000" pt_clust_4="72.18099" pt_clust_5="41.14371" pt_clust_6="60.97070"></scales>
<clustering>
<clus scale="   41.144">  2  5  1 -1</clus>
<clus scale="   60.971">  1  6  2 -1</clus>
<clus scale="   72.181">  2  4  1 -1</clus>
<clus scale="   41.144">  2  3  1 -1</clus>
</clustering>
</event>
<event>
 6    0  0.4189111E+002  0.1500756E+03  0.7546771E-02  0.1200380E+00
         21   -1    0    0  505  502  0.00000000000E+00  0.00000000000E+00  0.17325536042E+03  0.17325536042E+03  0.00000000000E+00 0.  1.
          2   -1    0    0  502    0 -0.00000000000E+00 -0.00000000000E+00 -0.28239649474E+04  0.28239649474E+04  0.00000000000E+00 0. -1.
         21    1    1    2  503  504 -0.10089203056E+03  0.26949232240E+02  0.41306093308E+02  0.11230163086E+03  0.00000000000E+00 0.  1.
         21    1    1    2  504  501  0.46302126037E+02 -0.14091537880E+02 -0.57071581416E+03  0.57276434844E+03  0.00000000000E+00 0.  1.
         21    1    1    2  505  503 -0.40337083781E+02 -0.56805046879E+01  0.90008810645E+02  0.98797441541E+02  0.00000000000E+00 0.  1.
          2    1    1    2  501    0  0.94926988303E+02 -0.71771896716E+01 -0.22113086768E+04  0.22133568870E+04  0.00000000000E+00 0. -1.
<scales pt_clust_3="141.80777" pt_clust_4="35.02719" pt_clust_5="40.73510" pt_clust_6="35.02719"></scales>
<clustering>
<clus scale="   35.027">  4  6 -1 -1</clus>
<clus scale="   40.735">  1  5  2 -1</clus>
<clus scale="  141.808">  1  3  2 -1</clus>
<clus scale="   40.735">  1  3  2 -1</clus>
</clustering>
</event>
<event>
 6    0  0.4189111E+002  0.1248346E+03  0.7546771E-02  0.1235328E+00
         21   -1    0    0  503  502  0.00000000000E+00  0.00000000000E+00  0.83655663130E+03  0.83655663130E+03  0.00000000000E+00 0. -1.
          2   -1    0    0  504    0 -0.00000000000E+00 -0.00000000000E+00 -0.21790553594E+04  0.21790553594E+04  0.00000000000E+00 0. -1.
         21    1    1    2  503  501 -0.18285982780E+03  0.38506582392E+02  0.61815666143E+03  0.64578489575E+03  0.00000000000E+00 0. -1.
         21    1    1    2  504  505  0.78847276412E+02 -0.11244676357E+03 -0.13877508173E+04  0.13945298486E+04  0.00000000000E+00 0. -1.
         21    1    1    2  505  502  0.65246771709E+02  0.21039514688E+01  0.19367649058E+03  0.20438236429E+03  0.00000000000E+00 0. -1.
          2    1    1    2  501    0  0.38765779680E+02  0.71836229710E+02 -0.76658106276E+03  0.77091488205E+03  0.00000000000E+00 0. -1.
<scales pt_clust_3="14000.00000" pt_clust_4="124.83460" pt_clust_5="65.28068" pt_clust_6="81.74044"></scales>
<clustering>
<clus scale="   65.281">  1  5  2 -1</clus>
<clus scale="   81.740">  2  6  1 -1</clus>
<clus scale="  124.835">  2  4  1 -1</clus>
<clus scale="   65.281">  1  3  2 -1</clus>
</clustering>
</event>
<event>
 6    0  0.4189111E+002  0.7514224E+02  0.7546771E-02  0.1343431E+00
         21   -1    0    0  503  502  0.00000000000E+00  0.00000000000E+00  0.93546847617E+03  0.93546847617E+03  0.00000000000E+00 0. -1.
          2   -1    0    0  505    0 -0.00000000000E+00 -0.00000000000E+00 -0.41629556808E+02  0.41629556808E+02  0.00000000000E+00 0. -1.
         21    1    1    2  503  504  0.56250197277E+00  0.36306310676E+02  0.33233849530E+03  0.33431622764E+03  0.00000000000E+00 0.  1.
         21    1    1    2  504  501  0.16644874864E+02  0.41171303809E+02  0.12705217876E+03  0.13458968847E+03  0.00000000000E+00 0. -1.
         21    1    1    2  505  502  0.32371574863E+02 -0.12771412659E+03  0.41436752532E+03  0.43480945600E+03  0.00000000000E+00 0. -1.
          2    1    1    2  501    0 -0.49578951699E+02  0.50236512106E+02  0.20080719983E+02  0.73382660862E+02  0.00000000000E+00 0. -1.
<scales pt_clust_3="36.31067" pt_clust_4="51.84535" pt_clust_5="75.14224" pt_clust_6="14000.00000"></scales>
<clustering>
<clus scale="   36.311">  1  3  2 -1</clus>
<clus scale="   51.845">  1  4  2 -1</clus>
<clus scale="   75.142">  1  5  2 -1</clus>
<clus scale="   36.311">  1  3  2 -1</clus>
</clustering>
</event>
<event>
 6    0  0.4189111E+002  0.7247388E+02  0.7546771E-02  0.1351877E+00
         21   -1    0    0  505  502  0.00000000000E+00  0.00000000000E+00  0.79153650423E+02  0.79153650423E+02  0.00000000000E+00 0.  1.
          2   -1    0    0  503    0 -0.00000000000E+00 -0.00000000000E+00 -0.31293522528E+04  0.31293522528E+04  0.00000000000E+00 0. -1.
         21    1    1    2  503  502 -0.51852662850E+02 -0.23538312821E+02 -0.41722393672E+03  0.42109210891E+03  0.00000000000E+00 0.  1.
         21    1    1    2  504  501  0.52779345463E+02  0.57575358120E+02  0.12682208800E+02  0.79129132373E+02  0.00000000000E+00 0.  1.
         21    1    1    2  505  504 -0.55023296980E+02  0.16320216088E+02  0.40611329092E+01  0.57536123125E+02  0.00000000000E+00 0.  1.
          2    1    1    2  501    0  0.54096614367E+02 -0.50357261386E+02 -0.26497180074E+04  0.26507485388E+04  0.00000000000E+00 0. -1.
<scales pt_clust_3="56.94516" pt_clust_4="14000.00000" pt_clust_5="57.81819" pt_clust_6="72.47388"></scales>
<clustering>
<clus scale="   56.945">  2  3  1 -1</clus>
<clus scale="   57.818">  1  5  2 -1</clus>
<clus scale="   72.474">  2  6  1 -1</clus>
<clus scale="   57.818">  1  3  2 -1</clus>
</clustering>
</event>
<event>
 6    0  0.4189111E+002  0.1174331E+03  0.7546771E-02  0.1247393E+00
         21   -1    0    0  505  502  0.00000000000E+00  0.00000000000E+00  0.28075326552E+03  0.28075326552E+03  0.00000000000E+00 0. -1.
          2   -1    0    0  504    0 -0.00000000000E+00 -0.00000000000E+00 -0.35373740153E+03  0.35373740153E+03  0.00000000000E+00 0. -1.
         21    1    1    2  503  501  0.20848092602E+02  0.10177443477E+03 -0.41617802607E+01  0.10397114481E+03  0.00000000000E+00 0. -1.
         21    1    1    2  504  502  0.40863898192E+02 -0.14906547690E+03 -0.13688298714E+03  0.20646386306E+03  0.00000000000E+00 0. -1.
         21    1    1    2  505  503 -0.68497151205E+02  0.22724118161E+01  0.18568434801E+03  0.19792852416E+03  0.00000000000E+00 0. -1.
          2    1    1    2  501    0  0.67851604109E+01  0.45018630314E+02 -0.11762371662E+03  0.12612713502E+03  0.00000000000E+00 0. -1.
<scales pt_clust_3="117.43315" pt_clust_4="14000.00000" pt_clust_5="68.40561" pt_clust_6="45.52709"></scales>
<clustering>
<clus scale="   45.527">  2  6  1 -1</clus>
<clus scale="   68.406">  1  5  2 -1</clus>
<clus scale="  117.433">  1  3  2 -1</clus>
<clus scale="   68.406">  1  3  2 -1</clus>
</clustering>
</event>
<event>
 6    0  0.4189111E+002  0.9284954E+02  0.7546771E-02  0.1296094E+00
          2   -1    0    0  504    0 -0.00000000000E+00  0.00000000000E+00  0.64953531262E+03  0.64953531262E+03  0.00000000000E+00 0. -1.
         21   -1    0    0  505  502  0.00000000000E+00 -0.00000000000E+00 -0.64574088960E+03  0.64574088960E+03  0.00000000000E+00 0. -1.
         21    1    1    2  503  502  0.39037176320E+01 -0.79216632087E+02 -0.56221149592E+03  0.56777837222E+03  0.00000000000E+00 0. -1.
         21    1    1    2  504  503  0.31471375133E+02  0.63171308324E+02  0.29514727183E+03  0.30346824170E+03  0.00000000000E+00 0. -1.
         21    1    1    2  505  501 -0.90716793205E+02  0.24413463033E+02 -0.44352385899E+02  0.10388786205E+03  0.00000000000E+00 0. -1.
          2    1    1    2  501    0  0.55341700441E+02 -0.83681392709E+01  0.31521103300E+03  0.32014172625E+03  0.00000000000E+00 0. -1.
<scales pt_clust_3="79.40704" pt_clust_4="92.84954" pt_clust_5="14000.00000" pt_clust_6="55.97079"></scales>
<clustering>
<clus scale="   55.971">  1  6  2 -1</clus>
<clus scale="   79.407">  2  3  1 -1</clus>
<clus scale="   92.850">  1  4  2 -1</clus>
<clus scale="   79.407">  2  3  1 -1</clus>
</clustering>
</event>
<event>
 6    0  0.4189111E+002  0.9079167E+02  0.7546771E-02  0.1300946E+00
         21   -1    0    0  501  502  0.00000000000E+00  0.00000000000E+00  0.81290108790E+03  0.81290108790E+03  0.00000000000E+00 0. -1.
          3   -1    0    0  504    0 -0.00000000000E+00 -0.00000000000E+00 -0.18641476090E+03  0.18641476090E+03  0.00000000000E+00 0.  1.
         21    1    1    2  503  502  0.36622265354E+02 -0.50001910879E+01  0.68655697091E+03  0.68755121012E+03  0.00000000000E+00 0. -1.
         21    1    1    2  504  505 -0.28293200039E+02 -0.36373221626E+02 -0.10153163291E+03  0.11149972601E+03  0.00000000000E+00 0.  1.
         21    1    1    2  505  503  0.50806832358E+02 -0.49909405421E+02  0.55911845353E+02  0.90545112593E+02  0.00000000000E+00 0. -1.
          3    1    1    2  501    0 -0.59135897672E+02  0.91282818135E+02 -0.14450856356E+02  0.10971980008E+03  0.00000000000E+00 0.  1.
<scales pt_clust_3="36.96204" pt_clust_4="45.36511" pt_clust_5="90.79167" pt_clust_6="14000.00000"></scales>
<clustering>
<clus scale="   36.962">  1  3  2 -1</clus>
<clus scale="   45.365">  2  4  1 -1</clus>
<clus scale="   90.792">  1  5  2 -1</clus>
<clus scale="   36.962">  1  3  2 -1</clus>
</clustering>
</event>
<event>
 6    0  0.4189111E+002  0.7693004E+02  0.7546771E-02  0.1337996E+00
         21   -1    0    0  505  502  0.00000000000E+00  0.00000000000E+00  0.63011121667E+02  0.63011121667E+02  0.00000000000E+00 0. -1.
          2   -1    0    0  503    0 -0.00000000000E+00 -0.00000000000E+00 -0.16868381274E+04  0.16868381274E+04  0.00000000000E+00 0.  1.
         21    1    1    2  503  504 -0.36220232464E+02 -0.17004902219E+02 -0.10212323591E+03  0.10968239262E+03  0.00000000000E+00 0. -1.
         21    1    1    2  504  502  0.29739311654E+02 -0.92535849145E+02  0.68958844378E+01  0.97441588948E+02  0.00000000000E+00 0. -1.
         21    1    1    2  505  501  0.36358390991E+02  0.49068052865E+02 -0.14312486669E+03  0.15560955585E+03  0.00000000000E+00 0. -1.
          2    1    1    2  501    0 -0.29877470181E+02  0.60472698498E+02 -0.13854747875E+04  0.13871157116E+04  0.00000000000E+00 0.  1.
<scales pt_clust_3="40.01340" pt_clust_4="76.93004" pt_clust_5="57.77012" pt_clust_6="14000.00000"></scales>
<clustering>
<clus scale="   40.013">  2  3  1 -1</clus>
<clus scale="   57.770">  1  5  2 -1</clus>
<clus scale="   76.930">  1  4  2 -1</clus>
<clus scale="   57.770">  1  3  2 -1</clus>
</clustering>
</event>
<event>
 6    0  0.4189111E+002  0.1428698E+03  0.7546771E-02  0.1209519E+00
         -4   -1    0    0    0  501 -0.00000000000E+00  0.00000000000E+00  0.12053664763E+04  0.12053664763E+04  0.00000000000E+00 0.  1.
         21   -1    0    0  505  502  0.00000000000E+00 -0.00000000000E+00 -0.64232510263E+02  0.64232510263E+02  0.00000000000E+00 0.  1.
         21    1    1    2  503  502 -0.39538125954E+02  0.32561141552E+02  0.18522007965E+02  0.54466100669E+02  0.00000000000E+00 0.  1.
         21    1    1    2  504  503  0.92636524706E+01  0.53813470849E+02  0.24802485213E+03  0.25396462780E+03  0.00000000000E+00 0.  1.
         21    1    1    2  505  501  0.39088511895E+02 -0.16131673242E+03  0.12498913194E+03  0.20778181591E+03  0.00000000000E+00 0.  1.
         -4    1    1    2    0  504 -0.88140384120E+01  0.74942120019E+02  0.74959797399E+03  0.75338644217E+03  0.00000000000E+00 0.  1.
<scales pt_clust_3="51.22003" pt_clust_4="46.02021" pt_clust_5="132.23127" pt_clust_6="46.02021"></scales>
<clustering>
<clus scale="   46.020">  4  6 -1 -1</clus>
<clus scale="   51.220">  2  3  1 -1</clus>
<clus scale="  132.231">  2  5  1 -1</clus>
<clus scale="   51.220">  2  3  1 -1</clus>
</clustering>
</event>
<event>
 6    0  0.4189111E+002  0.1413395E+03  0.7546771E-02  0.1211538E+00
          1   -1    0    0  505    0 -0.00000000000E+00  0.00000000000E+00  0.54191534765E+03  0.54191534765E+03  0.00000000000E+00 0.  1.
         21   -1    0    0  504  502  0.00000000000E+00 -0.00000000000E+00 -0.14599633495E+03  0.14599633495E+03  0.00000000000E+00 0. -1.
         21    1    1    2  503  501  0.80622812561E+01  0.33357275154E+02  0.65099303704E+02  0.73590947321E+02  0.00000000000E+00 0.  1.
         21    1    1    2  504  503  0.31641180460E+02  0.15338410821E+02 -0.19534499519E+02  0.40224716517E+02  0.00000000000E+00 0. -1.
         21    1    1    2  505  502 -0.10666605411E+03 -0.12030740347E+03 -0.44841950380E+02  0.16692009748E+03  0.00000000000E+00 0. -1.
          1    1    1    2  501    0  0.66962592392E+02  0.71611717495E+02  0.39519615890E+03  0.40717592128E+03  0.00000000000E+00 0.  1.
<scales pt_clust_3="30.26976" pt_clust_4="35.16292" pt_clust_5="131.75431" pt_clust_6="30.26976"></scales>
<clustering>
<clus scale="   30.270">  3  6 -1 -1</clus>
<clus scale="   35.163">  2  4  1 -1</clus>
<clus scale="  131.754">  2  5  1 -1</clus>
<clus scale="   35.163">  2  3  1 -1</clus>
</clustering>
</event>
<event>
 6    0  0.4189111E+002  0.1790525E+03  0.7546771E-02  0.1168723E+00
          2   -1    0    0  504    0 -0.00000000000E+00  0.00000000000E+00  0.30929296685E+04  0.30929296685E+04  0.00000000000E+00 0. -1.
         21   -1    0    0  503  502  0.00000000000E+00 -0.00000000000E+00 -0.17408968224E+03  0.17408968224E+03  0.00000000000E+00 0. -1.
         21    1    1    2  503  505  0.35200058507E+02  0.85036005185E+01 -0.15277158756E+03  0.15700481937E+03  0.00000000000E+00 0. -1.
         21    1    1    2  504  502 -0.10387456624E+02 -0.17910165441E+03  0.48270218455E+03  0.51496281500E+03  0.00000000000E+00 0.  1.
         21    1    1    2  505  501 -0.18689192148E+02  0.81913143802E+02  0.15805048557E+04  0.15827364430E+04  0.00000000000E+00 0.  1.
          2    1    1    2  501    0 -0.61234097348E+01  0.88684910094E+02  0.10084045336E+04  0.10123152734E+04  0.00000000000E+00 0. -1.
<scales pt_clust_3="36.21264" pt_clust_4="173.02479" pt_clust_5="44.62695" pt_clust_6="44.62695"></scales>
<clustering>
<clus scale="   36.213">  2  3  1 -1</clus>
<clus scale="   44.627">  5  6 -1 -1</clus>
<clus scale="  173.025">  2  4  1 -1</clus>
<clus scale="   36.213">  2  3  1 -1</clus>
</clustering>
</event>
<event>
 6    0  0.4189111E+002  0.6834893E+02  0.7546771E-02  0.1365799E+00
          2   -1    0    0  505    0 -0.00000000000E+00  0.00000000000E+00  0.15204716665E+04  0.15204716665E+04  0.00000000000E+00 0. -1.
         21   -1    0    0  503  502  0.00000000000E+00 -0.00000000000E+00 -0.24756488017E+03  0.24756488017E+03  0.00000000000E+00 0.  1.
         21    1    1    2  503  501  0.79850317987E+02 -0.49187599975E+02 -0.19364926918E+03  0.21516396708E+03  0.00000000000E+00 0.  1.
         21    1    1    2  504  502 -0.12315060378E+02  0.44442493519E+02 -0.22028346218E+02  0.51108159617E+02  0.00000000000E+00 0. -1.
         21    1    1    2  505  504  0.14185020246E+02  0.52814934093E+02  0.14714313441E+03  0.15697685838E+03  0.00000000000E+00 0.  1.
          2    1    1    2  501    0 -0.81720277855E+02 -0.48069827636E+02  0.13414412673E+04  0.13447875616E+04  0.00000000000E+00 0. -1.
<scales pt_clust_3="14000.00000" pt_clust_4="46.11720" pt_clust_5="55.61511" pt_clust_6="68.34893"></scales>
<clustering>
<clus scale="   46.117">  2  4  1 -1</clus>
<clus scale="   55.615">  1  5  2 -1</clus>
<clus scale="   68.349">  1  6  2 -1</clus>
<clus scale="   46.117">  2  3  1 -1</clus>
</clustering>
</event>
<event>
 6    0  0.4189111E+002  0.1057830E+03  0.7546771E-02  0.1268585E+00
          2   -1    0    0  503    0 -0.00000000000E+00  0.00000000000E+00  0.16594791623E+03  0.16594791623E+03  0.00000000000E+00 0. -1.
         21   -1    0    0  505  502  0.00000000000E+00 -0.00000000000E+00 -0.31447207748E+03  0.31447207748E+03  0.00000000000E+00 0. -1.
         21    1    1    2  503  504  0.10167385532E+03  0.33686262646E+02  0.23165481502E+02  0.10958547659E+03  0.00000000000E+00 0. -1.
         21    1    1    2  504  502  0.15922638930E+02  0.36029268153E+02 -0.12411286269E+03  0.13021382906E+03  0.00000000000E+00 0. -1.
         21    1    1    2  505  501 -0.11690132906E+03 -0.27427644678E+02 -0.11157365125E+03  0.16391118351E+03  0.00000000000E+00 0. -1.
          2    1    1    2  501    0 -0.69516519212E+00 -0.42287886121E+02  0.63996871179E+02  0.76709504548E+02  0.00000000000E+00 0. -1.
<scales pt_clust_3="14000.00000" pt_clust_4="39.39084" pt_clust_5="105.78299" pt_clust_6="41.06553"></scales>
<clustering>
<clus scale="   39.391">  2  4  1 -1</clus>
<clus scale="   41.066">  1  6  2 -1</clus>
<clus scale="  105.783">  2  5  1 -1</clus>
<clus scale="   39.391">  2  3  1 -1</clus>
</clustering>
</event>
<event>
 6    0  0.4189111E+002  0.9921920E+02  0.7546771E-02  0.1281946E+00
          1   -1    0    0  505    0 -0.00000000000E+00  0.00000000000E+00  0.19327365837E+04  0.19327365837E+04  0.00000000000E+00 0. -1.
         21   -1    0    0  503  502  0.00000000000E+00 -0.00000000000E+00 -0.64275822871E+02  0.64275822871E+02  0.00000000000E+00 0. -1.
         21    1    1    2  503  501 -0.88250114340E+02  0.71797462404E+02  0.20690167653E+01  0.11378593551E+03  0.00000000000E+00 0. -1.
         21    1    1    2  504  502  0.28411194973E+02  0.10321879193E+02  0.37903961172E+02  0.48481413577E+02  0.00000000000E+00 0. -1.
         21    1    1    2  505  504  0.61084692540E+02 -0.13269286542E+02  0.42535957815E+03  0.42992811533E+03  0.00000000000E+00 0. -1.
          1    1    1    2  501    0 -0.12457731723E+01 -0.68850055055E+02  0.14031282047E+04  0.14048169421E+04  0.00000000000E+00 0. -1.
<scales pt_clust_3="14000.00000" pt_clust_4="30.22809" pt_clust_5="63.50267" pt_clust_6="99.21920"></scales>
<clustering>
<clus scale="   30.228">  2  4  1 -1</clus>
<clus scale="   63.503">  1  5  2 -1</clus>
<clus scale="   99.219">  1  6  2 -1</clus>
<clus scale="   30.228">  2  3  1 -1</clus>
</clustering>
</event>
<event>
 6    0  0.4189111E+002  0.2628249E+03  0.7546771E-02  0.1105458E+00
         21   -1    0    0  505  502  0.00000000000E+00  0.00000000000E+00  0.77832281711E+03  0.77832281711E+03  0.00000000000E+00 0.  1.
          2   -1    0    0  504    0 -0.00000000000E+00 -0.00000000000E+00 -0.18458225393E+04  0.18458225393E+04  0.00000000000E+00 0.  1.
         21    1    1    2  503  502  0.31969284521E+02 -0.12552481022E+02  0.42899577300E+03  0.43036841564E+03  0.00000000000E+00 0.  1.
         21    1    1    2  504  503 -0.13877435170E+03 -0.32230602437E+03 -0.13750523359E+04  0.14191224120E+04  0.00000000000E+00 0.  1.
         21    1    1    2  505  501  0.49069370787E+02  0.16033361674E+03  0.28381958367E+03  0.32964864307E+03  0.00000000000E+00 0.  1.
          2    1    1    2  501    0  0.57735696392E+02  0.17452488865E+03 -0.40526274302E+03  0.44500588567E+03  0.00000000000E+00 0.  1.
<scales pt_clust_3="34.34530" pt_clust_4="14000.00000" pt_clust_5="168.06755" pt_clust_6="262.82485"></scales>
<clustering>
<clus scale="   34.345">  1  3  2 -1</clus>
<clus scale="  168.068">  1  5  2 -1</clus>
<clus scale="  262.825">  2  6  1 -1</clus>
<clus scale="   34.345">  1  3  2 -1</clus>
</clustering>
</event>
<event>
 6    0  0.4189111E+002  0.8039002E+02  0.7546771E-02  0.1327948E+00
          2   -1    0    0  503    0 -0.00000000000E+00  0.00000000000E+00  0.64011214509E+02  0.64011214509E+02  0.00000000000E+00 0. -1.
         21   -1    0    0  505  502  0.00000000000E+00 -0.00000000000E+00 -0.56985745953E+03  0.56985745953E+03  0.00000000000E+00 0. -1.
         21    1    1    2  503  504 -0.30107492039E+02 -0.37341706833E+02 -0.14397617884E+02  0.50081489064E+02  0.00000000000E+00 0. -1.
         21    1    1    2  504  502  0.11149214819E+03 -0.23404784436E+02 -0.42341695054E+03  0.43847485338E+03  0.00000000000E+00 0. -1.
         21    1    1    2  505  501 -0.34429420848E+02  0.46731289127E+01 -0.63069971244E+02  0.72007252596E+02  0.00000000000E+00 0. -1.
          2    1    1    2  501    0 -0.46955235298E+02  0.56073362356E+02 -0.49617053579E+01  0.73305079005E+02  0.00000000000E+00 0. -1.
<scales pt_clust_3="49.15787" pt_clust_4="80.39002" pt_clust_5="34.74512" pt_clust_6="14000.00000"></scales>
<clustering>
<clus scale="   34.745">  2  5  1 -1</clus>
<clus scale="   49.158">  1  3  2 -1</clus>
<clus scale="   80.390">  2  4  1 -1</clus>
<clus scale="   34.745">  2  3  1 -1</clus>
</clustering>
</event>
<event>
 6    0  0.4189111E+002  0.1179173E+03  0.7546771E-02  0.1246573E+00
         21   -1    0    0  505  502  0.00000000000E+00  0.00000000000E+00  0.11216702827E+03  0.11216702827E+03  0.00000000000E+00 0.  1.
         -3   -1    0    0    0  501 -0.00000000000E+00 -0.00000000000E+00 -0.14476196247E+04  0.14476196247E+04  0.00000000000E+00 0. -1.
         21    1    1    2  503  501  0.85225590308E+02 -0.53453703400E+02 -0.76262571623E+03  0.76923252837E+03  0.00000000000E+00 0. -1.
         21    1    1    2  504  502 -0.21096720989E+02  0.84497812391E+02 -0.19699527589E+02  0.89291787542E+02  0.00000000000E+00 0.  1.
         21    1    1    2  505  503  0.85716888607E+01  0.53410235391E+02  0.58435748067E+02  0.79629540666E+02  0.00000000000E+00 0.  1.
         -3    1    1    2    0  504 -0.72700558180E+02 -0.84454344382E+02 -0.61156310066E+03  0.62163279638E+03  0.00000000000E+00 0. -1.
<scales pt_clust_3="99.05788" pt_clust_4="14000.00000" pt_clust_5="54.09369" pt_clust_6="117.91731"></scales>
<clustering>
<clus scale="   54.094">  1  5  2 -1</clus>
<clus scale="   99.058">  2  3  1 -1</clus>
<clus scale="  117.917">  2  6  1 -1</clus>
<clus scale="   54.094">  1  3  2 -1</clus>
</clustering>
</event>
<event>
 6    0  0.4189111E+002  0.1725316E+03  0.7546771E-02  0.1175233E+00
         21   -1    0    0  501  502  0.00000000000E+00  0.00000000000E+00  0.23264633610E+03  0.23264633610E+03  0.00000000000E+00 0. -1.
          2   -1    0    0  503    0 -0.00000000000E+00 -0.00000000000E+00 -0.33951431651E+04  0.33951431651E+04  0.00000000000E+00 0. -1.
         21    1    1    2  503  504 -0.23824214558E+00 -0.11087785054E+03 -0.55671256775E+03  0.56764675424E+03  0.00000000000E+00 0.  1.
         21    1    1    2  504  505  0.45344620116E+02  0.22916421366E+03 -0.89689422028E+02  0.25023301905E+03  0.00000000000E+00 0. -1.
         21    1    1    2  505  502 -0.62633359899E+02 -0.47447032880E+02  0.13586260666E+03  0.15694842015E+03  0.00000000000E+00 0. -1.
          2    1    1    2  501    0  0.17526981928E+02 -0.70839330240E+02 -0.26519574459E+04  0.26529613078E+04  0.00000000000E+00 0. -1.
<scales pt_clust_3="14000.00000" pt_clust_4="172.53158" pt_clust_5="78.99045" pt_clust_6="72.97538"></scales>
<clustering>
<clus scale="   72.975">  2  6  1 -1</clus>
<clus scale="   78.990">  1  5  2 -1</clus>
<clus scale="  172.532">  1  4  2 -1</clus>
<clus scale="   78.990">  1  3  2 -1</clus>
</clustering>
</event>
<event>
 6    0  0.4189111E+002  0.1262427E+03  0.7546771E-02  0.1233140E+00
          2   -1    0    0  503    0 -0.00000000000E+00  0.00000000000E+00  0.17020049827E+03  0.17020049827E+03  0.00000000000E+00 0.  1.
         21   -1    0    0  505  502  0.00000000000E+00 -0.00000000000E+00 -0.35700182421E+03  0.35700182421E+03  0.00000000000E+00 0.  1.
         21    1    1    2  503  502 -0.76317792072E+02 -0.26219718160E+02  0.94697197246E+02  0.12441639029E+03  0.00000000000E+00 0.  1.
         21    1    1    2  504  501  0.38729070334E+02  0.62851075664E+02 -0.53056663432E+02  0.90913190108E+02  0.00000000000E+00 0.  1.
         21    1    1    2  505  504 -0.58704569879E+02 -0.79200327999E+02 -0.15429452482E+03  0.18310029729E+03  0.00000000000E+00 0.  1.
          2    1    1    2  501    0  0.96293291618E+02  0.42568970496E+02 -0.74147334941E+02  0.12877244479E+03  0.00000000000E+00 0.  1.
<scales pt_clust_3="80.69621" pt_clust_4="43.80477" pt_clust_5="114.89437" pt_clust_6="43.80477"></scales>
<clustering>
<clus scale="   43.805">  4  6 -1 -1</clus>
<clus scale="   80.696">  1  3  2 -1</clus>
<clus scale="  114.894">  2  5  1 -1</clus>
<clus scale="  114.894">  2  3  1 -1</clus>
</clustering>
</event>
<event>
 6    0  0.4189111E+002  0.9016249E+02  0.7546771E-02  0.1302459E+00
         21   -1    0    0  504  502  0.00000000000E+00  0.00000000000E+00  0.21379554244E+03  0.21379554244E+03  0.00000000000E+00 0. -1.
          2   -1    0    0  503    0 -0.00000000000E+00 -0.00000000000E+00 -0.90555397234E+03  0.90555397234E+03  0.00000000000E+00 0. -1.
         21    1    1    2  503  505  0.61685885350E+02  0.28471065038E+02  0.10035462318E+03  0.12118911003E+03  0.00000000000E+00 0.  1.
         21    1    1    2  504  501 -0.47307602456E+02  0.23776658215E+02  0.82112289587E+02  0.97702440232E+02  0.00000000000E+00 0. -1.
         21    1    1    2  505  502  0.35306241363E+02  0.23846352885E+02 -0.31848290203E+02  0.53192977112E+02  0.00000000000E+00 0. -1.
          2    1    1    2  501    0 -0.49684524257E+02 -0.76094076137E+02 -0.84237705247E+03  0.84726498741E+03  0.00000000000E+00 0. -1.
<scales pt_clust_3="90.16249" pt_clust_4="46.71505" pt_clust_5="42.60492" pt_clust_6="14000.00000"></scales>
<clustering>
<clus scale="   42.605">  1  5  2 -1</clus>
<clus scale="   46.715">  1  4  2 -1</clus>
<clus scale="   90.162">  1  3  2 -1</clus>
<clus scale="   42.605">  1  3  2 -1</clus>
</clustering>
</event>
<event>
 6    0  0.4189111E+002  0.8108824E+02  0.7546771E-02  0.1325991E+00
          1   -1    0    0  504    0 -0.00000000000E+00  0.00000000000E+00  0.10041147151E+04  0.10041147151E+04  0.00000000000E+00 0.  1.
         21   -1    0    0  503  502  0.00000000000E+00 -0.00000000000E+00 -0.31778604387E+03  0.31778604387E+03  0.00000000000E+00 0.  1.
         21    1    1    2  503  505  0.14275248217E+02 -0.29246921399E+02 -0.28478295809E+03  0.28663652653E+03  0.00000000000E+00 0.  1.
         21    1    1    2  504  502  0.11209915016E+03  0.68719885702E+02  0.17729914750E+03  0.22073429698E+03  0.00000000000E+00 0.  1.
         21    1    1    2  505  501 -0.53416171507E+02 -0.16120384574E+02  0.85551004472E+02  0.10213779195E+03  0.00000000000E+00 0.  1.
          1    1    1    2  501    0 -0.72958226874E+02 -0.23352579729E+02  0.70826147740E+03  0.71239214356E+03  0.00000000000E+00 0.  1.
<scales pt_clust_3="32.54482" pt_clust_4="81.08824" pt_clust_5="55.07678" pt_clust_6="14000.00000"></scales>
<clustering>
<clus scale="   32.545">  2  3  1 -1</clus>
<clus scale="   55.077">  2  5  1 -1</clus>
<clus scale="   81.088">  2  4  1 -1</clus>
<clus scale="   32.545">  2  3  1 -1</clus>
</clustering>
</event>
<event>
 6    0  0.4189111E+002  0.1098629E+03  0.7546771E-02  0.1260824E+00
         21   -1    0    0  501  502  0.00000000000E+00  0.00000000000E+00  0.29607763958E+03  0.29607763958E+03  0.00000000000E+00 0.  1.
         -3   -1    0    0    0  501 -0.00000000000E+00 -0.00000000000E+00 -0.36971103198E+03  0.36971103198E+03  0.00000000000E+00 0.  1.
         21    1    1    2  503  504 -0.41929740632E+02 -0.42923544686E+02 -0.12681129903E+03  0.14029126630E+03  0.00000000000E+00 0.  1.
         21    1    1    2  504  505  0.10248074290E+03  0.87578874458E+02  0.13438860210E+03  0.19034878064E+03  0.00000000000E+00 0.  1.
         21    1    1    2  505  502 -0.34118049330E+02 -0.15236195474E+02  0.12227411666E+03  0.12785594451E+03  0.00000000000E+00 0.  1.
         -3    1    1    2    0  503 -0.26432952935E+02 -0.29419134298E+02 -0.20348481212E+03  0.20729268011E+03  0.00000000000E+00 0.  1.
<scales pt_clust_3="34.56037" pt_clust_4="101.28030" pt_clust_5="37.36553" pt_clust_6="34.56037"></scales>
<clustering>
<clus scale="   34.560">  3  6 -1 -1</clus>
<clus scale="   37.366">  1  5  2 -1</clus>
<clus scale="  101.280">  1  4  2 -1</clus>
<clus scale="   37.366">  1  3  2 -1</clus>
</clustering>
</event>
<event>
 6    0  0.4189111E+002  0.9506361E+02  0.7546771E-02  0.1291033E+00
         21   -1    0    0  503  502  0.00000000000E+00  0.00000000000E+00  0.17766059969E+03  0.17766059969E+03  0.00000000000E+00 0. -1.
          1   -1    0    0  505    0 -0.00000000000E+00 -0.00000000000E+00 -0.27960598354E+03  0.27960598354E+03  0.00000000000E+00 0.  1.
         21    1    1    2  503  501  0.85251462769E+02  0.33252737429E+02  0.53552681131E+02  0.10602568607E+03  0.00000000000E+00 0. -1.
         21    1    1    2  504  502 -0.34488588762E+02  0.51000882527E+02  0.58608816760E+02  0.85003212735E+02  0.00000000000E+00 0. -1.
         21    1    1    2  505  504 -0.24454938261E+02  0.27322909222E+02 -0.90544452306E+02  0.97687682013E+02  0.00000000000E+00 0. -1.
          1    1    1    2  501    0 -0.26307935745E+02 -0.11157652918E+03 -0.12356242943E+03  0.16855000241E+03  0.00000000000E+00 0.  1.
<scales pt_clust_3="14000.00000" pt_clust_4="64.15342" pt_clust_5="36.66859" pt_clust_6="95.06361"></scales>
<clustering>
<clus scale="   36.669">  2  5  1 -1</clus>
<clus scale="   64.153">  1  4  2 -1</clus>
<clus scale="   95.064">  2  6  1 -1</clus>
<clus scale="   64.153">  1  3  2 -1</clus>
</clustering>
</event>
<event>
 6    0  0.4189111E+002  0.8434624E+02  0.7546771E-02  0.1317151E+00
          1   -1    0    0  503    0 -0.00000000000E+00  0.00000000000E+00  0.61332856687E+03  0.61332856687E+03  0.00000000000E+00 0. -1.
         21   -1    0    0  505  502  0.00000000000E+00 -0.00000000000E+00 -0.99693298205E+02  0.99693298205E+02  0.00000000000E+00 0.  1.
         21    1    1    2  503  502 -0.65012343525E+02 -0.29401628984E+02 -0.22759848759E+02  0.74893733470E+02  0.00000000000E+00 0.  1.
         21    1    1    2  504  501 -0.43720883858E+01  0.81961064887E+02  0.16451469004E+03  0.18385269798E+03  0.00000000000E+00 0. -1.
         21    1    1    2  505  504  0.42372760093E+02  0.29523694414E+02 -0.18185552591E+02  0.54752293585E+02  0.00000000000E+00 0.  1.
          1    1    1    2  501    0  0.27011671818E+02 -0.82083130317E+02  0.39006597997E+03  0.39952314004E+03  0.00000000000E+00 0. -1.
<scales pt_clust_3="32.95666" pt_clust_4="14000.00000" pt_clust_5="51.64397" pt_clust_6="84.34624"></scales>
<clustering>
<clus scale="   51.644">  2  5  1 -1</clus>
<clus scale="   32.957">  2  3  1 -1</clus>
<clus scale="   84.346">  1  6  2 -1</clus>
<clus scale="   51.644">  2  3  1 -1</clus>
</clustering>
</event>
<event>
 6    0  0.4189111E+002  0.2538716E+03  0.7546771E-02  0.1110882E+00
         21   -1    0    0  504  502  0.00000000000E+00  0.00000000000E+00  0.12210013952E+04  0.12210013952E+04  0.00000000000E+00 0. -1.
          1   -1    0    0  503    0 -0.00000000000E+00 -0.00000000000E+00 -0.28783227392E+03  0.28783227392E+03  0.00000000000E+00 0.  1.
         21    1    1    2  503  502  0.66303940988E+01  0.33442547930E+02  0.70335759725E+02  0.78163196161E+02  0.00000000000E+00 0.  1.
         21    1    1    2  504  505  0.23578020614E+03 -0.41059928988E+02  0.10739407113E+04  0.11002849062E+04  0.00000000000E+00 0. -1.
         21    1    1    2  505  501 -0.13701192141E+03 -0.14121458614E+02 -0.74871075101E+02  0.15677168140E+03  0.00000000000E+00 0. -1.
          1    1    1    2  501    0 -0.10539867883E+03  0.21738839672E+02 -0.13623627467E+03  0.17361388535E+03  0.00000000000E+00 0.  1.
<scales pt_clust_3="34.09349" pt_clust_4="242.24654" pt_clust_5="67.21600" pt_clust_6="67.21600"></scales>
<clustering>
<clus scale="   34.093">  1  3  2 -1</clus>
<clus scale="   67.216">  5  6 -1 -1</clus>
<clus scale="  242.247">  1  4  2 -1</clus>
<clus scale="   34.093">  1  3  2 -1</clus>
</clustering>
</event>
<event>
 6    0  0.4189111E+002  0.5772135E+02  0.7546771E-02  0.1407651E+00
          2   -1    0    0  504    0 -0.00000000000E+00  0.00000000000E+00  0.54083035659E+03  0.54083035659E+03  0.00000000000E+00 0. -1.
         21   -1    0    0  503  502  0.00000000000E+00 -0.00000000000E+00 -0.24574556503E+03  0.24574556503E+03  0.00000000000E+00 0. -1.
         21    1    1    2  503  501  0.17455199706E+02  0.48183273010E+02 -0.23333783982E+02  0.56309655208E+02  0.00000000000E+00 0. -1.
         21    1    1    2  504  505  0.43291014327E+02 -0.31546041517E+01  0.23149827381E+02  0.49193271456E+02  0.00000000000E+00 0. -1.
         21    1    1    2  505  502  0.39719319248E+02 -0.47614963887E+02 -0.18255327212E+03  0.19279654113E+03  0.00000000000E+00 0. -1.
          2    1    1    2  501    0 -0.10046553328E+03  0.25862950289E+01  0.47782202029E+03  0.48827645384E+03  0.00000000000E+00 0. -1.
<scales pt_clust_3="51.65043" pt_clust_4="43.40580" pt_clust_5="57.72135" pt_clust_6="14000.00000"></scales>
<clustering>
<clus scale="   43.406">  1  4  2 -1</clus>
<clus scale="   51.650">  2  3  1 -1</clus>
<clus scale="   57.721">  2  5  1 -1</clus>
<clus scale="   51.650">  2  3  1 -1</clus>
</clustering>
</event>
<event>
 6    0  0.4189111E+002  0.2016343E+03  0.7546771E-02  0.1148367E+00
         21   -1    0    0  503  502  0.00000000000E+00  0.00000000000E+00  0.99693678003E+03  0.99693678003E+03  0.00000000000E+00 0.  1.
         -4   -1    0    0    0  501 -0.00000000000E+00 -0.00000000000E+00 -0.56736069937E+03  0.56736069937E+03  0.00000000000E+00 0.  1.
         21    1    1    2  503  505 -0.51291556736E+02 -0.26980394408E+02  0.21015603460E+03  0.21800074393E+03  0.00000000000E+00 0. -1.
         21    1    1    2  504  502  0.12996051134E+03 -0.16024598529E+03  0.74682931715E+03  0.77480483947E+03  0.00000000000E+00 0.  1.
         21    1    1    2  505  501 -0.20688536556E+02  0.32050018524E+02 -0.34295773049E+02  0.51297361348E+02  0.00000000000E+00 0.  1.
         -4    1    1    2    0  504 -0.57980418049E+02  0.15517636118E+03 -0.49311349803E+03  0.52019453466E+03  0.00000000000E+00 0.  1.
<scales pt_clust_3="57.98090" pt_clust_4="14000.00000" pt_clust_5="38.14734" pt_clust_6="201.63430"></scales>
<clustering>
<clus scale="   38.147">  2  5  1 -1</clus>
<clus scale="   57.981">  1  3  2 -1</clus>
<clus scale="  201.634">  2  6  1 -1</clus>
<clus scale="   57.981">  1  3  2 -1</clus>
</clustering>
</event>
<event>
 6    0  0.4189111E+002  0.1329404E+03  0.7546771E-02  0.1223157E+00
         -4   -1    0    0    0  501 -0.00000000000E+00  0.00000000000E+00  0.28506896493E+03  0.28506896493E+03  0.00000000000E+00 0.  1.
         21   -1    0    0  503  502  0.00000000000E+00 -0.00000000000E+00 -0.37589482705E+04  0.37589482705E+04  0.00000000000E+00 0. -1.
         21    1    1    2  503  501  0.14004617932E+03  0.13387903351E+03 -0.15897330903E+04  0.16014954968E+04  0.00000000000E+00 0. -1.
         21    1    1    2  504  502 -0.39445784105E+02 -0.11317093625E+03 -0.21473018090E+04  0.21506437849E+04  0.00000000000E+00 0. -1.
         21    1    1    2  505  504 -0.89528296443E+02  0.11791226301E+02  0.16822377682E+03  0.19092822727E+03  0.00000000000E+00 0.  1.
         -4    1    1    2    0  505 -0.11072098772E+02 -0.32499323560E+02  0.94931816911E+02  0.10094972642E+03  0.00000000000E+00 0.  1.
<scales pt_clust_3="132.94045" pt_clust_4="14000.00000" pt_clust_5="102.01449" pt_clust_6="34.33362"></scales>
<clustering>
<clus scale="   34.334">  1  6  2 -1</clus>
<clus scale="  102.014">  1  5  2 -1</clus>
<clus scale="  132.940">  1  3  2 -1</clus>
<clus scale="  132.940">  2  3  1 -1</clus>
</clustering>
</event>
<event>
 6    0  0.4189111E+002  0.7261518E+02  0.7546771E-02  0.1351419E+00
          1   -1    0    0  504    0 -0.00000000000E+00  0.00000000000E+00  0.47006307844E+03  0.47006307844E+03  0.00000000000E+00 0. -1.
         21   -1    0    0  503  502  0.00000000000E+00 -0.00000000000E+00 -0.44839153279E+02  0.44839153279E+02  0.00000000000E+00 0.  1.
         21    1    1    2  503  501  0.32237949511E+02 -0.10752380654E+03  0.10544097985E+03  0.15400796925E+03  0.00000000000E+00 0.  1.
         21    1    1    2  504  505  0.34965731802E+02  0.47068226616E+02  0.93136423662E+02  0.11005641176E+03  0.00000000000E+00 0.  1.
         21    1    1    2  505  502 -0.22294694785E+02  0.28909297440E+02  0.31818276780E+02  0.48427302540E+02  0.00000000000E+00 0. -1.
          1    1    1    2  501    0 -0.44908986529E+02  0.31546282484E+02  0.19482824487E+03  0.20241054817E+03  0.00000000000E+00 0. -1.
<scales pt_clust_3="72.61518" pt_clust_4="14000.00000" pt_clust_5="36.50755" pt_clust_6="58.50983"></scales>
<clustering>
<clus scale="   36.508">  2  5  1 -1</clus>
<clus scale="   58.510">  1  6  2 -1</clus>
<clus scale="   72.615">  2  3  1 -1</clus>
<clus scale="   36.508">  2  3  1 -1</clus>
</clustering>
</event>
<event>
 6    0  0.4189111E+002  0.1694389E+03  0.7546771E-02  0.1178434E+00
         21   -1    0    0  504  502  0.00000000000E+00  0.00000000000E+00  0.58093273057E+02  0.58093273057E+02  0.00000000000E+00 0. -1.
          1   -1    0    0  503    0 -0.00000000000E+00 -0.00000000000E+00 -0.12499662604E+04  0.12499662604E+04  0.00000000000E+00 0. -1.
         21    1    1    2  503  502  0.10426514551E+03  0.10224362460E+03 -0.81445443896E+02  0.16720747493E+03  0.00000000000E+00 0. -1.
         21    1    1    2  504  505 -0.18916077361E+02  0.35994370188E+02 -0.41267957495E+02  0.57934937506E+02  0.00000000000E+00 0. -1.
         21    1    1    2  505  501 -0.37349689724E+02 -0.93864380115E+02 -0.50674942895E+03  0.51672091589E+03  0.00000000000E+00 0.  1.
          1    1    1    2  501    0 -0.47999378428E+02 -0.44373614675E+02 -0.56241015696E+03  0.56619620509E+03  0.00000000000E+00 0. -1.
<scales pt_clust_3="159.67614" pt_clust_4="40.66218" pt_clust_5="46.05949" pt_clust_6="46.05949"></scales>
<clustering>
<clus scale="   40.662">  1  4  2 -1</clus>
<clus scale="   46.059">  5  6 -1 -1</clus>
<clus scale="  159.676">  1  3  2 -1</clus>
<clus scale="   40.662">  1  3  2 -1</clus>
</clustering>
</event>
<event>
 6    0  0.4189111E+002  0.7020084E+02  0.7546771E-02  0.1359411E+00
          2   -1    0    0  504    0 -0.00000000000E+00  0.00000000000E+00  0.12202812369E+04  0.12202812369E+04  0.00000000000E+00 0.  1.
         21   -1    0    0  503  502  0.00000000000E+00 -0.00000000000E+00 -0.22372423651E+03  0.22372423651E+03  0.00000000000E+00 0. -1.
         21    1    1    2  503  501  0.67921165966E+01  0.12066779284E+03 -0.13548870511E+03  0.18156001292E+03  0.00000000000E+00 0. -1.
         21    1    1    2  504  505 -0.43503533277E+02  0.51817744019E+01  0.53511672476E+03  0.53690717756E+03  0.00000000000E+00 0.  1.
         21    1    1    2  505  502 -0.17716021121E+01 -0.51863675515E+02 -0.50707175812E+02  0.72554786822E+02  0.00000000000E+00 0. -1.
          2    1    1    2  501    0  0.38483018792E+02 -0.73985891729E+02  0.64763615654E+03  0.65298349610E+03  0.00000000000E+00 0.  1.
<scales pt_clust_3="70.20084" pt_clust_4="43.81105" pt_clust_5="51.83964" pt_clust_6="14000.00000"></scales>
<clustering>
<clus scale="   43.811">  1  4  2 -1</clus>
<clus scale="   51.840">  2  5  1 -1</clus>
<clus scale="   70.201">  2  3  1 -1</clus>
<clus scale="   51.840">  2  3  1 -1</clus>
</clustering>
</event>
<event>
 6    0  0.4189111E+002  0.1233739E+03  0.7546771E-02  0.1237633E+00
          1   -1    0    0  505    0 -0.00000000000E+00  0.00000000000E+00  0.21278806672E+04  0.21278806672E+04  0.00000000000E+00 0. -1.
         21   -1    0    0  501  502  0.00000000000E+00 -0.00000000000E+00 -0.25958941889E+03  0.25958941889E+03  0.00000000000E+00 0.  1.
         21    1    1    2  503  502 -0.63787110354E+02 -0.46855995620E+02 -0.21366363628E+03  0.22785177033E+03  0.00000000000E+00 0.  1.
         21    1    1    2  504  503 -0.53765391833E+02  0.96784156829E+02  0.48540860959E+02  0.12088881485E+03  0.00000000000E+00 0. -1.
         21    1    1    2  505  504  0.30958566109E+02  0.15737210854E+02  0.32171977128E+03  0.32358878821E+03  0.00000000000E+00 0. -1.
          1    1    1    2  501    0  0.86593936078E+02 -0.65665372062E+02  0.17116942523E+04  0.17151407127E+04  0.00000000000E+00 0. -1.
<scales pt_clust_3="79.01255" pt_clust_4="123.37389" pt_clust_5="34.72884" pt_clust_6="14000.00000"></scales>
<clustering>
<clus scale="   34.729">  1  5  2 -1</clus>
<clus scale="   79.013">  2  3  1 -1</clus>
<clus scale="  123.374">  2  4  1 -1</clus>
<clus scale="   79.013">  2  3  1 -1</clus>
</clustering>
</event>
<event>
 6    0  0.4189111E+002  0.4277002E+03  0.7546771E-02  0.1034589E+00
          1   -1    0    0  503    0 -0.00000000000E+00  0.00000000000E+00  0.10401451597E+04  0.10401451597E+04  0.00000000000E+00 0.  1.
         21   -1    0    0  505  502  0.00000000000E+00 -0.00000000000E+00 -0.71723795157E+03  0.71723795157E+03  0.00000000000E+00 0.  1.
         21    1    1    2  503  504 -0.43376924984E+03 -0.17923910716E+02 -0.34986976333E+03  0.55757141244E+03  0.00000000000E+00 0.  1.
         21    1    1    2  504  502  0.54164880413E+02 -0.13530468061E+03 -0.18850300054E+03  0.23827415318E+03  0.00000000000E+00 0.  1.
         21    1    1    2  505  501  0.25692022230E+03  0.65055007600E+02  0.43614980582E+03  0.51035948875E+03  0.00000000000E+00 0.  1.
          1    1    1    2  501    0  0.12268414712E+03  0.88173583721E+02  0.42513016622E+03  0.45117805692E+03  0.00000000000E+00 0.  1.
<scales pt_clust_3="409.57862" pt_clust_4="145.74358" pt_clust_5="93.00229" pt_clust_6="93.00229"></scales>
<clustering>
<clus scale="   93.002">  5  6 -1 -1</clus>
<clus scale="  145.744">  2  4  1 -1</clus>
<clus scale="  409.579">  2  3  1 -1</clus>
<clus scale="  145.744">  2  3  1 -1</clus>
</clustering>
</event>
<event>
 6    0  0.4189111E+002  0.2556907E+03  0.7546771E-02  0.1109760E+00
          2   -1    0    0  505    0 -0.00000000000E+00  0.00000000000E+00  0.19555066252E+04  0.19555066252E+04  0.00000000000E+00 0.  1.
         21   -1    0    0  501  502  0.00000000000E+00 -0.00000000000E+00 -0.57890765190E+03  0.57890765190E+03  0.00000000000E+00 0. -1.
         21    1    1    2  503  502 -0.16533308550E+03  0.20255123235E+03 -0.49464057479E+03  0.55949202775E+03  0.00000000000E+00 0. -1.
         21    1    1    2  504  503  0.25698061385E+03 -0.11679755340E+02  0.40824580271E+03  0.48253506402E+03  0.00000000000E+00 0. -1.
         21    1    1    2  505  504  0.47559339551E+01  0.41218557446E+02  0.15430932546E+03  0.15979035112E+03  0.00000000000E+00 0. -1.
          2    1    1    2  501    0 -0.96403462303E+02 -0.23209003445E+03  0.13086844199E+04  0.13325968342E+04  0.00000000000E+00 0.  1.
<scales pt_clust_3="255.69074" pt_clust_4="14000.00000" pt_clust_5="41.49203" pt_clust_6="222.18187"></scales>
<clustering>
<clus scale="   41.492">  1  5  2 -1</clus>
<clus scale="  222.182">  1  6  2 -1</clus>
<clus scale="  255.691">  2  3  1 -1</clus>
<clus scale="  255.691">  2  3  1 -1</clus>
</clustering>
</event>
<event>
 6    0  0.4189111E+002  0.1260893E+03  0.7546771E-02  0.1233377E+00
          2   -1    0    0  504    0 -0.00000000000E+00  0.00000000000E+00  0.14925300555E+04  0.14925300555E+04  0.00000000000E+00 0.  1.
         21   -1    0    0  503  502  0.00000000000E+00 -0.00000000000E+00 -0.37333156483E+03  0.37333156483E+03  0.00000000000E+00 0.  1.
         21    1    1    2  503  501  0.38391960612E+02 -0.46646863373E+01  0.18444353580E+03  0.18845455642E+03  0.00000000000E+00 0.  1.
         21    1    1    2  504  505  0.79251870070E+02  0.40080617666E+02 -0.37890416776E+02  0.96555675677E+02  0.00000000000E+00 0. -1.
         21    1    1    2  505  502 -0.13799886848E+03 -0.57728497828E+02 -0.28551551075E+03  0.32232805345E+03  0.00000000000E+00 0.  1.
          2    1    1    2  501    0  0.20355037801E+02  0.22312566500E+02  0.12581608824E+04  0.12585233348E+04  0.00000000000E+00 0.  1.
<scales pt_clust_3="56.14713" pt_clust_4="126.08926" pt_clust_5="14000.00000" pt_clust_6="30.20229"></scales>
<clustering>
<clus scale="   30.202">  1  6  2 -1</clus>
<clus scale="   56.147">  1  3  2 -1</clus>
<clus scale="  126.089">  1  4  2 -1</clus>
<clus scale="  126.089">  2  3  1 -1</clus>
</clustering>
</event>
<event>
 6    0  0.4189111E+002  0.9756120E+02  0.7546771E-02  0.1285510E+00
         21   -1    0    0  504  502  0.00000000000E+00  0.00000000000E+00  0.44477663277E+02  0.44477663277E+02  0.00000000000E+00 0. -1.
          2   -1    0    0  503    0 -0.00000000000E+00 -0.00000000000E+00 -0.34749474157E+04  0.34749474157E+04  0.00000000000E+00 0. -1.
         21    1    1    2  503  505 -0.15620274121E+02 -0.44171419129E+02 -0.39184795297E+03  0.39463898120E+03  0.00000000000E+00 0.  1.
         21    1    1    2  504  501  0.93082305969E+02 -0.87020784913E+01 -0.34578888510E+02  0.99678189115E+02  0.00000000000E+00 0. -1.
         21    1    1    2  505  502 -0.11942834508E+03 -0.39659107012E+00 -0.34293280481E+03  0.36313385343E+03  0.00000000000E+00 0.  1.
          2    1    1    2  501    0  0.41966313227E+02  0.53270088690E+02 -0.26611101062E+04  0.26619740553E+04  0.00000000000E+00 0. -1.
<scales pt_clust_3="46.85197" pt_clust_4="14000.00000" pt_clust_5="97.56120" pt_clust_6="32.24147"></scales>
<clustering>
<clus scale="   46.852">  2  3  1 -1</clus>
<clus scale="   32.241">  2  6  1 -1</clus>
<clus scale="   97.561">  2  5  1 -1</clus>
<clus scale="   97.561">  1  3  2 -1</clus>
</clustering>
</event>
<event>
 6    0  0.4189111E+002  0.1065486E+03  0.7546771E-02  0.1267098E+00
         21   -1    0    0  501  502  0.00000000000E+00  0.00000000000E+00  0.14928618921E+03  0.14928618921E+03  0.00000000000E+00 0.  1.
          2   -1    0    0  505    0 -0.00000000000E+00 -0.00000000000E+00 -0.10838451745E+04  0.10838451745E+04  0.00000000000E+00 0.  1.
         21    1    1    2  503  504 -0.93559947226E+01  0.97365335512E+02  0.13043140736E+02  0.98679616522E+02  0.00000000000E+00 0.  1.
         21    1    1    2  504  502 -0.47653549781E+02 -0.11180522000E+03  0.48174719751E+02  0.13073664999E+03  0.00000000000E+00 0.  1.
         21    1    1    2  505  503  0.22318259133E+02 -0.26704400507E+02 -0.79765394544E+03  0.79841282954E+03  0.00000000000E+00 0.  1.
          2    1    1    2  501    0  0.34691285371E+02  0.41144284996E+02 -0.19812290033E+03  0.20530226765E+03  0.00000000000E+00 0.  1.
<scales pt_clust_3="106.54860" pt_clust_4="14000.00000" pt_clust_5="34.80273" pt_clust_6="55.15092"></scales>
<clustering>
<clus scale="   34.803">  2  5  1 -1</clus>
<clus scale="   55.151">  2  6  1 -1</clus>
<clus scale="  106.549">  2  3  1 -1</clus>
<clus scale="  106.549">  1  3  2 -1</clus>
</clustering>
</event>
<event>
 6    0  0.4189111E+002  0.1622161E+03  0.7546771E-02  0.1186217E+00
         21   -1    0    0  503  502  0.00000000000E+00  0.00000000000E+00  0.16008174792E+03  0.16008174792E+03  0.00000000000E+00 0. -1.
          2   -1    0    0  505    0 -0.00000000000E+00 -0.00000000000E+00 -0.14138075059E+04  0.14138075059E+04  0.00000000000E+00 0. -1.
         21    1    1    2  503  504 -0.13981518586E+02 -0.27213221245E+02  0.12377384121E+03  0.12749904329E+03  0.00000000000E+00 0. -1.
         21    1    1    2  504  501  0.27380150500E+02 -0.53028167674E+02 -0.56811335987E+02  0.82396523622E+02  0.00000000000E+00 0. -1.
         21    1    1    2  505  502 -0.20714823439E+02  0.20986596873E+03 -0.84278733712E+03  0.86877115764E+03  0.00000000000E+00 0. -1.
          2    1    1    2  501    0  0.73161915252E+01 -0.12962457981E+03 -0.47790092609E+03  0.49522252928E+03  0.00000000000E+00 0. -1.
<scales pt_clust_3="30.59481" pt_clust_4="66.92008" pt_clust_5="162.21607" pt_clust_6="14000.00000"></scales>
<clustering>
<clus scale="   30.595">  1  3  2 -1</clus>
<clus scale="   66.920">  1  4  2 -1</clus>
<clus scale="  162.216">  1  5  2 -1</clus>
<clus scale="   30.595">  1  3  2 -1</clus>
</clustering>
</event>
<event>
 6    0  0.4189111E+002  0.1036714E+03  0.7546771E-02  0.1272760E+00
         21   -1    0    0  503  502  0.00000000000E+00  0.00000000000E+00  0.44379830845E+03  0.44379830845E+03  0.00000000000E+00 0.  1.
          1   -1    0    0  505    0 -0.00000000000E+00 -0.00000000000E+00 -0.40280097474E+03  0.40280097474E+03  0.00000000000E+00 0. -1.
         21    1    1    2  503  501  0.20272789074E+02 -0.71672235096E+02 -0.33178488920E+02  0.81539606250E+02  0.00000000000E+00 0.  1.
         21    1    1    2  504  502 -0.74344877568E+02 -0.24236340716E+02  0.18609646510E+03  0.20185751250E+03  0.00000000000E+00 0.  1.
         21    1    1    2  505  504  0.11944488509E+03  0.13039616701E+03  0.18576737790E+03  0.25647565115E+03  0.00000000000E+00 0.  1.
          1    1    1    2  501    0 -0.65372796598E+02 -0.34487591194E+02 -0.29768802037E+03  0.30672651329E+03  0.00000000000E+00 0. -1.
<scales pt_clust_3="14000.00000" pt_clust_4="83.90791" pt_clust_5="103.67136" pt_clust_6="73.91209"></scales>
<clustering>
<clus scale="   73.912">  2  6  1 -1</clus>
<clus scale="   83.908">  1  4  2 -1</clus>
<clus scale="  103.671">  1  5  2 -1</clus>
<clus scale="   83.908">  1  3  2 -1</clus>
</clustering>
</event>
<event>
 6    0  0.4189111E+002  0.8202975E+03  0.7546771E-02  0.9531093E-01
          2   -1    0    0  505    0 -0.00000000000E+00  0.00000000000E+00  0.60509816107E+03  0.60509816107E+03  0.00000000000E+00 0. -1.
         21   -1    0    0  504  502  0.00000000000E+00 -0.00000000000E+00 -0.10715931815E+04  0.10715931815E+04  0.00000000000E+00 0. -1.
         21    1    1    2  503  501  0.31272935061E+03  0.20447790402E+03 -0.15283905411E+03  0.40369621800E+03  0.00000000000E+00 0. -1.
         21    1    1    2  504  503  0.49796651621E+00  0.48082928712E+02 -0.29110789332E+02  0.56210800206E+02  0.00000000000E+00 0.  1.
         21    1    1    2  505  502 -0.64613445204E+03 -0.45483948033E+03 -0.23325594739E+03  0.82387925084E+03  0.00000000000E+00 0. -1.
          2    1    1    2  501    0  0.33290713491E+03  0.20227864759E+03 -0.51289229615E+02  0.39290507355E+03  0.00000000000E+00 0. -1.
<scales pt_clust_3="125.89366" pt_clust_4="46.09523" pt_clust_5="790.17003" pt_clust_6="125.89366"></scales>
<clustering>
<clus scale="   46.095">  3  4 -1 -1</clus>
<clus scale="  125.894">  3  6 -1 -1</clus>
<clus scale="  790.170">  2  5  1 -1</clus>
<clus scale="  790.170">  2  3  1 -1</clus>
</clustering>
</event>
<event>
 6    0  0.4189111E+002  0.1289133E+03  0.7546771E-02  0.1229077E+00
         21   -1    0    0  504  502  0.00000000000E+00  0.00000000000E+00  0.42344006099E+03  0.42344006099E+03  0.00000000000E+00 0. -1.
          1   -1    0    0  503    0 -0.00000000000E+00 -0.00000000000E+00 -0.69382499945E+03  0.69382499945E+03  0.00000000000E+00 0. -1.
         21    1    1    2  503  505  0.44658754152E+01  0.32761184282E+02 -0.33543681227E+02  0.47100082686E+02  0.00000000000E+00 0.  1.
         21    1    1    2  504  501 -0.48539047037E+02 -0.90578996220E+02  0.97157682395E+02  0.14142209478E+03  0.00000000000E+00 0. -1.
         21    1    1    2  505  502  0.67671015835E+02 -0.43723333445E+02  0.28749287632E+03  0.29856866916E+03  0.00000000000E+00 0. -1.
          1    1    1    2  501    0 -0.23597844213E+02  0.10154114538E+03 -0.62149181595E+03  0.63017421381E+03  0.00000000000E+00 0. -1.
<scales pt_clust_3="33.06417" pt_clust_4="128.91325" pt_clust_5="80.44886" pt_clust_6="14000.00000"></scales>
<clustering>
<clus scale="   33.064">  2  3  1 -1</clus>
<clus scale="   80.449">  1  5  2 -1</clus>
<clus scale="  128.913">  1  4  2 -1</clus>
<clus scale="   80.449">  1  3  2 -1</clus>
</clustering>
</event>
<event>
 6    0  0.4189111E+002  0.9214072E+02  0.7546771E-02  0.1297749E+00
         21   -1    0    0  504  502  0.00000000000E+00  0.00000000000E+00  0.97954270050E+02  0.97954270050E+02  0.00000000000E+00 0. -1.
          1   -1    0    0  505    0 -0.00000000000E+00 -0.00000000000E+00 -0.19934127464E+04  0.19934127464E+04  0.00000000000E+00 0. -1.
         21    1    1    2  503  502 -0.78117049509E+01 -0.38398648857E+02  0.42521903544E+02  0.57823794836E+02  0.00000000000E+00 0. -1.
         21    1    1    2  504  501 -0.68257989574E+02 -0.15067384857E+02  0.16969037325E+02  0.71931407986E+02  0.00000000000E+00 0. -1.
         21    1    1    2  505  503 -0.31765967502E+01 -0.33291163752E+02 -0.80043803984E+03  0.80113634793E+03  0.00000000000E+00 0.  1.
          1    1    1    2  501    0  0.79246291275E+02  0.86757197466E+02 -0.11545113774E+04  0.11604754657E+04  0.00000000000E+00 0. -1.
<scales pt_clust_3="39.39854" pt_clust_4="92.14072" pt_clust_5="33.44237" pt_clust_6="14000.00000"></scales>
<clustering>
<clus scale="   33.442">  2  5  1 -1</clus>
<clus scale="   39.399">  1  3  2 -1</clus>
<clus scale="   92.141">  1  4  2 -1</clus>
<clus scale="   39.399">  1  3  2 -1</clus>
</clustering>
</event>
<event>
 6    0  0.4189111E+002  0.1437607E+03  0.7546771E-02  0.1208356E+00
         21   -1    0    0  503  502  0.00000000000E+00  0.00000000000E+00  0.10217272086E+03  0.10217272086E+03  0.00000000000E+00 0.  1.
          2   -1    0    0  504    0 -0.00000000000E+00 -0.00000000000E+00 -0.52348886842E+04  0.52348886842E+04  0.00000000000E+00 0. -1.
         21    1    1    2  503  501 -0.17631944472E+02 -0.47838485526E+02  0.61506011710E+02  0.79889896981E+02  0.00000000000E+00 0.  1.
         21    1    1    2  504  505 -0.12728187951E+02  0.74757281112E+02 -0.31940121838E+04  0.31949122817E+04  0.00000000000E+00 0. -1.
         21    1    1    2  505  502  0.15706398115E+03  0.65618952018E+02 -0.23544078086E+03  0.29052934848E+03  0.00000000000E+00 0. -1.
          2    1    1    2  501    0 -0.12670384873E+03 -0.92537747605E+02 -0.17647690104E+04  0.17717298779E+04  0.00000000000E+00 0. -1.
<scales pt_clust_3="50.98437" pt_clust_4="75.20196" pt_clust_5="14000.00000" pt_clust_6="143.76070"></scales>
<clustering>
<clus scale="   50.984">  1  3  2 -1</clus>
<clus scale="   75.202">  2  4  1 -1</clus>
<clus scale="  143.761">  2  6  1 -1</clus>
<clus scale="   50.984">  1  3  2 -1</clus>
</clustering>
</event>
<event>
 6    0  0.4189111E+002  0.9057533E+02  0.7546771E-02  0.1301464E+00
          2   -1    0    0  504    0 -0.00000000000E+00  0.00000000000E+00  0.14988634705E+04  0.14988634705E+04  0.00000000000E+00 0. -1.
         21   -1    0    0  503  502  0.00000000000E+00 -0.00000000000E+00 -0.38485513111E+02  0.38485513111E+02  0.00000000000E+00 0. -1.
         21    1    1    2  503  501  0.96497215819E+02  0.73030541177E+02  0.16852763456E+03  0.20747707395E+03  0.00000000000E+00 0. -1.
         21    1    1    2  504  505 -0.32013699648E+02 -0.55896200459E+01  0.15410404010E+03  0.15749341571E+03  0.00000000000E+00 0. -1.
         21    1    1    2  505  502 -0.14464514662E+02 -0.33658549226E+02  0.38050989362E+01  0.36832036304E+02  0.00000000000E+00 0. -1.
          2    1    1    2  501    0 -0.50019001508E+02 -0.33782371905E+02  0.11339411838E+04  0.11355464577E+04  0.00000000000E+00 0. -1.
<scales pt_clust_3="90.57533" pt_clust_4="32.49801" pt_clust_5="36.90617" pt_clust_6="14000.00000"></scales>
<clustering>
<clus scale="   32.498">  1  4  2 -1</clus>
<clus scale="   36.906">  2  5  1 -1</clus>
<clus scale="   90.575">  2  3  1 -1</clus>
<clus scale="   36.906">  2  3  1 -1</clus>
</clustering>
</event>
<event>
 6    0  0.4189111E+002  0.1128724E+03  0.7546771E-02  0.1255341E+00
          2   -1    0    0  505    0 -0.00000000000E+00  0.00000000000E+00  0.34910893359E+03  0.34910893359E+03  0.00000000000E+00 0.  1.
         21   -1    0    0  503  502  0.00000000000E+00 -0.00000000000E+00 -0.14319011544E+04  0.14319011544E+04  0.00000000000E+00 0.  1.
         21    1    1    2  503  501 -0.10894546019E+03  0.23795750744E+02 -0.52512885254E+03  0.53683858171E+03  0.00000000000E+00 0.  1.
         21    1    1    2  504  502  0.11720547577E+02 -0.83388268110E+02 -0.88380930002E+03  0.88781183440E+03  0.00000000000E+00 0.  1.
         21    1    1    2  505  504 -0.97875111493E+01  0.30442571427E+02  0.59080654509E+02  0.67179381262E+02  0.00000000000E+00 0.  1.
          2    1    1    2  501    0  0.10701242376E+03  0.29149945939E+02  0.26706527723E+03  0.28918029063E+03  0.00000000000E+00 0.  1.
<scales pt_clust_3="112.87241" pt_clust_4="83.98744" pt_clust_5="31.97727" pt_clust_6="14000.00000"></scales>
<clustering>
<clus scale="   31.977">  1  5  2 -1</clus>
<clus scale="   83.987">  2  4  1 -1</clus>
<clus scale="  112.872">  2  3  1 -1</clus>
<clus scale="   83.987">  2  3  1 -1</clus>
</clustering>
</event>
<event>
 6    0  0.4189111E+002  0.6964643E+02  0.7546771E-02  0.1361300E+00
         21   -1    0    0  503  502  0.00000000000E+00  0.00000000000E+00  0.11494816584E+03  0.11494816584E+03  0.00000000000E+00 0.  1.
          1   -1    0    0  504    0 -0.00000000000E+00 -0.00000000000E+00 -0.39771650854E+03  0.39771650854E+03  0.00000000000E+00 0.  1.
         21    1    1    2  503  501 -0.65495672409E+02 -0.38621305548E+02  0.69104657273E+02  0.10274600724E+03  0.00000000000E+00 0.  1.
         21    1    1    2  504  505 -0.54085425056E+02 -0.19359689269E+01 -0.10752398774E+03  0.12037603216E+03  0.00000000000E+00 0. -1.
         21    1    1    2  505  502  0.32755616478E+02  0.59248795848E+01 -0.64079572661E+01  0.33898326291E+02  0.00000000000E+00 0.  1.
          1    1    1    2  501    0  0.86825480987E+02  0.34632394891E+02 -0.23794105497E+03  0.25564430869E+03  0.00000000000E+00 0.  1.
<scales pt_clust_3="50.48261" pt_clust_4="69.64643" pt_clust_5="33.28715" pt_clust_6="14000.00000"></scales>
<clustering>
<clus scale="   33.287">  1  5  2 -1</clus>
<clus scale="   50.483">  1  3  2 -1</clus>
<clus scale="   69.646">  2  4  1 -1</clus>
<clus scale="   33.287">  1  3  2 -1</clus>
</clustering>
</event>
<event>
 6    0  0.4189111E+002  0.4867051E+03  0.7546771E-02  0.1017309E+00
         21   -1    0    0  505  502  0.00000000000E+00  0.00000000000E+00  0.27834626878E+03  0.27834626878E+03  0.00000000000E+00 0.  1.
          1   -1    0    0  504    0 -0.00000000000E+00 -0.00000000000E+00 -0.34681826652E+04  0.34681826652E+04  0.00000000000E+00 0. -1.
         21    1    1    2  503  502 -0.40920764504E+03 -0.50232949592E+02 -0.19740520666E+03  0.45710290045E+03  0.00000000000E+00 0.  1.
         21    1    1    2  504  503 -0.37173854416E+03  0.92880030663E+02 -0.10195218745E+04  0.10891469588E+04  0.00000000000E+00 0.  1.
         21    1    1    2  505  501  0.13125022695E+03 -0.25162677253E+02 -0.11663538557E+02  0.13414850179E+03  0.00000000000E+00 0. -1.
          1    1    1    2  501    0  0.64969596225E+03 -0.17484403818E+02 -0.19612457767E+04  0.20661305729E+04  0.00000000000E+00 0. -1.
<scales pt_clust_3="337.08936" pt_clust_4="14000.00000" pt_clust_5="133.64050" pt_clust_6="486.70507"></scales>
<clustering>
<clus scale="  133.640">  1  5  2 -1</clus>
<clus scale="  337.089">  1  3  2 -1</clus>
<clus scale="  486.705">  1  6  2 -1</clus>
<clus scale="  133.640">  1  3  2 -1</clus>
</clustering>
</event>
<event>
 6    0  0.4189111E+002  0.1590957E+03  0.7546771E-02  0.1189721E+00
          1   -1    0    0  503    0 -0.00000000000E+00  0.00000000000E+00  0.86204651400E+03  0.86204651400E+03  0.00000000000E+00 0.  1.
         21   -1    0    0  504  502  0.00000000000E+00 -0.00000000000E+00 -0.24075319227E+03  0.24075319227E+03  0.00000000000E+00 0. -1.
         21    1    1    2  503  505  0.59132465506E+02  0.75808531545E+02  0.14282816697E+03  0.17217278302E+03  0.00000000000E+00 0. -1.
         21    1    1    2  504  501  0.17865115487E+02 -0.26432200016E+02 -0.96454740665E+02  0.10159399857E+03  0.00000000000E+00 0. -1.
         21    1    1    2  505  502 -0.17112049963E+03 -0.34850515864E+02 -0.61787934378E+02  0.18524182218E+03  0.00000000000E+00 0. -1.
          1    1    1    2  501    0  0.94122918635E+02 -0.14525815665E+02  0.63670782980E+03  0.64379110250E+03  0.00000000000E+00 0.  1.
<scales pt_clust_3="95.17530" pt_clust_4="31.90335" pt_clust_5="159.09571" pt_clust_6="14000.00000"></scales>
<clustering>
<clus scale="   31.903">  2  4  1 -1</clus>
<clus scale="   95.175">  1  3  2 -1</clus>
<clus scale="  159.096">  2  5  1 -1</clus>
<clus scale="   31.903">  2  3  1 -1</clus>
</clustering>
</event>
<event>
 6    0  0.4189111E+002  0.1136252E+03  0.7546771E-02  0.1254000E+00
         -1   -1    0    0    0  501 -0.00000000000E+00  0.00000000000E+00  0.13515825698E+04  0.13515825698E+04  0.00000000000E+00 0. -1.
         21   -1    0    0  505  502  0.00000000000E+00 -0.00000000000E+00 -0.13150505020E+03  0.13150505020E+03  0.00000000000E+00 0. -1.
         21    1    1    2  503  502  0.39348304362E+02  0.12409449884E+02 -0.67171534132E+02  0.78830822019E+02  0.00000000000E+00 0. -1.
         21    1    1    2  504  503  0.76544730188E+02 -0.33388165176E+02 -0.71434663927E+01  0.83814643145E+02  0.00000000000E+00 0. -1.
         21    1    1    2  505  501  0.59306978189E+02  0.88284108837E+01  0.13358462590E+03  0.14642442001E+03  0.00000000000E+00 0. -1.
         -1    1    1    2    0  504 -0.17520001274E+03  0.12150304408E+02  0.11608078942E+04  0.11740177348E+04  0.00000000000E+00 0. -1.
<scales pt_clust_3="41.25874" pt_clust_4="14000.00000" pt_clust_5="64.43571" pt_clust_6="113.62522"></scales>
<clustering>
<clus scale="   41.259">  2  3  1 -1</clus>
<clus scale="   64.436">  1  5  2 -1</clus>
<clus scale="  113.625">  1  6  2 -1</clus>
<clus scale="   41.259">  2  3  1 -1</clus>
</clustering>
</event>
<event>
 6    0  0.4189111E+002  0.1072575E+03  0.7546771E-02  0.1265735E+00
         21   -1    0    0  505  502  0.00000000000E+00  0.00000000000E+00  0.17227639084E+03  0.17227639084E+03  0.00000000000E+00 0.  1.
         -1   -1    0    0    0  501 -0.00000000000E+00 -0.00000000000E+00 -0.23858252078E+04  0.23858252078E+04  0.00000000000E+00 0. -1.
         21    1    1    2  503  502 -0.43650148388E+02 -0.11708187254E+02  0.92827748504E+02  0.10324440903E+03  0.00000000000E+00 0.  1.
         21    1    1    2  504  503  0.14283099706E+03  0.62999810821E+02 -0.24812970906E+02  0.15806755964E+03  0.00000000000E+00 0.  1.
         21    1    1    2  505  501 -0.78942190983E+02  0.35515658199E+02 -0.27622532545E+03  0.28947134904E+03  0.00000000000E+00 0. -1.
         -1    1    1    2    0  504 -0.20238657692E+02 -0.86807281766E+02 -0.20053382691E+04  0.20073182809E+04  0.00000000000E+00 0. -1.
<scales pt_clust_3="45.19311" pt_clust_4="107.25746" pt_clust_5="14000.00000" pt_clust_6="89.42113"></scales>
<clustering>
<clus scale="   45.193">  1  3  2 -1</clus>
<clus scale="   89.421">  2  6  1 -1</clus>
<clus scale="  107.257">  1  4  2 -1</clus>
<clus scale="   45.193">  1  3  2 -1</clus>
</clustering>
</event>
<event>
 6    0  0.4189111E+002  0.1890052E+03  0.7546771E-02  0.1159362E+00
         21   -1    0    0  503  502  0.00000000000E+00  0.00000000000E+00  0.20468519183E+03  0.20468519183E+03  0.00000000000E+00 0.  1.
          1   -1    0    0  505    0 -0.00000000000E+00 -0.00000000000E+00 -0.32523400110E+03  0.32523400110E+03  0.00000000000E+00 0.  1.
         21    1    1    2  503  501  0.23033311891E+02  0.20296923056E+02  0.45725005418E+01  0.31038787080E+02  0.00000000000E+00 0.  1.
         21    1    1    2  504  502 -0.37547085883E+02 -0.20835069118E+02  0.44672828832E+02  0.61964065387E+02  0.00000000000E+00 0.  1.
         21    1    1    2  505  504 -0.26834450936E+02 -0.18507130179E+03 -0.78957796787E+01  0.18717322950E+03  0.00000000000E+00 0.  1.
          1    1    1    2  501    0  0.41348224927E+02  0.18560944785E+03 -0.16189835897E+03  0.24974311096E+03  0.00000000000E+00 0.  1.
<scales pt_clust_3="30.70014" pt_clust_4="34.43555" pt_clust_5="189.00517" pt_clust_6="14000.00000"></scales>
<clustering>
<clus scale="   30.700">  1  3  2 -1</clus>
<clus scale="   34.436">  1  4  2 -1</clus>
<clus scale="  189.005">  1  5  2 -1</clus>
<clus scale="   30.700">  1  3  2 -1</clus>
</clustering>
</event>
<event>
 6    0  0.4189111E+002  0.1066493E+03  0.7546771E-02  0.1266904E+00
          2   -1    0    0  503    0 -0.00000000000E+00  0.00000000000E+00  0.10399761325E+04  0.10399761325E+04  0.00000000000E+00 0.  1.
         21   -1    0    0  505  502  0.00000000000E+00 -0.00000000000E+00 -0.28551328521E+03  0.28551328521E+03  0.00000000000E+00 0.  1.
         21    1    1    2  503  504 -0.78944580278E+02  0.34945269461E+02  0.24560234846E+03  0.26033427008E+03  0.00000000000E+00 0.  1.
         21    1    1    2  504  502 -0.91481489127E+02  0.29497790265E+02  0.28806936619E+02  0.10034352037E+03  0.00000000000E+00 0.  1.
         21    1    1    2  505  501  0.71231550931E+02  0.60882699287E+01 -0.23182752862E+03  0.24260050269E+03  0.00000000000E+00 0.  1.
          2    1    1    2  501    0  0.99194518474E+02 -0.70531329655E+02  0.71188109079E+03  0.72221112453E+03  0.00000000000E+00 0.  1.
<scales pt_clust_3="14000.00000" pt_clust_4="51.54123" pt_clust_5="71.49126" pt_clust_6="106.64928"></scales>
<clustering>
<clus scale="   71.491">  2  5  1 -1</clus>
<clus scale="   51.541">  2  4  1 -1</clus>
<clus scale="  106.649">  1  6  2 -1</clus>
<clus scale="   71.491">  2  3  1 -1</clus>
</clustering>
</event>
<event>
 6    0  0.4189111E+002  0.1230682E+03  0.7546771E-02  0.1238120E+00
         21   -1    0    0  504  502  0.00000000000E+00  0.00000000000E+00  0.12166143063E+04  0.12166143063E+04  0.00000000000E+00 0. -1.
          4   -1    0    0  503    0 -0.00000000000E+00 -0.00000000000E+00 -0.73799906045E+02  0.73799906045E+02  0.00000000000E+00 0.  1.
         21    1    1    2  503  502  0.87592833582E+02 -0.11835675004E+03  0.74152162670E+03  0.75599943627E+03  0.00000000000E+00 0. -1.
         21    1    1    2  504  505 -0.13513614605E+02  0.39937397123E+02  0.41116656856E+03  0.41332258657E+03  0.00000000000E+00 0. -1.
         21    1    1    2  505  501 -0.59589373677E+02  0.37132924468E+02  0.13480155161E+02  0.71494490123E+02  0.00000000000E+00 0.  1.
          4    1    1    2  501    0 -0.14489845300E+02  0.41286428450E+02 -0.23353950198E+02  0.49597699350E+02  0.00000000000E+00 0.  1.
<scales pt_clust_3="110.53178" pt_clust_4="42.16175" pt_clust_5="42.53209" pt_clust_6="42.53209"></scales>
<clustering>
<clus scale="   42.162">  1  4  2 -1</clus>
<clus scale="   42.532">  5  6 -1 -1</clus>
<clus scale="  110.532">  1  3  2 -1</clus>
<clus scale="   42.162">  1  3  2 -1</clus>
</clustering>
</event>
<event>
 6    0  0.4189111E+002  0.8245853E+02  0.7546771E-02  0.1322216E+00
          2   -1    0    0  504    0 -0.00000000000E+00  0.00000000000E+00  0.24589239551E+03  0.24589239551E+03  0.00000000000E+00 0.  1.
         21   -1    0    0  505  502  0.00000000000E+00 -0.00000000000E+00 -0.38828533300E+03  0.38828533300E+03  0.00000000000E+00 0.  1.
         21    1    1    2  503  502 -0.59198206560E+02 -0.13073364416E+02 -0.91075790823E+02  0.10940813585E+03  0.00000000000E+00 0. -1.
         21    1    1    2  504  503  0.75466393637E+01  0.29546932346E+02  0.56293228358E+02  0.64022656425E+02  0.00000000000E+00 0.  1.
         21    1    1    2  505  501  0.10817812965E+03  0.31706036047E+01 -0.26828435356E+03  0.28929060618E+03  0.00000000000E+00 0.  1.
          2    1    1    2  501    0 -0.56526562453E+02 -0.19644171534E+02  0.16067397853E+03  0.17145633006E+03  0.00000000000E+00 0.  1.
<scales pt_clust_3="14000.00000" pt_clust_4="30.49546" pt_clust_5="82.45853" pt_clust_6="50.23787"></scales>
<clustering>
<clus scale="   30.495">  1  4  2 -1</clus>
<clus scale="   50.238">  1  6  2 -1</clus>
<clus scale="   82.459">  1  5  2 -1</clus>
<clus scale="   82.459">  2  3  1 -1</clus>
</clustering>
</event>
<event>
 6    0  0.4189111E+002  0.1362893E+03  0.7546771E-02  0.1218411E+00
         21   -1    0    0  501  502  0.00000000000E+00  0.00000000000E+00  0.17660640780E+03  0.17660640780E+03  0.00000000000E+00 0. -1.
          2   -1    0    0  505    0 -0.00000000000E+00 -0.00000000000E+00 -0.17774613780E+04  0.17774613780E+04  0.00000000000E+00 0. -1.
         21    1    1    2  503  504  0.22567286292E+02  0.12006453432E+03 -0.37806150310E+02  0.12788307087E+03  0.00000000000E+00 0.  1.
         21    1    1    2  504  502  0.90299615525E+02 -0.27539225715E+02  0.10982074856E+03  0.14482066955E+03  0.00000000000E+00 0. -1.
         21    1    1    2  505  503 -0.60680304859E+02 -0.16988326721E+01 -0.46180988905E+03  0.46578252335E+03  0.00000000000E+00 0.  1.
          2    1    1    2  501    0 -0.52186596958E+02 -0.90826475936E+02 -0.12110596794E+04  0.12155815220E+04  0.00000000000E+00 0. -1.
<scales pt_clust_3="14000.00000" pt_clust_4="93.63943" pt_clust_5="60.70408" pt_clust_6="136.28932"></scales>
<clustering>
<clus scale="   60.704">  2  5  1 -1</clus>
<clus scale="   93.639">  1  4  2 -1</clus>
<clus scale="  136.289">  2  6  1 -1</clus>
<clus scale="   93.639">  1  3  2 -1</clus>
</clustering>
</event>
<event>
 6    0  0.4189111E+002  0.8199865E+02  0.7546771E-02  0.1323473E+00
          1   -1    0    0  505    0 -0.00000000000E+00  0.00000000000E+00  0.31225959657E+03  0.31225959657E+03  0.00000000000E+00 0.  1.
         21   -1    0    0  501  502  0.00000000000E+00 -0.00000000000E+00 -0.19807800843E+03  0.19807800843E+03  0.00000000000E+00 0.  1.
         21    1    1    2  503  504 -0.19813068935E+02  0.56572523868E+02  0.12009454215E+03  0.13422260320E+03  0.00000000000E+00 0.  1.
         21    1    1    2  504  502  0.81304132859E+02 -0.94316971704E+01 -0.15858899388E+03  0.17846508877E+03  0.00000000000E+00 0.  1.
         21    1    1    2  505  503  0.25432060298E+02 -0.23029314988E+02  0.31434790979E+02  0.46532624294E+02  0.00000000000E+00 0. -1.
          1    1    1    2  501    0 -0.86923124221E+02 -0.24111511709E+02  0.12124124889E+03  0.15111728873E+03  0.00000000000E+00 0.  1.
<scales pt_clust_3="46.54573" pt_clust_4="81.99865" pt_clust_5="34.30946" pt_clust_6="14000.00000"></scales>
<clustering>
<clus scale="   34.309">  1  5  2 -1</clus>
<clus scale="   46.546">  1  3  2 -1</clus>
<clus scale="   81.999">  2  4  1 -1</clus>
<clus scale="   81.999">  2  3  1 -1</clus>
</clustering>
</event>
<event>
 6    0  0.4189111E+002  0.9489329E+02  0.7546771E-02  0.1291417E+00
         -2   -1    0    0    0  501 -0.00000000000E+00  0.00000000000E+00  0.28537181529E+03  0.28537181529E+03  0.00000000000E+00 0. -1.
         21   -1    0    0  505  502  0.00000000000E+00 -0.00000000000E+00 -0.20863688710E+03  0.20863688710E+03  0.00000000000E+00 0.  1.
         21    1    1    2  503  502 -0.56558057916E+02  0.99642416813E+02 -0.94265352536E+02  0.14836907303E+03  0.00000000000E+00 0.  1.
         21    1    1    2  504  501 -0.24494169724E+02 -0.19253905128E+02  0.17535540418E+03  0.17810164229E+03  0.00000000000E+00 0. -1.
         21    1    1    2  505  504  0.67291964157E+02 -0.49010037053E+02 -0.59702842137E+02  0.10244326006E+03  0.00000000000E+00 0.  1.
         -2    1    1    2    0  503  0.13760263483E+02 -0.31378474633E+02  0.55347718684E+02  0.65094727014E+02  0.00000000000E+00 0. -1.
<scales pt_clust_3="14000.00000" pt_clust_4="31.15569" pt_clust_5="94.89329" pt_clust_6="42.05136"></scales>
<clustering>
<clus scale="   31.156">  1  4  2 -1</clus>
<clus scale="   42.051">  1  6  2 -1</clus>
<clus scale="   94.893">  2  5  1 -1</clus>
<clus scale="   94.893">  2  3  1 -1</clus>
</clustering>
</event>
<event>
 6    0  0.4189111E+002  0.7260669E+02  0.7546771E-02  0.1351447E+00
         21   -1    0    0  505  502  0.00000000000E+00  0.00000000000E+00  0.89972741358E+03  0.89972741358E+03  0.00000000000E+00 0.  1.
          2   -1    0    0  504    0 -0.00000000000E+00 -0.00000000000E+00 -0.61085344818E+03  0.61085344818E+03  0.00000000000E+00 0. -1.
         21    1    1    2  503  502 -0.63479213235E+02  0.14949161864E+02 -0.84099761009E+02  0.10642301328E+03  0.00000000000E+00 0. -1.
         21    1    1    2  504  503 -0.70942349635E+00 -0.54621213165E+02 -0.79579816659E+01  0.55202442713E+02  0.00000000000E+00 0.  1.
         21    1    1    2  505  501 -0.19446948316E+02  0.70022752411E+02  0.85930799603E+03  0.86237555722E+03  0.00000000000E+00 0.  1.
          2    1    1    2  501    0  0.83635585048E+02 -0.30350701111E+02 -0.47837628795E+03  0.48657984855E+03  0.00000000000E+00 0. -1.
<scales pt_clust_3="63.87517" pt_clust_4="54.62582" pt_clust_5="72.60669" pt_clust_6="14000.00000"></scales>
<clustering>
<clus scale="   54.626">  2  4  1 -1</clus>
<clus scale="   63.875">  2  3  1 -1</clus>
<clus scale="   72.607">  1  5  2 -1</clus>
<clus scale="   72.607">  1  3  2 -1</clus>
</clustering>
</event>
<event>
 6    0  0.4189111E+002  0.1593750E+03  0.7546771E-02  0.1189404E+00
         21   -1    0    0  503  502  0.00000000000E+00  0.00000000000E+00  0.82598343416E+03  0.82598343416E+03  0.00000000000E+00 0.  1.
         -2   -1    0    0    0  501 -0.00000000000E+00 -0.00000000000E+00 -0.10471250675E+03  0.10471250675E+03  0.00000000000E+00 0.  1.
         21    1    1    2  503  505  0.78564245466E+02  0.67626670920E+01  0.27508968886E+03  0.28616850149E+03  0.00000000000E+00 0.  1.
         21    1    1    2  504  502  0.62230464175E+02 -0.11741539097E+02 -0.12256611631E+01  0.63340324101E+02  0.00000000000E+00 0.  1.
         21    1    1    2  505  501 -0.20395767096E+03  0.65125220671E+02  0.44512359478E+03  0.49393829629E+03  0.00000000000E+00 0.  1.
         -2    1    1    2    0  504  0.63162961315E+02 -0.60146348666E+02  0.22833049371E+01  0.87248819025E+02  0.00000000000E+00 0.  1.
<scales pt_clust_3="78.85477" pt_clust_4="35.99677" pt_clust_5="153.67429" pt_clust_6="35.99677"></scales>
<clustering>
<clus scale="   35.997">  4  6 -1 -1</clus>
<clus scale="   78.855">  1  3  2 -1</clus>
<clus scale="  153.674">  1  5  2 -1</clus>
<clus scale="   78.855">  1  3  2 -1</clus>
</clustering>
</event>
<event>
 6    0  0.4189111E+002  0.6745009E+02  0.7546771E-02  0.1368985E+00
          1   -1    0    0  505    0 -0.00000000000E+00  0.00000000000E+00  0.78792570068E+03  0.78792570068E+03  0.00000000000E+00 0. -1.
         21   -1    0    0  503  502  0.00000000000E+00 -0.00000000000E+00 -0.11579440865E+03  0.11579440865E+03  0.00000000000E+00 0.  1.
         21    1    1    2  503  504  0.58056140501E+02 -0.32144426108E+02 -0.41458235320E+02  0.78246820098E+02  0.00000000000E+00 0.  1.
         21    1    1    2  504  501 -0.17409572941E+01  0.74982491199E+02  0.99350021535E+02  0.12448225455E+03  0.00000000000E+00 0.  1.
         21    1    1    2  505  502 -0.78696932727E+02 -0.95718544520E+01 -0.59564906153E+01  0.79500360997E+02  0.00000000000E+00 0.  1.
          1    1    1    2  501    0  0.22381749519E+02 -0.33266210639E+02  0.62019599643E+03  0.62149067368E+03  0.00000000000E+00 0. -1.
<scales pt_clust_3="67.45009" pt_clust_4="54.34030" pt_clust_5="14000.00000" pt_clust_6="40.09468"></scales>
<clustering>
<clus scale="   40.095">  1  6  2 -1</clus>
<clus scale="   54.340">  1  4  2 -1</clus>
<clus scale="   67.450">  2  3  1 -1</clus>
<clus scale="   67.450">  2  3  1 -1</clus>
</clustering>
</event>
<event>
 6    0  0.4189111E+002  0.1109045E+03  0.7546771E-02  0.1258904E+00
          2   -1    0    0  504    0 -0.00000000000E+00  0.00000000000E+00  0.17055295780E+03  0.17055295780E+03  0.00000000000E+00 0. -1.
         21   -1    0    0  503  502  0.00000000000E+00 -0.00000000000E+00 -0.11487352421E+04  0.11487352421E+04  0.00000000000E+00 0. -1.
         21    1    1    2  503  505 -0.84310447537E+00  0.34677636976E+02 -0.38849759764E+03  0.39004311647E+03  0.00000000000E+00 0.  1.
         21    1    1    2  504  502  0.29714074364E+02  0.20222421878E+02  0.93662223283E+01  0.37142949299E+02  0.00000000000E+00 0. -1.
         21    1    1    2  505  501 -0.10406407751E+03 -0.73408780042E+02 -0.72942815730E+03  0.74046175991E+03  0.00000000000E+00 0. -1.
          2    1    1    2  501    0  0.75193107626E+02  0.18508721188E+02  0.13037724836E+03  0.15164037419E+03  0.00000000000E+00 0. -1.
<scales pt_clust_3="34.68788" pt_clust_4="36.29059" pt_clust_5="110.90451" pt_clust_6="14000.00000"></scales>
<clustering>
<clus scale="   34.688">  2  3  1 -1</clus>
<clus scale="   36.291">  1  4  2 -1</clus>
<clus scale="  110.905">  2  5  1 -1</clus>
<clus scale="   34.688">  2  3  1 -1</clus>
</clustering>
</event>
<event>
 6    0  0.4189111E+002  0.1379232E+03  0.7546771E-02  0.1216151E+00
         21   -1    0    0  504  502  0.00000000000E+00  0.00000000000E+00  0.15445767187E+03  0.15445767187E+03  0.00000000000E+00 0.  1.
         -2   -1    0    0    0  501 -0.00000000000E+00 -0.00000000000E+00 -0.11148839370E+04  0.11148839370E+04  0.00000000000E+00 0.  1.
         21    1    1    2  503  505  0.16003373049E+03  0.58921989709E+02 -0.42781389723E+01  0.17058985386E+03  0.00000000000E+00 0.  1.
         21    1    1    2  504  501  0.13654847547E+02 -0.52322140112E+02 -0.16545778376E+03  0.17406992679E+03  0.00000000000E+00 0.  1.
         21    1    1    2  505  502 -0.11741439652E+03  0.75891531340E+02 -0.12780309089E+02  0.14038875076E+03  0.00000000000E+00 0.  1.
         -2    1    1    2    0  503 -0.56274181517E+02 -0.82491380937E+02 -0.77791003332E+03  0.78429307748E+03  0.00000000000E+00 0.  1.
<scales pt_clust_3="137.92317" pt_clust_4="54.07459" pt_clust_5="14000.00000" pt_clust_6="133.53989"></scales>
<clustering>
<clus scale="   54.075">  2  4  1 -1</clus>
<clus scale="  133.540">  2  6  1 -1</clus>
<clus scale="  137.923">  2  3  1 -1</clus>
<clus scale="  137.923">  1  3  2 -1</clus>
</clustering>
</event>
<event>
 6    0  0.4189111E+002  0.1576012E+03  0.7546771E-02  0.1191432E+00
         21   -1    0    0  503  502  0.00000000000E+00  0.00000000000E+00  0.80680825556E+03  0.80680825556E+03  0.00000000000E+00 0. -1.
         -3   -1    0    0    0  501 -0.00000000000E+00 -0.00000000000E+00 -0.91983736525E+03  0.91983736525E+03  0.00000000000E+00 0.  1.
         21    1    1    2  503  501  0.55007714289E+02  0.42304699188E+02  0.18942916244E+03  0.20173979227E+03  0.00000000000E+00 0. -1.
         21    1    1    2  504  505 -0.60999382009E+02 -0.23551001031E+02 -0.22651874098E+03  0.23576750046E+03  0.00000000000E+00 0.  1.
         21    1    1    2  505  502  0.83756906094E+02 -0.10615959207E+02  0.60140178957E+03  0.60729896295E+03  0.00000000000E+00 0. -1.
         -3    1    1    2    0  504 -0.77765238374E+02 -0.81377389504E+01 -0.67734132071E+03  0.68183936512E+03  0.00000000000E+00 0.  1.
<scales pt_clust_3="69.39406" pt_clust_4="63.22182" pt_clust_5="141.62832" pt_clust_6="63.22182"></scales>
<clustering>
<clus scale="   63.222">  4  6 -1 -1</clus>
<clus scale="   69.394">  1  3  2 -1</clus>
<clus scale="  141.628">  1  5  2 -1</clus>
<clus scale="   69.394">  1  3  2 -1</clus>
</clustering>
</event>
<event>
 6    0  0.4189111E+002  0.2365424E+03  0.7546771E-02  0.1122118E+00
         21   -1    0    0  504  502  0.00000000000E+00  0.00000000000E+00  0.53085080501E+02  0.53085080501E+02  0.00000000000E+00 0. -1.
          1   -1    0    0  505    0 -0.00000000000E+00 -0.00000000000E+00 -0.36113843047E+04  0.36113843047E+04  0.00000000000E+00 0.  1.
         21    1    1    2  503  502 -0.82567597388E+01  0.29341983367E+02 -0.16580055686E+02  0.34699053529E+02  0.00000000000E+00 0. -1.
         21    1    1    2  504  501  0.10795520976E+03  0.57145220320E+02 -0.11636389964E+04  0.11700323147E+04  0.00000000000E+00 0. -1.
         21    1    1    2  505  503 -0.19386949244E+03 -0.90409997827E+02 -0.24774061937E+03  0.32731447003E+03  0.00000000000E+00 0. -1.
          1    1    1    2  501    0  0.94171042418E+02  0.39227941403E+01 -0.21303395527E+04  0.21324235469E+04  0.00000000000E+00 0.  1.
<scales pt_clust_3="30.48157" pt_clust_4="93.25886" pt_clust_5="211.22644" pt_clust_6="93.25886"></scales>
<clustering>
<clus scale="   30.482">  1  3  2 -1</clus>
<clus scale="   93.259">  4  6 -1 -1</clus>
<clus scale="  211.226">  1  5  2 -1</clus>
<clus scale="   30.482">  1  3  2 -1</clus>
</clustering>
</event>
<event>
 6    0  0.4189111E+002  0.1736575E+03  0.7546771E-02  0.1174086E+00
          1   -1    0    0  505    0 -0.00000000000E+00  0.00000000000E+00  0.13776112922E+03  0.13776112922E+03  0.00000000000E+00 0. -1.
         21   -1    0    0  503  502  0.00000000000E+00 -0.00000000000E+00 -0.27039505870E+03  0.27039505870E+03  0.00000000000E+00 0.  1.
         21    1    1    2  503  501 -0.49207702498E+02 -0.51887599805E+02  0.46256638977E+01  0.71659736011E+02  0.00000000000E+00 0.  1.
         21    1    1    2  504  502  0.11673877497E+03  0.45496721559E+02 -0.12432100180E+03  0.17650383776E+03  0.00000000000E+00 0.  1.
         21    1    1    2  505  504  0.14195029153E+02  0.46121544233E+02 -0.42633693658E+02  0.64391983430E+02  0.00000000000E+00 0.  1.
          1    1    1    2  501    0 -0.81726101624E+02 -0.39730665988E+02  0.29695102086E+02  0.95600630722E+02  0.00000000000E+00 0. -1.
<scales pt_clust_3="31.49556" pt_clust_4="42.18020" pt_clust_5="42.18020" pt_clust_6="163.70130"></scales>
<clustering>
<clus scale="   31.496">  3  6 -1 -1</clus>
<clus scale="   42.180">  4  5 -1 -1</clus>
<clus scale="  163.701">  1  3  2 -1</clus>
<clus scale="  173.657">  2  3  1 -1</clus>
</clustering>
</event>
<event>
 6    0  0.4189111E+002  0.1675704E+03  0.7546771E-02  0.1180405E+00
         21   -1    0    0  503  502  0.00000000000E+00  0.00000000000E+00  0.59975804597E+03  0.59975804597E+03  0.00000000000E+00 0.  1.
          4   -1    0    0  504    0 -0.00000000000E+00 -0.00000000000E+00 -0.54542622964E+03  0.54542622964E+03  0.00000000000E+00 0. -1.
         21    1    1    2  503  505 -0.15904377321E+01 -0.93036222162E+02  0.50250298698E+03  0.51104551662E+03  0.00000000000E+00 0.  1.
         21    1    1    2  504  502  0.29044850284E+02 -0.68534841732E+02  0.61811102190E+02  0.96753502331E+02  0.00000000000E+00 0. -1.
         21    1    1    2  505  501 -0.17868100157E+02  0.95160578281E+02 -0.23147785564E+03  0.25091194135E+03  0.00000000000E+00 0. -1.
          4    1    1    2  501    0 -0.95863123951E+01  0.66410485614E+02 -0.27850441720E+03  0.28647331531E+03  0.00000000000E+00 0. -1.
<scales pt_clust_3="161.98088" pt_clust_4="74.43539" pt_clust_5="35.72865" pt_clust_6="35.72865"></scales>
<clustering>
<clus scale="   35.729">  5  6 -1 -1</clus>
<clus scale="   74.435">  1  4  2 -1</clus>
<clus scale="  161.981">  1  3  2 -1</clus>
<clus scale="   74.435">  1  3  2 -1</clus>
</clustering>
</event>
<event>
 6    0  0.4189111E+002  0.2311433E+03  0.7546771E-02  0.1125838E+00
         21   -1    0    0  503  502  0.00000000000E+00  0.00000000000E+00  0.14071492763E+03  0.14071492763E+03  0.00000000000E+00 0. -1.
          2   -1    0    0  505    0 -0.00000000000E+00 -0.00000000000E+00 -0.28806280146E+04  0.28806280146E+04  0.00000000000E+00 0. -1.
         21    1    1    2  503  504  0.26561078526E+03  0.69534598693E+02 -0.67130817174E+02  0.28264942291E+03  0.00000000000E+00 0. -1.
         21    1    1    2  504  501 -0.15834672323E+03 -0.68857143211E+02 -0.21029834628E+03  0.27210362985E+03  0.00000000000E+00 0. -1.
         21    1    1    2  505  502 -0.29619646361E+02  0.71000915304E+01 -0.16541230308E+03  0.16819323637E+03  0.00000000000E+00 0.  1.
          2    1    1    2  501    0 -0.77644415659E+02 -0.77775470127E+01 -0.22970716204E+04  0.22983966531E+04  0.00000000000E+00 0. -1.
<scales pt_clust_3="231.14327" pt_clust_4="14000.00000" pt_clust_5="30.45874" pt_clust_6="102.73788"></scales>
<clustering>
<clus scale="   30.459">  2  5  1 -1</clus>
<clus scale="  102.738">  2  6  1 -1</clus>
<clus scale="  231.143">  1  3  2 -1</clus>
<clus scale="  231.143">  1  3  2 -1</clus>
</clustering>
</event>
<event>
 6    0  0.4189111E+002  0.1216606E+03  0.7546771E-02  0.1240382E+00
          2   -1    0    0  504    0 -0.00000000000E+00  0.00000000000E+00  0.38822946136E+03  0.38822946136E+03  0.00000000000E+00 0. -1.
         21   -1    0    0  505  502  0.00000000000E+00 -0.00000000000E+00 -0.90485441978E+02  0.90485441978E+02  0.00000000000E+00 0. -1.
         21    1    1    2  503  501  0.57223750442E+02 -0.86537178944E+01  0.10719029758E+02  0.58858661614E+02  0.00000000000E+00 0.  1.
         21    1    1    2  504  502 -0.33609088317E+02  0.45026791277E+02  0.98389494218E+02  0.11330258304E+03  0.00000000000E+00 0. -1.
         21    1    1    2  505  503  0.64154190042E+02 -0.15145755983E+02 -0.28177784319E+02  0.71687806169E+02  0.00000000000E+00 0. -1.
          2    1    1    2  501    0 -0.87768852167E+02 -0.21227317400E+02  0.21681327972E+03  0.23486585252E+03  0.00000000000E+00 0. -1.
<scales pt_clust_3="35.53897" pt_clust_4="56.18703" pt_clust_5="35.53897" pt_clust_6="115.59733"></scales>
<clustering>
<clus scale="   35.539">  3  5 -1 -1</clus>
<clus scale="   56.187">  1  4  2 -1</clus>
<clus scale="  115.597">  1  6  2 -1</clus>
<clus scale="  121.661">  2  3  1 -1</clus>
</clustering>
</event>
<event>
 6    0  0.4189111E+002  0.1428059E+03  0.7546771E-02  0.1209603E+00
         21   -1    0    0  504  502  0.00000000000E+00  0.00000000000E+00  0.26087616104E+04  0.26087616104E+04  0.00000000000E+00 0.  1.
         -3   -1    0    0    0  501 -0.00000000000E+00 -0.00000000000E+00 -0.39028560545E+03  0.39028560545E+03  0.00000000000E+00 0. -1.
         21    1    1    2  503  501  0.58656570937E+02  0.16557252817E+02  0.13245279953E+02  0.62371254405E+02  0.00000000000E+00 0. -1.
         21    1    1    2  504  503 -0.23129806343E+02  0.14155214763E+03  0.25068596707E+04  0.25109594594E+04  0.00000000000E+00 0.  1.
         21    1    1    2  505  502 -0.96109938215E+02 -0.12587725874E+03 -0.51793336193E+02  0.16662759125E+03  0.00000000000E+00 0. -1.
         -3    1    1    2    0  505  0.60583173621E+02 -0.32232141700E+02 -0.24983560951E+03  0.25908891073E+03  0.00000000000E+00 0. -1.
<scales pt_clust_3="60.94863" pt_clust_4="14000.00000" pt_clust_5="142.80588" pt_clust_6="103.48900"></scales>
<clustering>
<clus scale="   60.949">  2  3  1 -1</clus>
<clus scale="  103.489">  2  6  1 -1</clus>
<clus scale="  142.806">  2  5  1 -1</clus>
<clus scale="  142.806">  1  3  2 -1</clus>
</clustering>
</event>
<event>
 6    0  0.4189111E+002  0.1051451E+03  0.7546771E-02  0.1269834E+00
         21   -1    0    0  505  502  0.00000000000E+00  0.00000000000E+00  0.38821596941E+02  0.38821596941E+02  0.00000000000E+00 0. -1.
          2   -1    0    0  504    0 -0.00000000000E+00 -0.00000000000E+00 -0.22111664734E+04  0.22111664734E+04  0.00000000000E+00 0.  1.
         21    1    1    2  503  502 -0.73312378605E+02 -0.10810139860E+03 -0.14939597125E+03  0.19844337596E+03  0.00000000000E+00 0. -1.
         21    1    1    2  504  503  0.22990373352E+02  0.35926453885E+02 -0.29100324371E+03  0.29411248734E+03  0.00000000000E+00 0.  1.
         21    1    1    2  505  501  0.33765663451E+02  0.87764546553E+01 -0.12989012838E+02  0.37227149221E+02  0.00000000000E+00 0. -1.
          2    1    1    2  501    0  0.16556341802E+02  0.63398490062E+02 -0.17189566486E+04  0.17202050578E+04  0.00000000000E+00 0.  1.
<scales pt_clust_3="105.14508" pt_clust_4="44.16444" pt_clust_5="34.88762" pt_clust_6="14000.00000"></scales>
<clustering>
<clus scale="   34.888">  1  5  2 -1</clus>
<clus scale="   44.164">  2  4  1 -1</clus>
<clus scale="  105.145">  1  3  2 -1</clus>
<clus scale="   34.888">  1  3  2 -1</clus>
</clustering>
</event>
<event>
 6    0  0.4189111E+002  0.1603742E+03  0.7546771E-02  0.1188275E+00
         21   -1    0    0  503  502  0.00000000000E+00  0.00000000000E+00  0.20848152011E+03  0.20848152011E+03  0.00000000000E+00 0.  1.
          2   -1    0    0  504    0 -0.00000000000E+00 -0.00000000000E+00 -0.38201655858E+03  0.38201655858E+03  0.00000000000E+00 0.  1.
         21    1    1    2  503  505  0.39296709115E+02  0.65357530220E+01 -0.47713730753E+01  0.40121233977E+02  0.00000000000E+00 0.  1.
         21    1    1    2  504  502 -0.89781827062E+02 -0.14936808169E+03  0.12647078347E+03  0.21532872398E+03  0.00000000000E+00 0.  1.
         21    1    1    2  505  501  0.82001949681E+01  0.60537276013E+02 -0.79111157144E+02  0.99952889749E+02  0.00000000000E+00 0.  1.
          2    1    1    2  501    0  0.42284922979E+02  0.82295052651E+02 -0.21612329173E+03  0.23509523099E+03  0.00000000000E+00 0.  1.
<scales pt_clust_3="39.83651" pt_clust_4="153.54427" pt_clust_5="37.62509" pt_clust_6="37.62509"></scales>
<clustering>
<clus scale="   37.625">  5  6 -1 -1</clus>
<clus scale="   39.837">  1  3  2 -1</clus>
<clus scale="  153.544">  1  4  2 -1</clus>
<clus scale="   39.837">  1  3  2 -1</clus>
</clustering>
</event>
<event>
 6    0  0.4189111E+002  0.2628827E+03  0.7546771E-02  0.1105424E+00
         21   -1    0    0  504  502  0.00000000000E+00  0.00000000000E+00  0.54590128485E+03  0.54590128485E+03  0.00000000000E+00 0.  1.
         -2   -1    0    0    0  501 -0.00000000000E+00 -0.00000000000E+00 -0.85930917742E+03  0.85930917742E+03  0.00000000000E+00 0.  1.
         21    1    1    2  503  505 -0.95826266880E+02 -0.14896555538E+02 -0.58162852066E+02  0.11308182061E+03  0.00000000000E+00 0.  1.
         21    1    1    2  504  503  0.54537037420E+02 -0.25567753191E+03  0.43460139016E+03  0.50717221642E+03  0.00000000000E+00 0.  1.
         21    1    1    2  505  501  0.63632046806E+02 -0.20554725838E+02 -0.56493072497E+02  0.87538570785E+02  0.00000000000E+00 0.  1.
         -2    1    1    2    0  502 -0.22342817345E+02  0.29112881329E+03 -0.63335335817E+03  0.69741785446E+03  0.00000000000E+00 0.  1.
<scales pt_clust_3="90.54155" pt_clust_4="262.88265" pt_clust_5="66.86953" pt_clust_6="14000.00000"></scales>
<clustering>
<clus scale="   66.870">  2  5  1 -1</clus>
<clus scale="   90.542">  2  3  1 -1</clus>
<clus scale="  262.883">  1  4  2 -1</clus>
<clus scale="  262.883">  1  3  2 -1</clus>
</clustering>
</event>
<event>
 6    0  0.4189111E+002  0.9157981E+02  0.7546771E-02  0.1299070E+00
          2   -1    0    0  505    0 -0.00000000000E+00  0.00000000000E+00  0.13692967461E+04  0.13692967461E+04  0.00000000000E+00 0.  1.
         21   -1    0    0  503  502  0.00000000000E+00 -0.00000000000E+00 -0.52120944127E+02  0.52120944127E+02  0.00000000000E+00 0.  1.
         21    1    1    2  503  504  0.23358842255E+02 -0.76252682408E+02  0.29509955273E+02  0.85034960729E+02  0.00000000000E+00 0.  1.
         21    1    1    2  504  501  0.39177141638E+02 -0.56943537689E+02  0.51776089701E+03  0.52235405750E+03  0.00000000000E+00 0.  1.
         21    1    1    2  505  502 -0.93810643406E+02  0.12666240601E+03  0.26658441067E+03  0.30969509187E+03  0.00000000000E+00 0.  1.
          2    1    1    2  501    0  0.31274659512E+02  0.65338140891E+01  0.50332053906E+03  0.50433358017E+03  0.00000000000E+00 0.  1.
<scales pt_clust_3="91.57981" pt_clust_4="78.55801" pt_clust_5="14000.00000" pt_clust_6="31.94988"></scales>
<clustering>
<clus scale="   31.950">  1  6  2 -1</clus>
<clus scale="   78.558">  1  4  2 -1</clus>
<clus scale="   91.580">  2  3  1 -1</clus>
<clus scale="   91.580">  2  3  1 -1</clus>
</clustering>
</event>
<event>
 6    0  0.4189111E+002  0.2058293E+03  0.7546771E-02  0.1144912E+00
         21   -1    0    0  505  502  0.00000000000E+00  0.00000000000E+00  0.15070115322E+04  0.15070115322E+04  0.00000000000E+00 0. -1.
          1   -1    0    0  503    0 -0.00000000000E+00 -0.00000000000E+00 -0.19335714207E+03  0.19335714207E+03  0.00000000000E+00 0. -1.
         21    1    1    2  503  504 -0.44883055706E+02  0.57553578911E+02 -0.74005823049E+02  0.10394116114E+03  0.00000000000E+00 0. -1.
         21    1    1    2  504  502  0.66691160551E+02  0.19217888301E+02  0.96843699479E+03  0.97092082633E+03  0.00000000000E+00 0. -1.
         21    1    1    2  505  501  0.18857905489E+02 -0.22988220741E+03  0.40547973796E+03  0.46649251631E+03  0.00000000000E+00 0. -1.
          1    1    1    2  501    0 -0.40666010334E+02  0.15311074019E+03  0.13743480428E+02  0.15901417048E+03  0.00000000000E+00 0. -1.
<scales pt_clust_3="72.28762" pt_clust_4="69.40489" pt_clust_5="205.82933" pt_clust_6="14000.00000"></scales>
<clustering>
<clus scale="   69.405">  1  4  2 -1</clus>
<clus scale="   72.288">  2  3  1 -1</clus>
<clus scale="  205.829">  1  5  2 -1</clus>
<clus scale="   69.405">  1  3  2 -1</clus>
</clustering>
</event>
<event>
 6    0  0.4189111E+002  0.9265636E+02  0.7546771E-02  0.1296543E+00
         21   -1    0    0  505  502  0.00000000000E+00  0.00000000000E+00  0.54418240846E+03  0.54418240846E+03  0.00000000000E+00 0.  1.
         -4   -1    0    0    0  501 -0.00000000000E+00 -0.00000000000E+00 -0.98638875578E+03  0.98638875578E+03  0.00000000000E+00 0. -1.
         21    1    1    2  503  501  0.14432791959E+02  0.44130262621E+02 -0.94360687586E+02  0.10516522678E+03  0.00000000000E+00 0. -1.
         21    1    1    2  504  502  0.44141153401E+02  0.22019726246E+02  0.17577680364E+03  0.18256723273E+03  0.00000000000E+00 0. -1.
         21    1    1    2  505  503  0.34578113195E+02 -0.72180570048E+02  0.35264496480E+03  0.36161326276E+03  0.00000000000E+00 0.  1.
         -4    1    1    2    0  504 -0.93152058555E+02  0.60305811814E+01 -0.87626742816E+03  0.88122544197E+03  0.00000000000E+00 0. -1.
<scales pt_clust_3="46.43044" pt_clust_4="49.45364" pt_clust_5="92.65636" pt_clust_6="14000.00000"></scales>
<clustering>
<clus scale="   46.430">  2  3  1 -1</clus>
<clus scale="   49.454">  1  4  2 -1</clus>
<clus scale="   92.656">  1  5  2 -1</clus>
<clus scale="   49.454">  1  3  2 -1</clus>
</clustering>
</event>
<event>
 6    0  0.4189111E+002  0.5934703E+02  0.7546771E-02  0.1400593E+00
         21   -1    0    0  505  502  0.00000000000E+00  0.00000000000E+00  0.33708316272E+03  0.33708316272E+03  0.00000000000E+00 0. -1.
          2   -1    0    0  503    0 -0.00000000000E+00 -0.00000000000E+00 -0.98208089098E+03  0.98208089098E+03  0.00000000000E+00 0. -1.
         21    1    1    2  503  504  0.63375576630E+01  0.31317386906E+02 -0.79321815998E+02  0.85515459731E+02  0.00000000000E+00 0.  1.
         21    1    1    2  504  502 -0.46801853964E+02  0.71208148743E+02  0.52300066182E+02  0.99981552821E+02  0.00000000000E+00 0. -1.
         21    1    1    2  505  501  0.45860095845E+02 -0.13561912174E+02  0.25333503282E+03  0.25780945038E+03  0.00000000000E+00 0. -1.
          2    1    1    2  501    0 -0.53957995433E+01 -0.88963623475E+02 -0.87131101126E+03  0.87585759076E+03  0.00000000000E+00 0. -1.
<scales pt_clust_3="31.95220" pt_clust_4="14000.00000" pt_clust_5="47.81645" pt_clust_6="59.34703"></scales>
<clustering>
<clus scale="   31.952">  2  3  1 -1</clus>
<clus scale="   47.816">  1  5  2 -1</clus>
<clus scale="   59.347">  2  6  1 -1</clus>
<clus scale="   47.816">  1  3  2 -1</clus>
</clustering>
</event>
<event>
 6    0  0.4189111E+002  0.1167343E+03  0.7546771E-02  0.1248584E+00
          2   -1    0    0  503    0 -0.00000000000E+00  0.00000000000E+00  0.62781030816E+03  0.62781030816E+03  0.00000000000E+00 0.  1.
         21   -1    0    0  504  502  0.00000000000E+00 -0.00000000000E+00 -0.18206146972E+03  0.18206146972E+03  0.00000000000E+00 0.  1.
         21    1    1    2  503  505 -0.56819394983E+02  0.12842654154E+02  0.19311423610E+03  0.20170891303E+03  0.00000000000E+00 0.  1.
         21    1    1    2  504  501  0.92611421966E+02  0.86421929601E+02 -0.12076617493E+03  0.17501455483E+03  0.00000000000E+00 0.  1.
         21    1    1    2  505  502  0.11861998359E+02 -0.27713466953E+02 -0.16167597204E+02  0.34207228110E+02  0.00000000000E+00 0.  1.
          2    1    1    2  501    0 -0.47654025343E+02 -0.71551116802E+02  0.38956837447E+03  0.39894108191E+03  0.00000000000E+00 0.  1.
<scales pt_clust_3="57.77226" pt_clust_4="14000.00000" pt_clust_5="30.14537" pt_clust_6="116.73427"></scales>
<clustering>
<clus scale="   30.145">  2  5  1 -1</clus>
<clus scale="   57.772">  1  3  2 -1</clus>
<clus scale="  116.734">  1  6  2 -1</clus>
<clus scale="   30.145">  2  3  1 -1</clus>
</clustering>
</event>
<event>
 6    0  0.4189111E+002  0.1103219E+03  0.7546771E-02  0.1259975E+00
         21   -1    0    0  505  502  0.00000000000E+00  0.00000000000E+00  0.10715230975E+03  0.10715230975E+03  0.00000000000E+00 0. -1.
          1   -1    0    0  504    0 -0.00000000000E+00 -0.00000000000E+00 -0.91994872190E+03  0.91994872190E+03  0.00000000000E+00 0.  1.
         21    1    1    2  503  502 -0.34121234859E+02 -0.10947117754E+02  0.73129530238E+02  0.81437253442E+02  0.00000000000E+00 0. -1.
         21    1    1    2  504  503 -0.28912207754E+01  0.37868274176E+02 -0.20128181620E+03  0.20483343203E+03  0.00000000000E+00 0. -1.
         21    1    1    2  505  501 -0.83858360406E+02 -0.54774433026E+01 -0.57598526714E+02  0.10188138826E+03  0.00000000000E+00 0.  1.
          1    1    1    2  501    0  0.12087081604E+03 -0.21443713119E+02 -0.62704559947E+03  0.63894895791E+03  0.00000000000E+00 0.  1.
<scales pt_clust_3="35.83431" pt_clust_4="37.54120" pt_clust_5="14000.00000" pt_clust_6="110.32194"></scales>
<clustering>
<clus scale="   35.834">  1  3  2 -1</clus>
<clus scale="   37.541">  2  4  1 -1</clus>
<clus scale="  110.322">  2  6  1 -1</clus>
<clus scale="   35.834">  1  3  2 -1</clus>
</clustering>
</event>
<event>
 6    0  0.4189111E+002  0.6825803E+02  0.7546771E-02  0.1366119E+00
          2   -1    0    0  505    0 -0.00000000000E+00  0.00000000000E+00  0.14967922867E+04  0.14967922867E+04  0.00000000000E+00 0.  1.
         21   -1    0    0  503  502  0.00000000000E+00 -0.00000000000E+00 -0.33799912785E+03  0.33799912785E+03  0.00000000000E+00 0.  1.
         21    1    1    2  503  504  0.63587571586E+02 -0.13105572213E+02 -0.26307422048E+03  0.27096712118E+03  0.00000000000E+00 0.  1.
         21    1    1    2  504  501 -0.11062743485E+03  0.63168288098E+02 -0.70087928513E+00  0.12739369370E+03  0.00000000000E+00 0.  1.
         21    1    1    2  505  502  0.49168455857E+02 -0.50948645709E+01  0.86682543866E+02  0.99786562760E+02  0.00000000000E+00 0.  1.
          2    1    1    2  501    0 -0.21285925901E+01 -0.44967851315E+02  0.13358857148E+04  0.13366440369E+04  0.00000000000E+00 0.  1.
<scales pt_clust_3="14000.00000" pt_clust_4="68.25803" pt_clust_5="57.19876" pt_clust_6="45.01820"></scales>
<clustering>
<clus scale="   45.018">  1  6  2 -1</clus>
<clus scale="   57.199">  1  5  2 -1</clus>
<clus scale="   68.258">  1  4  2 -1</clus>
<clus scale="   68.258">  2  3  1 -1</clus>
</clustering>
</event>
<event>
 6    0  0.4189111E+002  0.9397575E+02  0.7546771E-02  0.1293500E+00
          3   -1    0    0  503    0 -0.00000000000E+00  0.00000000000E+00  0.16921088594E+03  0.16921088594E+03  0.00000000000E+00 0.  1.
         21   -1    0    0  505  502  0.00000000000E+00 -0.00000000000E+00 -0.19651606094E+03  0.19651606094E+03  0.00000000000E+00 0.  1.
         21    1    1    2  503  502  0.11540990229E+02 -0.94449441788E+02 -0.37193895929E+01  0.95224604849E+02  0.00000000000E+00 0.  1.
         21    1    1    2  504  501  0.44703742733E+02  0.76030748508E+00  0.74894333048E+01  0.45333147840E+02  0.00000000000E+00 0.  1.
         21    1    1    2  505  504 -0.80974726405E+02  0.63393483843E+02 -0.10157782537E+03  0.14454651402E+03  0.00000000000E+00 0.  1.
          3    1    1    2  501    0  0.24729993442E+02  0.30295650460E+02  0.70502606650E+02  0.80622680164E+02  0.00000000000E+00 0.  1.
<scales pt_clust_3="93.97575" pt_clust_4="52.50920" pt_clust_5="14000.00000" pt_clust_6="39.10753"></scales>
<clustering>
<clus scale="   39.108">  1  6  2 -1</clus>
<clus scale="   52.509">  1  4  2 -1</clus>
<clus scale="   93.976">  1  3  2 -1</clus>
<clus scale="   93.976">  2  3  1 -1</clus>
</clustering>
</event>
<event>
 6    0  0.4189111E+002  0.7961369E+02  0.7546771E-02  0.1330151E+00
          2   -1    0    0  505    0 -0.00000000000E+00  0.00000000000E+00  0.94575089398E+03  0.94575089398E+03  0.00000000000E+00 0. -1.
         21   -1    0    0  501  502  0.00000000000E+00 -0.00000000000E+00 -0.89752357405E+02  0.89752357405E+02  0.00000000000E+00 0. -1.
         21    1    1    2  503  504  0.57658006212E+01 -0.48653608653E+02  0.10307726396E+03  0.11412861358E+03  0.00000000000E+00 0.  1.
         21    1    1    2  504  502 -0.24591790464E+02 -0.19948548796E+02 -0.68821877886E+02  0.75757188656E+02  0.00000000000E+00 0. -1.
         21    1    1    2  505  503 -0.51367307018E+02  0.97137687237E+02  0.32367028538E+03  0.34181396131E+03  0.00000000000E+00 0.  1.
          2    1    1    2  501    0  0.70193296861E+02 -0.28535529789E+02  0.49807286513E+03  0.50380348784E+03  0.00000000000E+00 0. -1.
<scales pt_clust_3="55.00277" pt_clust_4="31.66545" pt_clust_5="14000.00000" pt_clust_6="79.61369"></scales>
<clustering>
<clus scale="   31.665">  2  4  1 -1</clus>
<clus scale="   55.003">  2  3  1 -1</clus>
<clus scale="   79.614">  1  6  2 -1</clus>
<clus scale="   31.665">  2  3  1 -1</clus>
</clustering>
</event>
<event>
 6    0  0.4189111E+002  0.1190660E+03  0.7546771E-02  0.1244646E+00
          2   -1    0    0  502    0 -0.00000000000E+00  0.00000000000E+00  0.14796375549E+04  0.14796375549E+04  0.00000000000E+00 0.  1.
         21   -1    0    0  505  502  0.00000000000E+00 -0.00000000000E+00 -0.97858658786E+02  0.97858658786E+02  0.00000000000E+00 0. -1.
         21    1    1    2  503  504  0.14976359866E+03  0.27342206110E+01  0.63288708066E+02  0.16261018423E+03  0.00000000000E+00 0. -1.
         21    1    1    2  504  501 -0.31257354480E+02 -0.12952370064E+02  0.37812965954E+03  0.37964038974E+03  0.00000000000E+00 0.  1.
         21    1    1    2  505  503 -0.46529498476E+02 -0.32286484483E+02 -0.28073886209E+02  0.63210397844E+02  0.00000000000E+00 0. -1.
          2    1    1    2  501    0 -0.71976745705E+02  0.42504633936E+02  0.96843441475E+03  0.97203524190E+03  0.00000000000E+00 0.  1.
<scales pt_clust_3="109.15637" pt_clust_4="30.25595" pt_clust_5="56.63401" pt_clust_6="30.25595"></scales>
<clustering>
<clus scale="   30.256">  4  6 -1 -1</clus>
<clus scale="   56.634">  2  5  1 -1</clus>
<clus scale="  109.156">  2  3  1 -1</clus>
<clus scale="   56.634">  2  3  1 -1</clus>
</clustering>
</event>
<event>
 6    0  0.4189111E+002  0.1637957E+03  0.7546771E-02  0.1184477E+00
          2   -1    0    0  504    0 -0.00000000000E+00  0.00000000000E+00  0.15158610001E+04  0.15158610001E+04  0.00000000000E+00 0.  1.
         21   -1    0    0  503  502  0.00000000000E+00 -0.00000000000E+00 -0.63132245383E+02  0.63132245383E+02  0.00000000000E+00 0.  1.
         21    1    1    2  503  505 -0.44092625201E+02 -0.93260992345E+01  0.15412114674E+02  0.47630546950E+02  0.00000000000E+00 0.  1.
         21    1    1    2  504  502 -0.52060730558E+02  0.66511792054E+02  0.15857975579E+03  0.17967102464E+03  0.00000000000E+00 0. -1.
         21    1    1    2  505  501  0.19765571712E+03  0.65724042635E+02  0.33419875531E+03  0.39379720713E+03  0.00000000000E+00 0.  1.
          2    1    1    2  501    0 -0.10150236136E+03 -0.12290973545E+03  0.94453812897E+03  0.95789446679E+03  0.00000000000E+00 0.  1.
<scales pt_clust_3="45.06812" pt_clust_4="89.37378" pt_clust_5="163.79570" pt_clust_6="14000.00000"></scales>
<clustering>
<clus scale="   45.068">  2  3  1 -1</clus>
<clus scale="   89.374">  2  4  1 -1</clus>
<clus scale="  163.796">  2  5  1 -1</clus>
<clus scale="   45.068">  2  3  1 -1</clus>
</clustering>
</event>
<event>
 6    0  0.4189111E+002  0.1365007E+03  0.7546771E-02  0.1218117E+00
         -4   -1    0    0    0  501 -0.00000000000E+00  0.00000000000E+00  0.52202873344E+03  0.52202873344E+03  0.00000000000E+00 0.  1.
         21   -1    0    0  503  502  0.00000000000E+00 -0.00000000000E+00 -0.43139472837E+03  0.43139472837E+03  0.00000000000E+00 0.  1.
         21    1    1    2  503  501 -0.96400311505E+02 -0.43243601704E+02 -0.27394602376E+03  0.29361446333E+03  0.00000000000E+00 0.  1.
         21    1    1    2  504  505 -0.22987557727E+01  0.39849475352E+02  0.98349310317E+02  0.10614071699E+03  0.00000000000E+00 0. -1.
         21    1    1    2  505  502  0.30350247812E+02 -0.60948184555E+02 -0.12984900392E+03  0.14661712915E+03  0.00000000000E+00 0.  1.
         -4    1    1    2    0  504  0.68348819466E+02  0.64342310907E+02  0.39607972242E+03  0.40705115233E+03  0.00000000000E+00 0.  1.
<scales pt_clust_3="122.25039" pt_clust_4="39.59707" pt_clust_5="68.08685" pt_clust_6="39.59707"></scales>
<clustering>
<clus scale="   39.597">  4  6 -1 -1</clus>
<clus scale="   68.087">  2  5  1 -1</clus>
<clus scale="  122.250">  2  3  1 -1</clus>
<clus scale="   68.087">  2  3  1 -1</clus>
</clustering>
</event>
<event>
 6    0  0.4189111E+002  0.1972409E+03  0.7546771E-02  0.1152088E+00
          2   -1    0    0  505    0 -0.00000000000E+00  0.00000000000E+00  0.34719902915E+03  0.34719902915E+03  0.00000000000E+00 0. -1.
         21   -1    0    0  503  502  0.00000000000E+00 -0.00000000000E+00 -0.62854464532E+03  0.62854464532E+03  0.00000000000E+00 0. -1.
         21    1    1    2  503  504  0.13408436108E+03 -0.12581609426E+03 -0.32967028871E+03  0.37747954212E+03  0.00000000000E+00 0. -1.
         21    1    1    2  504  501 -0.10578965584E+03  0.84342961780E+02  0.82546033390E+02  0.15848985492E+03  0.00000000000E+00 0. -1.
         21    1    1    2  505  502  0.42706144014E+01 -0.51141656599E+02 -0.22201413290E+03  0.22786834443E+03  0.00000000000E+00 0. -1.
          2    1    1    2  501    0 -0.32565319641E+02  0.92614789076E+02  0.18779277206E+03  0.21190593299E+03  0.00000000000E+00 0. -1.
<scales pt_clust_3="14000.00000" pt_clust_4="197.24090" pt_clust_5="51.31966" pt_clust_6="96.69054"></scales>
<clustering>
<clus scale="   51.320">  2  5  1 -1</clus>
<clus scale="   96.691">  1  6  2 -1</clus>
<clus scale="  197.241">  1  4  2 -1</clus>
<clus scale="   51.320">  2  3  1 -1</clus>
</clustering>
</event>
<event>
 6    0  0.4189111E+002  0.1524560E+03  0.7546771E-02  0.1197487E+00
          2   -1    0    0  505    0 -0.00000000000E+00  0.00000000000E+00  0.25886811112E+04  0.25886811112E+04  0.00000000000E+00 0.  1.
         21   -1    0    0  503  502  0.00000000000E+00 -0.00000000000E+00 -0.13641398563E+03  0.13641398563E+03  0.00000000000E+00 0.  1.
         21    1    1    2  503  504  0.55242962399E+02 -0.25730136252E+02 -0.40581418236E+02  0.73216639585E+02  0.00000000000E+00 0.  1.
         21    1    1    2  504  501  0.52343265938E+02  0.50658869724E+02  0.11493855422E+04  0.11516914792E+04  0.00000000000E+00 0.  1.
         21    1    1    2  505  502 -0.18543396843E+03 -0.15950863733E+02  0.35001946232E+02  0.18938142185E+03  0.00000000000E+00 0.  1.
          2    1    1    2  501    0  0.77847740096E+02 -0.89778697384E+01  0.13084610554E+04  0.13108055562E+04  0.00000000000E+00 0.  1.
<scales pt_clust_3="60.94116" pt_clust_4="62.24339" pt_clust_5="138.01482" pt_clust_6="62.24339"></scales>
<clustering>
<clus scale="   60.941">  2  3  1 -1</clus>
<clus scale="   62.243">  4  6 -1 -1</clus>
<clus scale="  138.015">  2  5  1 -1</clus>
<clus scale="   60.941">  2  3  1 -1</clus>
</clustering>
</event>
<event>
 6    0  0.4189111E+002  0.1290357E+03  0.7546771E-02  0.1228894E+00
         -3   -1    0    0    0  501 -0.00000000000E+00  0.00000000000E+00  0.82923246738E+03  0.82923246738E+03  0.00000000000E+00 0. -1.
         21   -1    0    0  501  502  0.00000000000E+00 -0.00000000000E+00 -0.21826651489E+04  0.21826651489E+04  0.00000000000E+00 0.  1.
         21    1    1    2  503  505 -0.19976569072E+02 -0.10317917780E+03 -0.30710977313E+03  0.32459423716E+03  0.00000000000E+00 0.  1.
         21    1    1    2  504  503 -0.62053625954E+01  0.62942645805E+02  0.30784816060E+03  0.31427817800E+03  0.00000000000E+00 0. -1.
         21    1    1    2  505  502  0.22225166322E+02 -0.21615119606E+02 -0.18615834870E+04  0.18618416287E+04  0.00000000000E+00 0.  1.
         -3    1    1    2    0  504  0.39567653455E+01  0.61851651603E+02  0.50741241798E+03  0.51118357242E+03  0.00000000000E+00 0. -1.
<scales pt_clust_3="124.46522" pt_clust_4="33.72617" pt_clust_5="31.00276" pt_clust_6="33.72617"></scales>
<clustering>
<clus scale="   31.003">  2  5  1 -1</clus>
<clus scale="   33.726">  4  6 -1 -1</clus>
<clus scale="  124.465">  2  3  1 -1</clus>
<clus scale="   31.003">  2  3  1 -1</clus>
</clustering>
</event>
<event>
 6    0  0.4189111E+002  0.2703946E+03  0.7546771E-02  0.1101054E+00
         21   -1    0    0  503  502  0.00000000000E+00  0.00000000000E+00  0.66424963257E+03  0.66424963257E+03  0.00000000000E+00 0. -1.
          2   -1    0    0  504    0 -0.00000000000E+00 -0.00000000000E+00 -0.98013894844E+03  0.98013894844E+03  0.00000000000E+00 0.  1.
         21    1    1    2  503  505  0.62467557676E+02  0.23905644597E+03  0.61155598261E+03  0.65958388396E+03  0.00000000000E+00 0. -1.
         21    1    1    2  504  502  0.60608483355E+02 -0.68376841263E+02 -0.22744561747E+03  0.24511280991E+03  0.00000000000E+00 0.  1.
         21    1    1    2  505  501 -0.41510014014E+02 -0.11510996697E+03 -0.24199042720E+03  0.27116923243E+03  0.00000000000E+00 0. -1.
          2    1    1    2  501    0 -0.81566027017E+02 -0.55569637738E+02 -0.45800925380E+03  0.46852265470E+03  0.00000000000E+00 0.  1.
<scales pt_clust_3="245.45457" pt_clust_4="91.37166" pt_clust_5="99.31056" pt_clust_6="99.31056"></scales>
<clustering>
<clus scale="   91.372">  2  4  1 -1</clus>
<clus scale="   99.311">  5  6 -1 -1</clus>
<clus scale="  245.455">  1  3  2 -1</clus>
<clus scale="  245.455">  1  3  2 -1</clus>
</clustering>
</event>
<event>
 6    0  0.6158263E+002  0.1443844E+03  0.7546771E-02  0.1207548E+00
         21   -1    0    0  503  502  0.00000000000E+00  0.00000000000E+00  0.70764212695E+03  0.70764212695E+03  0.00000000000E+00 0. -1.
          1   -1    0    0  504    0 -0.00000000000E+00 -0.00000000000E+00 -0.21405264499E+04  0.21405264499E+04  0.00000000000E+00 0. -1.
         21    1    1    2  503  505  0.38822399451E+02  0.45173187027E+02 -0.19991668101E+02  0.62828833498E+02  0.00000000000E+00 0.  1.
         21    1    1    2  504  502  0.20455906928E+02 -0.18370540134E+03  0.66906917671E+03  0.69413232300E+03  0.00000000000E+00 0. -1.
         21    1    1    2  505  501 -0.42555452689E+02  0.73736414047E+02 -0.45663460148E+03  0.46450315885E+03  0.00000000000E+00 0. -1.
          1    1    1    2  501    0 -0.16722853690E+02  0.64795800266E+02 -0.16253272300E+04  0.16267042615E+04  0.00000000000E+00 0. -1.
<scales pt_clust_3="59.56337" pt_clust_4="14000.00000" pt_clust_5="144.38439" pt_clust_6="66.95315"></scales>
<clustering>
<clus scale="   59.563">  1  3  2 -1</clus>
<clus scale="   66.953">  2  6  1 -1</clus>
<clus scale="  144.384">  2  5  1 -1</clus>
<clus scale="   59.563">  1  3  2 -1</clus>
</clustering>
</event>
<event>
 6    0  0.4189111E+002  0.1265782E+03  0.7546771E-02  0.1232623E+00
         21   -1    0    0  501  502  0.00000000000E+00  0.00000000000E+00  0.13783037647E+03  0.13783037647E+03  0.00000000000E+00 0. -1.
          2   -1    0    0  505    0 -0.00000000000E+00 -0.00000000000E+00 -0.82401354974E+03  0.82401354974E+03  0.00000000000E+00 0. -1.
         21    1    1    2  503  504 -0.45207047878E+02  0.89004922170E+02  0.42156135128E+02  0.10836370738E+03  0.00000000000E+00 0. -1.
         21    1    1    2  504  502  0.47694546096E+02 -0.82856569336E+01  0.22757210484E+02  0.53491237293E+02  0.00000000000E+00 0. -1.
         21    1    1    2  505  503  0.31050868020E+02 -0.17374063353E+03 -0.48427524618E+03  0.51543426177E+03  0.00000000000E+00 0. -1.
          2    1    1    2  501    0 -0.33538366239E+02  0.93021368295E+02 -0.26682127271E+03  0.28455471976E+03  0.00000000000E+00 0. -1.
<scales pt_clust_3="83.26132" pt_clust_4="48.40890" pt_clust_5="126.57820" pt_clust_6="14000.00000"></scales>
<clustering>
<clus scale="   48.409">  1  4  2 -1</clus>
<clus scale="   83.261">  1  3  2 -1</clus>
<clus scale="  126.578">  1  5  2 -1</clus>
<clus scale="   48.409">  1  3  2 -1</clus>
</clustering>
</event>
<event>
 6    0  0.4189111E+002  0.2077041E+03  0.7546771E-02  0.1143397E+00
         21   -1    0    0  503  502  0.00000000000E+00  0.00000000000E+00  0.19844247748E+03  0.19844247748E+03  0.00000000000E+00 0. -1.
         -1   -1    0    0    0  501 -0.00000000000E+00 -0.00000000000E+00 -0.52692642338E+03  0.52692642338E+03  0.00000000000E+00 0. -1.
         21    1    1    2  503  505  0.94264870337E+02  0.39682657687E+02 -0.32241461382E+02  0.10723847692E+03  0.00000000000E+00 0. -1.
         21    1    1    2  504  502 -0.20740044937E+03  0.45415588987E+02  0.60357602966E+02  0.22072734846E+03  0.00000000000E+00 0. -1.
         21    1    1    2  505  501  0.67548711742E+02  0.54295450113E+01 -0.93670808021E+02  0.11561370460E+03  0.00000000000E+00 0. -1.
         -1    1    1    2    0  504  0.45586867294E+02 -0.90527791685E+02 -0.26292927946E+03  0.28178937087E+03  0.00000000000E+00 0. -1.
<scales pt_clust_3="60.86143" pt_clust_4="193.77967" pt_clust_5="60.86143" pt_clust_6="101.35800"></scales>
<clustering>
<clus scale="   60.861">  3  5 -1 -1</clus>
<clus scale="  101.358">  2  6  1 -1</clus>
<clus scale="  193.780">  1  4  2 -1</clus>
<clus scale="  193.780">  1  3  2 -1</clus>
</clustering>
</event>
<event>
 6    0  0.4189111E+002  0.1636848E+03  0.7546771E-02  0.1184598E+00
         21   -1    0    0  505  502  0.00000000000E+00  0.00000000000E+00  0.19232512329E+04  0.19232512329E+04  0.00000000000E+00 0. -1.
         -3   -1    0    0    0  501 -0.00000000000E+00 -0.00000000000E+00 -0.66828584579E+03  0.66828584579E+03  0.00000000000E+00 0. -1.
         21    1    1    2  503  502 -0.83884245195E+01  0.22012379974E+03  0.18452636780E+04  0.18583656514E+04  0.00000000000E+00 0. -1.
         21    1    1    2  504  501 -0.49272427037E+02 -0.11668858980E+03 -0.44504341188E+03  0.46271766501E+03  0.00000000000E+00 0. -1.
         21    1    1    2  505  504  0.15591271383E+02 -0.55218622771E+02  0.42947385973E+02  0.71670510016E+02  0.00000000000E+00 0. -1.
         -3    1    1    2    0  503  0.42069580173E+02 -0.48216587166E+02 -0.18820226497E+03  0.19878325230E+03  0.00000000000E+00 0. -1.
<scales pt_clust_3="163.68475" pt_clust_4="14000.00000" pt_clust_5="57.37756" pt_clust_6="64.13683"></scales>
<clustering>
<clus scale="   57.378">  1  5  2 -1</clus>
<clus scale="   64.137">  2  6  1 -1</clus>
<clus scale="  163.685">  1  3  2 -1</clus>
<clus scale="   57.378">  1  3  2 -1</clus>
</clustering>
</event>
<event>
 6    0  0.4189111E+002  0.2236476E+03  0.7546771E-02  0.1131192E+00
         21   -1    0    0  505  502  0.00000000000E+00  0.00000000000E+00  0.13585757210E+03  0.13585757210E+03  0.00000000000E+00 0. -1.
          2   -1    0    0  504    0 -0.00000000000E+00 -0.00000000000E+00 -0.81158510852E+03  0.81158510852E+03  0.00000000000E+00 0.  1.
         21    1    1    2  503  501  0.24554136213E+03 -0.45840559352E+02 -0.21560230292E+03  0.32996404414E+03  0.00000000000E+00 0. -1.
         21    1    1    2  504  502 -0.35171907040E+02 -0.19349248606E+02 -0.59125281184E+02  0.71465063783E+02  0.00000000000E+00 0. -1.
         21    1    1    2  505  503 -0.31360977864E+02 -0.27505783915E+02  0.42067592751E+02  0.59243239624E+02  0.00000000000E+00 0. -1.
          2    1    1    2  501    0 -0.17900847723E+03  0.92695591873E+02 -0.44306754506E+03  0.48677033307E+03  0.00000000000E+00 0.  1.
<scales pt_clust_3="223.64765" pt_clust_4="40.14295" pt_clust_5="42.16547" pt_clust_6="14000.00000"></scales>
<clustering>
<clus scale="   40.143">  2  4  1 -1</clus>
<clus scale="   42.165">  1  5  2 -1</clus>
<clus scale="  223.648">  1  3  2 -1</clus>
<clus scale="   42.165">  1  3  2 -1</clus>
</clustering>
</event>
<event>
 6    0  0.4189111E+002  0.8050516E+02  0.7546771E-02  0.1327624E+00
         -2   -1    0    0    0  501 -0.00000000000E+00  0.00000000000E+00  0.80042465773E+02  0.80042465773E+02  0.00000000000E+00 0.  1.
         21   -1    0    0  505  502  0.00000000000E+00 -0.00000000000E+00 -0.31682024172E+03  0.31682024172E+03  0.00000000000E+00 0.  1.
         21    1    1    2  503  504 -0.15802444618E+02  0.11345055198E+03 -0.11382662327E+03  0.16148450442E+03  0.00000000000E+00 0.  1.
         21    1    1    2  504  502 -0.61755807709E+02 -0.32748678855E+02 -0.46438293483E+02  0.83921218141E+02  0.00000000000E+00 0.  1.
         21    1    1    2  505  501  0.44904397599E+02 -0.17466236037E+02 -0.62509485236E+02  0.78923444359E+02  0.00000000000E+00 0.  1.
         -2    1    1    2    0  503  0.32653854728E+02 -0.63235637091E+02 -0.14003373957E+02  0.72533540580E+02  0.00000000000E+00 0.  1.
<scales pt_clust_3="80.50516" pt_clust_4="62.31516" pt_clust_5="48.18168" pt_clust_6="14000.00000"></scales>
<clustering>
<clus scale="   48.182">  2  5  1 -1</clus>
<clus scale="   62.315">  2  4  1 -1</clus>
<clus scale="   80.505">  2  3  1 -1</clus>
<clus scale="   48.182">  2  3  1 -1</clus>
</clustering>
</event>
<event>
 6    0  0.4189111E+002  0.1290359E+03  0.7546771E-02  0.1228893E+00
         21   -1    0    0  504  502  0.00000000000E+00  0.00000000000E+00  0.46673328037E+03  0.46673328037E+03  0.00000000000E+00 0. -1.
          2   -1    0    0  505    0 -0.00000000000E+00 -0.00000000000E+00 -0.17826631595E+04  0.17826631595E+04  0.00000000000E+00 0.  1.
         21    1    1    2  503  502  0.73327807643E+02 -0.10827752638E+03  0.43269841767E+03  0.45202755530E+03  0.00000000000E+00 0. -1.
         21    1    1    2  504  501 -0.11272615917E+02  0.94637523972E+02 -0.23628837034E+03  0.25478525619E+03  0.00000000000E+00 0.  1.
         21    1    1    2  505  503  0.37361550803E+00 -0.75087099456E+02 -0.94972143957E+02  0.12106989808E+03  0.00000000000E+00 0. -1.
          2    1    1    2  501    0 -0.62428807234E+02  0.88727101859E+02 -0.14173677825E+04  0.14215137303E+04  0.00000000000E+00 0.  1.
<scales pt_clust_3="14000.00000" pt_clust_4="129.03592" pt_clust_5="75.08803" pt_clust_6="66.98549"></scales>
<clustering>
<clus scale="   75.088">  2  5  1 -1</clus>
<clus scale="   66.985">  2  6  1 -1</clus>
<clus scale="  129.036">  2  4  1 -1</clus>
<clus scale="  129.036">  1  3  2 -1</clus>
</clustering>
</event>
<event>
 6    0  0.4189111E+002  0.1106386E+03  0.7546771E-02  0.1259392E+00
         21   -1    0    0  505  502  0.00000000000E+00  0.00000000000E+00  0.13342166927E+03  0.13342166927E+03  0.00000000000E+00 0. -1.
          1   -1    0    0  504    0 -0.00000000000E+00 -0.00000000000E+00 -0.75731329713E+03  0.75731329713E+03  0.00000000000E+00 0. -1.
         21    1    1    2  503  502  0.26503682181E+02 -0.22021823088E+02  0.26910136428E+02  0.43721405556E+02  0.00000000000E+00 0.  1.
         21    1    1    2  504  503  0.60040024324E+02  0.12123258013E+02 -0.21296423504E+03  0.22159770601E+03  0.00000000000E+00 0. -1.
         21    1    1    2  505  501 -0.10729771193E+03  0.97763081402E+02  0.30609034813E+02  0.14834868413E+03  0.00000000000E+00 0. -1.
          1    1    1    2  501    0  0.20754005422E+02 -0.87864516327E+02 -0.46844656407E+03  0.47706717070E+03  0.00000000000E+00 0. -1.
<scales pt_clust_3="34.45876" pt_clust_4="62.21429" pt_clust_5="110.63858" pt_clust_6="14000.00000"></scales>
<clustering>
<clus scale="   34.459">  1  3  2 -1</clus>
<clus scale="   62.214">  2  4  1 -1</clus>
<clus scale="  110.639">  1  5  2 -1</clus>
<clus scale="   34.459">  1  3  2 -1</clus>
</clustering>
</event>
<event>
 6    0  0.4189111E+002  0.1522470E+03  0.7546771E-02  0.1197739E+00
          2   -1    0    0  505    0 -0.00000000000E+00  0.00000000000E+00  0.36796759774E+04  0.36796759774E+04  0.00000000000E+00 0.  1.
         21   -1    0    0  503  502  0.00000000000E+00 -0.00000000000E+00 -0.36940611921E+02  0.36940611921E+02  0.00000000000E+00 0.  1.
         21    1    1    2  503  504 -0.57288675799E+02 -0.36936705808E+02  0.15675138381E+03  0.17093071385E+03  0.00000000000E+00 0.  1.
         21    1    1    2  504  501 -0.94667348115E+02 -0.13605838062E+02  0.65544261672E+02  0.11594427915E+03  0.00000000000E+00 0.  1.
         21    1    1    2  505  502 -0.21629117745E+01 -0.43357943735E+02  0.22143482427E+03  0.22565010718E+03  0.00000000000E+00 0.  1.
          2    1    1    2  501    0  0.15411893569E+03  0.93900487604E+02  0.31990048957E+04  0.32040914891E+04  0.00000000000E+00 0.  1.
<scales pt_clust_3="69.38398" pt_clust_4="152.24701" pt_clust_5="43.41186" pt_clust_6="14000.00000"></scales>
<clustering>
<clus scale="   43.412">  1  5  2 -1</clus>
<clus scale="   69.384">  2  3  1 -1</clus>
<clus scale="  152.247">  2  4  1 -1</clus>
<clus scale="   69.384">  2  3  1 -1</clus>
</clustering>
</event>
<event>
 6    0  0.4189111E+002  0.1897569E+03  0.7546771E-02  0.1158681E+00
         21   -1    0    0  504  502  0.00000000000E+00  0.00000000000E+00  0.39717052356E+03  0.39717052356E+03  0.00000000000E+00 0. -1.
          2   -1    0    0  503    0 -0.00000000000E+00 -0.00000000000E+00 -0.60806974405E+03  0.60806974405E+03  0.00000000000E+00 0.  1.
         21    1    1    2  503  502 -0.35169901132E+02 -0.11023845250E+02 -0.29034595753E+02  0.46919663897E+02  0.00000000000E+00 0. -1.
         21    1    1    2  504  505 -0.56408569151E+02  0.85871605737E+01  0.15820041658E+03  0.16817561596E+03  0.00000000000E+00 0. -1.
         21    1    1    2  505  501 -0.73181889229E+02  0.10253610001E+03  0.18895224505E+03  0.22709511581E+03  0.00000000000E+00 0. -1.
          2    1    1    2  501    0  0.16476035951E+03 -0.10009941533E+03 -0.52901728636E+03  0.56304987194E+03  0.00000000000E+00 0.  1.
<scales pt_clust_3="36.85712" pt_clust_4="54.65479" pt_clust_5="54.65479" pt_clust_6="171.53943"></scales>
<clustering>
<clus scale="   36.857">  2  3  1 -1</clus>
<clus scale="   54.655">  4  5 -1 -1</clus>
<clus scale="  171.539">  2  6  1 -1</clus>
<clus scale="  189.757">  1  3  2 -1</clus>
</clustering>
</event>
<event>
 6    0  0.4189111E+002  0.9246479E+02  0.7546771E-02  0.1296990E+00
         21   -1    0    0  504  502  0.00000000000E+00  0.00000000000E+00  0.13049336538E+03  0.13049336538E+03  0.00000000000E+00 0.  1.
          2   -1    0    0  503    0 -0.00000000000E+00 -0.00000000000E+00 -0.26846637107E+04  0.26846637107E+04  0.00000000000E+00 0. -1.
         21    1    1    2  503  505  0.99656203090E+02 -0.34179468501E+02 -0.16896174610E+03  0.19911721806E+03  0.00000000000E+00 0.  1.
         21    1    1    2  504  501  0.51999469343E+02  0.31092424572E+02  0.84005955167E+02  0.10357453442E+03  0.00000000000E+00 0.  1.
         21    1    1    2  505  502 -0.60314014565E+02 -0.67330618327E+01 -0.23584237584E+02  0.65110143120E+02  0.00000000000E+00 0. -1.
          2    1    1    2  501    0 -0.91341657868E+02  0.98201057613E+01 -0.24456303168E+04  0.24473551805E+04  0.00000000000E+00 0. -1.
<scales pt_clust_3="92.46479" pt_clust_4="60.58617" pt_clust_5="32.74954" pt_clust_6="14000.00000"></scales>
<clustering>
<clus scale="   60.586">  1  4  2 -1</clus>
<clus scale="   32.750">  1  5  2 -1</clus>
<clus scale="   92.465">  1  3  2 -1</clus>
<clus scale="   60.586">  1  3  2 -1</clus>
</clustering>
</event>
<event>
 6    0  0.4189111E+002  0.1676286E+03  0.7546771E-02  0.1180344E+00
         -1   -1    0    0    0  501 -0.00000000000E+00  0.00000000000E+00  0.12215855834E+04  0.12215855834E+04  0.00000000000E+00 0. -1.
         21   -1    0    0  503  502  0.00000000000E+00 -0.00000000000E+00 -0.16703645635E+03  0.16703645635E+03  0.00000000000E+00 0. -1.
         21    1    1    2  503  501 -0.19021210431E+03 -0.80622698234E+02 -0.42728637937E+02  0.21096540142E+03  0.00000000000E+00 0. -1.
         21    1    1    2  504  502  0.43317565422E+02  0.27924765649E+02 -0.14576799940E+02  0.53560126093E+02  0.00000000000E+00 0. -1.
         21    1    1    2  505  504  0.42908165212E+02 -0.14590520512E+01  0.18845848769E+03  0.19328693970E+03  0.00000000000E+00 0. -1.
         -1    1    1    2    0  505  0.10398637367E+03  0.54156984636E+02  0.92339607726E+03  0.93080957257E+03  0.00000000000E+00 0. -1.
<scales pt_clust_3="158.37305" pt_clust_4="51.53837" pt_clust_5="33.23998" pt_clust_6="33.23998"></scales>
<clustering>
<clus scale="   33.240">  5  6 -1 -1</clus>
<clus scale="   51.538">  2  4  1 -1</clus>
<clus scale="  158.373">  2  3  1 -1</clus>
<clus scale="   51.538">  2  3  1 -1</clus>
</clustering>
</event>
<event>
 6    0  0.4189111E+002  0.8074777E+02  0.7546771E-02  0.1326943E+00
         21   -1    0    0  504  502  0.00000000000E+00  0.00000000000E+00  0.10214592697E+03  0.10214592697E+03  0.00000000000E+00 0.  1.
          1   -1    0    0  503    0 -0.00000000000E+00 -0.00000000000E+00 -0.11439057456E+04  0.11439057456E+04  0.00000000000E+00 0.  1.
         21    1    1    2  503  502  0.37872644978E+02 -0.19655105430E+02 -0.81470841876E+02  0.91968247146E+02  0.00000000000E+00 0. -1.
         21    1    1    2  504  505  0.28680259829E+02  0.27916615689E+02  0.66454288989E+02  0.77576202926E+02  0.00000000000E+00 0.  1.
         21    1    1    2  505  501 -0.14198965597E+03  0.25644581974E+01 -0.19474238645E+03  0.24102330993E+03  0.00000000000E+00 0.  1.
          1    1    1    2  501    0  0.75436751169E+02 -0.10825968456E+02 -0.83200087930E+03  0.83548391258E+03  0.00000000000E+00 0.  1.
<scales pt_clust_3="45.34898" pt_clust_4="40.02368" pt_clust_5="80.74777" pt_clust_6="14000.00000"></scales>
<clustering>
<clus scale="   40.024">  1  4  2 -1</clus>
<clus scale="   45.349">  1  3  2 -1</clus>
<clus scale="   80.748">  1  5  2 -1</clus>
<clus scale="   40.024">  1  3  2 -1</clus>
</clustering>
</event>
<event>
 6    0  0.4189111E+002  0.1616494E+03  0.7546771E-02  0.1186847E+00
          1   -1    0    0  503    0 -0.00000000000E+00  0.00000000000E+00  0.22181417313E+04  0.22181417313E+04  0.00000000000E+00 0. -1.
         21   -1    0    0  504  502  0.00000000000E+00 -0.00000000000E+00 -0.40816696576E+03  0.40816696576E+03  0.00000000000E+00 0.  1.
         21    1    1    2  503  505  0.64464734746E+01  0.34326477089E+02  0.40539768714E+02  0.53510156951E+02  0.00000000000E+00 0.  1.
         21    1    1    2  504  501  0.17023977077E+03 -0.21111036223E+03  0.73823458904E+02  0.28106772792E+03  0.00000000000E+00 0.  1.
         21    1    1    2  505  502 -0.47064401874E+02  0.11869989121E+03 -0.28171844060E+03  0.30930567708E+03  0.00000000000E+00 0.  1.
          1    1    1    2  501    0 -0.12962184237E+03  0.58083993934E+02  0.19773299785E+04  0.19824251351E+04  0.00000000000E+00 0. -1.
<scales pt_clust_3="34.92655" pt_clust_4="161.64943" pt_clust_5="127.87763" pt_clust_6="14000.00000"></scales>
<clustering>
<clus scale="   34.927">  1  3  2 -1</clus>
<clus scale="  127.878">  2  5  1 -1</clus>
<clus scale="  161.649">  2  4  1 -1</clus>
<clus scale="  127.878">  2  3  1 -1</clus>
</clustering>
</event>
<event>
 6    0  0.4189111E+002  0.1931999E+03  0.7546771E-02  0.1155607E+00
          2   -1    0    0  505    0 -0.00000000000E+00  0.00000000000E+00  0.26029048936E+03  0.26029048936E+03  0.00000000000E+00 0.  1.
         21   -1    0    0  503  502  0.00000000000E+00 -0.00000000000E+00 -0.53503984374E+03  0.53503984374E+03  0.00000000000E+00 0. -1.
         21    1    1    2  503  504 -0.13434700575E+03 -0.35433841305E+02 -0.12656894075E+02  0.13951656544E+03  0.00000000000E+00 0.  1.
         21    1    1    2  504  501 -0.37193402959E+02  0.51112285745E+02  0.99357461669E+02  0.11776128467E+03  0.00000000000E+00 0.  1.
         21    1    1    2  505  502  0.21830476408E+03 -0.36446682874E+02 -0.41101272262E+03  0.46681558336E+03  0.00000000000E+00 0. -1.
          2    1    1    2  501    0 -0.46764355373E+02  0.20768238435E+02  0.49562800643E+02  0.71236899628E+02  0.00000000000E+00 0.  1.
<scales pt_clust_3="14000.00000" pt_clust_4="32.77886" pt_clust_5="193.19986" pt_clust_6="116.37469"></scales>
<clustering>
<clus scale="   32.779">  4  6 -1 -1</clus>
<clus scale="  116.375">  1  4  2 -1</clus>
<clus scale="  193.200">  2  5  1 -1</clus>
<clus scale="  193.200">  2  3  1 -1</clus>
</clustering>
</event>
<event>
 6    0  0.4189111E+002  0.9637053E+02  0.7546771E-02  0.1288119E+00
         21   -1    0    0  504  502  0.00000000000E+00  0.00000000000E+00  0.87545777438E+03  0.87545777438E+03  0.00000000000E+00 0.  1.
         -1   -1    0    0    0  501 -0.00000000000E+00 -0.00000000000E+00 -0.56989982954E+03  0.56989982954E+03  0.00000000000E+00 0.  1.
         21    1    1    2  503  502 -0.46022679134E+02  0.94819278670E+02  0.31075209551E+02  0.10988380796E+03  0.00000000000E+00 0.  1.
         21    1    1    2  504  505  0.27671838524E+02 -0.18701260648E+02  0.26228938112E+03  0.26440723751E+03  0.00000000000E+00 0.  1.
         21    1    1    2  505  501 -0.69601154836E+02 -0.34743122810E+02  0.53432855070E+03  0.53996148513E+03  0.00000000000E+00 0.  1.
         -1    1    1    2    0  503  0.87951995446E+02 -0.41374895213E+02 -0.52213519653E+03  0.53110507332E+03  0.00000000000E+00 0.  1.
<scales pt_clust_3="96.37053" pt_clust_4="33.39862" pt_clust_5="68.34093" pt_clust_6="14000.00000"></scales>
<clustering>
<clus scale="   33.399">  1  4  2 -1</clus>
<clus scale="   68.341">  1  5  2 -1</clus>
<clus scale="   96.371">  1  3  2 -1</clus>
<clus scale="   33.399">  1  3  2 -1</clus>
</clustering>
</event>
<event>
 6    0  0.4189111E+002  0.1102921E+03  0.7546771E-02  0.1260030E+00
         -3   -1    0    0    0  501 -0.00000000000E+00  0.00000000000E+00  0.40959009688E+03  0.40959009688E+03  0.00000000000E+00 0. -1.
         21   -1    0    0  505  502  0.00000000000E+00 -0.00000000000E+00 -0.14654729925E+03  0.14654729925E+03  0.00000000000E+00 0. -1.
         21    1    1    2  503  504  0.44102590920E+02 -0.10681424024E+03  0.26491351828E+02  0.11855847572E+03  0.00000000000E+00 0. -1.
         21    1    1    2  504  502 -0.17622199299E+02 -0.28814902908E+02 -0.44252861408E+02  0.55670066288E+02  0.00000000000E+00 0. -1.
         21    1    1    2  505  501 -0.25774505899E+02  0.24981758692E+02 -0.33252422000E+02  0.48929919175E+02  0.00000000000E+00 0. -1.
         -3    1    1    2    0  503 -0.70588572264E+00  0.11064738445E+03  0.31405672921E+03  0.33297893495E+03  0.00000000000E+00 0. -1.
<scales pt_clust_3="14000.00000" pt_clust_4="33.77633" pt_clust_5="35.62124" pt_clust_6="110.29205"></scales>
<clustering>
<clus scale="   33.776">  2  4  1 -1</clus>
<clus scale="   35.621">  2  5  1 -1</clus>
<clus scale="  110.292">  1  6  2 -1</clus>
<clus scale="   33.776">  2  3  1 -1</clus>
</clustering>
</event>
<event>
 6    0  0.4189111E+002  0.1104647E+03  0.7546771E-02  0.1259712E+00
          1   -1    0    0  505    0 -0.00000000000E+00  0.00000000000E+00  0.56315480353E+03  0.56315480353E+03  0.00000000000E+00 0.  1.
         21   -1    0    0  504  502  0.00000000000E+00 -0.00000000000E+00 -0.76794219473E+03  0.76794219473E+03  0.00000000000E+00 0.  1.
         21    1    1    2  503  501 -0.61115812261E+02  0.37061024989E+02 -0.38750210980E+03  0.39403876355E+03  0.00000000000E+00 0.  1.
         21    1    1    2  504  503  0.36845033597E+02 -0.10134249643E+02 -0.35294900931E+03  0.35501163740E+03  0.00000000000E+00 0.  1.
         21    1    1    2  505  502 -0.76045461935E+01 -0.12004978217E+03  0.37305248373E+03  0.39196675234E+03  0.00000000000E+00 0.  1.
          1    1    1    2  501    0  0.31875324857E+02  0.93123006823E+02  0.16261124417E+03  0.19007984497E+03  0.00000000000E+00 0.  1.
<scales pt_clust_3="38.07202" pt_clust_4="38.21334" pt_clust_5="14000.00000" pt_clust_6="110.46472"></scales>
<clustering>
<clus scale="   38.213">  2  4  1 -1</clus>
<clus scale="   38.072">  2  3  1 -1</clus>
<clus scale="  110.465">  2  6  1 -1</clus>
<clus scale="   38.213">  2  3  1 -1</clus>
</clustering>
</event>
<event>
 6    0  0.4189111E+002  0.1411350E+03  0.7546771E-02  0.1211810E+00
         21   -1    0    0  501  502  0.00000000000E+00  0.00000000000E+00  0.68750513689E+02  0.68750513689E+02  0.00000000000E+00 0. -1.
          2   -1    0    0  503    0 -0.00000000000E+00 -0.00000000000E+00 -0.49244906200E+03  0.49244906200E+03  0.00000000000E+00 0. -1.
         21    1    1    2  503  504  0.95091940066E-01  0.39080349944E+02 -0.13522403088E+03  0.14075802401E+03  0.00000000000E+00 0. -1.
         21    1    1    2  504  505  0.34793017973E+02  0.26780379579E+02 -0.39250852937E+01  0.44081165191E+02  0.00000000000E+00 0. -1.
         21    1    1    2  505  502  0.90179785353E+02 -0.28363289042E+02 -0.47656984140E+02  0.10586811602E+03  0.00000000000E+00 0. -1.
          2    1    1    2  501    0 -0.12506789527E+03 -0.37497440481E+02 -0.23689244800E+03  0.27049227048E+03  0.00000000000E+00 0. -1.
<scales pt_clust_3="39.08047" pt_clust_4="45.53975" pt_clust_5="45.53975" pt_clust_6="125.36236"></scales>
<clustering>
<clus scale="   39.080">  2  3  1 -1</clus>
<clus scale="   45.540">  4  5 -1 -1</clus>
<clus scale="  125.362">  2  6  1 -1</clus>
<clus scale="  141.135">  1  3  2 -1</clus>
</clustering>
</event>
<event>
 6    0  0.4189111E+002  0.1695735E+03  0.7546771E-02  0.1178293E+00
         -1   -1    0    0    0  501 -0.00000000000E+00  0.00000000000E+00  0.10342221098E+04  0.10342221098E+04  0.00000000000E+00 0.  1.
         21   -1    0    0  503  502  0.00000000000E+00 -0.00000000000E+00 -0.93881860027E+03  0.93881860027E+03  0.00000000000E+00 0.  1.
         21    1    1    2  503  504  0.17097903750E+03  0.60035279151E+02 -0.70612318315E+03  0.72900481191E+03  0.00000000000E+00 0.  1.
         21    1    1    2  504  501 -0.27106293219E+01  0.93953304224E+02  0.28329850933E+02  0.98168993780E+02  0.00000000000E+00 0. -1.
         21    1    1    2  505  502 -0.20972253258E+01 -0.49955816669E+02 -0.17273832251E+03  0.17982911343E+03  0.00000000000E+00 0.  1.
         -1    1    1    2    0  505 -0.16617118285E+03 -0.10403276671E+03  0.94593516427E+03  0.96603779096E+03  0.00000000000E+00 0.  1.
<scales pt_clust_3="169.57348" pt_clust_4="91.70858" pt_clust_5="49.99982" pt_clust_6="14000.00000"></scales>
<clustering>
<clus scale="   50.000">  2  5  1 -1</clus>
<clus scale="   91.709">  1  4  2 -1</clus>
<clus scale="  169.573">  2  3  1 -1</clus>
<clus scale="   50.000">  2  3  1 -1</clus>
</clustering>
</event>
<event>
 6    0  0.4189111E+002  0.1933253E+03  0.7546771E-02  0.1155496E+00
         21   -1    0    0  503  502  0.00000000000E+00  0.00000000000E+00  0.16059081785E+03  0.16059081785E+03  0.00000000000E+00 0.  1.
         -2   -1    0    0    0  501 -0.00000000000E+00 -0.00000000000E+00 -0.59434617176E+03  0.59434617176E+03  0.00000000000E+00 0.  1.
         21    1    1    2  503  505  0.10963955156E+03  0.88481069396E+02 -0.75655455759E+02  0.15991710007E+03  0.00000000000E+00 0. -1.
         21    1    1    2  504  501  0.39663993379E+02 -0.61134517825E+01 -0.78513663392E+02  0.88175971799E+02  0.00000000000E+00 0.  1.
         21    1    1    2  505  504 -0.24169256234E+03  0.63600715285E+02 -0.17030660603E+03  0.30243129093E+03  0.00000000000E+00 0.  1.
         -2    1    1    2    0  502  0.92389017404E+02 -0.14596833290E+03 -0.10927962872E+03  0.20441262681E+03  0.00000000000E+00 0.  1.
<scales pt_clust_3="147.27768" pt_clust_4="40.13236" pt_clust_5="14000.00000" pt_clust_6="193.32527"></scales>
<clustering>
<clus scale="   40.132">  2  4  1 -1</clus>
<clus scale="  147.278">  1  3  2 -1</clus>
<clus scale="  193.325">  2  6  1 -1</clus>
<clus scale="  147.278">  1  3  2 -1</clus>
</clustering>
</event>
<event>
 6    0  0.4189111E+002  0.6051780E+02  0.7546771E-02  0.1395672E+00
         21   -1    0    0  505  502  0.00000000000E+00  0.00000000000E+00  0.17023314252E+03  0.17023314252E+03  0.00000000000E+00 0.  1.
          1   -1    0    0  504    0 -0.00000000000E+00 -0.00000000000E+00 -0.84144432531E+03  0.84144432531E+03  0.00000000000E+00 0.  1.
         21    1    1    2  503  502  0.20025115084E+02  0.26939644210E+02 -0.49060243231E+01  0.33923719415E+02  0.00000000000E+00 0.  1.
         21    1    1    2  504  503 -0.54896192783E+02  0.20068725564E+02 -0.11722141522E+03  0.13098551795E+03  0.00000000000E+00 0. -1.
         21    1    1    2  505  501 -0.57816094697E+02  0.18595485318E+02  0.13778494798E+03  0.15057617597E+03  0.00000000000E+00 0.  1.
          1    1    1    2  501    0  0.92687172396E+02 -0.65603855092E+02 -0.68686869124E+03  0.69619205449E+03  0.00000000000E+00 0.  1.
<scales pt_clust_3="33.56709" pt_clust_4="58.04453" pt_clust_5="60.51780" pt_clust_6="14000.00000"></scales>
<clustering>
<clus scale="   33.567">  1  3  2 -1</clus>
<clus scale="   58.045">  2  4  1 -1</clus>
<clus scale="   60.518">  1  5  2 -1</clus>
<clus scale="   33.567">  1  3  2 -1</clus>
</clustering>
</event>
<event>
 6    0  0.4189111E+002  0.7359403E+02  0.7546771E-02  0.1348281E+00
          3   -1    0    0  505    0 -0.00000000000E+00  0.00000000000E+00  0.24800804668E+03  0.24800804668E+03  0.00000000000E+00 0. -1.
         21   -1    0    0  503  502  0.00000000000E+00 -0.00000000000E+00 -0.73003503594E+03  0.73003503594E+03  0.00000000000E+00 0.  1.
         21    1    1    2  503  501 -0.26961308431E+01 -0.66727426972E+02 -0.48577643629E+03  0.49034535247E+03  0.00000000000E+00 0.  1.
         21    1    1    2  504  502  0.51331400984E+01  0.12189371975E+03 -0.21299047058E+03  0.24545746801E+03  0.00000000000E+00 0.  1.
         21    1    1    2  505  504 -0.44872709925E+02 -0.11939966452E+02  0.76695360040E+02  0.89656573359E+02  0.00000000000E+00 0. -1.
          3    1    1    2  501    0  0.42435700670E+02 -0.43226326330E+02  0.14004455757E+03  0.15258368878E+03  0.00000000000E+00 0. -1.
<scales pt_clust_3="73.59403" pt_clust_4="14000.00000" pt_clust_5="46.43407" pt_clust_6="53.88787"></scales>
<clustering>
<clus scale="   46.434">  1  5  2 -1</clus>
<clus scale="   53.888">  1  6  2 -1</clus>
<clus scale="   73.594">  2  3  1 -1</clus>
<clus scale="   73.594">  2  3  1 -1</clus>
</clustering>
</event>
<event>
 6    0  0.4189111E+002  0.1115495E+03  0.7546771E-02  0.1257727E+00
         -4   -1    0    0    0  501 -0.00000000000E+00  0.00000000000E+00  0.95681650444E+03  0.95681650444E+03  0.00000000000E+00 0.  1.
         21   -1    0    0  504  502  0.00000000000E+00 -0.00000000000E+00 -0.50888500650E+03  0.50888500650E+03  0.00000000000E+00 0. -1.
         21    1    1    2  503  502  0.57796651211E+02 -0.89325020479E+01 -0.44721723914E+03  0.45102494551E+03  0.00000000000E+00 0. -1.
         21    1    1    2  504  501 -0.52385748169E+02 -0.94066335469E+02 -0.47918501709E+01  0.10777617505E+03  0.00000000000E+00 0. -1.
         21    1    1    2  505  503  0.12805733376E+01  0.48682788681E+02  0.25267234069E+03  0.25732268756E+03  0.00000000000E+00 0. -1.
         -4    1    1    2    0  505 -0.66914763790E+01  0.54316048835E+02  0.64726824655E+03  0.64957770283E+03  0.00000000000E+00 0.  1.
<scales pt_clust_3="58.48284" pt_clust_4="102.49913" pt_clust_5="41.51955" pt_clust_6="41.51955"></scales>
<clustering>
<clus scale="   41.520">  5  6 -1 -1</clus>
<clus scale="   58.483">  2  3  1 -1</clus>
<clus scale="  102.499">  2  4  1 -1</clus>
<clus scale="   58.483">  2  3  1 -1</clus>
</clustering>
</event>
<event>
 6    0  0.4189111E+002  0.1837325E+03  0.7546771E-02  0.1164239E+00
         21   -1    0    0  504  502  0.00000000000E+00  0.00000000000E+00  0.34924552257E+03  0.34924552257E+03  0.00000000000E+00 0. -1.
          2   -1    0    0  505    0 -0.00000000000E+00 -0.00000000000E+00 -0.22138847511E+04  0.22138847511E+04  0.00000000000E+00 0.  1.
         21    1    1    2  503  501  0.50728108138E+02  0.20308980651E+00 -0.37917043758E+03  0.38254882425E+03  0.00000000000E+00 0.  1.
         21    1    1    2  504  503 -0.10681357869E+03 -0.56831003717E+02  0.27798100909E+03  0.30317048833E+03  0.00000000000E+00 0. -1.
         21    1    1    2  505  502 -0.56934359951E+02  0.90132909584E+00  0.39985540156E+02  0.69578568243E+02  0.00000000000E+00 0.  1.
          2    1    1    2  501    0  0.11301983050E+03  0.55726584814E+02 -0.18034353402E+04  0.18078323928E+04  0.00000000000E+00 0.  1.
<scales pt_clust_3="40.43003" pt_clust_4="172.32886" pt_clust_5="56.94149" pt_clust_6="40.43003"></scales>
<clustering>
<clus scale="   40.430">  3  6 -1 -1</clus>
<clus scale="   56.941">  1  5  2 -1</clus>
<clus scale="  172.329">  1  4  2 -1</clus>
<clus scale="   56.941">  1  3  2 -1</clus>
</clustering>
</event>
<event>
 6    0  0.4189111E+002  0.1592409E+03  0.7546771E-02  0.1189556E+00
         21   -1    0    0  503  502  0.00000000000E+00  0.00000000000E+00  0.71937003683E+03  0.71937003683E+03  0.00000000000E+00 0. -1.
          1   -1    0    0  505    0 -0.00000000000E+00 -0.00000000000E+00 -0.56402582162E+03  0.56402582162E+03  0.00000000000E+00 0.  1.
         21    1    1    2  503  504  0.14545520766E+03 -0.48101722389E+02  0.69390371432E+03  0.71061477460E+03  0.00000000000E+00 0. -1.
         21    1    1    2  504  501 -0.46767844432E+02 -0.21360991855E+02 -0.12572787544E+03  0.13583453872E+03  0.00000000000E+00 0.  1.
         21    1    1    2  505  502 -0.47026510514E+02  0.61124872047E+02 -0.14688427541E+03  0.16589976804E+03  0.00000000000E+00 0. -1.
          1    1    1    2  501    0 -0.51660852716E+02  0.83378421974E+01 -0.26594734828E+03  0.27104677709E+03  0.00000000000E+00 0.  1.
<scales pt_clust_3="151.89648" pt_clust_4="47.38347" pt_clust_5="77.12161" pt_clust_6="47.38347"></scales>
<clustering>
<clus scale="   47.383">  4  6 -1 -1</clus>
<clus scale="   77.122">  2  5  1 -1</clus>
<clus scale="  151.896">  1  3  2 -1</clus>
<clus scale="  151.896">  1  3  2 -1</clus>
</clustering>
</event>
<event>
 6    0  0.4189111E+002  0.9385630E+02  0.7546771E-02  0.1293773E+00
          2   -1    0    0  504    0 -0.00000000000E+00  0.00000000000E+00  0.56943092576E+03  0.56943092576E+03  0.00000000000E+00 0.  1.
         21   -1    0    0  505  502  0.00000000000E+00 -0.00000000000E+00 -0.45872615659E+03  0.45872615659E+03  0.00000000000E+00 0.  1.
         21    1    1    2  503  502  0.37309650579E+02 -0.17120518196E+02 -0.37396336556E+03  0.37620967684E+03  0.00000000000E+00 0.  1.
         21    1    1    2  504  503  0.30334679455E+02 -0.16644298139E+02  0.25027936450E+02  0.42703899601E+02  0.00000000000E+00 0.  1.
         21    1    1    2  505  501 -0.10038275927E+03  0.83516147963E+02 -0.14493614359E+02  0.13138382772E+03  0.00000000000E+00 0.  1.
          2    1    1    2  501    0  0.32738429239E+02 -0.49751331627E+02  0.47413381264E+03  0.47785967818E+03  0.00000000000E+00 0.  1.
<scales pt_clust_3="41.12262" pt_clust_4="34.60095" pt_clust_5="93.85630" pt_clust_6="14000.00000"></scales>
<clustering>
<clus scale="   34.601">  1  4  2 -1</clus>
<clus scale="   41.123">  2  3  1 -1</clus>
<clus scale="   93.856">  2  5  1 -1</clus>
<clus scale="   41.123">  2  3  1 -1</clus>
</clustering>
</event>
<event>
 6    0  0.4189111E+002  0.8868177E+02  0.7546771E-02  0.1306076E+00
         21   -1    0    0  501  502  0.00000000000E+00  0.00000000000E+00  0.78675576998E+02  0.78675576998E+02  0.00000000000E+00 0.  1.
          1   -1    0    0  503    0 -0.00000000000E+00 -0.00000000000E+00 -0.10389300160E+04  0.10389300160E+04  0.00000000000E+00 0.  1.
         21    1    1    2  503  505 -0.19919898560E+02  0.35930405813E+02 -0.22897077333E+03  0.23262719415E+03  0.00000000000E+00 0.  1.
         21    1    1    2  504  502  0.23950655342E+02  0.34031346195E+02  0.16751007544E+02  0.44859365454E+02  0.00000000000E+00 0. -1.
         21    1    1    2  505  504  0.43387928691E+01 -0.12023425514E+03 -0.35048354697E+02  0.12531356032E+03  0.00000000000E+00 0.  1.
          1    1    1    2  501    0 -0.83695496508E+01  0.50272503136E+02 -0.71298631855E+03  0.71480547310E+03  0.00000000000E+00 0.  1.
<scales pt_clust_3="41.08280" pt_clust_4="41.93105" pt_clust_5="14000.00000" pt_clust_6="88.68177"></scales>
<clustering>
<clus scale="   41.083">  2  3  1 -1</clus>
<clus scale="   41.931">  1  4  2 -1</clus>
<clus scale="   88.682">  2  6  1 -1</clus>
<clus scale="   41.931">  1  3  2 -1</clus>
</clustering>
</event>
<event>
 6    0  0.4189111E+002  0.3564411E+03  0.7546771E-02  0.1060002E+00
         21   -1    0    0  505  502  0.00000000000E+00  0.00000000000E+00  0.57985639357E+03  0.57985639357E+03  0.00000000000E+00 0. -1.
          1   -1    0    0  504    0 -0.00000000000E+00 -0.00000000000E+00 -0.41793165206E+03  0.41793165206E+03  0.00000000000E+00 0. -1.
         21    1    1    2  503  502  0.11468967792E+02  0.33263467960E+02  0.23543058702E+03  0.23804528314E+03  0.00000000000E+00 0. -1.
         21    1    1    2  504  503  0.19403336312E+03  0.26389143843E+03 -0.16917936997E+03  0.36865878059E+03  0.00000000000E+00 0. -1.
         21    1    1    2  505  501 -0.33196630561E+02 -0.42135804536E+02  0.61208715061E+02  0.81387647121E+02  0.00000000000E+00 0. -1.
          1    1    1    2  501    0 -0.17230570035E+03 -0.25501910186E+03  0.34464809412E+02  0.30969633478E+03  0.00000000000E+00 0. -1.
<scales pt_clust_3="35.18516" pt_clust_4="337.32663" pt_clust_5="46.19948" pt_clust_6="46.19948"></scales>
<clustering>
<clus scale="   35.185">  1  3  2 -1</clus>
<clus scale="   46.199">  5  6 -1 -1</clus>
<clus scale="  337.327">  2  4  1 -1</clus>
<clus scale="   35.185">  1  3  2 -1</clus>
</clustering>
</event>
<event>
 6    0  0.4189111E+002  0.9721051E+02  0.7546771E-02  0.1286274E+00
          2   -1    0    0  504    0 -0.00000000000E+00  0.00000000000E+00  0.65346861098E+03  0.65346861098E+03  0.00000000000E+00 0. -1.
         21   -1    0    0  501  502  0.00000000000E+00 -0.00000000000E+00 -0.76789818225E+02  0.76789818225E+02  0.00000000000E+00 0. -1.
         21    1    1    2  503  502 -0.40545255874E+02  0.16781437225E+02 -0.41062050354E+02  0.60096808472E+02  0.00000000000E+00 0. -1.
         21    1    1    2  504  505  0.26023711731E+02 -0.21504466045E+02  0.25381927349E+03  0.25605448488E+03  0.00000000000E+00 0. -1.
         21    1    1    2  505  503 -0.80041284972E+01  0.91956221120E+02  0.10420367109E+03  0.13920638543E+03  0.00000000000E+00 0. -1.
          2    1    1    2  501    0  0.22525672640E+02 -0.87233192301E+02  0.25971789853E+03  0.27490075042E+03  0.00000000000E+00 0. -1.
<scales pt_clust_3="43.11093" pt_clust_4="33.75908" pt_clust_5="14000.00000" pt_clust_6="97.21051"></scales>
<clustering>
<clus scale="   33.759">  1  4  2 -1</clus>
<clus scale="   43.111">  2  3  1 -1</clus>
<clus scale="   97.211">  1  6  2 -1</clus>
<clus scale="   43.111">  2  3  1 -1</clus>
</clustering>
</event>
<event>
 6    0  0.4189111E+002  0.1252402E+03  0.7546771E-02  0.1234694E+00
         21   -1    0    0  504  502  0.00000000000E+00  0.00000000000E+00  0.22300545285E+03  0.22300545285E+03  0.00000000000E+00 0.  1.
          2   -1    0    0  505    0 -0.00000000000E+00 -0.00000000000E+00 -0.18938891217E+04  0.18938891217E+04  0.00000000000E+00 0.  1.
         21    1    1    2  503  502  0.99697740181E+02 -0.29579785871E+02  0.17837518217E+03  0.20647592776E+03  0.00000000000E+00 0.  1.
         21    1    1    2  504  501 -0.21382365525E+03 -0.17315914502E+02 -0.39135387931E+03  0.44629391133E+03  0.00000000000E+00 0.  1.
         21    1    1    2  505  503  0.27254964477E+02  0.14267649751E+02 -0.68148400080E+03  0.68217801361E+03  0.00000000000E+00 0.  1.
          2    1    1    2  501    0  0.86870950593E+02  0.32628050621E+02 -0.77642097091E+03  0.78194672185E+03  0.00000000000E+00 0.  1.
<scales pt_clust_3="104.24943" pt_clust_4="14000.00000" pt_clust_5="30.76360" pt_clust_6="125.24025"></scales>
<clustering>
<clus scale="   30.764">  2  5  1 -1</clus>
<clus scale="  104.249">  1  3  2 -1</clus>
<clus scale="  125.240">  2  6  1 -1</clus>
<clus scale="  104.249">  1  3  2 -1</clus>
</clustering>
</event>
<event>
 6    0  0.4189111E+002  0.9565166E+02  0.7546771E-02  0.1289715E+00
         21   -1    0    0  505  502  0.00000000000E+00  0.00000000000E+00  0.23488826256E+02  0.23488826256E+02  0.00000000000E+00 0.  1.
          1   -1    0    0  503    0 -0.00000000000E+00 -0.00000000000E+00 -0.29925517423E+04  0.29925517423E+04  0.00000000000E+00 0.  1.
         21    1    1    2  503  504 -0.66857388107E+02  0.30502488374E+02 -0.11742736486E+04  0.11765708283E+04  0.00000000000E+00 0.  1.
         21    1    1    2  504  502  0.43504166341E+02  0.47083576364E+02 -0.54178079190E+02  0.83932948936E+02  0.00000000000E+00 0.  1.
         21    1    1    2  505  501  0.59957803213E+02 -0.98005751971E+01 -0.13456378351E+03  0.14764281653E+03  0.00000000000E+00 0.  1.
          1    1    1    2  501    0 -0.36604581447E+02 -0.67785489541E+02 -0.16060474047E+04  0.16078939748E+04  0.00000000000E+00 0.  1.
<scales pt_clust_3="69.52300" pt_clust_4="95.65166" pt_clust_5="60.75351" pt_clust_6="14000.00000"></scales>
<clustering>
<clus scale="   60.754">  1  5  2 -1</clus>
<clus scale="   69.523">  2  3  1 -1</clus>
<clus scale="   95.652">  1  4  2 -1</clus>
<clus scale="   60.754">  1  3  2 -1</clus>
</clustering>
</event>
<event>
 6    0  0.4189111E+002  0.8510028E+02  0.7546771E-02  0.1315170E+00
          2   -1    0    0  503    0 -0.00000000000E+00  0.00000000000E+00  0.24633625280E+04  0.24633625280E+04  0.00000000000E+00 0.  1.
         21   -1    0    0  505  502  0.00000000000E+00 -0.00000000000E+00 -0.92970416589E+02  0.92970416589E+02  0.00000000000E+00 0.  1.
         21    1    1    2  503  504 -0.32916667940E+01  0.37737040997E+02  0.60538315028E+03  0.60656712570E+03  0.00000000000E+00 0.  1.
         21    1    1    2  504  502  0.59862051389E+02  0.44741784517E+02  0.61832081606E+02  0.96997416430E+02  0.00000000000E+00 0.  1.
         21    1    1    2  505  501 -0.46608508580E+01 -0.97956771572E+02 -0.42048888508E+02  0.10670221016E+03  0.00000000000E+00 0.  1.
          2    1    1    2  501    0 -0.51909533737E+02  0.15477946058E+02  0.17452257680E+04  0.17460661923E+04  0.00000000000E+00 0.  1.
<scales pt_clust_3="37.88033" pt_clust_4="14000.00000" pt_clust_5="85.10028" pt_clust_6="74.97141"></scales>
<clustering>
<clus scale="   37.880">  1  3  2 -1</clus>
<clus scale="   74.971">  1  6  2 -1</clus>
<clus scale="   85.100">  2  5  1 -1</clus>
<clus scale="   85.100">  2  3  1 -1</clus>
</clustering>
</event>
<event>
 6    0  0.4189111E+002  0.1208165E+03  0.7546771E-02  0.1241756E+00
          2   -1    0    0  503    0 -0.00000000000E+00  0.00000000000E+00  0.28616384656E+04  0.28616384656E+04  0.00000000000E+00 0.  1.
         21   -1    0    0  504  502  0.00000000000E+00 -0.00000000000E+00 -0.32132537896E+02  0.32132537896E+02  0.00000000000E+00 0. -1.
         21    1    1    2  503  505  0.33982888727E+02 -0.74907316241E+01  0.44888762290E+03  0.45023443425E+03  0.00000000000E+00 0.  1.
         21    1    1    2  504  501  0.29087376083E+02  0.76082678485E+01  0.51869260405E+02  0.59953159733E+02  0.00000000000E+00 0. -1.
         21    1    1    2  505  502 -0.78163455718E+02  0.10433678461E+03  0.13634864068E+03  0.18864422135E+03  0.00000000000E+00 0. -1.
          2    1    1    2  501    0  0.15093190909E+02 -0.10445432083E+03  0.21924004037E+04  0.21949391881E+04  0.00000000000E+00 0.  1.
<scales pt_clust_3="35.44189" pt_clust_4="30.06595" pt_clust_5="14000.00000" pt_clust_6="120.81649"></scales>
<clustering>
<clus scale="   30.066">  2  4  1 -1</clus>
<clus scale="   35.442">  1  3  2 -1</clus>
<clus scale="  120.816">  1  6  2 -1</clus>
<clus scale="   30.066">  2  3  1 -1</clus>
</clustering>
</event>
<event>
 6    0  0.4189111E+002  0.1687038E+03  0.7546771E-02  0.1179206E+00
          2   -1    0    0  505    0 -0.00000000000E+00  0.00000000000E+00  0.38787113058E+04  0.38787113058E+04  0.00000000000E+00 0. -1.
         21   -1    0    0  503  502  0.00000000000E+00 -0.00000000000E+00 -0.94933817988E+02  0.94933817988E+02  0.00000000000E+00 0.  1.
         21    1    1    2  503  501 -0.29066617058E+02  0.93381029471E+02  0.24001578267E+02  0.10070233687E+03  0.00000000000E+00 0. -1.
         21    1    1    2  504  502 -0.39675152862E+02 -0.61599847023E+02 -0.10638343690E+02  0.74039403457E+02  0.00000000000E+00 0.  1.
         21    1    1    2  505  504 -0.14310445365E+03 -0.73522402120E+02  0.28062396993E+04  0.28108478575E+04  0.00000000000E+00 0. -1.
          2    1    1    2  501    0  0.21184622357E+03  0.41741219672E+02  0.96417455400E+03  0.98805552600E+03  0.00000000000E+00 0. -1.
<scales pt_clust_3="75.58037" pt_clust_4="73.27113" pt_clust_5="168.70377" pt_clust_6="14000.00000"></scales>
<clustering>
<clus scale="   73.271">  2  4  1 -1</clus>
<clus scale="   75.580">  2  3  1 -1</clus>
<clus scale="  168.704">  1  5  2 -1</clus>
<clus scale="   73.271">  2  3  1 -1</clus>
</clustering>
</event>
<event>
 6    0  0.4189111E+002  0.1528195E+03  0.7546771E-02  0.1197051E+00
         21   -1    0    0  505  502  0.00000000000E+00  0.00000000000E+00  0.19891465564E+04  0.19891465564E+04  0.00000000000E+00 0.  1.
         -1   -1    0    0    0  501 -0.00000000000E+00 -0.00000000000E+00 -0.19942670099E+03  0.19942670099E+03  0.00000000000E+00 0.  1.
         21    1    1    2  503  504 -0.29687091668E+02 -0.16476243720E+03  0.11314397722E+04  0.11437586905E+04  0.00000000000E+00 0.  1.
         21    1    1    2  504  502 -0.60869185613E+02  0.47522862954E+02  0.65009661025E+03  0.65466715430E+03  0.00000000000E+00 0.  1.
         21    1    1    2  505  501  0.15593673030E+02 -0.11664572175E+03  0.69939490891E+02  0.13689747780E+03  0.00000000000E+00 0.  1.
         -1    1    1    2    0  503  0.74962604251E+02  0.23388529600E+03 -0.61756017882E+02  0.25324993478E+03  0.00000000000E+00 0.  1.
<scales pt_clust_3="14000.00000" pt_clust_4="77.22357" pt_clust_5="113.49228" pt_clust_6="152.81948"></scales>
<clustering>
<clus scale="   77.224">  1  4  2 -1</clus>
<clus scale="  113.492">  2  5  1 -1</clus>
<clus scale="  152.819">  2  6  1 -1</clus>
<clus scale="   77.224">  1  3  2 -1</clus>
</clustering>
</event>
<event>
 6    0  0.4189111E+002  0.1179918E+03  0.7546771E-02  0.1246447E+00
          2   -1    0    0  503    0 -0.00000000000E+00  0.00000000000E+00  0.10371182758E+04  0.10371182758E+04  0.00000000000E+00 0. -1.
         21   -1    0    0  505  502  0.00000000000E+00 -0.00000000000E+00 -0.28856971273E+03  0.28856971273E+03  0.00000000000E+00 0. -1.
         21    1    1    2  503  502 -0.46676009219E+02  0.17480974367E+03 -0.20117711490E+03  0.27057222303E+03  0.00000000000E+00 0. -1.
         21    1    1    2  504  501  0.52895675941E+02 -0.67026819106E+02  0.20687995944E+03  0.22380765097E+03  0.00000000000E+00 0. -1.
         21    1    1    2  505  504  0.27330877487E+02 -0.53696150186E+02 -0.21758019389E+02  0.64059853393E+02  0.00000000000E+00 0.  1.
          2    1    1    2  501    0 -0.33550544209E+02 -0.54086774378E+02  0.76460373791E+03  0.76724826113E+03  0.00000000000E+00 0. -1.
<scales pt_clust_3="117.99176" pt_clust_4="14000.00000" pt_clust_5="60.25158" pt_clust_6="63.81627"></scales>
<clustering>
<clus scale="   60.252">  2  5  1 -1</clus>
<clus scale="   63.816">  1  6  2 -1</clus>
<clus scale="  117.992">  2  3  1 -1</clus>
<clus scale="   60.252">  2  3  1 -1</clus>
</clustering>
</event>
<event>
 6    0  0.4189111E+002  0.1590816E+03  0.7546771E-02  0.1189738E+00
         -4   -1    0    0    0  501 -0.00000000000E+00  0.00000000000E+00  0.38869386749E+03  0.38869386749E+03  0.00000000000E+00 0.  1.
         21   -1    0    0  504  502  0.00000000000E+00 -0.00000000000E+00 -0.46022014128E+03  0.46022014128E+03  0.00000000000E+00 0. -1.
         21    1    1    2  503  505  0.24939791589E+02 -0.17942406475E+03 -0.22381928084E+02  0.18252654306E+03  0.00000000000E+00 0. -1.
         21    1    1    2  504  501  0.10345063034E+01  0.34038975595E+02 -0.21636077868E+03  0.21902444753E+03  0.00000000000E+00 0. -1.
         21    1    1    2  505  502 -0.30457842766E+02 -0.97768660533E+01 -0.11820772497E+03  0.12245951796E+03  0.00000000000E+00 0. -1.
         -4    1    1    2    0  503  0.44835448734E+01  0.15516195521E+03  0.28542415795E+03  0.32490350022E+03  0.00000000000E+00 0.  1.
<scales pt_clust_3="14000.00000" pt_clust_4="33.35906" pt_clust_5="31.98855" pt_clust_6="159.08158"></scales>
<clustering>
<clus scale="   31.989">  2  5  1 -1</clus>
<clus scale="   33.359">  2  4  1 -1</clus>
<clus scale="  159.082">  1  6  2 -1</clus>
<clus scale="   31.989">  2  3  1 -1</clus>
</clustering>
</event>
<event>
 6    0  0.4189111E+002  0.1298706E+03  0.7546771E-02  0.1227648E+00
         21   -1    0    0  503  502  0.00000000000E+00  0.00000000000E+00  0.22414756177E+03  0.22414756177E+03  0.00000000000E+00 0. -1.
          2   -1    0    0  505    0 -0.00000000000E+00 -0.00000000000E+00 -0.34076045082E+04  0.34076045082E+04  0.00000000000E+00 0. -1.
         21    1    1    2  503  504 -0.87943570645E+02 -0.13574910752E+03  0.16759052873E+03  0.23291302482E+03  0.00000000000E+00 0. -1.
         21    1    1    2  504  501  0.16626967966E+03  0.97149187996E+01 -0.11880194751E+04  0.11996375533E+04  0.00000000000E+00 0. -1.
         21    1    1    2  505  502  0.64408742625E+00  0.40618586803E+02 -0.84597584713E+01  0.41495204011E+02  0.00000000000E+00 0. -1.
          2    1    1    2  501    0 -0.78970196445E+02  0.85415601914E+02 -0.21545682416E+04  0.21577062878E+04  0.00000000000E+00 0. -1.
<scales pt_clust_3="129.87057" pt_clust_4="14000.00000" pt_clust_5="40.62369" pt_clust_6="116.54990"></scales>
<clustering>
<clus scale="   40.624">  1  5  2 -1</clus>
<clus scale="  116.550">  2  6  1 -1</clus>
<clus scale="  129.871">  1  3  2 -1</clus>
<clus scale="   40.624">  1  3  2 -1</clus>
</clustering>
</event>
<event>
 6    0  0.4189111E+002  0.1037250E+03  0.7546771E-02  0.1272652E+00
          2   -1    0    0  505    0 -0.00000000000E+00  0.00000000000E+00  0.11037156610E+04  0.11037156610E+04  0.00000000000E+00 0.  1.
         21   -1    0    0  504  502  0.00000000000E+00 -0.00000000000E+00 -0.34374541861E+03  0.34374541861E+03  0.00000000000E+00 0.  1.
         21    1    1    2  503  501 -0.13375866469E+03  0.33354523824E+02 -0.25850918215E+03  0.29296911423E+03  0.00000000000E+00 0.  1.
         21    1    1    2  504  503  0.33748979759E+02 -0.57706139678E+01 -0.57706214935E+02  0.67099186749E+02  0.00000000000E+00 0.  1.
         21    1    1    2  505  502  0.33520357836E+02 -0.38448937294E+02  0.14385070242E+03  0.15262686447E+03  0.00000000000E+00 0.  1.
          2    1    1    2  501    0  0.66489327097E+02  0.10865027438E+02  0.93233493704E+03  0.93476591415E+03  0.00000000000E+00 0.  1.
<scales pt_clust_3="14000.00000" pt_clust_4="34.23877" pt_clust_5="51.42403" pt_clust_6="103.72503"></scales>
<clustering>
<clus scale="   34.239">  2  4  1 -1</clus>
<clus scale="   51.424">  1  5  2 -1</clus>
<clus scale="  103.725">  1  6  2 -1</clus>
<clus scale="   34.239">  2  3  1 -1</clus>
</clustering>
</event>
<event>
 6    0  0.4189111E+002  0.1161561E+03  0.7546771E-02  0.1249577E+00
         -1   -1    0    0    0  501 -0.00000000000E+00  0.00000000000E+00  0.12547581883E+04  0.12547581883E+04  0.00000000000E+00 0.  1.
         21   -1    0    0  504  502  0.00000000000E+00 -0.00000000000E+00 -0.10525279377E+03  0.10525279377E+03  0.00000000000E+00 0. -1.
         21    1    1    2  503  505  0.58084679459E+02  0.42559705722E+02  0.61348247132E+02  0.94597917341E+02  0.00000000000E+00 0.  1.
         21    1    1    2  504  503  0.70046587268E+02 -0.38300056264E+01 -0.62492828421E+02  0.93949704284E+02  0.00000000000E+00 0. -1.
         21    1    1    2  505  501 -0.46652476029E+00  0.58915869206E+02  0.33122998531E+03  0.33642919085E+03  0.00000000000E+00 0.  1.
         -1    1    1    2    0  502 -0.12766474197E+03 -0.97645569301E+02  0.81941999054E+03  0.83503416962E+03  0.00000000000E+00 0.  1.
<scales pt_clust_3="14000.00000" pt_clust_4="70.09552" pt_clust_5="58.91772" pt_clust_6="116.15605"></scales>
<clustering>
<clus scale="   58.918">  1  5  2 -1</clus>
<clus scale="   70.096">  2  4  1 -1</clus>
<clus scale="  116.156">  1  6  2 -1</clus>
<clus scale="   70.096">  2  3  1 -1</clus>
</clustering>
</event>
<event>
 6    0  0.4189111E+002  0.7630995E+02  0.7546771E-02  0.1339862E+00
         21   -1    0    0  503  502  0.00000000000E+00  0.00000000000E+00  0.99903643947E+02  0.99903643947E+02  0.00000000000E+00 0. -1.
          1   -1    0    0  505    0 -0.00000000000E+00 -0.00000000000E+00 -0.32674988136E+04  0.32674988136E+04  0.00000000000E+00 0. -1.
         21    1    1    2  503  501 -0.76146469430E+02  0.97841634556E+01  0.53799982512E+02  0.93746748101E+02  0.00000000000E+00 0. -1.
         21    1    1    2  504  502  0.38825173081E+02 -0.13711208278E+02  0.33342723001E+01  0.41309910058E+02  0.00000000000E+00 0. -1.
         21    1    1    2  505  504  0.65062445349E+02  0.48013216768E+02 -0.30203838435E+04  0.30214660271E+04  0.00000000000E+00 0. -1.
          1    1    1    2  501    0 -0.27741149000E+02 -0.44086171946E+02 -0.20434558092E+03  0.21087977225E+03  0.00000000000E+00 0. -1.
<scales pt_clust_3="39.36181" pt_clust_4="41.17513" pt_clust_5="76.30995" pt_clust_6="14000.00000"></scales>
<clustering>
<clus scale="   41.175">  1  4  2 -1</clus>
<clus scale="   39.362">  1  3  2 -1</clus>
<clus scale="   76.310">  2  5  1 -1</clus>
<clus scale="   41.175">  1  3  2 -1</clus>
</clustering>
</event>
<event>
 6    0  0.4189111E+002  0.9621560E+02  0.7546771E-02  0.1288461E+00
         -1   -1    0    0    0  501 -0.00000000000E+00  0.00000000000E+00  0.10602367701E+03  0.10602367701E+03  0.00000000000E+00 0.  1.
         21   -1    0    0  505  502  0.00000000000E+00 -0.00000000000E+00 -0.41992342162E+03  0.41992342162E+03  0.00000000000E+00 0.  1.
         21    1    1    2  503  502  0.57150196772E+02 -0.28780326606E+02 -0.21865067548E+03  0.22782135562E+03  0.00000000000E+00 0.  1.
         21    1    1    2  504  501  0.35626332089E+02 -0.61313180414E+02 -0.70239828687E+02  0.99810696644E+02  0.00000000000E+00 0.  1.
         21    1    1    2  505  504 -0.92550475162E+00  0.30584417095E+02 -0.72741634087E+02  0.78915197888E+02  0.00000000000E+00 0. -1.
         -1    1    1    2    0  503 -0.91851024109E+02  0.59509089925E+02  0.47732393640E+02  0.11939984848E+03  0.00000000000E+00 0.  1.
<scales pt_clust_3="57.25180" pt_clust_4="14000.00000" pt_clust_5="30.59842" pt_clust_6="96.21560"></scales>
<clustering>
<clus scale="   30.598">  2  5  1 -1</clus>
<clus scale="   57.252">  2  3  1 -1</clus>
<clus scale="   96.216">  1  6  2 -1</clus>
<clus scale="   30.598">  2  3  1 -1</clus>
</clustering>
</event>
<event>
 6    0  0.4189111E+002  0.1181937E+03  0.7546771E-02  0.1246107E+00
         21   -1    0    0  504  502  0.00000000000E+00  0.00000000000E+00  0.43060673080E+03  0.43060673080E+03  0.00000000000E+00 0. -1.
          1   -1    0    0  503    0 -0.00000000000E+00 -0.00000000000E+00 -0.23588506662E+03  0.23588506662E+03  0.00000000000E+00 0. -1.
         21    1    1    2  503  502  0.49315903134E+02  0.13655971274E+02  0.13977773156E+02  0.53046413600E+02  0.00000000000E+00 0. -1.
         21    1    1    2  504  505  0.31424200961E+02 -0.49114286465E+02  0.30976557037E+03  0.31520533328E+03  0.00000000000E+00 0. -1.
         21    1    1    2  505  501 -0.15118669540E+03  0.66477126762E+02 -0.22298883018E+02  0.16665492922E+03  0.00000000000E+00 0. -1.
          1    1    1    2  501    0  0.70446591307E+02 -0.31018811572E+02 -0.10672279633E+03  0.13158512133E+03  0.00000000000E+00 0. -1.
<scales pt_clust_3="51.17171" pt_clust_4="58.49965" pt_clust_5="118.19370" pt_clust_6="14000.00000"></scales>
<clustering>
<clus scale="   51.172">  2  3  1 -1</clus>
<clus scale="   58.500">  1  4  2 -1</clus>
<clus scale="  118.194">  1  5  2 -1</clus>
<clus scale="   58.500">  1  3  2 -1</clus>
</clustering>
</event>
<event>
 6    0  0.4189111E+002  0.9203009E+02  0.7546771E-02  0.1298009E+00
          2   -1    0    0  505    0 -0.00000000000E+00  0.00000000000E+00  0.91736778340E+03  0.91736778340E+03  0.00000000000E+00 0. -1.
         21   -1    0    0  504  502  0.00000000000E+00 -0.00000000000E+00 -0.63885483755E+02  0.63885483755E+02  0.00000000000E+00 0.  1.
         21    1    1    2  503  501  0.86395335045E+01 -0.60019203907E+02  0.42859327176E+03  0.43286157022E+03  0.00000000000E+00 0. -1.
         21    1    1    2  504  503  0.62910705010E+02  0.11113003913E+03  0.29579124963E+02  0.13108229108E+03  0.00000000000E+00 0.  1.
         21    1    1    2  505  502 -0.19946230370E+02 -0.24772360110E+02  0.20035741644E+02  0.37589265417E+02  0.00000000000E+00 0.  1.
          2    1    1    2  501    0 -0.51604008144E+02 -0.26338475114E+02  0.37527416128E+03  0.37972014043E+03  0.00000000000E+00 0. -1.
<scales pt_clust_3="14000.00000" pt_clust_4="92.03009" pt_clust_5="31.80443" pt_clust_6="59.11019"></scales>
<clustering>
<clus scale="   31.804">  2  5  1 -1</clus>
<clus scale="   59.110">  1  6  2 -1</clus>
<clus scale="   92.030">  2  4  1 -1</clus>
<clus scale="   31.804">  2  3  1 -1</clus>
</clustering>
</event>
<event>
 6    0  0.4189111E+002  0.3604757E+03  0.7546771E-02  0.1058396E+00
          2   -1    0    0  503    0 -0.00000000000E+00  0.00000000000E+00  0.13260926749E+04  0.13260926749E+04  0.00000000000E+00 0. -1.
         21   -1    0    0  504  502  0.00000000000E+00 -0.00000000000E+00 -0.43200993484E+03  0.43200993484E+03  0.00000000000E+00 0.  1.
         21    1    1    2  503  502 -0.59366741272E+02  0.50859375111E+02  0.30587715174E+02  0.83944590806E+02  0.00000000000E+00 0.  1.
         21    1    1    2  504  505 -0.25050753183E+03 -0.18480121260E+03 -0.31396617131E+03  0.44213150579E+03  0.00000000000E+00 0.  1.
         21    1    1    2  505  501  0.14999094159E+03  0.50870570793E+01  0.38027450605E+03  0.40881763741E+03  0.00000000000E+00 0. -1.
          2    1    1    2  501    0  0.15988333152E+03  0.12885478041E+03  0.79718669013E+03  0.82320887571E+03  0.00000000000E+00 0. -1.
<scales pt_clust_3="78.17344" pt_clust_4="335.30693" pt_clust_5="112.49068" pt_clust_6="112.49068"></scales>
<clustering>
<clus scale="   78.173">  2  3  1 -1</clus>
<clus scale="  112.491">  5  6 -1 -1</clus>
<clus scale="  335.307">  2  4  1 -1</clus>
<clus scale="   78.173">  2  3  1 -1</clus>
</clustering>
</event>
<event>
 6    0  0.4189111E+002  0.1002321E+03  0.7546771E-02  0.1279809E+00
         21   -1    0    0  505  502  0.00000000000E+00  0.00000000000E+00  0.89235067984E+02  0.89235067984E+02  0.00000000000E+00 0.  1.
          1   -1    0    0  503    0 -0.00000000000E+00 -0.00000000000E+00 -0.52479823779E+03  0.52479823779E+03  0.00000000000E+00 0.  1.
         21    1    1    2  503  502  0.52425262277E+02  0.55348503719E+02 -0.99702985593E+02  0.12550916431E+03  0.00000000000E+00 0.  1.
         21    1    1    2  504  501  0.59201570056E+02 -0.29056994681E+01  0.13754575936E+02  0.60847821207E+02  0.00000000000E+00 0.  1.
         21    1    1    2  505  504 -0.31068903097E+02  0.33134428852E+02  0.12381165264E+02  0.47079298723E+02  0.00000000000E+00 0.  1.
          1    1    1    2  501    0 -0.80557929235E+02 -0.85577233102E+02 -0.36199592542E+03  0.38059702154E+03  0.00000000000E+00 0.  1.
<scales pt_clust_3="14000.00000" pt_clust_4="43.55788" pt_clust_5="45.42210" pt_clust_6="100.23206"></scales>
<clustering>
<clus scale="   45.422">  1  5  2 -1</clus>
<clus scale="   43.558">  1  4  2 -1</clus>
<clus scale="  100.232">  2  6  1 -1</clus>
<clus scale="   45.422">  1  3  2 -1</clus>
</clustering>
</event>
<event>
 6    0  0.4189111E+002  0.3286899E+03  0.7546771E-02  0.1071718E+00
          2   -1    0    0  503    0 -0.00000000000E+00  0.00000000000E+00  0.10834070655E+04  0.10834070655E+04  0.00000000000E+00 0. -1.
         21   -1    0    0  505  502  0.00000000000E+00 -0.00000000000E+00 -0.31375321903E+03  0.31375321903E+03  0.00000000000E+00 0. -1.
         21    1    1    2  503  502 -0.38882534716E+03  0.14354810037E+03  0.65185613130E+03  0.77246852598E+03  0.00000000000E+00 0. -1.
         21    1    1    2  504  501  0.40963299822E+02 -0.30417582392E+02  0.78656007008E+02  0.93754939546E+02  0.00000000000E+00 0.  1.
         21    1    1    2  505  504  0.30976614172E+03 -0.65798678644E+02 -0.13667892220E+03  0.34491398412E+03  0.00000000000E+00 0. -1.
          2    1    1    2  501    0  0.38095905621E+02 -0.47331839329E+02  0.17582063031E+03  0.18602283484E+03  0.00000000000E+00 0. -1.
<scales pt_clust_3="328.68990" pt_clust_4="32.03276" pt_clust_5="14000.00000" pt_clust_6="116.26368"></scales>
<clustering>
<clus scale="   32.033">  4  6 -1 -1</clus>
<clus scale="  116.264">  1  4  2 -1</clus>
<clus scale="  328.690">  1  3  2 -1</clus>
<clus scale="  328.690">  2  3  1 -1</clus>
</clustering>
</event>
<event>
 6    0  0.4189111E+002  0.8692538E+02  0.7546771E-02  0.1310473E+00
          2   -1    0    0  505    0 -0.00000000000E+00  0.00000000000E+00  0.13114681491E+04  0.13114681491E+04  0.00000000000E+00 0.  1.
         21   -1    0    0  504  502  0.00000000000E+00 -0.00000000000E+00 -0.19461968874E+03  0.19461968874E+03  0.00000000000E+00 0. -1.
         21    1    1    2  503  502  0.78198536990E+02  0.75436332023E+02  0.97339694333E+02  0.14587894800E+03  0.00000000000E+00 0. -1.
         21    1    1    2  504  501  0.17232224373E+02 -0.62262136497E+02 -0.15804846123E+03  0.17074202557E+03  0.00000000000E+00 0. -1.
         21    1    1    2  505  503 -0.60862448833E+02  0.54200089917E+02  0.81631317030E+03  0.82037130583E+03  0.00000000000E+00 0.  1.
          2    1    1    2  501    0 -0.34568312530E+02 -0.67374285443E+02  0.36124405691E+03  0.36909555839E+03  0.00000000000E+00 0.  1.
<scales pt_clust_3="14000.00000" pt_clust_4="64.60281" pt_clust_5="77.88954" pt_clust_6="86.92538"></scales>
<clustering>
<clus scale="   64.603">  2  4  1 -1</clus>
<clus scale="   77.890">  1  5  2 -1</clus>
<clus scale="   86.925">  1  6  2 -1</clus>
<clus scale="   64.603">  2  3  1 -1</clus>
</clustering>
</event>
<event>
 6    0  0.4189111E+002  0.2430772E+03  0.7546771E-02  0.1117760E+00
          2   -1    0    0  505    0 -0.00000000000E+00  0.00000000000E+00  0.16177707469E+04  0.16177707469E+04  0.00000000000E+00 0. -1.
         21   -1    0    0  504  502  0.00000000000E+00 -0.00000000000E+00 -0.11795769424E+04  0.11795769424E+04  0.00000000000E+00 0.  1.
         21    1    1    2  503  502  0.10089069949E+03 -0.37653189796E+02 -0.14636138734E+02  0.10867802217E+03  0.00000000000E+00 0. -1.
         21    1    1    2  504  501 -0.19547224189E+03 -0.28930781683E+03 -0.10001299326E+04  0.10593244509E+04  0.00000000000E+00 0.  1.
         21    1    1    2  505  503  0.84596604374E+02  0.84611747497E+02 -0.32683151121E+02  0.12403193804E+03  0.00000000000E+00 0. -1.
          2    1    1    2  501    0  0.99849380183E+01  0.24234925913E+03  0.14856430269E+04  0.15053132783E+04  0.00000000000E+00 0. -1.
<scales pt_clust_3="107.68796" pt_clust_4="243.07719" pt_clust_5="122.97386" pt_clust_6="14000.00000"></scales>
<clustering>
<clus scale="  107.688">  2  3  1 -1</clus>
<clus scale="  122.974">  2  5  1 -1</clus>
<clus scale="  243.077">  2  4  1 -1</clus>
<clus scale="  107.688">  2  3  1 -1</clus>
</clustering>
</event>
<event>
 6    0  0.4189111E+002  0.9788914E+02  0.7546771E-02  0.1284798E+00
          2   -1    0    0  504    0 -0.00000000000E+00  0.00000000000E+00  0.57338217842E+03  0.57338217842E+03  0.00000000000E+00 0.  1.
         21   -1    0    0  505  502  0.00000000000E+00 -0.00000000000E+00 -0.25388187318E+03  0.25388187318E+03  0.00000000000E+00 0.  1.
         21    1    1    2  503  502 -0.80709806440E+02 -0.48062973097E+01 -0.15731278132E+02  0.82368965400E+02  0.00000000000E+00 0.  1.
         21    1    1    2  504  503  0.16209869968E+03  0.37706518896E+02 -0.16566311047E+03  0.23482341488E+03  0.00000000000E+00 0.  1.
         21    1    1    2  505  501 -0.30020512988E+02 -0.24834867671E+02  0.13531097436E+03  0.14080859929E+03  0.00000000000E+00 0.  1.
          2    1    1    2  501    0 -0.51368380255E+02 -0.80653539162E+01  0.36558371947E+03  0.36926307203E+03  0.00000000000E+00 0.  1.
<scales pt_clust_3="80.85279" pt_clust_4="89.50555" pt_clust_5="34.30990" pt_clust_6="34.30990"></scales>
<clustering>
<clus scale="   34.310">  5  6 -1 -1</clus>
<clus scale="   80.853">  2  3  1 -1</clus>
<clus scale="   89.506">  2  4  1 -1</clus>
<clus scale="   80.853">  2  3  1 -1</clus>
</clustering>
</event>
<event>
 6    0  0.4189111E+002  0.1533305E+03  0.7546771E-02  0.1196439E+00
          2   -1    0    0  503    0 -0.00000000000E+00  0.00000000000E+00  0.60799345814E+03  0.60799345814E+03  0.00000000000E+00 0. -1.
         21   -1    0    0  505  502  0.00000000000E+00 -0.00000000000E+00 -0.14583589073E+03  0.14583589073E+03  0.00000000000E+00 0. -1.
         21    1    1    2  503  502  0.21477788354E+03 -0.12150294192E+02 -0.97699237095E+01  0.21534302942E+03  0.00000000000E+00 0. -1.
         21    1    1    2  504  501 -0.47335686441E+02  0.33043063648E+02  0.15460153196E+03  0.16502770964E+03  0.00000000000E+00 0. -1.
         21    1    1    2  505  504 -0.81949349655E+02 -0.15909039757E+00  0.60156210429E+02  0.10165869796E+03  0.00000000000E+00 0. -1.
          2    1    1    2  501    0 -0.85492847447E+02 -0.20733679058E+02  0.25716974874E+03  0.27179991184E+03  0.00000000000E+00 0. -1.
<scales pt_clust_3="141.57115" pt_clust_4="47.70376" pt_clust_5="81.94950" pt_clust_6="47.70376"></scales>
<clustering>
<clus scale="   47.704">  4  6 -1 -1</clus>
<clus scale="   81.950">  2  5  1 -1</clus>
<clus scale="  141.571">  2  3  1 -1</clus>
<clus scale="   81.950">  2  3  1 -1</clus>
</clustering>
</event>
<event>
 6    0  0.4189111E+002  0.2902430E+03  0.7546771E-02  0.1090222E+00
         21   -1    0    0  505  502  0.00000000000E+00  0.00000000000E+00  0.12425495377E+04  0.12425495377E+04  0.00000000000E+00 0. -1.
          1   -1    0    0  502    0 -0.00000000000E+00 -0.00000000000E+00 -0.72469256528E+03  0.72469256528E+03  0.00000000000E+00 0. -1.
         21    1    1    2  503  504 -0.12346004970E+03  0.18981644645E+03 -0.29350864586E+02  0.22832901801E+03  0.00000000000E+00 0. -1.
         21    1    1    2  504  501  0.15293792824E+03 -0.14762502549E+03 -0.36852206589E+03  0.42543115905E+03  0.00000000000E+00 0. -1.
         21    1    1    2  505  503 -0.12804946000E+03 -0.52698870962E+02  0.10976269380E+04  0.11063266833E+04  0.00000000000E+00 0. -1.
          1    1    1    2  501    0  0.98571581459E+02  0.10507449998E+02 -0.18189703508E+03  0.20715524262E+03  0.00000000000E+00 0. -1.
<scales pt_clust_3="262.85910" pt_clust_4="84.04444" pt_clust_5="138.46962" pt_clust_6="84.04444"></scales>
<clustering>
<clus scale="   84.044">  4  6 -1 -1</clus>
<clus scale="  138.470">  1  5  2 -1</clus>
<clus scale="  262.859">  1  3  2 -1</clus>
<clus scale="  138.470">  1  3  2 -1</clus>
</clustering>
</event>
<event>
 6    0  0.4889234E+002  0.1089309E+03  0.7546771E-02  0.1262563E+00
          1   -1    0    0  503    0 -0.00000000000E+00  0.00000000000E+00  0.43830012257E+03  0.43830012257E+03  0.00000000000E+00 0.  1.
         21   -1    0    0  505  502  0.00000000000E+00 -0.00000000000E+00 -0.14260607129E+04  0.14260607129E+04  0.00000000000E+00 0.  1.
         21    1    1    2  503  502  0.15512677650E+02 -0.51577605456E+02  0.10345494590E+03  0.11663540793E+03  0.00000000000E+00 0.  1.
         21    1    1    2  504  501  0.35766896955E+02 -0.40384937593E+02 -0.40134887804E+02  0.67238555318E+02  0.00000000000E+00 0. -1.
         21    1    1    2  505  504 -0.69099646626E+01  0.10985326585E+03 -0.13617320077E+04  0.13661733230E+04  0.00000000000E+00 0.  1.
          1    1    1    2  501    0 -0.44369609943E+02 -0.17890722798E+02  0.31065135925E+03  0.31431354926E+03  0.00000000000E+00 0.  1.
<scales pt_clust_3="14000.00000" pt_clust_4="52.44566" pt_clust_5="108.93089" pt_clust_6="47.84078"></scales>
<clustering>
<clus scale="   47.841">  1  6  2 -1</clus>
<clus scale="   52.446">  1  4  2 -1</clus>
<clus scale="  108.931">  2  5  1 -1</clus>
<clus scale="  108.931">  2  3  1 -1</clus>
</clustering>
</event>
<event>
 6    0  0.4189111E+002  0.1161310E+03  0.7546771E-02  0.1249620E+00
         21   -1    0    0  505  502  0.00000000000E+00  0.00000000000E+00  0.72675002980E+03  0.72675002980E+03  0.00000000000E+00 0. -1.
          1   -1    0    0  503    0 -0.00000000000E+00 -0.00000000000E+00 -0.17878497990E+04  0.17878497990E+04  0.00000000000E+00 0.  1.
         21    1    1    2  503  502  0.38384175748E+02 -0.57841988826E+02  0.60009062192E+03  0.60409253856E+03  0.00000000000E+00 0. -1.
         21    1    1    2  504  501 -0.20224150072E+02 -0.52170269927E+02 -0.66014028823E+03  0.66250732332E+03  0.00000000000E+00 0.  1.
         21    1    1    2  505  504  0.26867558516E+02  0.14428403014E+03  0.78859367253E+02  0.16660896392E+03  0.00000000000E+00 0. -1.
          1    1    1    2  501    0 -0.45027584193E+02 -0.34271771385E+02 -0.10799094702E+04  0.10813910030E+04  0.00000000000E+00 0.  1.
<scales pt_clust_3="69.41931" pt_clust_4="40.73586" pt_clust_5="108.66555" pt_clust_6="40.73586"></scales>
<clustering>
<clus scale="   40.736">  4  6 -1 -1</clus>
<clus scale="   69.419">  1  3  2 -1</clus>
<clus scale="  108.666">  1  5  2 -1</clus>
<clus scale="   69.419">  1  3  2 -1</clus>
</clustering>
</event>
<event>
 6    0  0.4189111E+002  0.6817581E+02  0.7546771E-02  0.1366408E+00
          2   -1    0    0  503    0 -0.00000000000E+00  0.00000000000E+00  0.24525248175E+04  0.24525248175E+04  0.00000000000E+00 0. -1.
         21   -1    0    0  505  502  0.00000000000E+00 -0.00000000000E+00 -0.72334571444E+02  0.72334571444E+02  0.00000000000E+00 0. -1.
         21    1    1    2  503  504  0.21974864248E+02  0.53952321701E+02  0.45897882001E+03  0.46266111236E+03  0.00000000000E+00 0.  1.
         21    1    1    2  504  502  0.69267788191E+02 -0.68953943103E+02 -0.31142640596E+02  0.10257941711E+03  0.00000000000E+00 0. -1.
         21    1    1    2  505  501 -0.25668294479E+02  0.16186965396E+02  0.72158989815E+02  0.78280259333E+02  0.00000000000E+00 0. -1.
          2    1    1    2  501    0 -0.65574357960E+02 -0.11853439939E+01  0.18801950768E+04  0.18813386001E+04  0.00000000000E+00 0. -1.
<scales pt_clust_3="58.40238" pt_clust_4="14000.00000" pt_clust_5="30.34599" pt_clust_6="68.17581"></scales>
<clustering>
<clus scale="   30.346">  2  5  1 -1</clus>
<clus scale="   58.402">  1  3  2 -1</clus>
<clus scale="   68.176">  1  6  2 -1</clus>
<clus scale="   30.346">  2  3  1 -1</clus>
</clustering>
</event>
<event>
 6    0  0.4189111E+002  0.1845530E+03  0.7546771E-02  0.1163468E+00
          2   -1    0    0  503    0 -0.00000000000E+00  0.00000000000E+00  0.17909326417E+04  0.17909326417E+04  0.00000000000E+00 0. -1.
         21   -1    0    0  505  502  0.00000000000E+00 -0.00000000000E+00 -0.27446322300E+02  0.27446322300E+02  0.00000000000E+00 0. -1.
         21    1    1    2  503  502 -0.28940794760E+02 -0.18010159129E+02  0.73448293595E+02  0.80972756314E+02  0.00000000000E+00 0. -1.
         21    1    1    2  504  501 -0.48664844132E+02  0.20847971621E+02  0.29866093790E+03  0.30331709613E+03  0.00000000000E+00 0.  1.
         21    1    1    2  505  504  0.14513421485E+03 -0.11257817536E+03  0.48531749883E+03  0.51891315319E+03  0.00000000000E+00 0. -1.
          2    1    1    2  501    0 -0.67528575959E+02  0.10974036287E+03  0.90605958907E+03  0.91517595836E+03  0.00000000000E+00 0. -1.
<scales pt_clust_3="34.08717" pt_clust_4="34.03652" pt_clust_5="176.74912" pt_clust_6="34.03652"></scales>
<clustering>
<clus scale="   34.037">  4  6 -1 -1</clus>
<clus scale="   34.087">  2  3  1 -1</clus>
<clus scale="  176.749">  2  5  1 -1</clus>
<clus scale="   34.087">  2  3  1 -1</clus>
</clustering>
</event>
<event>
 6    0  0.4189111E+002  0.9657018E+02  0.7546771E-02  0.1287678E+00
         -2   -1    0    0    0  501 -0.00000000000E+00  0.00000000000E+00  0.24314044924E+04  0.24314044924E+04  0.00000000000E+00 0. -1.
         21   -1    0    0  503  502  0.00000000000E+00 -0.00000000000E+00 -0.48970867180E+02  0.48970867180E+02  0.00000000000E+00 0. -1.
         21    1    1    2  503  505  0.13122816661E+03  0.45090479521E+02  0.10036965246E+03  0.17125434356E+03  0.00000000000E+00 0. -1.
         21    1    1    2  504  502 -0.35442878718E+02 -0.29836890822E+02  0.34182015731E+02  0.57574715849E+02  0.00000000000E+00 0. -1.
         21    1    1    2  505  501 -0.39689629534E+02  0.22373726589E+00  0.27946498824E+03  0.28226936851E+03  0.00000000000E+00 0.  1.
         -2    1    1    2    0  504 -0.56095658356E+02 -0.15477325965E+02  0.19684169688E+04  0.19692769317E+04  0.00000000000E+00 0. -1.
<scales pt_clust_3="96.57018" pt_clust_4="46.97755" pt_clust_5="39.69026" pt_clust_6="14000.00000"></scales>
<clustering>
<clus scale="   39.690">  1  5  2 -1</clus>
<clus scale="   46.978">  2  4  1 -1</clus>
<clus scale="   96.570">  2  3  1 -1</clus>
<clus scale="   46.978">  2  3  1 -1</clus>
</clustering>
</event>
<event>
 6    0  0.4189111E+002  0.1278177E+03  0.7546771E-02  0.1230730E+00
         21   -1    0    0  503  502  0.00000000000E+00  0.00000000000E+00  0.45505752870E+03  0.45505752870E+03  0.00000000000E+00 0. -1.
          4   -1    0    0  505    0 -0.00000000000E+00 -0.00000000000E+00 -0.30125118999E+03  0.30125118999E+03  0.00000000000E+00 0. -1.
         21    1    1    2  503  504 -0.41388903010E+02  0.13092133518E+02  0.22370926814E+03  0.22788216671E+03  0.00000000000E+00 0. -1.
         21    1    1    2  504  501 -0.68104156016E+02 -0.26140652987E+02  0.18865083945E+03  0.20226381048E+03  0.00000000000E+00 0. -1.
         21    1    1    2  505  502 -0.53963555694E+01  0.32582980334E+02  0.90839405754E+01  0.34253309873E+02  0.00000000000E+00 0. -1.
          4    1    1    2  501    0  0.11488941460E+03 -0.19534460866E+02 -0.26763770946E+03  0.29190943162E+03  0.00000000000E+00 0. -1.
<scales pt_clust_3="45.97661" pt_clust_4="45.97661" pt_clust_5="33.02683" pt_clust_6="116.23967"></scales>
<clustering>
<clus scale="   33.027">  1  5  2 -1</clus>
<clus scale="   45.977">  3  4 -1 -1</clus>
<clus scale="  116.240">  2  6  1 -1</clus>
<clus scale="   33.027">  1  3  2 -1</clus>
</clustering>
</event>
<event>
 6    0  0.4189111E+002  0.1166081E+03  0.7546771E-02  0.1248800E+00
          2   -1    0    0  505    0 -0.00000000000E+00  0.00000000000E+00  0.14933772497E+04  0.14933772497E+04  0.00000000000E+00 0.  1.
         21   -1    0    0  503  502  0.00000000000E+00 -0.00000000000E+00 -0.97641234426E+02  0.97641234426E+02  0.00000000000E+00 0.  1.
         21    1    1    2  503  504 -0.44708918889E+02  0.33339203393E+02 -0.58516450524E+02  0.80836655627E+02  0.00000000000E+00 0.  1.
         21    1    1    2  504  501  0.12162633023E+03  0.55992433451E+02  0.17108106568E+03  0.21724835521E+03  0.00000000000E+00 0.  1.
         21    1    1    2  505  502 -0.38095529534E+02  0.15464034657E+02  0.21214613117E+03  0.21609346753E+03  0.00000000000E+00 0.  1.
          2    1    1    2  501    0 -0.38821881805E+02 -0.10479567150E+03  0.10710252689E+04  0.10768400057E+04  0.00000000000E+00 0.  1.
<scales pt_clust_3="56.11801" pt_clust_4="14000.00000" pt_clust_5="41.11454" pt_clust_6="116.60814"></scales>
<clustering>
<clus scale="   41.115">  1  5  2 -1</clus>
<clus scale="   56.118">  2  3  1 -1</clus>
<clus scale="  116.608">  1  6  2 -1</clus>
<clus scale="   56.118">  2  3  1 -1</clus>
</clustering>
</event>
<event>
 6    0  0.4189111E+002  0.7011828E+02  0.7546771E-02  0.1359691E+00
         21   -1    0    0  503  502  0.00000000000E+00  0.00000000000E+00  0.34651698773E+03  0.34651698773E+03  0.00000000000E+00 0. -1.
          2   -1    0    0  504    0 -0.00000000000E+00 -0.00000000000E+00 -0.42198187125E+03  0.42198187125E+03  0.00000000000E+00 0. -1.
         21    1    1    2  503  501  0.80033267140E+01  0.84304044797E+02  0.35668950804E+02  0.91888515382E+02  0.00000000000E+00 0. -1.
         21    1    1    2  504  505 -0.83395660428E+02  0.13934348714E+02 -0.50788255487E+02  0.98632900940E+02  0.00000000000E+00 0. -1.
         21    1    1    2  505  502  0.56261215249E+02 -0.31351442013E+02  0.25090863533E+03  0.25904320207E+03  0.00000000000E+00 0. -1.
          2    1    1    2  501    0  0.19131118465E+02 -0.66886951498E+02 -0.31125421417E+03  0.31893424058E+03  0.00000000000E+00 0. -1.
<scales pt_clust_3="70.11828" pt_clust_4="68.93249" pt_clust_5="64.40681" pt_clust_6="14000.00000"></scales>
<clustering>
<clus scale="   64.407">  1  5  2 -1</clus>
<clus scale="   68.932">  1  4  2 -1</clus>
<clus scale="   70.118">  1  3  2 -1</clus>
<clus scale="   64.407">  1  3  2 -1</clus>
</clustering>
</event>
<event>
 6    0  0.4189111E+002  0.1332524E+03  0.7546771E-02  0.1222708E+00
         21   -1    0    0  503  502  0.00000000000E+00  0.00000000000E+00  0.24175875756E+03  0.24175875756E+03  0.00000000000E+00 0. -1.
          1   -1    0    0  505    0 -0.00000000000E+00 -0.00000000000E+00 -0.21508460666E+04  0.21508460666E+04  0.00000000000E+00 0.  1.
         21    1    1    2  503  504 -0.68881915965E+02 -0.64772442894E+01  0.18662361616E+03  0.19903529122E+03  0.00000000000E+00 0. -1.
         21    1    1    2  504  501 -0.37338764526E+02 -0.83635617043E+02 -0.14119419085E+02  0.92673932525E+02  0.00000000000E+00 0. -1.
         21    1    1    2  505  502 -0.59554759691E+02 -0.29733544629E+02 -0.28370327406E+03  0.29140761965E+03  0.00000000000E+00 0. -1.
          1    1    1    2  501    0  0.16577544018E+03  0.11984640596E+03 -0.17978882321E+04  0.18094879808E+04  0.00000000000E+00 0.  1.
<scales pt_clust_3="69.39258" pt_clust_4="133.25237" pt_clust_5="66.56465" pt_clust_6="14000.00000"></scales>
<clustering>
<clus scale="   66.565">  2  5  1 -1</clus>
<clus scale="   69.393">  1  3  2 -1</clus>
<clus scale="  133.252">  1  4  2 -1</clus>
<clus scale="   69.393">  1  3  2 -1</clus>
</clustering>
</event>
<event>
 6    0  0.4189111E+002  0.7694191E+02  0.7546771E-02  0.1337961E+00
          2   -1    0    0  504    0 -0.00000000000E+00  0.00000000000E+00  0.23257094603E+04  0.23257094603E+04  0.00000000000E+00 0.  1.
         21   -1    0    0  503  502  0.00000000000E+00 -0.00000000000E+00 -0.20805034458E+03  0.20805034458E+03  0.00000000000E+00 0. -1.
         21    1    1    2  503  501 -0.18635515744E+02  0.71375200831E+02  0.22407786927E+01  0.73801916167E+02  0.00000000000E+00 0. -1.
         21    1    1    2  504  505 -0.23944121649E+01 -0.51680539728E+02  0.28394706276E+03  0.28862180417E+03  0.00000000000E+00 0. -1.
         21    1    1    2  505  502 -0.40487880812E+02 -0.71663035655E+02 -0.15910328243E+03  0.17913322878E+03  0.00000000000E+00 0. -1.
          2    1    1    2  501    0  0.61517808721E+02  0.51968374552E+02  0.19905745567E+04  0.19922028558E+04  0.00000000000E+00 0.  1.
<scales pt_clust_3="14000.00000" pt_clust_4="51.73598" pt_clust_5="76.94191" pt_clust_6="59.19893"></scales>
<clustering>
<clus scale="   51.736">  1  4  2 -1</clus>
<clus scale="   59.199">  1  6  2 -1</clus>
<clus scale="   76.942">  2  5  1 -1</clus>
<clus scale="   76.942">  2  3  1 -1</clus>
</clustering>
</event>
<event>
 6    0  0.4189111E+002  0.1317393E+03  0.7546771E-02  0.1224897E+00
         21   -1    0    0  505  502  0.00000000000E+00  0.00000000000E+00  0.94367745051E+03  0.94367745051E+03  0.00000000000E+00 0. -1.
          2   -1    0    0  504    0 -0.00000000000E+00 -0.00000000000E+00 -0.13870333357E+03  0.13870333357E+03  0.00000000000E+00 0.  1.
         21    1    1    2  503  502 -0.68819774770E+02  0.10767758522E+03  0.77492579679E+03  0.78539201313E+03  0.00000000000E+00 0. -1.
         21    1    1    2  504  503  0.11625924229E+03 -0.52026306025E+02  0.15485241255E+02  0.12830721193E+03  0.00000000000E+00 0.  1.
         21    1    1    2  505  501 -0.27013231731E+02 -0.13131076265E+02  0.81462672381E+02  0.86823423360E+02  0.00000000000E+00 0. -1.
          2    1    1    2  501    0 -0.20426235789E+02 -0.42520202935E+02 -0.66899593485E+02  0.81858135665E+02  0.00000000000E+00 0.  1.
<scales pt_clust_3="131.73932" pt_clust_4="14000.00000" pt_clust_5="30.03564" pt_clust_6="47.37707"></scales>
<clustering>
<clus scale="   30.036">  1  5  2 -1</clus>
<clus scale="   47.377">  2  6  1 -1</clus>
<clus scale="  131.739">  1  3  2 -1</clus>
<clus scale="   30.036">  1  3  2 -1</clus>
</clustering>
</event>
<event>
 6    0  0.4189111E+002  0.1289293E+03  0.7546771E-02  0.1229053E+00
         21   -1    0    0  505  502  0.00000000000E+00  0.00000000000E+00  0.10593918097E+03  0.10593918097E+03  0.00000000000E+00 0. -1.
          2   -1    0    0  503    0 -0.00000000000E+00 -0.00000000000E+00 -0.15344122735E+04  0.15344122735E+04  0.00000000000E+00 0. -1.
         21    1    1    2  503  504  0.19813007673E+02 -0.43672056418E+02 -0.14660952514E+03  0.15425354662E+03  0.00000000000E+00 0. -1.
         21    1    1    2  504  502 -0.90342888484E+02 -0.71766087232E+02 -0.86925519245E+02  0.14445848771E+03  0.00000000000E+00 0. -1.
         21    1    1    2  505  501  0.13012121986E+02 -0.33575026383E+02  0.63556958558E+02  0.73048509200E+02  0.00000000000E+00 0. -1.
          2    1    1    2  501    0  0.57517758825E+02  0.14901317003E+03 -0.12584950067E+04  0.12685909110E+04  0.00000000000E+00 0. -1.
<scales pt_clust_3="51.60758" pt_clust_4="14000.00000" pt_clust_5="36.00830" pt_clust_6="128.92926"></scales>
<clustering>
<clus scale="   36.008">  1  5  2 -1</clus>
<clus scale="   51.608">  2  3  1 -1</clus>
<clus scale="  128.929">  2  6  1 -1</clus>
<clus scale="   36.008">  1  3  2 -1</clus>
</clustering>
</event>
<event>
 6    0  0.4189111E+002  0.1012349E+03  0.7546771E-02  0.1277720E+00
          2   -1    0    0  505    0 -0.00000000000E+00  0.00000000000E+00  0.61933770558E+03  0.61933770558E+03  0.00000000000E+00 0. -1.
         21   -1    0    0  504  502  0.00000000000E+00 -0.00000000000E+00 -0.23934212440E+04  0.23934212440E+04  0.00000000000E+00 0. -1.
         21    1    1    2  503  502  0.66659464142E+02  0.26915979692E+02 -0.12739804417E+04  0.12760071003E+04  0.00000000000E+00 0. -1.
         21    1    1    2  504  501 -0.97090897154E+02 -0.12461661781E+03 -0.11044937661E+04  0.11157340288E+04  0.00000000000E+00 0. -1.
         21    1    1    2  505  503  0.35669961862E+02  0.49783802268E+02  0.12486600926E+03  0.13907657393E+03  0.00000000000E+00 0. -1.
          2    1    1    2  501    0 -0.52385288496E+01  0.47916835852E+02  0.47952466018E+03  0.48194124648E+03  0.00000000000E+00 0. -1.
<scales pt_clust_3="71.98493" pt_clust_4="101.23486" pt_clust_5="14000.00000" pt_clust_6="48.20234"></scales>
<clustering>
<clus scale="   48.202">  1  6  2 -1</clus>
<clus scale="   71.985">  2  3  1 -1</clus>
<clus scale="  101.235">  2  4  1 -1</clus>
<clus scale="   71.985">  2  3  1 -1</clus>
</clustering>
</event>
<event>
 6    0  0.4189111E+002  0.8638001E+02  0.7546771E-02  0.1311863E+00
         21   -1    0    0  505  502  0.00000000000E+00  0.00000000000E+00  0.26373662557E+03  0.26373662557E+03  0.00000000000E+00 0.  1.
          2   -1    0    0  504    0 -0.00000000000E+00 -0.00000000000E+00 -0.96739887600E+03  0.96739887600E+03  0.00000000000E+00 0.  1.
         21    1    1    2  503  502  0.17259270580E+02 -0.72588481795E+02  0.20985307147E+03  0.22272243200E+03  0.00000000000E+00 0.  1.
         21    1    1    2  504  503 -0.11283066579E+03  0.91472106319E+01 -0.61890318322E+03  0.62917054986E+03  0.00000000000E+00 0.  1.
         21    1    1    2  505  501  0.42897810580E+02  0.91343616235E+01  0.25213593001E+02  0.50590354682E+02  0.00000000000E+00 0.  1.
          2    1    1    2  501    0  0.52673584630E+02  0.54306909540E+02 -0.31982573167E+03  0.32865216503E+03  0.00000000000E+00 0.  1.
<scales pt_clust_3="86.38001" pt_clust_4="14000.00000" pt_clust_5="43.85953" pt_clust_6="76.36872"></scales>
<clustering>
<clus scale="   43.860">  1  5  2 -1</clus>
<clus scale="   76.369">  2  6  1 -1</clus>
<clus scale="   86.380">  1  3  2 -1</clus>
<clus scale="   43.860">  1  3  2 -1</clus>
</clustering>
</event>
<event>
 6    0  0.4189111E+002  0.1927237E+03  0.7546771E-02  0.1156027E+00
         21   -1    0    0  503  502  0.00000000000E+00  0.00000000000E+00  0.41451301797E+03  0.41451301797E+03  0.00000000000E+00 0.  1.
          2   -1    0    0  504    0 -0.00000000000E+00 -0.00000000000E+00 -0.17185667230E+04  0.17185667230E+04  0.00000000000E+00 0. -1.
         21    1    1    2  503  501 -0.83032772253E+02  0.14192919148E+01 -0.18211143357E+02  0.85018241572E+02  0.00000000000E+00 0. -1.
         21    1    1    2  504  505 -0.95303443137E+01  0.33653195399E+02 -0.35213532974E+03  0.35386813289E+03  0.00000000000E+00 0.  1.
         21    1    1    2  505  502 -0.86562514818E+02 -0.96950743728E+02  0.36203890821E+03  0.38466178227E+03  0.00000000000E+00 0.  1.
          2    1    1    2  501    0  0.17912563139E+03  0.61878256415E+02 -0.12957461401E+04  0.13095315842E+04  0.00000000000E+00 0. -1.
<scales pt_clust_3="83.43641" pt_clust_4="34.97664" pt_clust_5="14000.00000" pt_clust_6="192.72371"></scales>
<clustering>
<clus scale="   34.977">  2  4  1 -1</clus>
<clus scale="   83.436">  1  3  2 -1</clus>
<clus scale="  192.724">  2  6  1 -1</clus>
<clus scale="   83.436">  1  3  2 -1</clus>
</clustering>
</event>
<event>
 6    0  0.4189111E+002  0.1582350E+03  0.7546771E-02  0.1190704E+00
         21   -1    0    0  503  502  0.00000000000E+00  0.00000000000E+00  0.10769029675E+04  0.10769029675E+04  0.00000000000E+00 0.  1.
          1   -1    0    0  505    0 -0.00000000000E+00 -0.00000000000E+00 -0.44622441160E+03  0.44622441160E+03  0.00000000000E+00 0. -1.
         21    1    1    2  503  501 -0.10190439462E+03 -0.36103098286E+02 -0.18910562726E+03  0.21782763280E+03  0.00000000000E+00 0.  1.
         21    1    1    2  504  502  0.16647056198E+02 -0.33547417302E+02  0.99286800534E+03  0.99357406856E+03  0.00000000000E+00 0.  1.
         21    1    1    2  505  504  0.13034006351E+03  0.74261673253E+02 -0.19112526437E+02  0.15122373139E+03  0.00000000000E+00 0.  1.
          1    1    1    2  501    0 -0.45082725090E+02 -0.46111576645E+01 -0.15397129573E+03  0.16050194636E+03  0.00000000000E+00 0. -1.
<scales pt_clust_3="30.15042" pt_clust_4="37.45068" pt_clust_5="151.22725" pt_clust_6="30.15042"></scales>
<clustering>
<clus scale="   30.150">  3  6 -1 -1</clus>
<clus scale="   37.451">  1  4  2 -1</clus>
<clus scale="  151.227">  1  5  2 -1</clus>
<clus scale="   37.451">  1  3  2 -1</clus>
</clustering>
</event>
<event>
 6    0  0.4189111E+002  0.1255733E+03  0.7546771E-02  0.1234176E+00
         21   -1    0    0  503  502  0.00000000000E+00  0.00000000000E+00  0.82944826145E+03  0.82944826145E+03  0.00000000000E+00 0. -1.
          2   -1    0    0  505    0 -0.00000000000E+00 -0.00000000000E+00 -0.30367635282E+03  0.30367635282E+03  0.00000000000E+00 0. -1.
         21    1    1    2  503  501  0.93857669361E+02 -0.12275704121E+02  0.71830843381E+03  0.72451843392E+03  0.00000000000E+00 0. -1.
         21    1    1    2  504  502  0.34532846111E+02 -0.38925293245E+00  0.82849651668E+02  0.89759310157E+02  0.00000000000E+00 0.  1.
         21    1    1    2  505  504 -0.62982857028E+02  0.16281945121E+02 -0.44424339983E+02  0.78774767529E+02  0.00000000000E+00 0.  1.
          2    1    1    2  501    0 -0.65407658445E+02 -0.36169880672E+01 -0.23096183686E+03  0.24007210266E+03  0.00000000000E+00 0. -1.
<scales pt_clust_3="14000.00000" pt_clust_4="34.53504" pt_clust_5="64.27870" pt_clust_6="125.57331"></scales>
<clustering>
<clus scale="   34.535">  1  4  2 -1</clus>
<clus scale="   64.279">  2  5  1 -1</clus>
<clus scale="  125.573">  2  6  1 -1</clus>
<clus scale="   34.535">  1  3  2 -1</clus>
</clustering>
</event>
<event>
 6    0  0.4189111E+002  0.8970001E+02  0.7546771E-02  0.1303580E+00
          2   -1    0    0  503    0 -0.00000000000E+00  0.00000000000E+00  0.93477045774E+03  0.93477045774E+03  0.00000000000E+00 0.  1.
         21   -1    0    0  504  502  0.00000000000E+00 -0.00000000000E+00 -0.37149849073E+02  0.37149849073E+02  0.00000000000E+00 0.  1.
         21    1    1    2  503  505 -0.30643930723E+02 -0.12969297381E+02  0.11485111840E+03  0.11957438088E+03  0.00000000000E+00 0. -1.
         21    1    1    2  504  501  0.10696567168E+02  0.70063595272E+02  0.13289329958E+03  0.15061192849E+03  0.00000000000E+00 0.  1.
         21    1    1    2  505  502  0.57559831326E+02  0.23389885284E+02  0.19486083500E+02  0.65114732327E+02  0.00000000000E+00 0.  1.
          2    1    1    2  501    0 -0.37612467770E+02 -0.80484183175E+02  0.63039010719E+03  0.63661926512E+03  0.00000000000E+00 0.  1.
<scales pt_clust_3="33.27541" pt_clust_4="89.70001" pt_clust_5="60.40919" pt_clust_6="14000.00000"></scales>
<clustering>
<clus scale="   33.275">  1  3  2 -1</clus>
<clus scale="   60.409">  2  5  1 -1</clus>
<clus scale="   89.700">  2  4  1 -1</clus>
<clus scale="   60.409">  2  3  1 -1</clus>
</clustering>
</event>
<event>
 6    0  0.4189111E+002  0.1073154E+03  0.7546771E-02  0.1265624E+00
          2   -1    0    0  503    0 -0.00000000000E+00  0.00000000000E+00  0.95003777430E+03  0.95003777430E+03  0.00000000000E+00 0.  1.
         21   -1    0    0  504  502  0.00000000000E+00 -0.00000000000E+00 -0.56103798038E+02  0.56103798038E+02  0.00000000000E+00 0.  1.
         21    1    1    2  503  502 -0.36569814106E+02 -0.78805229738E+02  0.10272046445E+03  0.13453293037E+03  0.00000000000E+00 0.  1.
         21    1    1    2  504  505  0.50332162921E+02 -0.46767764048E+02  0.12100410380E+02  0.69763674715E+02  0.00000000000E+00 0.  1.
         21    1    1    2  505  501 -0.64951195353E+02  0.23101332708E+02  0.20099773929E+03  0.21249098934E+03  0.00000000000E+00 0.  1.
          2    1    1    2  501    0  0.51188846539E+02  0.10247166108E+03  0.57811536215E+03  0.58935397792E+03  0.00000000000E+00 0.  1.
<scales pt_clust_3="107.31536" pt_clust_4="68.70626" pt_clust_5="55.93666" pt_clust_6="14000.00000"></scales>
<clustering>
<clus scale="   68.706">  2  4  1 -1</clus>
<clus scale="   55.937">  2  5  1 -1</clus>
<clus scale="  107.315">  2  3  1 -1</clus>
<clus scale="   68.706">  2  3  1 -1</clus>
</clustering>
</event>
<event>
 6    0  0.4189111E+002  0.1225698E+03  0.7546771E-02  0.1238917E+00
         21   -1    0    0  504  502  0.00000000000E+00  0.00000000000E+00  0.11388645031E+04  0.11388645031E+04  0.00000000000E+00 0.  1.
         -1   -1    0    0    0  501 -0.00000000000E+00 -0.00000000000E+00 -0.24633869709E+03  0.24633869709E+03  0.00000000000E+00 0.  1.
         21    1    1    2  503  502  0.31726747493E+02  0.45146504947E+02  0.97117024350E+03  0.97273657034E+03  0.00000000000E+00 0.  1.
         21    1    1    2  504  501  0.35980325737E+02  0.65684278696E+02  0.10481239519E+02  0.75623175613E+02  0.00000000000E+00 0.  1.
         21    1    1    2  505  503 -0.38882455747E+02  0.45613080466E+02  0.83056496161E+02  0.10242450893E+03  0.00000000000E+00 0. -1.
         -1    1    1    2    0  505 -0.28824617483E+02 -0.15644386411E+03 -0.17218217314E+03  0.23441894535E+03  0.00000000000E+00 0.  1.
<scales pt_clust_3="55.17965" pt_clust_4="14000.00000" pt_clust_5="73.82352" pt_clust_6="122.56976"></scales>
<clustering>
<clus scale="   55.180">  1  3  2 -1</clus>
<clus scale="   73.824">  1  5  2 -1</clus>
<clus scale="  122.570">  2  6  1 -1</clus>
<clus scale="   55.180">  1  3  2 -1</clus>
</clustering>
</event>
<event>
 6    0  0.4189111E+002  0.4280094E+03  0.7546771E-02  0.1034491E+00
         21   -1    0    0  504  502  0.00000000000E+00  0.00000000000E+00  0.30244809612E+03  0.30244809612E+03  0.00000000000E+00 0. -1.
          1   -1    0    0  503    0 -0.00000000000E+00 -0.00000000000E+00 -0.17241622645E+04  0.17241622645E+04  0.00000000000E+00 0.  1.
         21    1    1    2  503  502  0.39232353112E+02 -0.98714240684E+01  0.19767350346E+02  0.45026333223E+02  0.00000000000E+00 0. -1.
         21    1    1    2  504  505 -0.19464509686E+02 -0.40858061982E+03  0.65860600228E+02  0.41431221162E+03  0.00000000000E+00 0. -1.
         21    1    1    2  505  501 -0.51533809367E+02  0.15801628770E+03 -0.54205115366E+03  0.56696061051E+03  0.00000000000E+00 0.  1.
          1    1    1    2  501    0  0.31765965942E+02  0.26043575619E+03 -0.96529096531E+03  0.10003112053E+04  0.00000000000E+00 0.  1.
<scales pt_clust_3="40.45519" pt_clust_4="417.64128" pt_clust_5="74.35064" pt_clust_6="74.35064"></scales>
<clustering>
<clus scale="   40.455">  1  3  2 -1</clus>
<clus scale="   74.351">  5  6 -1 -1</clus>
<clus scale="  417.641">  1  4  2 -1</clus>
<clus scale="   40.455">  1  3  2 -1</clus>
</clustering>
</event>
<event>
 6    0  0.4189111E+002  0.3494127E+03  0.7546771E-02  0.1062856E+00
         21   -1    0    0  505  502  0.00000000000E+00  0.00000000000E+00  0.28611766593E+03  0.28611766593E+03  0.00000000000E+00 0.  1.
          2   -1    0    0  504    0 -0.00000000000E+00 -0.00000000000E+00 -0.13155436600E+04  0.13155436600E+04  0.00000000000E+00 0.  1.
         21    1    1    2  503  502  0.30788989944E+02 -0.70864636871E+01  0.17965463399E+02  0.36344707242E+02  0.00000000000E+00 0.  1.
         21    1    1    2  504  503 -0.14535817511E+03  0.35021244585E+03 -0.25366160289E+03  0.45620386351E+03  0.00000000000E+00 0.  1.
         21    1    1    2  505  501  0.40384241765E+02 -0.96015286121E+01  0.12351154391E+03  0.13030033697E+03  0.00000000000E+00 0.  1.
          2    1    1    2  501    0  0.74184943402E+02 -0.33352445355E+03 -0.91724139849E+03  0.97881241821E+03  0.00000000000E+00 0.  1.
<scales pt_clust_3="31.59398" pt_clust_4="349.41271" pt_clust_5="56.99246" pt_clust_6="14000.00000"></scales>
<clustering>
<clus scale="   31.594">  1  3  2 -1</clus>
<clus scale="   56.992">  1  5  2 -1</clus>
<clus scale="  349.413">  1  4  2 -1</clus>
<clus scale="   31.594">  1  3  2 -1</clus>
</clustering>
</event>
<event>
 6    0  0.4189111E+002  0.1849206E+03  0.7546771E-02  0.1163124E+00
         21   -1    0    0  503  502  0.00000000000E+00  0.00000000000E+00  0.65399125814E+03  0.65399125814E+03  0.00000000000E+00 0.  1.
          2   -1    0    0  504    0 -0.00000000000E+00 -0.00000000000E+00 -0.76413885738E+03  0.76413885738E+03  0.00000000000E+00 0.  1.
         21    1    1    2  503  505 -0.12240873408E+03  0.16817099863E+03  0.43304791547E+03  0.48041219807E+03  0.00000000000E+00 0.  1.
         21    1    1    2  504  502  0.18666385786E+03 -0.12573109941E+02  0.13841424342E+03  0.23272297202E+03  0.00000000000E+00 0.  1.
         21    1    1    2  505  501 -0.27527260498E+02 -0.33787115700E+02 -0.91807148501E+02  0.10162613726E+03  0.00000000000E+00 0.  1.
          2    1    1    2  501    0 -0.36727863288E+02 -0.12181077299E+03 -0.58980260962E+03  0.60336880817E+03  0.00000000000E+00 0.  1.
<scales pt_clust_3="14000.00000" pt_clust_4="184.92061" pt_clust_5="37.41447" pt_clust_6="180.07224"></scales>
<clustering>
<clus scale="   37.414">  5  6 -1 -1</clus>
<clus scale="  180.072">  2  5  1 -1</clus>
<clus scale="  184.921">  2  4  1 -1</clus>
<clus scale="  184.921">  1  3  2 -1</clus>
</clustering>
</event>
<event>
 6    0  0.4189111E+002  0.1051435E+03  0.7546771E-02  0.1269837E+00
         21   -1    0    0  504  502  0.00000000000E+00  0.00000000000E+00  0.36585905137E+03  0.36585905137E+03  0.00000000000E+00 0.  1.
          2   -1    0    0  502    0 -0.00000000000E+00 -0.00000000000E+00 -0.41076898908E+03  0.41076898908E+03  0.00000000000E+00 0.  1.
         21    1    1    2  503  505 -0.53968631668E+02 -0.10236143931E+03  0.14759061423E+03  0.18754590604E+03  0.00000000000E+00 0.  1.
         21    1    1    2  504  503  0.35841352603E+02  0.11219684076E+02  0.18942931892E+03  0.19311641757E+03  0.00000000000E+00 0.  1.
         21    1    1    2  505  501  0.26420855581E+02  0.21701781388E+02 -0.11030006048E+03  0.11547784319E+03  0.00000000000E+00 0.  1.
          2    1    1    2  501    0 -0.82935765161E+01  0.69439973844E+02 -0.27162981038E+03  0.28048787365E+03  0.00000000000E+00 0.  1.
<scales pt_clust_3="93.65971" pt_clust_4="37.55641" pt_clust_5="33.40928" pt_clust_6="33.40928"></scales>
<clustering>
<clus scale="   33.409">  5  6 -1 -1</clus>
<clus scale="   37.556">  1  4  2 -1</clus>
<clus scale="   93.660">  1  3  2 -1</clus>
<clus scale="   37.556">  1  3  2 -1</clus>
</clustering>
</event>
<event>
 6    0  0.4189111E+002  0.1126098E+03  0.7546771E-02  0.1255812E+00
          2   -1    0    0  503    0 -0.00000000000E+00  0.00000000000E+00  0.64687976036E+03  0.64687976036E+03  0.00000000000E+00 0. -1.
         21   -1    0    0  505  502  0.00000000000E+00 -0.00000000000E+00 -0.56918137332E+02  0.56918137332E+02  0.00000000000E+00 0. -1.
         21    1    1    2  503  504 -0.13335146952E+03  0.76515606130E+01  0.76240641458E+02  0.15379790705E+03  0.00000000000E+00 0. -1.
         21    1    1    2  504  502  0.34844158404E+02  0.27614120066E+02  0.29006154348E+02  0.53084950711E+02  0.00000000000E+00 0.  1.
         21    1    1    2  505  501  0.51949482365E+02 -0.13533914696E+02  0.17774527698E+03  0.18567525160E+03  0.00000000000E+00 0. -1.
          2    1    1    2  501    0  0.46557828750E+02 -0.21731765983E+02  0.30696955024E+03  0.31123978833E+03  0.00000000000E+00 0. -1.
<scales pt_clust_3="107.94553" pt_clust_4="44.45959" pt_clust_5="31.37822" pt_clust_6="31.37822"></scales>
<clustering>
<clus scale="   31.378">  5  6 -1 -1</clus>
<clus scale="   44.460">  2  4  1 -1</clus>
<clus scale="  107.946">  2  3  1 -1</clus>
<clus scale="   44.460">  2  3  1 -1</clus>
</clustering>
</event>
<event>
 6    0  0.4189111E+002  0.9859360E+02  0.7546771E-02  0.1283282E+00
         21   -1    0    0  501  502  0.00000000000E+00  0.00000000000E+00  0.40953002635E+03  0.40953002635E+03  0.00000000000E+00 0.  1.
          1   -1    0    0  503    0 -0.00000000000E+00 -0.00000000000E+00 -0.12942727505E+03  0.12942727505E+03  0.00000000000E+00 0.  1.
         21    1    1    2  503  504 -0.10604280354E+02  0.86507249217E+02  0.56259213711E+01  0.87336166164E+02  0.00000000000E+00 0.  1.
         21    1    1    2  504  505 -0.70953393230E+02  0.11747833504E+02 -0.38039782045E+01  0.72019899008E+02  0.00000000000E+00 0.  1.
         21    1    1    2  505  502  0.10004465667E+03 -0.32652833967E+02  0.29172836877E+03  0.31012994380E+03  0.00000000000E+00 0.  1.
          1    1    1    2  501    0 -0.18486983087E+02 -0.65602248754E+02 -0.13447560637E+02  0.69471292433E+02  0.00000000000E+00 0.  1.
<scales pt_clust_3="59.23414" pt_clust_4="14000.00000" pt_clust_5="98.59360" pt_clust_6="68.15734"></scales>
<clustering>
<clus scale="   68.157">  2  6  1 -1</clus>
<clus scale="   59.234">  2  3  1 -1</clus>
<clus scale="   98.594">  1  5  2 -1</clus>
<clus scale="   98.594">  1  3  2 -1</clus>
</clustering>
</event>
<event>
 6    0  0.4189111E+002  0.6607518E+02  0.7546771E-02  0.1373972E+00
         21   -1    0    0  504  502  0.00000000000E+00  0.00000000000E+00  0.23670074632E+03  0.23670074632E+03  0.00000000000E+00 0.  1.
          3   -1    0    0  502    0 -0.00000000000E+00 -0.00000000000E+00 -0.11536772259E+03  0.11536772259E+03  0.00000000000E+00 0.  1.
         21    1    1    2  503  501 -0.83213921448E+02  0.56033081856E+02  0.91198499285E+02  0.13557812971E+03  0.00000000000E+00 0.  1.
         21    1    1    2  504  505  0.22367252085E+02  0.35200028550E+02  0.39788925003E+02  0.57641083687E+02  0.00000000000E+00 0.  1.
         21    1    1    2  505  503  0.25248567976E+02 -0.39490063315E+02  0.52575072920E+02  0.70435030901E+02  0.00000000000E+00 0.  1.
          3    1    1    2  501    0  0.35598101387E+02 -0.51743047090E+02 -0.62229473471E+02  0.88414224608E+02  0.00000000000E+00 0.  1.
<scales pt_clust_3="66.07518" pt_clust_4="41.70535" pt_clust_5="42.93129" pt_clust_6="14000.00000"></scales>
<clustering>
<clus scale="   41.705">  1  4  2 -1</clus>
<clus scale="   42.931">  1  5  2 -1</clus>
<clus scale="   66.075">  1  3  2 -1</clus>
<clus scale="   41.705">  1  3  2 -1</clus>
</clustering>
</event>
<event>
 6    0  0.4189111E+002  0.8664777E+02  0.7546771E-02  0.1311179E+00
         21   -1    0    0  504  502  0.00000000000E+00  0.00000000000E+00  0.29393894335E+02  0.29393894335E+02  0.00000000000E+00 0. -1.
          2   -1    0    0  503    0 -0.00000000000E+00 -0.00000000000E+00 -0.12675469868E+04  0.12675469868E+04  0.00000000000E+00 0. -1.
         21    1    1    2  503  502 -0.11419424731E+03  0.20522221287E+02 -0.34639869039E+03  0.36531293487E+03  0.00000000000E+00 0. -1.
         21    1    1    2  504  505  0.78386725943E+02 -0.87625845809E+01 -0.78338598507E+02  0.11116743097E+03  0.00000000000E+00 0. -1.
         21    1    1    2  505  501  0.16609322595E+02 -0.38794531162E+02 -0.13983481266E+03  0.14606389039E+03  0.00000000000E+00 0. -1.
          2    1    1    2  501    0  0.19198198772E+02  0.27034894456E+02 -0.67358099088E+03  0.67439662486E+03  0.00000000000E+00 0. -1.
<scales pt_clust_3="86.64777" pt_clust_4="14000.00000" pt_clust_5="38.64022" pt_clust_6="33.15805"></scales>
<clustering>
<clus scale="   33.158">  2  6  1 -1</clus>
<clus scale="   38.640">  2  5  1 -1</clus>
<clus scale="   86.648">  2  3  1 -1</clus>
<clus scale="   86.648">  1  3  2 -1</clus>
</clustering>
</event>
<event>
 6    0  0.4189111E+002  0.1779269E+03  0.7546771E-02  0.1169825E+00
          2   -1    0    0  503    0 -0.00000000000E+00  0.00000000000E+00  0.20971967566E+04  0.20971967566E+04  0.00000000000E+00 0. -1.
         21   -1    0    0  505  502  0.00000000000E+00 -0.00000000000E+00 -0.13166212323E+03  0.13166212323E+03  0.00000000000E+00 0.  1.
         21    1    1    2  503  502  0.16601669793E+02  0.40941771850E+02  0.29879006247E+03  0.30203864911E+03  0.00000000000E+00 0.  1.
         21    1    1    2  504  501  0.17677708612E+03 -0.13983670384E+03  0.73221182771E+03  0.76611918300E+03  0.00000000000E+00 0. -1.
         21    1    1    2  505  504 -0.87628445481E+02  0.15127610431E+03 -0.39759576538E+02  0.17928755707E+03  0.00000000000E+00 0.  1.
          2    1    1    2  501    0 -0.10575031043E+03 -0.52381172326E+02  0.97429231970E+03  0.98141349063E+03  0.00000000000E+00 0. -1.
<scales pt_clust_3="44.17968" pt_clust_4="14000.00000" pt_clust_5="177.92689" pt_clust_6="101.29084"></scales>
<clustering>
<clus scale="   44.180">  1  3  2 -1</clus>
<clus scale="  101.291">  1  6  2 -1</clus>
<clus scale="  177.927">  2  5  1 -1</clus>
<clus scale="  177.927">  2  3  1 -1</clus>
</clustering>
</event>
<event>
 6    0  0.4189111E+002  0.6125439E+02  0.7546771E-02  0.1392642E+00
          1   -1    0    0  505    0 -0.00000000000E+00  0.00000000000E+00  0.14828771613E+04  0.14828771613E+04  0.00000000000E+00 0.  1.
         21   -1    0    0  503  502  0.00000000000E+00 -0.00000000000E+00 -0.28834656674E+02  0.28834656674E+02  0.00000000000E+00 0.  1.
         21    1    1    2  503  501  0.34501055878E+02 -0.35022722742E+02  0.13230576111E+03  0.14114435302E+03  0.00000000000E+00 0.  1.
         21    1    1    2  504  502 -0.66168361264E+01 -0.30110447278E+02  0.30047319328E+01  0.30974989420E+02  0.00000000000E+00 0.  1.
         21    1    1    2  505  504 -0.68351650915E+02  0.10375496877E+03  0.39301103135E+03  0.41218286293E+03  0.00000000000E+00 0.  1.
          1    1    1    2  501    0  0.40467431164E+02 -0.38621798754E+02  0.92572098019E+03  0.92740961257E+03  0.00000000000E+00 0.  1.
<scales pt_clust_3="54.70732" pt_clust_4="30.82891" pt_clust_5="14000.00000" pt_clust_6="61.25439"></scales>
<clustering>
<clus scale="   30.829">  2  4  1 -1</clus>
<clus scale="   54.707">  2  3  1 -1</clus>
<clus scale="   61.254">  1  6  2 -1</clus>
<clus scale="   30.829">  2  3  1 -1</clus>
</clustering>
</event>
<event>
 6    0  0.4189111E+002  0.1285335E+03  0.7546771E-02  0.1229648E+00
         21   -1    0    0  504  502  0.00000000000E+00  0.00000000000E+00  0.11642924757E+03  0.11642924757E+03  0.00000000000E+00 0.  1.
          1   -1    0    0  503    0 -0.00000000000E+00 -0.00000000000E+00 -0.24676081993E+04  0.24676081993E+04  0.00000000000E+00 0. -1.
         21    1    1    2  503  505  0.36426581920E+02 -0.51006426694E+02 -0.30641901237E+03  0.31276374882E+03  0.00000000000E+00 0. -1.
         21    1    1    2  504  501  0.12438050177E+03 -0.35928058737E+02 -0.92976679226E+02  0.15939258925E+03  0.00000000000E+00 0. -1.
         21    1    1    2  505  502 -0.12861746434E+03  0.94599151988E+01  0.26633513796E+02  0.13168631739E+03  0.00000000000E+00 0.  1.
          1    1    1    2  501    0 -0.32189619353E+02  0.77474570232E+02 -0.19784167739E+04  0.19801947914E+04  0.00000000000E+00 0. -1.
<scales pt_clust_3="62.67816" pt_clust_4="128.53350" pt_clust_5="14000.00000" pt_clust_6="30.71637"></scales>
<clustering>
<clus scale="   62.678">  2  3  1 -1</clus>
<clus scale="   30.716">  2  6  1 -1</clus>
<clus scale="  128.533">  2  4  1 -1</clus>
<clus scale="  128.533">  1  3  2 -1</clus>
</clustering>
</event>
<event>
 6    0  0.4189111E+002  0.9763613E+02  0.7546771E-02  0.1285347E+00
          2   -1    0    0  504    0 -0.00000000000E+00  0.00000000000E+00  0.17278831408E+04  0.17278831408E+04  0.00000000000E+00 0. -1.
         21   -1    0    0  505  502  0.00000000000E+00 -0.00000000000E+00 -0.14395027048E+04  0.14395027048E+04  0.00000000000E+00 0.  1.
         21    1    1    2  503  502  0.11131378593E+03 -0.57564181223E+02  0.14173438849E+03  0.18919046165E+03  0.00000000000E+00 0. -1.
         21    1    1    2  504  503 -0.83062122332E+01  0.81899019711E+02  0.48995053104E+03  0.49681783931E+03  0.00000000000E+00 0.  1.
         21    1    1    2  505  501 -0.36585674008E+02 -0.14177182523E+02 -0.14110121633E+04  0.14115575897E+04  0.00000000000E+00 0.  1.
          2    1    1    2  501    0 -0.66421899688E+02 -0.10157655966E+02  0.10677076797E+04  0.10698199549E+04  0.00000000000E+00 0. -1.
<scales pt_clust_3="14000.00000" pt_clust_4="97.63613" pt_clust_5="39.23651" pt_clust_6="68.62864"></scales>
<clustering>
<clus scale="   39.237">  2  5  1 -1</clus>
<clus scale="   68.629">  1  6  2 -1</clus>
<clus scale="   97.636">  1  4  2 -1</clus>
<clus scale="   39.237">  2  3  1 -1</clus>
</clustering>
</event>
<event>
 6    0  0.4189111E+002  0.2098631E+03  0.7546771E-02  0.1141674E+00
         21   -1    0    0  505  502  0.00000000000E+00  0.00000000000E+00  0.42090427567E+02  0.42090427567E+02  0.00000000000E+00 0. -1.
          4   -1    0    0  504    0 -0.00000000000E+00 -0.00000000000E+00 -0.17404439554E+04  0.17404439554E+04  0.00000000000E+00 0. -1.
         21    1    1    2  503  501  0.18057214247E+02 -0.54167284866E+02 -0.32531265542E+03  0.33028545459E+03  0.00000000000E+00 0. -1.
         21    1    1    2  504  502 -0.18856808143E+03  0.95524858390E+02 -0.65857367492E+03  0.69166625276E+03  0.00000000000E+00 0. -1.
         21    1    1    2  505  503  0.32078260429E+02 -0.13665484933E+02 -0.27246582978E+01  0.34974047999E+02  0.00000000000E+00 0. -1.
          4    1    1    2  501    0  0.13843260675E+03 -0.27692088590E+02 -0.71174253920E+03  0.72560862762E+03  0.00000000000E+00 0. -1.
<scales pt_clust_3="57.04394" pt_clust_4="189.21871" pt_clust_5="34.86775" pt_clust_6="57.04394"></scales>
<clustering>
<clus scale="   34.868">  1  5  2 -1</clus>
<clus scale="   57.044">  3  6 -1 -1</clus>
<clus scale="  189.219">  1  4  2 -1</clus>
<clus scale="   34.868">  1  3  2 -1</clus>
</clustering>
</event>
<event>
 6    0  0.4189111E+002  0.9636501E+02  0.7546771E-02  0.1288131E+00
          2   -1    0    0  503    0 -0.00000000000E+00  0.00000000000E+00  0.24710125361E+04  0.24710125361E+04  0.00000000000E+00 0. -1.
         21   -1    0    0  504  502  0.00000000000E+00 -0.00000000000E+00 -0.13185686969E+02  0.13185686969E+02  0.00000000000E+00 0.  1.
         21    1    1    2  503  505 -0.30492150807E+02 -0.13223711726E+02  0.25272278518E+03  0.25489888969E+03  0.00000000000E+00 0.  1.
         21    1    1    2  504  501  0.98741197612E+02 -0.10643119833E+03  0.76975115421E+03  0.78332257946E+03  0.00000000000E+00 0.  1.
         21    1    1    2  505  502 -0.41189037627E+02  0.43565714768E+02  0.22243249775E+03  0.23037084099E+03  0.00000000000E+00 0.  1.
          2    1    1    2  501    0 -0.27060009177E+02  0.76089195288E+02  0.12129204119E+04  0.12156059129E+04  0.00000000000E+00 0. -1.
<scales pt_clust_3="33.23609" pt_clust_4="96.36501" pt_clust_5="61.19531" pt_clust_6="14000.00000"></scales>
<clustering>
<clus scale="   33.236">  1  3  2 -1</clus>
<clus scale="   61.195">  2  5  1 -1</clus>
<clus scale="   96.365">  2  4  1 -1</clus>
<clus scale="   61.195">  2  3  1 -1</clus>
</clustering>
</event>
<event>
 6    0  0.4189111E+002  0.9675992E+02  0.7546771E-02  0.1287261E+00
         21   -1    0    0  501  502  0.00000000000E+00  0.00000000000E+00  0.18640361917E+03  0.18640361917E+03  0.00000000000E+00 0. -1.
          2   -1    0    0  505    0 -0.00000000000E+00 -0.00000000000E+00 -0.15024760201E+04  0.15024760201E+04  0.00000000000E+00 0. -1.
         21    1    1    2  503  504 -0.11031447026E+03  0.68680328001E+01 -0.26489069136E+03  0.28702531350E+03  0.00000000000E+00 0. -1.
         21    1    1    2  504  502  0.31454766631E+02 -0.30219445718E+02  0.16497697206E+03  0.17064588643E+03  0.00000000000E+00 0. -1.
         21    1    1    2  505  503  0.90657339699E+02  0.87494014711E+02 -0.74985311973E+03  0.76036416079E+03  0.00000000000E+00 0. -1.
          2    1    1    2  501    0 -0.11797636065E+02 -0.64142601792E+02 -0.46630556189E+03  0.47084427854E+03  0.00000000000E+00 0. -1.
<scales pt_clust_3="14000.00000" pt_clust_4="43.61900" pt_clust_5="96.75992" pt_clust_6="68.29644"></scales>
<clustering>
<clus scale="   43.619">  1  4  2 -1</clus>
<clus scale="   68.296">  2  6  1 -1</clus>
<clus scale="   96.760">  2  5  1 -1</clus>
<clus scale="   43.619">  1  3  2 -1</clus>
</clustering>
</event>
<event>
 6    0  0.4189111E+002  0.1102480E+03  0.7546771E-02  0.1260111E+00
         21   -1    0    0  504  502  0.00000000000E+00  0.00000000000E+00  0.37903526060E+03  0.37903526060E+03  0.00000000000E+00 0. -1.
          2   -1    0    0  505    0 -0.00000000000E+00 -0.00000000000E+00 -0.18034956138E+04  0.18034956138E+04  0.00000000000E+00 0. -1.
         21    1    1    2  503  502 -0.89749227480E+02  0.19675871417E+02  0.82067929211E+02  0.12319581468E+03  0.00000000000E+00 0. -1.
         21    1    1    2  504  501  0.12395230386E+03  0.44622798436E+01  0.26149225499E+03  0.28941714703E+03  0.00000000000E+00 0. -1.
         21    1    1    2  505  503  0.78847030202E+01 -0.36734414457E+02 -0.90582818563E+03  0.90660701941E+03  0.00000000000E+00 0.  1.
          2    1    1    2  501    0 -0.42087779404E+02  0.12596263196E+02 -0.86219235181E+03  0.86331089333E+03  0.00000000000E+00 0. -1.
<scales pt_clust_3="110.24803" pt_clust_4="14000.00000" pt_clust_5="37.57108" pt_clust_6="41.31714"></scales>
<clustering>
<clus scale="   37.571">  2  5  1 -1</clus>
<clus scale="   41.317">  2  6  1 -1</clus>
<clus scale="  110.248">  2  3  1 -1</clus>
<clus scale="  110.248">  1  3  2 -1</clus>
</clustering>
</event>
<event>
 6    0  0.4189111E+002  0.1345653E+03  0.7546771E-02  0.1220835E+00
          1   -1    0    0  503    0 -0.00000000000E+00  0.00000000000E+00  0.43366540052E+03  0.43366540052E+03  0.00000000000E+00 0.  1.
         21   -1    0    0  505  502  0.00000000000E+00 -0.00000000000E+00 -0.66339737758E+03  0.66339737758E+03  0.00000000000E+00 0.  1.
         21    1    1    2  503  502 -0.19978289473E+02 -0.85190051647E+02 -0.40861040581E+03  0.41787431206E+03  0.00000000000E+00 0.  1.
         21    1    1    2  504  501  0.39494897346E+02  0.50154944075E+02  0.14630869236E+03  0.15962956741E+03  0.00000000000E+00 0.  1.
         21    1    1    2  505  504 -0.61018397019E+02 -0.18305911319E+02 -0.23505372163E+03  0.24353357718E+03  0.00000000000E+00 0.  1.
          1    1    1    2  501    0  0.41501789146E+02  0.53341018891E+02  0.26762345802E+03  0.27602532145E+03  0.00000000000E+00 0.  1.
<scales pt_clust_3="130.09363" pt_clust_4="33.43478" pt_clust_5="63.70519" pt_clust_6="33.43478"></scales>
<clustering>
<clus scale="   33.435">  4  6 -1 -1</clus>
<clus scale="   63.705">  2  5  1 -1</clus>
<clus scale="  130.094">  2  3  1 -1</clus>
<clus scale="   63.705">  2  3  1 -1</clus>
</clustering>
</event>
<event>
 6    0  0.4189111E+002  0.1279580E+03  0.7546771E-02  0.1230518E+00
         -3   -1    0    0    0  501 -0.00000000000E+00  0.00000000000E+00  0.19239777609E+03  0.19239777609E+03  0.00000000000E+00 0. -1.
         21   -1    0    0  503  502  0.00000000000E+00 -0.00000000000E+00 -0.95435566182E+03  0.95435566182E+03  0.00000000000E+00 0. -1.
         21    1    1    2  503  501 -0.59938378489E+00 -0.10393225241E+03 -0.82359037545E+03  0.83012250836E+03  0.00000000000E+00 0. -1.
         21    1    1    2  504  505 -0.67679734495E+02  0.93618599430E+02 -0.38484221912E+01  0.11558459661E+03  0.00000000000E+00 0. -1.
         21    1    1    2  505  502 -0.20452031925E+02 -0.36609849557E+02 -0.38209153052E+02  0.56731878793E+02  0.00000000000E+00 0. -1.
         -3    1    1    2    0  504  0.88731150204E+02  0.46923502542E+02  0.10369006496E+03  0.14431445416E+03  0.00000000000E+00 0. -1.
<scales pt_clust_3="14000.00000" pt_clust_4="127.95796" pt_clust_5="41.93527" pt_clust_6="99.58750"></scales>
<clustering>
<clus scale="   41.935">  2  5  1 -1</clus>
<clus scale="   99.587">  1  6  2 -1</clus>
<clus scale="  127.958">  1  4  2 -1</clus>
<clus scale="   41.935">  2  3  1 -1</clus>
</clustering>
</event>
<event>
 6    0  0.4189111E+002  0.1294706E+03  0.7546771E-02  0.1228243E+00
         21   -1    0    0  504  502  0.00000000000E+00  0.00000000000E+00  0.13146372316E+03  0.13146372316E+03  0.00000000000E+00 0.  1.
          2   -1    0    0  503    0 -0.00000000000E+00 -0.00000000000E+00 -0.38080795442E+04  0.38080795442E+04  0.00000000000E+00 0.  1.
         21    1    1    2  503  502 -0.26130135887E+02  0.39827735026E+02  0.76429983477E+01  0.48243630694E+02  0.00000000000E+00 0.  1.
         21    1    1    2  504  505 -0.27406320951E+02 -0.14662616030E+03  0.48081095569E+02  0.15672309678E+03  0.00000000000E+00 0.  1.
         21    1    1    2  505  501  0.42566443411E+02  0.40847723052E+02 -0.13321850107E+04  0.13334906603E+04  0.00000000000E+00 0.  1.
          2    1    1    2  501    0  0.10970013428E+02  0.65950702224E+02 -0.24001549043E+04  0.24010858795E+04  0.00000000000E+00 0.  1.
<scales pt_clust_3="47.63436" pt_clust_4="119.72467" pt_clust_5="46.29315" pt_clust_6="46.29315"></scales>
<clustering>
<clus scale="   46.293">  5  6 -1 -1</clus>
<clus scale="   47.634">  1  3  2 -1</clus>
<clus scale="  119.725">  1  4  2 -1</clus>
<clus scale="   47.634">  1  3  2 -1</clus>
</clustering>
</event>
<event>
 6    0  0.4189111E+002  0.1097955E+03  0.7546771E-02  0.1260949E+00
         21   -1    0    0  505  502  0.00000000000E+00  0.00000000000E+00  0.69102521039E+03  0.69102521039E+03  0.00000000000E+00 0. -1.
         -3   -1    0    0    0  501 -0.00000000000E+00 -0.00000000000E+00 -0.10223687430E+04  0.10223687430E+04  0.00000000000E+00 0.  1.
         21    1    1    2  503  502  0.11069644446E+03  0.77774606738E+02  0.50332057271E+03  0.52118537123E+03  0.00000000000E+00 0. -1.
         21    1    1    2  504  503 -0.68188862143E+02 -0.44673816608E+02  0.15759720392E+03  0.17743266185E+03  0.00000000000E+00 0. -1.
         21    1    1    2  505  501  0.28462537169E+02  0.57344838327E+02 -0.66176623013E+03  0.66485569099E+03  0.00000000000E+00 0.  1.
         -3    1    1    2    0  504 -0.70970119490E+02 -0.90445628457E+02 -0.33049507911E+03  0.34992022931E+03  0.00000000000E+00 0.  1.
<scales pt_clust_3="14000.00000" pt_clust_4="109.79547" pt_clust_5="64.01989" pt_clust_6="56.92266"></scales>
<clustering>
<clus scale="   64.020">  2  5  1 -1</clus>
<clus scale="   56.923">  2  6  1 -1</clus>
<clus scale="  109.795">  2  4  1 -1</clus>
<clus scale="  109.795">  1  3  2 -1</clus>
</clustering>
</event>
<event>
 6    0  0.4189111E+002  0.9291236E+02  0.7546771E-02  0.1295948E+00
          2   -1    0    0  505    0 -0.00000000000E+00  0.00000000000E+00  0.18745097562E+04  0.18745097562E+04  0.00000000000E+00 0.  1.
         21   -1    0    0  503  502  0.00000000000E+00 -0.00000000000E+00 -0.20935260227E+02  0.20935260227E+02  0.00000000000E+00 0.  1.
         21    1    1    2  503  501  0.32638575897E+02  0.12294622362E+03  0.23675734607E+03  0.26876586736E+03  0.00000000000E+00 0.  1.
         21    1    1    2  504  502 -0.17791255050E+02 -0.27285258980E+02  0.87832358576E+02  0.93677837971E+02  0.00000000000E+00 0.  1.
         21    1    1    2  505  504  0.12071822136E+02 -0.43449431372E+02  0.40931401908E+03  0.41179066064E+03  0.00000000000E+00 0.  1.
          2    1    1    2  501    0 -0.26919142982E+02 -0.52211533272E+02  0.11196707722E+04  0.11212106505E+04  0.00000000000E+00 0.  1.
<scales pt_clust_3="14000.00000" pt_clust_4="32.57321" pt_clust_5="46.60549" pt_clust_6="92.91236"></scales>
<clustering>
<clus scale="   32.573">  2  4  1 -1</clus>
<clus scale="   46.605">  1  5  2 -1</clus>
<clus scale="   92.912">  1  6  2 -1</clus>
<clus scale="   32.573">  2  3  1 -1</clus>
</clustering>
</event>
<event>
 6    0  0.4189111E+002  0.1714645E+03  0.7546771E-02  0.1176329E+00
         -3   -1    0    0    0  501 -0.00000000000E+00  0.00000000000E+00  0.39066049917E+03  0.39066049917E+03  0.00000000000E+00 0. -1.
         21   -1    0    0  503  502  0.00000000000E+00 -0.00000000000E+00 -0.19137576450E+04  0.19137576450E+04  0.00000000000E+00 0. -1.
         21    1    1    2  503  501  0.80315379701E+02 -0.43534835573E+02 -0.15448273301E+04  0.15475261943E+04  0.00000000000E+00 0. -1.
         21    1    1    2  504  502  0.57511754034E+02 -0.43358782650E+02 -0.34460994154E+03  0.35205624223E+03  0.00000000000E+00 0. -1.
         21    1    1    2  505  504 -0.39876247704E+02  0.12010440502E+01  0.60648433315E+02  0.72593319950E+02  0.00000000000E+00 0. -1.
         -3    1    1    2    0  505 -0.97950886031E+02  0.85692574173E+02  0.30569169249E+03  0.33224238772E+03  0.00000000000E+00 0. -1.
<scales pt_clust_3="162.04946" pt_clust_4="72.02490" pt_clust_5="31.02490" pt_clust_6="31.02490"></scales>
<clustering>
<clus scale="   31.025">  5  6 -1 -1</clus>
<clus scale="   72.025">  2  4  1 -1</clus>
<clus scale="  162.049">  2  3  1 -1</clus>
<clus scale="   72.025">  2  3  1 -1</clus>
</clustering>
</event>
<event>
 6    0  0.4189111E+002  0.9216595E+02  0.7546771E-02  0.1297690E+00
         -1   -1    0    0    0  501 -0.00000000000E+00  0.00000000000E+00  0.39256168825E+03  0.39256168825E+03  0.00000000000E+00 0. -1.
         21   -1    0    0  505  502  0.00000000000E+00 -0.00000000000E+00 -0.15961778009E+03  0.15961778009E+03  0.00000000000E+00 0.  1.
         21    1    1    2  503  502  0.84770986660E+02 -0.61087111010E+02 -0.18208904798E+02  0.10606280934E+03  0.00000000000E+00 0.  1.
         21    1    1    2  504  501  0.34310318946E+02  0.41453400360E+02  0.17048153583E+03  0.17877230335E+03  0.00000000000E+00 0.  1.
         21    1    1    2  505  504 -0.41490588952E+01  0.35788167714E+02 -0.69063213089E+02  0.77895667660E+02  0.00000000000E+00 0.  1.
         -1    1    1    2    0  503 -0.11493224671E+03 -0.16154457063E+02  0.14973449023E+03  0.18944868799E+03  0.00000000000E+00 0. -1.
<scales pt_clust_3="14000.00000" pt_clust_4="55.02433" pt_clust_5="36.02787" pt_clust_6="92.16595"></scales>
<clustering>
<clus scale="   36.028">  2  5  1 -1</clus>
<clus scale="   55.024">  1  4  2 -1</clus>
<clus scale="   92.166">  1  6  2 -1</clus>
<clus scale="   36.028">  2  3  1 -1</clus>
</clustering>
</event>
<event>
 6    0  0.4189111E+002  0.7527733E+02  0.7546771E-02  0.1343014E+00
          2   -1    0    0  503    0 -0.00000000000E+00  0.00000000000E+00  0.34051112434E+04  0.34051112434E+04  0.00000000000E+00 0. -1.
         21   -1    0    0  505  502  0.00000000000E+00 -0.00000000000E+00 -0.14238524607E+03  0.14238524607E+03  0.00000000000E+00 0. -1.
         21    1    1    2  503  504 -0.38984464080E+02 -0.65883149260E+00  0.15247297625E+03  0.15737925843E+03  0.00000000000E+00 0. -1.
         21    1    1    2  504  502  0.43992617911E+02  0.26464918322E+01 -0.13344263675E+03  0.14053217301E+03  0.00000000000E+00 0. -1.
         21    1    1    2  505  501 -0.63097224882E+02  0.56485005298E+02  0.79405352344E+03  0.79855670663E+03  0.00000000000E+00 0. -1.
          2    1    1    2  501    0  0.58089071050E+02 -0.58472665637E+02  0.24496421344E+04  0.24510283514E+04  0.00000000000E+00 0. -1.
<scales pt_clust_3="38.99003" pt_clust_4="44.02967" pt_clust_5="14000.00000" pt_clust_6="75.27733"></scales>
<clustering>
<clus scale="   38.990">  1  3  2 -1</clus>
<clus scale="   44.030">  2  4  1 -1</clus>
<clus scale="   75.277">  1  6  2 -1</clus>
<clus scale="   44.030">  2  3  1 -1</clus>
</clustering>
</event>
<event>
 6    0  0.4189111E+002  0.7524042E+02  0.7546771E-02  0.1343128E+00
         21   -1    0    0  505  502  0.00000000000E+00  0.00000000000E+00  0.90825700060E+03  0.90825700060E+03  0.00000000000E+00 0.  1.
          2   -1    0    0  504    0 -0.00000000000E+00 -0.00000000000E+00 -0.32093263280E+04  0.32093263280E+04  0.00000000000E+00 0.  1.
         21    1    1    2  503  501 -0.80186456006E+01 -0.65033992369E+02  0.17211717931E+03  0.18416851591E+03  0.00000000000E+00 0. -1.
         21    1    1    2  504  502  0.47689258040E+02 -0.55316830092E+02 -0.28225259947E+04  0.28234707733E+04  0.00000000000E+00 0.  1.
         21    1    1    2  505  503  0.27528753308E+02  0.19396641663E+02  0.71956965358E+03  0.72035723660E+03  0.00000000000E+00 0.  1.
          2    1    1    2  501    0 -0.67199365747E+02  0.10095418080E+03 -0.37023016568E+03  0.38958680285E+03  0.00000000000E+00 0.  1.
<scales pt_clust_3="50.04240" pt_clust_4="14000.00000" pt_clust_5="33.67584" pt_clust_6="75.24042"></scales>
<clustering>
<clus scale="   33.676">  1  5  2 -1</clus>
<clus scale="   50.042">  1  3  2 -1</clus>
<clus scale="   75.240">  1  6  2 -1</clus>
<clus scale="   33.676">  1  3  2 -1</clus>
</clustering>
</event>
<event>
 6    0  0.4189111E+002  0.9464667E+02  0.7546771E-02  0.1291974E+00
          1   -1    0    0  503    0 -0.00000000000E+00  0.00000000000E+00  0.11953560079E+04  0.11953560079E+04  0.00000000000E+00 0. -1.
         21   -1    0    0  505  502  0.00000000000E+00 -0.00000000000E+00 -0.14292919264E+03  0.14292919264E+03  0.00000000000E+00 0.  1.
         21    1    1    2  503  504 -0.55482551566E+02 -0.31310857415E+01  0.31879337607E+03  0.32360057764E+03  0.00000000000E+00 0. -1.
         21    1    1    2  504  502 -0.53850947841E+02 -0.10741483407E+02 -0.22764872264E+02  0.59443615792E+02  0.00000000000E+00 0. -1.
         21    1    1    2  505  501  0.44050923783E+02 -0.83934556473E+02 -0.71687838753E+02  0.11884712820E+03  0.00000000000E+00 0.  1.
          1    1    1    2  501    0  0.65282575625E+02  0.97807125622E+02  0.82808615024E+03  0.83639387893E+03  0.00000000000E+00 0. -1.
<scales pt_clust_3="56.85455" pt_clust_4="54.91178" pt_clust_5="14000.00000" pt_clust_6="94.64667"></scales>
<clustering>
<clus scale="   54.912">  2  4  1 -1</clus>
<clus scale="   56.855">  1  3  2 -1</clus>
<clus scale="   94.647">  1  6  2 -1</clus>
<clus scale="   54.912">  2  3  1 -1</clus>
</clustering>
</event>
<event>
 6    0  0.4189111E+002  0.1203816E+03  0.7546771E-02  0.1242469E+00
         -3   -1    0    0    0  501 -0.00000000000E+00  0.00000000000E+00  0.16691579266E+03  0.16691579266E+03  0.00000000000E+00 0. -1.
         21   -1    0    0  504  502  0.00000000000E+00 -0.00000000000E+00 -0.48038768833E+03  0.48038768833E+03  0.00000000000E+00 0.  1.
         21    1    1    2  503  505  0.10335250897E+02 -0.11740651144E+03 -0.30271216807E+03  0.32484729187E+03  0.00000000000E+00 0.  1.
         21    1    1    2  504  501 -0.34984414957E+02  0.18220796530E+02 -0.49029658498E+01  0.39748531925E+02  0.00000000000E+00 0. -1.
         21    1    1    2  505  502  0.61680282971E+02  0.12127558791E+02 -0.11938727421E+03  0.13492537283E+03  0.00000000000E+00 0.  1.
         -3    1    1    2    0  503 -0.37031118911E+02  0.87058156115E+02  0.11353051246E+03  0.14778228437E+03  0.00000000000E+00 0. -1.
<scales pt_clust_3="120.38160" pt_clust_4="39.44498" pt_clust_5="61.27333" pt_clust_6="14000.00000"></scales>
<clustering>
<clus scale="   39.445">  1  4  2 -1</clus>
<clus scale="   61.273">  2  5  1 -1</clus>
<clus scale="  120.382">  2  3  1 -1</clus>
<clus scale="   61.273">  2  3  1 -1</clus>
</clustering>
</event>
<event>
 6    0  0.4189111E+002  0.1149314E+03  0.7546771E-02  0.1251701E+00
          1   -1    0    0  504    0 -0.00000000000E+00  0.00000000000E+00  0.93686172443E+03  0.93686172443E+03  0.00000000000E+00 0. -1.
         21   -1    0    0  501  502  0.00000000000E+00 -0.00000000000E+00 -0.60000986414E+03  0.60000986414E+03  0.00000000000E+00 0. -1.
         21    1    1    2  503  502 -0.62032985559E+01 -0.12221658727E+03 -0.39914944868E+03  0.41748731417E+03  0.00000000000E+00 0. -1.
         21    1    1    2  504  505  0.17388794337E+02  0.29974264151E+02  0.34410895074E+03  0.34584938435E+03  0.00000000000E+00 0. -1.
         21    1    1    2  505  503 -0.73809455332E+02  0.94525478249E+02 -0.17006266152E+03  0.20809663760E+03  0.00000000000E+00 0. -1.
          1    1    1    2  501    0  0.62623959551E+02 -0.22831551339E+01  0.56195501975E+03  0.56543825245E+03  0.00000000000E+00 0. -1.
<scales pt_clust_3="14000.00000" pt_clust_4="34.65295" pt_clust_5="114.93138" pt_clust_6="83.42660"></scales>
<clustering>
<clus scale="   34.653">  1  4  2 -1</clus>
<clus scale="   83.427">  1  6  2 -1</clus>
<clus scale="  114.931">  1  5  2 -1</clus>
<clus scale="  114.931">  2  3  1 -1</clus>
</clustering>
</event>
<event>
 6    0  0.4189111E+002  0.5476735E+02  0.7546771E-02  0.1421202E+00
         21   -1    0    0  503  502  0.00000000000E+00  0.00000000000E+00  0.49283934033E+03  0.49283934033E+03  0.00000000000E+00 0. -1.
          1   -1    0    0  505    0 -0.00000000000E+00 -0.00000000000E+00 -0.91140905000E+03  0.91140905000E+03  0.00000000000E+00 0.  1.
         21    1    1    2  503  501 -0.47142814648E+02 -0.20813585366E+02  0.32114546886E+03  0.32525384314E+03  0.00000000000E+00 0. -1.
         21    1    1    2  504  502  0.43983713371E+02  0.65746708985E+02  0.15521273489E+03  0.17420731860E+03  0.00000000000E+00 0. -1.
         21    1    1    2  505  504  0.31430740685E+01  0.42240569517E+02 -0.40045650854E+03  0.40269040199E+03  0.00000000000E+00 0.  1.
          1    1    1    2  501    0  0.16027208478E-01 -0.87173693136E+02 -0.49447140488E+03  0.50209682659E+03  0.00000000000E+00 0.  1.
<scales pt_clust_3="54.76735" pt_clust_4="14000.00000" pt_clust_5="42.35734" pt_clust_6="45.99395"></scales>
<clustering>
<clus scale="   42.357">  2  5  1 -1</clus>
<clus scale="   45.994">  2  6  1 -1</clus>
<clus scale="   54.767">  1  3  2 -1</clus>
<clus scale="   54.767">  1  3  2 -1</clus>
</clustering>
</event>
<event>
 6    0  0.4189111E+002  0.6306832E+02  0.7546771E-02  0.1385389E+00
         21   -1    0    0  503  502  0.00000000000E+00  0.00000000000E+00  0.34014562419E+03  0.34014562419E+03  0.00000000000E+00 0.  1.
          2   -1    0    0  504    0 -0.00000000000E+00 -0.00000000000E+00 -0.54691523567E+03  0.54691523567E+03  0.00000000000E+00 0.  1.
         21    1    1    2  503  501 -0.18357162169E+01 -0.59225902373E+02  0.62567904973E+02  0.86173198261E+02  0.00000000000E+00 0.  1.
         21    1    1    2  504  505 -0.32275409952E+02  0.40400495895E+00 -0.21910979764E+03  0.22147453291E+03  0.00000000000E+00 0. -1.
         21    1    1    2  505  502 -0.57604557819E+02  0.42191364559E+02  0.25263478382E+03  0.26253138921E+03  0.00000000000E+00 0.  1.
          2    1    1    2  501    0  0.91715683988E+02  0.16630532854E+02 -0.30286250264E+03  0.31688173948E+03  0.00000000000E+00 0.  1.
<scales pt_clust_3="59.28736" pt_clust_4="32.27794" pt_clust_5="14000.00000" pt_clust_6="63.06832"></scales>
<clustering>
<clus scale="   32.278">  2  4  1 -1</clus>
<clus scale="   59.287">  1  3  2 -1</clus>
<clus scale="   63.068">  2  6  1 -1</clus>
<clus scale="   59.287">  1  3  2 -1</clus>
</clustering>
</event>
<event>
 6    0  0.4189111E+002  0.9651434E+02  0.7546771E-02  0.1287801E+00
         21   -1    0    0  504  502  0.00000000000E+00  0.00000000000E+00  0.17195000823E+04  0.17195000823E+04  0.00000000000E+00 0. -1.
          2   -1    0    0  505    0 -0.00000000000E+00 -0.00000000000E+00 -0.38510804383E+03  0.38510804383E+03  0.00000000000E+00 0. -1.
         21    1    1    2  503  502 -0.54093401416E+02 -0.27007996386E+01  0.14452641745E+04  0.14462786469E+04  0.00000000000E+00 0. -1.
         21    1    1    2  504  501 -0.41777936709E+02  0.24070735301E+02  0.22892685501E+03  0.23394935614E+03  0.00000000000E+00 0. -1.
         21    1    1    2  505  503  0.48629061319E+02  0.80465762350E+02 -0.36297021169E+02  0.10078193420E+03  0.00000000000E+00 0. -1.
          2    1    1    2  501    0  0.47242276806E+02 -0.10183569801E+03 -0.30350196989E+03  0.32359818886E+03  0.00000000000E+00 0. -1.
<scales pt_clust_3="96.51434" pt_clust_4="48.21614" pt_clust_5="94.00271" pt_clust_6="14000.00000"></scales>
<clustering>
<clus scale="   48.216">  1  4  2 -1</clus>
<clus scale="   94.003">  2  5  1 -1</clus>
<clus scale="   96.514">  1  3  2 -1</clus>
<clus scale="   48.216">  1  3  2 -1</clus>
</clustering>
</event>
<event>
 6    0  0.4189111E+002  0.1569210E+03  0.7546771E-02  0.1192217E+00
         21   -1    0    0  504  502  0.00000000000E+00  0.00000000000E+00  0.72763843058E+02  0.72763843058E+02  0.00000000000E+00 0.  1.
          2   -1    0    0  505    0 -0.00000000000E+00 -0.00000000000E+00 -0.32733158865E+04  0.32733158865E+04  0.00000000000E+00 0.  1.
         21    1    1    2  503  502 -0.81752865039E+02  0.12207543998E+03 -0.89093031835E+02  0.17182407372E+03  0.00000000000E+00 0.  1.
         21    1    1    2  504  501  0.64591937848E+02 -0.16871942769E+03 -0.24244531811E+03  0.30235425578E+03  0.00000000000E+00 0.  1.
         21    1    1    2  505  503 -0.21038369008E+02  0.41833404055E+02 -0.42286094713E+03  0.42544568075E+03  0.00000000000E+00 0.  1.
          2    1    1    2  501    0  0.38199296198E+02  0.48105836583E+01 -0.24461527464E+04  0.24464557193E+04  0.00000000000E+00 0.  1.
<scales pt_clust_3="156.92099" pt_clust_4="14000.00000" pt_clust_5="44.32425" pt_clust_6="38.50101"></scales>
<clustering>
<clus scale="   38.501">  2  6  1 -1</clus>
<clus scale="   44.324">  2  5  1 -1</clus>
<clus scale="  156.921">  1  3  2 -1</clus>
<clus scale="  156.921">  1  3  2 -1</clus>
</clustering>
</event>
<event>
 6    0  0.4189111E+002  0.1130134E+03  0.7546771E-02  0.1255089E+00
          1   -1    0    0  503    0 -0.00000000000E+00  0.00000000000E+00  0.36580927445E+04  0.36580927445E+04  0.00000000000E+00 0.  1.
         21   -1    0    0  501  502  0.00000000000E+00 -0.00000000000E+00 -0.79040414612E+01  0.79040414612E+01  0.00000000000E+00 0. -1.
         21    1    1    2  503  505 -0.88408617594E+01 -0.30880216478E+02  0.46329442295E+03  0.46440657935E+03  0.00000000000E+00 0. -1.
         21    1    1    2  504  502  0.42610040610E+02 -0.26251411922E+02  0.35837129173E+03  0.36184904991E+03  0.00000000000E+00 0. -1.
         21    1    1    2  505  504  0.81488052740E+02  0.63509638556E+02  0.64975615541E+03  0.65791856519E+03  0.00000000000E+00 0. -1.
          1    1    1    2  501    0 -0.11525723159E+03 -0.63780101561E+01  0.21787668329E+04  0.21818225915E+04  0.00000000000E+00 0.  1.
<scales pt_clust_3="32.12084" pt_clust_4="51.14399" pt_clust_5="14000.00000" pt_clust_6="113.01344"></scales>
<clustering>
<clus scale="   32.121">  1  3  2 -1</clus>
<clus scale="   51.144">  2  4  1 -1</clus>
<clus scale="  113.013">  1  6  2 -1</clus>
<clus scale="   51.144">  2  3  1 -1</clus>
</clustering>
</event>
<event>
 6    0  0.4189111E+002  0.1635300E+03  0.7546771E-02  0.1184768E+00
         21   -1    0    0  503  502  0.00000000000E+00  0.00000000000E+00  0.40218777949E+02  0.40218777949E+02  0.00000000000E+00 0. -1.
          1   -1    0    0  505    0 -0.00000000000E+00 -0.00000000000E+00 -0.28746859548E+04  0.28746859548E+04  0.00000000000E+00 0. -1.
         21    1    1    2  503  504 -0.38358998006E+02 -0.57600804030E+01 -0.15123006935E+02  0.41632878750E+02  0.00000000000E+00 0. -1.
         21    1    1    2  504  501 -0.71965212524E+02  0.62205460233E+02 -0.89540664872E+02  0.13063706121E+03  0.00000000000E+00 0. -1.
         21    1    1    2  505  502  0.13267652155E+03 -0.87810612826E+02 -0.26416234751E+04  0.26464104646E+04  0.00000000000E+00 0. -1.
          1    1    1    2  501    0 -0.22352311024E+02  0.31365232997E+02 -0.88180029952E+02  0.96224328168E+02  0.00000000000E+00 0. -1.
<scales pt_clust_3="38.78906" pt_clust_4="30.04969" pt_clust_5="156.56272" pt_clust_6="30.04969"></scales>
<clustering>
<clus scale="   30.050">  4  6 -1 -1</clus>
<clus scale="   38.789">  1  3  2 -1</clus>
<clus scale="  156.563">  2  5  1 -1</clus>
<clus scale="   38.789">  1  3  2 -1</clus>
</clustering>
</event>
<event>
 6    0  0.4189111E+002  0.5945013E+03  0.7546771E-02  0.9916880E-01
          2   -1    0    0  504    0 -0.00000000000E+00  0.00000000000E+00  0.10937279579E+04  0.10937279579E+04  0.00000000000E+00 0. -1.
         21   -1    0    0  505  502  0.00000000000E+00 -0.00000000000E+00 -0.85877689690E+03  0.85877689690E+03  0.00000000000E+00 0.  1.
         21    1    1    2  503  501 -0.21997182880E+03 -0.11356805996E+02  0.33568124329E+03  0.40149530459E+03  0.00000000000E+00 0. -1.
         21    1    1    2  504  502 -0.18522267285E+01  0.32587292605E+02 -0.10043859255E+03  0.10560905859E+03  0.00000000000E+00 0.  1.
         21    1    1    2  505  503  0.57202509031E+03  0.11224519263E+03 -0.53580630398E+03  0.79177022084E+03  0.00000000000E+00 0.  1.
          2    1    1    2  501    0 -0.35020103479E+03 -0.13347567924E+03  0.53551471425E+03  0.65363027079E+03  0.00000000000E+00 0. -1.
<scales pt_clust_3="69.63833" pt_clust_4="32.63989" pt_clust_5="587.53527" pt_clust_6="69.63833"></scales>
<clustering>
<clus scale="   32.640">  2  4  1 -1</clus>
<clus scale="   69.638">  3  6 -1 -1</clus>
<clus scale="  587.535">  2  5  1 -1</clus>
<clus scale="   32.640">  2  3  1 -1</clus>
</clustering>
</event>
<event>
 6    0  0.4189111E+002  0.6596808E+02  0.7546771E-02  0.1374367E+00
         21   -1    0    0  503  502  0.00000000000E+00  0.00000000000E+00  0.33638800274E+03  0.33638800274E+03  0.00000000000E+00 0.  1.
          3   -1    0    0  504    0 -0.00000000000E+00 -0.00000000000E+00 -0.20874814219E+03  0.20874814219E+03  0.00000000000E+00 0.  1.
         21    1    1    2  503  501  0.79445272776E+02  0.56885854216E+02 -0.72136733834E+02  0.12145476584E+03  0.00000000000E+00 0.  1.
         21    1    1    2  504  505 -0.73817352849E+02 -0.20043309083E+02 -0.79248944127E+00  0.76494208017E+02  0.00000000000E+00 0.  1.
         21    1    1    2  505  502  0.40463891705E+02 -0.62195652948E+00  0.26034067345E+03  0.26346722683E+03  0.00000000000E+00 0.  1.
          3    1    1    2  501    0 -0.46091811632E+02 -0.36220588603E+02 -0.59771589628E+02  0.83719944248E+02  0.00000000000E+00 0.  1.
<scales pt_clust_3="65.96808" pt_clust_4="14000.00000" pt_clust_5="40.46867" pt_clust_6="53.72426"></scales>
<clustering>
<clus scale="   40.469">  1  5  2 -1</clus>
<clus scale="   53.724">  2  6  1 -1</clus>
<clus scale="   65.968">  2  3  1 -1</clus>
<clus scale="   40.469">  1  3  2 -1</clus>
</clustering>
</event>
<event>
 6    0  0.4189111E+002  0.9602347E+02  0.7546771E-02  0.1288887E+00
         21   -1    0    0  503  502  0.00000000000E+00  0.00000000000E+00  0.72634602675E+03  0.72634602675E+03  0.00000000000E+00 0.  1.
          2   -1    0    0  504    0 -0.00000000000E+00 -0.00000000000E+00 -0.61032198258E+02  0.61032198258E+02  0.00000000000E+00 0. -1.
         21    1    1    2  503  501  0.31422295503E+02  0.92025133405E+00  0.90962321653E+02  0.96241111162E+02  0.00000000000E+00 0.  1.
         21    1    1    2  504  505 -0.21403109500E+02 -0.37867643992E+02  0.21920878374E+02  0.48709100448E+02  0.00000000000E+00 0.  1.
         21    1    1    2  505  502 -0.77035511899E+02  0.85172716194E+02  0.54782745412E+03  0.55973545641E+03  0.00000000000E+00 0.  1.
          2    1    1    2  501    0  0.67016325896E+02 -0.48225323537E+02  0.46031743450E+01  0.82692556986E+02  0.00000000000E+00 0. -1.
<scales pt_clust_3="31.43577" pt_clust_4="42.61653" pt_clust_5="14000.00000" pt_clust_6="96.02347"></scales>
<clustering>
<clus scale="   31.436">  1  3  2 -1</clus>
<clus scale="   42.617">  2  4  1 -1</clus>
<clus scale="   96.023">  2  6  1 -1</clus>
<clus scale="   31.436">  1  3  2 -1</clus>
</clustering>
</event>
<event>
 6    0  0.4189111E+002  0.1476439E+03  0.7546771E-02  0.1203398E+00
          4   -1    0    0  503    0 -0.00000000000E+00  0.00000000000E+00  0.93069437157E+03  0.93069437157E+03  0.00000000000E+00 0. -1.
         21   -1    0    0  505  502  0.00000000000E+00 -0.00000000000E+00 -0.24452957919E+03  0.24452957919E+03  0.00000000000E+00 0. -1.
         21    1    1    2  503  504 -0.28519235145E+02  0.13500927775E+02  0.61590875249E+02  0.69203018272E+02  0.00000000000E+00 0. -1.
         21    1    1    2  504  502  0.11468328507E+02  0.38135476252E+02 -0.88415571219E+02  0.96969842434E+02  0.00000000000E+00 0. -1.
         21    1    1    2  505  501  0.10735167638E+03  0.54059648652E+02 -0.11685893249E+03  0.16763901138E+03  0.00000000000E+00 0. -1.
          4    1    1    2  501    0 -0.90300769746E+02 -0.10569605268E+03  0.82984842084E+03  0.84141207868E+03  0.00000000000E+00 0. -1.
<scales pt_clust_3="31.55348" pt_clust_4="39.84618" pt_clust_5="147.64387" pt_clust_6="14000.00000"></scales>
<clustering>
<clus scale="   31.553">  1  3  2 -1</clus>
<clus scale="   39.846">  2  4  1 -1</clus>
<clus scale="  147.644">  2  5  1 -1</clus>
<clus scale="   39.846">  2  3  1 -1</clus>
</clustering>
</event>
<event>
 6    0  0.4189111E+002  0.1331637E+03  0.7546771E-02  0.1222836E+00
         21   -1    0    0  505  502  0.00000000000E+00  0.00000000000E+00  0.67570632549E+02  0.67570632549E+02  0.00000000000E+00 0.  1.
          2   -1    0    0  504    0 -0.00000000000E+00 -0.00000000000E+00 -0.10149151363E+04  0.10149151363E+04  0.00000000000E+00 0.  1.
         21    1    1    2  503  502 -0.63302113882E+02  0.10960345906E+03 -0.55834371327E+02  0.13833854445E+03  0.00000000000E+00 0.  1.
         21    1    1    2  504  503 -0.13966124039E+02 -0.26813407379E+02 -0.21316359390E+03  0.21529683974E+03  0.00000000000E+00 0. -1.
         21    1    1    2  505  501  0.37165134175E+02 -0.15301208413E+03 -0.26988579189E+03  0.31246165485E+03  0.00000000000E+00 0.  1.
          2    1    1    2  501    0  0.40103103746E+02  0.70222032450E+02 -0.40846074660E+03  0.41638872978E+03  0.00000000000E+00 0.  1.
<scales pt_clust_3="14000.00000" pt_clust_4="30.23262" pt_clust_5="133.16366" pt_clust_6="65.30843"></scales>
<clustering>
<clus scale="   30.233">  2  4  1 -1</clus>
<clus scale="   65.308">  2  6  1 -1</clus>
<clus scale="  133.164">  2  5  1 -1</clus>
<clus scale="  133.164">  1  3  2 -1</clus>
</clustering>
</event>
<event>
 6    0  0.4189111E+002  0.1346134E+03  0.7546771E-02  0.1220767E+00
          2   -1    0    0  504    0 -0.00000000000E+00  0.00000000000E+00  0.13360292839E+04  0.13360292839E+04  0.00000000000E+00 0. -1.
         21   -1    0    0  505  502  0.00000000000E+00 -0.00000000000E+00 -0.53533829096E+02  0.53533829096E+02  0.00000000000E+00 0. -1.
         21    1    1    2  503  501 -0.46347102126E+02  0.48679397174E+02  0.38123157957E+02  0.77272975595E+02  0.00000000000E+00 0. -1.
         21    1    1    2  504  502  0.49117041611E+02  0.11565545697E+03  0.26221414458E+03  0.29076610208E+03  0.00000000000E+00 0. -1.
         21    1    1    2  505  503  0.23830827196E+02 -0.28519792395E+02  0.85599849543E+01  0.38138697219E+02  0.00000000000E+00 0. -1.
          2    1    1    2  501    0 -0.26600766681E+02 -0.13581506175E+03  0.97359816727E+03  0.98338533806E+03  0.00000000000E+00 0. -1.
<scales pt_clust_3="48.49151" pt_clust_4="14000.00000" pt_clust_5="37.16567" pt_clust_6="134.61336"></scales>
<clustering>
<clus scale="   37.166">  2  5  1 -1</clus>
<clus scale="   48.492">  2  3  1 -1</clus>
<clus scale="  134.613">  1  6  2 -1</clus>
<clus scale="   37.166">  2  3  1 -1</clus>
</clustering>
</event>
<event>
 6    0  0.4189111E+002  0.1115057E+03  0.7546771E-02  0.1257807E+00
          2   -1    0    0  504    0 -0.00000000000E+00  0.00000000000E+00  0.21006740083E+04  0.21006740083E+04  0.00000000000E+00 0. -1.
         21   -1    0    0  505  502  0.00000000000E+00 -0.00000000000E+00 -0.16699237427E+03  0.16699237427E+03  0.00000000000E+00 0. -1.
         21    1    1    2  503  502  0.48681174292E+02  0.25331655767E+02 -0.13754154779E+02  0.56574961671E+02  0.00000000000E+00 0. -1.
         21    1    1    2  504  503  0.34096677975E+02  0.46591180508E+02  0.43414133474E+03  0.43796349172E+03  0.00000000000E+00 0. -1.
         21    1    1    2  505  501 -0.97464225455E+01 -0.13068531465E+03 -0.95154004614E+02  0.16195038997E+03  0.00000000000E+00 0. -1.
          2    1    1    2  501    0 -0.73031429721E+02  0.58762478372E+02  0.16084484587E+04  0.16111775392E+04  0.00000000000E+00 0. -1.
<scales pt_clust_3="54.87759" pt_clust_4="58.44911" pt_clust_5="14000.00000" pt_clust_6="111.50569"></scales>
<clustering>
<clus scale="   54.878">  2  3  1 -1</clus>
<clus scale="   58.449">  1  4  2 -1</clus>
<clus scale="  111.506">  1  6  2 -1</clus>
<clus scale="   54.878">  2  3  1 -1</clus>
</clustering>
</event>
<event>
 6    0  0.4189111E+002  0.1736586E+03  0.7546771E-02  0.1174085E+00
          2   -1    0    0  505    0 -0.00000000000E+00  0.00000000000E+00  0.13582696774E+04  0.13582696774E+04  0.00000000000E+00 0.  1.
         21   -1    0    0  503  502  0.00000000000E+00 -0.00000000000E+00 -0.20057514501E+03  0.20057514501E+03  0.00000000000E+00 0. -1.
         21    1    1    2  503  501  0.62394580350E+02 -0.77937729195E+02  0.93245398736E+02  0.13660921519E+03  0.00000000000E+00 0. -1.
         21    1    1    2  504  502 -0.22805483373E+03  0.90670996717E+02 -0.75380459050E+02  0.25673420193E+03  0.00000000000E+00 0. -1.
         21    1    1    2  505  504 -0.14999135755E+02  0.45016615465E+02  0.13946955095E+03  0.14732014589E+03  0.00000000000E+00 0.  1.
          2    1    1    2  501    0  0.18065938914E+03 -0.57749882988E+02  0.10003600417E+04  0.10181812594E+04  0.00000000000E+00 0.  1.
<scales pt_clust_3="95.63811" pt_clust_4="14000.00000" pt_clust_5="47.44965" pt_clust_6="173.65856"></scales>
<clustering>
<clus scale="   47.450">  1  5  2 -1</clus>
<clus scale="   95.638">  2  3  1 -1</clus>
<clus scale="  173.659">  1  6  2 -1</clus>
<clus scale="   95.638">  2  3  1 -1</clus>
</clustering>
</event>
<event>
 6    0  0.4189111E+002  0.1189950E+03  0.7546771E-02  0.1244764E+00
          1   -1    0    0  505    0 -0.00000000000E+00  0.00000000000E+00  0.78233330094E+03  0.78233330094E+03  0.00000000000E+00 0.  1.
         21   -1    0    0  503  502  0.00000000000E+00 -0.00000000000E+00 -0.15384636883E+03  0.15384636883E+03  0.00000000000E+00 0.  1.
         21    1    1    2  503  501 -0.30528969590E+02  0.25707362740E+01 -0.38790187671E+02  0.49429802030E+02  0.00000000000E+00 0.  1.
         21    1    1    2  504  502  0.11847726186E+03 -0.75913972950E+02 -0.45748909616E+02  0.14796200728E+03  0.00000000000E+00 0.  1.
         21    1    1    2  505  504  0.63719737992E+01 -0.34917127504E+02  0.56345281241E+02  0.66592781601E+02  0.00000000000E+00 0.  1.
          1    1    1    2  501    0 -0.94320266073E+02  0.10826036418E+03  0.65668074816E+03  0.67219507886E+03  0.00000000000E+00 0.  1.
<scales pt_clust_3="30.63701" pt_clust_4="118.99503" pt_clust_5="35.14692" pt_clust_6="14000.00000"></scales>
<clustering>
<clus scale="   30.637">  2  3  1 -1</clus>
<clus scale="   35.147">  1  5  2 -1</clus>
<clus scale="  118.995">  2  4  1 -1</clus>
<clus scale="   30.637">  2  3  1 -1</clus>
</clustering>
</event>
<event>
 6    0  0.4189111E+002  0.1936776E+03  0.7546771E-02  0.1155186E+00
          2   -1    0    0  502    0 -0.00000000000E+00  0.00000000000E+00  0.60946362849E+03  0.60946362849E+03  0.00000000000E+00 0.  1.
         21   -1    0    0  503  502  0.00000000000E+00 -0.00000000000E+00 -0.11632812291E+03  0.11632812291E+03  0.00000000000E+00 0.  1.
         21    1    1    2  503  505  0.24894056026E+02  0.66271115668E+02 -0.52474776486E+01  0.70986694662E+02  0.00000000000E+00 0.  1.
         21    1    1    2  504  501 -0.80640785922E+02 -0.11316030654E+03  0.32992171583E+03  0.35798956675E+03  0.00000000000E+00 0.  1.
         21    1    1    2  505  504  0.10889730780E+03  0.51743368223E+02  0.48739087613E+00  0.12056631931E+03  0.00000000000E+00 0.  1.
          2    1    1    2  501    0 -0.53150577906E+02 -0.48541773484E+01  0.16797387652E+03  0.17624917067E+03  0.00000000000E+00 0.  1.
<scales pt_clust_3="53.32250" pt_clust_4="46.72258" pt_clust_5="191.49386" pt_clust_6="46.72258"></scales>
<clustering>
<clus scale="   46.723">  4  6 -1 -1</clus>
<clus scale="   53.322">  3  5 -1 -1</clus>
<clus scale="  191.494">  2  3  1 -1</clus>
<clus scale="  191.494">  2  3  1 -1</clus>
</clustering>
</event>
<event>
 6    0  0.4189111E+002  0.1149059E+03  0.7546771E-02  0.1251745E+00
         21   -1    0    0  505  502  0.00000000000E+00  0.00000000000E+00  0.11540634697E+03  0.11540634697E+03  0.00000000000E+00 0. -1.
          2   -1    0    0  503    0 -0.00000000000E+00 -0.00000000000E+00 -0.13469694592E+04  0.13469694592E+04  0.00000000000E+00 0.  1.
         21    1    1    2  503  502  0.19074985968E+02  0.35714638578E+02 -0.91282756996E+02  0.99859562502E+02  0.00000000000E+00 0.  1.
         21    1    1    2  504  501 -0.13729935585E+03 -0.85329556528E+02  0.13090654648E+02  0.16218388197E+03  0.00000000000E+00 0. -1.
         21    1    1    2  505  504  0.35746810022E+02  0.33594109790E+02 -0.54682678913E+01  0.49358895785E+02  0.00000000000E+00 0. -1.
          2    1    1    2  501    0  0.82477559855E+02  0.16020808160E+02 -0.11479027420E+04  0.11509734659E+04  0.00000000000E+00 0.  1.
<scales pt_clust_3="40.48939" pt_clust_4="114.90594" pt_clust_5="49.89616" pt_clust_6="14000.00000"></scales>
<clustering>
<clus scale="   40.489">  2  3  1 -1</clus>
<clus scale="   49.896">  1  5  2 -1</clus>
<clus scale="  114.906">  1  4  2 -1</clus>
<clus scale="   49.896">  1  3  2 -1</clus>
</clustering>
</event>
<event>
 6    0  0.4189111E+002  0.1384248E+03  0.7546771E-02  0.1215464E+00
         21   -1    0    0  505  502  0.00000000000E+00  0.00000000000E+00  0.37374379290E+03  0.37374379290E+03  0.00000000000E+00 0.  1.
         -1   -1    0    0    0  501 -0.00000000000E+00 -0.00000000000E+00 -0.10275060759E+04  0.10275060759E+04  0.00000000000E+00 0. -1.
         21    1    1    2  503  501  0.50941095279E+02 -0.10867613777E+03 -0.81677022882E+03  0.82554170385E+03  0.00000000000E+00 0. -1.
         21    1    1    2  504  503 -0.11395698688E+03  0.13632637704E+03  0.24374924312E+03  0.30163681714E+03  0.00000000000E+00 0.  1.
         21    1    1    2  505  504  0.32403384541E+02 -0.24778004587E+02  0.90934189569E+02  0.99664214609E+02  0.00000000000E+00 0.  1.
         -1    1    1    2    0  502  0.30612507062E+02 -0.28722346783E+01 -0.17167548684E+03  0.17440713317E+03  0.00000000000E+00 0. -1.
<scales pt_clust_3="14000.00000" pt_clust_4="138.42477" pt_clust_5="40.92451" pt_clust_6="30.74696"></scales>
<clustering>
<clus scale="   30.747">  2  6  1 -1</clus>
<clus scale="   40.925">  1  5  2 -1</clus>
<clus scale="  138.425">  1  4  2 -1</clus>
<clus scale="   40.925">  1  3  2 -1</clus>
</clustering>
</event>
<event>
 6    0  0.4189111E+002  0.8683015E+02  0.7546771E-02  0.1310715E+00
         21   -1    0    0  504  502  0.00000000000E+00  0.00000000000E+00  0.29941736417E+03  0.29941736417E+03  0.00000000000E+00 0.  1.
          2   -1    0    0  503    0 -0.00000000000E+00 -0.00000000000E+00 -0.47165611502E+03  0.47165611502E+03  0.00000000000E+00 0. -1.
         21    1    1    2  503  505  0.44994677902E+02 -0.11497030589E+02 -0.73572701409E+02  0.87003707648E+02  0.00000000000E+00 0.  1.
         21    1    1    2  504  501  0.69153535455E+01  0.10106508465E+03  0.16787289130E+03  0.19606958225E+03  0.00000000000E+00 0.  1.
         21    1    1    2  505  502 -0.28407849785E+02 -0.16677229349E+02  0.10427782676E+03  0.10935721770E+03  0.00000000000E+00 0.  1.
          2    1    1    2  501    0 -0.23502181663E+02 -0.72890824714E+02 -0.37081676751E+03  0.37864297159E+03  0.00000000000E+00 0. -1.
<scales pt_clust_3="45.63176" pt_clust_4="86.83015" pt_clust_5="32.94140" pt_clust_6="14000.00000"></scales>
<clustering>
<clus scale="   32.941">  1  5  2 -1</clus>
<clus scale="   45.632">  2  3  1 -1</clus>
<clus scale="   86.830">  1  4  2 -1</clus>
<clus scale="   32.941">  1  3  2 -1</clus>
</clustering>
</event>
<event>
 6    0  0.4189111E+002  0.1609913E+03  0.7546771E-02  0.1187582E+00
         21   -1    0    0  503  502  0.00000000000E+00  0.00000000000E+00  0.10664874284E+04  0.10664874284E+04  0.00000000000E+00 0. -1.
          1   -1    0    0  505    0 -0.00000000000E+00 -0.00000000000E+00 -0.33672222745E+03  0.33672222745E+03  0.00000000000E+00 0. -1.
         21    1    1    2  503  504 -0.79761150986E+02  0.43353977683E+02  0.81015349977E+03  0.81522395805E+03  0.00000000000E+00 0. -1.
         21    1    1    2  504  501 -0.33877257598E+02  0.48684984782E+02  0.22839688579E+03  0.23597252756E+03  0.00000000000E+00 0.  1.
         21    1    1    2  505  502  0.69018820094E+02 -0.26344922449E+01 -0.12903068905E+03  0.14635387522E+03  0.00000000000E+00 0.  1.
          1    1    1    2  501    0  0.44619588490E+02 -0.89404470220E+02 -0.17975449553E+03  0.20565929504E+03  0.00000000000E+00 0. -1.
<scales pt_clust_3="57.39635" pt_clust_4="57.39635" pt_clust_5="69.06908" pt_clust_6="144.48502"></scales>
<clustering>
<clus scale="   57.396">  3  4 -1 -1</clus>
<clus scale="   69.069">  2  5  1 -1</clus>
<clus scale="  144.485">  2  6  1 -1</clus>
<clus scale="  160.991">  1  3  2 -1</clus>
</clustering>
</event>
<event>
 6    0  0.4189111E+002  0.7451036E+02  0.7546771E-02  0.1345394E+00
          2   -1    0    0  505    0 -0.00000000000E+00  0.00000000000E+00  0.13126508857E+04  0.13126508857E+04  0.00000000000E+00 0. -1.
         21   -1    0    0  503  502  0.00000000000E+00 -0.00000000000E+00 -0.12024268126E+03  0.12024268126E+03  0.00000000000E+00 0.  1.
         21    1    1    2  503  501  0.37424684992E+02 -0.22227907445E+02  0.15726283560E+03  0.16317563047E+03  0.00000000000E+00 0. -1.
         21    1    1    2  504  502  0.56290429833E+02  0.39408334321E+02 -0.55796666603E+02  0.88514955283E+02  0.00000000000E+00 0. -1.
         21    1    1    2  505  504 -0.12844515975E+03  0.76280898839E+01  0.47915349506E+02  0.13730341415E+03  0.00000000000E+00 0.  1.
          2    1    1    2  501    0  0.34730044929E+02 -0.24808516761E+02  0.10430266860E+04  0.10438995671E+04  0.00000000000E+00 0. -1.
<scales pt_clust_3="68.87430" pt_clust_4="74.51036" pt_clust_5="14000.00000" pt_clust_6="42.68066"></scales>
<clustering>
<clus scale="   42.681">  1  6  2 -1</clus>
<clus scale="   68.874">  1  3  2 -1</clus>
<clus scale="   74.510">  2  4  1 -1</clus>
<clus scale="   74.510">  2  3  1 -1</clus>
</clustering>
</event>
<event>
 6    0  0.4189111E+002  0.9773791E+02  0.7546771E-02  0.1285126E+00
         21   -1    0    0  504  502  0.00000000000E+00  0.00000000000E+00  0.21145785631E+03  0.21145785631E+03  0.00000000000E+00 0.  1.
          1   -1    0    0  502    0 -0.00000000000E+00 -0.00000000000E+00 -0.88650788215E+03  0.88650788215E+03  0.00000000000E+00 0. -1.
         21    1    1    2  503  505 -0.51125034964E+02 -0.12537194437E+03 -0.94761511798E+02  0.16526233011E+03  0.00000000000E+00 0.  1.
         21    1    1    2  504  503  0.35067313551E+00  0.54412993774E+02  0.16896597359E+03  0.17751168157E+03  0.00000000000E+00 0.  1.
         21    1    1    2  505  501  0.34196251222E+02  0.27577833656E+02 -0.25463385997E+03  0.25839567169E+03  0.00000000000E+00 0. -1.
          1    1    1    2  501    0  0.16578110607E+02  0.43381116941E+02 -0.49462062765E+03  0.49679605509E+03  0.00000000000E+00 0. -1.
<scales pt_clust_3="90.73946" pt_clust_4="54.41412" pt_clust_5="35.32361" pt_clust_6="35.32361"></scales>
<clustering>
<clus scale="   35.324">  5  6 -1 -1</clus>
<clus scale="   54.414">  1  4  2 -1</clus>
<clus scale="   90.739">  1  3  2 -1</clus>
<clus scale="   54.414">  1  3  2 -1</clus>
</clustering>
</event>
<event>
 6    0  0.4189111E+002  0.1485500E+03  0.7546771E-02  0.1202266E+00
          2   -1    0    0  504    0 -0.00000000000E+00  0.00000000000E+00  0.17690601176E+04  0.17690601176E+04  0.00000000000E+00 0.  1.
         21   -1    0    0  503  502  0.00000000000E+00 -0.00000000000E+00 -0.35780893127E+02  0.35780893127E+02  0.00000000000E+00 0. -1.
         21    1    1    2  503  505  0.17136250167E+03 -0.15409352584E+02  0.33712583776E+03  0.37849225303E+03  0.00000000000E+00 0. -1.
         21    1    1    2  504  502 -0.35977714445E+02  0.86764115991E+00  0.17063748182E+02  0.39828635928E+02  0.00000000000E+00 0. -1.
         21    1    1    2  505  501 -0.40333963806E+02  0.23557564658E+02  0.37392733281E+03  0.37683343497E+03  0.00000000000E+00 0. -1.
          2    1    1    2  501    0 -0.95050823415E+02 -0.90158532337E+01  0.10051623057E+04  0.10096866868E+04  0.00000000000E+00 0.  1.
<scales pt_clust_3="141.62548" pt_clust_4="35.98817" pt_clust_5="31.35283" pt_clust_6="31.35283"></scales>
<clustering>
<clus scale="   31.353">  5  6 -1 -1</clus>
<clus scale="   35.988">  2  4  1 -1</clus>
<clus scale="  141.625">  2  3  1 -1</clus>
<clus scale="   35.988">  2  3  1 -1</clus>
</clustering>
</event>
<event>
 6    0  0.4189111E+002  0.1012355E+03  0.7546771E-02  0.1277719E+00
         21   -1    0    0  503  502  0.00000000000E+00  0.00000000000E+00  0.23636903174E+03  0.23636903174E+03  0.00000000000E+00 0. -1.
          2   -1    0    0  504    0 -0.00000000000E+00 -0.00000000000E+00 -0.24057298760E+04  0.24057298760E+04  0.00000000000E+00 0.  1.
         21    1    1    2  503  501 -0.64765020698E+02 -0.61748908417E+02 -0.13406432955E+03  0.16118523523E+03  0.00000000000E+00 0. -1.
         21    1    1    2  504  505  0.30331787807E+02  0.15262686010E+02 -0.17249688430E+03  0.17580711598E+03  0.00000000000E+00 0.  1.
         21    1    1    2  505  502  0.96763616558E+02  0.34626802348E+02  0.20870153530E+03  0.23263392652E+03  0.00000000000E+00 0. -1.
          2    1    1    2  501    0 -0.62330383667E+02  0.11859420059E+02 -0.20715011657E+04  0.20724726300E+04  0.00000000000E+00 0.  1.
<scales pt_clust_3="14000.00000" pt_clust_4="33.95537" pt_clust_5="101.23546" pt_clust_6="42.95379"></scales>
<clustering>
<clus scale="   33.955">  2  4  1 -1</clus>
<clus scale="   42.954">  2  6  1 -1</clus>
<clus scale="  101.235">  1  5  2 -1</clus>
<clus scale="  101.235">  1  3  2 -1</clus>
</clustering>
</event>
<event>
 6    0  0.4189111E+002  0.1493855E+03  0.7546771E-02  0.1201230E+00
         21   -1    0    0  504  502  0.00000000000E+00  0.00000000000E+00  0.23466329397E+03  0.23466329397E+03  0.00000000000E+00 0.  1.
          2   -1    0    0  505    0 -0.00000000000E+00 -0.00000000000E+00 -0.13737065408E+04  0.13737065408E+04  0.00000000000E+00 0. -1.
         21    1    1    2  503  501 -0.73836543295E+02  0.11443046118E+03 -0.93246208295E+02  0.16504854114E+03  0.00000000000E+00 0.  1.
         21    1    1    2  504  503 -0.35004988779E+02 -0.51403901549E+02  0.11573615644E+03  0.13138709313E+03  0.00000000000E+00 0.  1.
         21    1    1    2  505  502  0.45603363700E+01  0.46700477196E+02  0.62735772774E+02  0.78342251842E+02  0.00000000000E+00 0.  1.
          2    1    1    2  501    0  0.10428119570E+03 -0.10972703683E+03 -0.12242689678E+04  0.12335919487E+04  0.00000000000E+00 0. -1.
<scales pt_clust_3="149.38555" pt_clust_4="35.50608" pt_clust_5="46.92261" pt_clust_6="14000.00000"></scales>
<clustering>
<clus scale="   46.923">  1  5  2 -1</clus>
<clus scale="   35.506">  1  4  2 -1</clus>
<clus scale="  149.386">  1  3  2 -1</clus>
<clus scale="   46.923">  1  3  2 -1</clus>
</clustering>
</event>
<event>
 6    0  0.4189111E+002  0.7678294E+02  0.7546771E-02  0.1338437E+00
          2   -1    0    0  505    0 -0.00000000000E+00  0.00000000000E+00  0.10519758938E+03  0.10519758938E+03  0.00000000000E+00 0.  1.
         21   -1    0    0  501  502  0.00000000000E+00 -0.00000000000E+00 -0.16965487271E+04  0.16965487271E+04  0.00000000000E+00 0.  1.
         21    1    1    2  503  502 -0.32335541572E+02 -0.49201709658E+02 -0.13088954914E+04  0.13102189904E+04  0.00000000000E+00 0.  1.
         21    1    1    2  504  503 -0.43568156352E+02  0.68349489703E+02 -0.33302471131E+03  0.34274669267E+03  0.00000000000E+00 0.  1.
         21    1    1    2  505  504 -0.16586166763E+02 -0.25770479016E+02 -0.16058363800E+02  0.34598982131E+02  0.00000000000E+00 0.  1.
          2    1    1    2  501    0  0.92489864687E+02  0.66226989711E+01  0.66627428804E+02  0.11418165124E+03  0.00000000000E+00 0.  1.
<scales pt_clust_3="59.08751" pt_clust_4="14000.00000" pt_clust_5="30.64667" pt_clust_6="76.78294"></scales>
<clustering>
<clus scale="   30.647">  1  5  2 -1</clus>
<clus scale="   59.088">  2  3  1 -1</clus>
<clus scale="   76.783">  1  6  2 -1</clus>
<clus scale="   59.088">  2  3  1 -1</clus>
</clustering>
</event>
<event>
 6    0  0.4189111E+002  0.2170697E+03  0.7546771E-02  0.1136087E+00
          2   -1    0    0  502    0 -0.00000000000E+00  0.00000000000E+00  0.16007119517E+04  0.16007119517E+04  0.00000000000E+00 0. -1.
         21   -1    0    0  503  502  0.00000000000E+00 -0.00000000000E+00 -0.17871788568E+03  0.17871788568E+03  0.00000000000E+00 0. -1.
         21    1    1    2  503  505  0.10239906883E+03  0.20469880596E+02 -0.86598736737E+01  0.10478348496E+03  0.00000000000E+00 0. -1.
         21    1    1    2  504  501 -0.16057167364E+03  0.52897559910E+02  0.47238180182E+03  0.50172301214E+03  0.00000000000E+00 0. -1.
         21    1    1    2  505  504  0.83206949323E+02 -0.20042802020E+03  0.11481418385E+02  0.21731684395E+03  0.00000000000E+00 0. -1.
          2    1    1    2  501    0 -0.25034344515E+02  0.12706057969E+03  0.94679071946E+03  0.95560649630E+03  0.00000000000E+00 0. -1.
<scales pt_clust_3="104.42502" pt_clust_4="217.06969" pt_clust_5="14000.00000" pt_clust_6="129.56870"></scales>
<clustering>
<clus scale="  104.425">  2  3  1 -1</clus>
<clus scale="  129.569">  1  6  2 -1</clus>
<clus scale="  217.070">  1  4  2 -1</clus>
<clus scale="  104.425">  2  3  1 -1</clus>
</clustering>
</event>
<event>
 6    0  0.4189111E+002  0.1230168E+03  0.7546771E-02  0.1238202E+00
         21   -1    0    0  504  502  0.00000000000E+00  0.00000000000E+00  0.14371657768E+03  0.14371657768E+03  0.00000000000E+00 0. -1.
         -2   -1    0    0    0  501 -0.00000000000E+00 -0.00000000000E+00 -0.17600813578E+04  0.17600813578E+04  0.00000000000E+00 0. -1.
         21    1    1    2  503  502 -0.19221427607E+02  0.31378672275E+02  0.71966707558E+01  0.37495018642E+02  0.00000000000E+00 0. -1.
         21    1    1    2  504  505  0.13364530936E+03 -0.74321138184E+02  0.68097664785E+02  0.16739770681E+03  0.00000000000E+00 0. -1.
         21    1    1    2  505  501 -0.13049484540E+02 -0.28718268624E+02 -0.27015149101E+03  0.27198686750E+03  0.00000000000E+00 0. -1.
         -2    1    1    2    0  503 -0.10137439722E+03  0.71660734533E+02 -0.14215076246E+04  0.14269183425E+04  0.00000000000E+00 0. -1.
<scales pt_clust_3="36.61905" pt_clust_4="123.01685" pt_clust_5="31.54406" pt_clust_6="14000.00000"></scales>
<clustering>
<clus scale="   31.544">  2  5  1 -1</clus>
<clus scale="   36.619">  1  3  2 -1</clus>
<clus scale="  123.017">  1  4  2 -1</clus>
<clus scale="   36.619">  1  3  2 -1</clus>
</clustering>
</event>
<event>
 6    0  0.4189111E+002  0.8270644E+02  0.7546771E-02  0.1321542E+00
          2   -1    0    0  505    0 -0.00000000000E+00  0.00000000000E+00  0.14750193165E+04  0.14750193165E+04  0.00000000000E+00 0.  1.
         21   -1    0    0  503  502  0.00000000000E+00 -0.00000000000E+00 -0.23599332437E+02  0.23599332437E+02  0.00000000000E+00 0.  1.
         21    1    1    2  503  504 -0.18159863323E+02 -0.31734527114E+02  0.10505953685E+02  0.38042553935E+02  0.00000000000E+00 0.  1.
         21    1    1    2  504  501 -0.57550517178E+02  0.72461182733E+02  0.71393057527E+03  0.71990245960E+03  0.00000000000E+00 0.  1.
         21    1    1    2  505  502  0.45894102296E+02  0.28852898452E+02  0.16653780898E+03  0.17513880265E+03  0.00000000000E+00 0.  1.
          2    1    1    2  501    0  0.29816278205E+02 -0.69579554071E+02  0.56044564608E+03  0.56553483270E+03  0.00000000000E+00 0.  1.
<scales pt_clust_3="36.56311" pt_clust_4="14000.00000" pt_clust_5="40.79643" pt_clust_6="82.70644"></scales>
<clustering>
<clus scale="   36.563">  2  3  1 -1</clus>
<clus scale="   40.796">  2  5  1 -1</clus>
<clus scale="   82.706">  1  6  2 -1</clus>
<clus scale="   36.563">  2  3  1 -1</clus>
</clustering>
</event>
