<event>
 6    0  0.4582113E+002  0.1658709E+03  0.7546771E-02  0.1182224E+00
         21   -1    0    0  505  501  0.00000000000E+00  0.00000000000E+00  0.22592316306E+03  0.22592316306E+03  0.00000000000E+00 0. -1.
         21   -1    0    0  506  502 -0.00000000000E+00 -0.00000000000E+00 -0.20923703395E+03  0.20923703395E+03  0.00000000000E+00 0. -1.
         21    1    1    2  503  502  0.34816739503E+02 -0.11308806769E+03 -0.17015189605E+02  0.11954343596E+03  0.00000000000E+00 0. -1.
         21    1    1    2  504  501 -0.14862816822E+02  0.14696269692E+03  0.48619109138E+02  0.15550805568E+03  0.00000000000E+00 0. -1.
         21    1    1    2  505  503  0.55236944817E+02 -0.58337850722E+02 -0.70729585198E+01  0.80650180668E+02  0.00000000000E+00 0. -1.
         21    1    1    2  506  504 -0.75190867497E+02  0.24463221494E+02 -0.78448319090E+01  0.79458524706E+02  0.00000000000E+00 0. -1.
<scales pt_clust_3="36.85686" pt_clust_4="159.72607" pt_clust_5="36.85686" pt_clust_6="79.07032"></scales>
<clustering>
<clus scale="   36.857">  3  5 -1 -1</clus>
<clus scale="   79.070">  2  6  1 -1</clus>
<clus scale="  159.726">  1  4  2 -1</clus>
<clus scale="  159.726">  1  3  2 -1</clus>
</clustering>
</event>
<event>
 6    0  0.4582113E+002  0.1002445E+03  0.7546771E-02  0.1279783E+00
         21   -1    0    0  506  501  0.00000000000E+00  0.00000000000E+00  0.95459437104E+03  0.95459437104E+03  0.00000000000E+00 0. -1.
         21   -1    0    0  504  502 -0.00000000000E+00 -0.00000000000E+00 -0.64519173503E+03  0.64519173503E+03  0.00000000000E+00 0.  1.
         21    1    1    2  503  505  0.10127705239E+02  0.54233219031E+02  0.21427976468E+03  0.22126823091E+03  0.00000000000E+00 0.  1.
         21    1    1    2  504  503 -0.31015687020E+02  0.92591563212E+02 -0.52987140221E+03  0.53879390615E+03  0.00000000000E+00 0.  1.
         21    1    1    2  505  501  0.36259316894E+02 -0.10585080065E+02  0.68785845635E+03  0.68889479454E+03  0.00000000000E+00 0. -1.
         21    1    1    2  506  502 -0.15371335113E+02 -0.13623970218E+03 -0.62864182796E+02  0.15082917447E+03  0.00000000000E+00 0. -1.
<scales pt_clust_3="60.49937" pt_clust_4="100.24447" pt_clust_5="37.77277" pt_clust_6="14000.00000"></scales>
<clustering>
<clus scale="   37.773">  1  5  2 -1</clus>
<clus scale="   60.499">  1  3  2 -1</clus>
<clus scale="  100.244">  2  4  1 -1</clus>
<clus scale="   37.773">  1  3  2 -1</clus>
</clustering>
</event>
<event>
 6    0  0.4582113E+002  0.1971578E+03  0.7546771E-02  0.1152159E+00
         21   -1    0    0  505  501  0.00000000000E+00  0.00000000000E+00  0.59834700103E+03  0.59834700103E+03  0.00000000000E+00 0. -1.
         21   -1    0    0  506  502 -0.00000000000E+00 -0.00000000000E+00 -0.64319793195E+03  0.64319793195E+03  0.00000000000E+00 0.  1.
         21    1    1    2  503  504 -0.17519053960E+03 -0.11268365227E+02 -0.23905915311E+03  0.29659396471E+03  0.00000000000E+00 0.  1.
         21    1    1    2  504  501 -0.13214595476E+03  0.76429837888E+02  0.39973481844E+03  0.42789250817E+03  0.00000000000E+00 0. -1.
         21    1    1    2  505  502  0.30304408140E+03 -0.17434482631E+02  0.25290012227E+01  0.30355571532E+03  0.00000000000E+00 0.  1.
         21    1    1    2  506  503  0.42924129588E+01 -0.47726990031E+02 -0.20805559747E+03  0.21350274477E+03  0.00000000000E+00 0.  1.
<scales pt_clust_3="14000.00000" pt_clust_4="151.76311" pt_clust_5="197.15778" pt_clust_6="47.91962"></scales>
<clustering>
<clus scale="   47.920">  2  6  1 -1</clus>
<clus scale="  151.763">  1  4  2 -1</clus>
<clus scale="  197.158">  1  5  2 -1</clus>
<clus scale="  151.763">  1  3  2 -1</clus>
</clustering>
</event>
<event>
 6    0  0.4582113E+002  0.9795834E+02  0.7546771E-02  0.1284649E+00
         21   -1    0    0  505  501  0.00000000000E+00  0.00000000000E+00  0.19270901143E+03  0.19270901143E+03  0.00000000000E+00 0. -1.
         21   -1    0    0  504  502 -0.00000000000E+00 -0.00000000000E+00 -0.14806254964E+04  0.14806254964E+04  0.00000000000E+00 0.  1.
         21    1    1    2  503  506 -0.56042023381E+02 -0.35808778627E+01  0.12476059569E+03  0.13681643654E+03  0.00000000000E+00 0. -1.
         21    1    1    2  504  501  0.14984119751E+03  0.20935420801E+02 -0.11371297262E+04  0.11471506835E+04  0.00000000000E+00 0.  1.
         21    1    1    2  505  503 -0.40188023663E+02  0.29810544382E+02  0.41109784474E+02  0.64759247848E+02  0.00000000000E+00 0. -1.
         21    1    1    2  506  502 -0.53611150464E+02 -0.47165087320E+02 -0.31665713892E+03  0.32460813998E+03  0.00000000000E+00 0. -1.
<scales pt_clust_3="97.95834" pt_clust_4="14000.00000" pt_clust_5="50.03744" pt_clust_6="71.71684"></scales>
<clustering>
<clus scale="   50.037">  1  5  2 -1</clus>
<clus scale="   71.717">  2  6  1 -1</clus>
<clus scale="   97.958">  1  3  2 -1</clus>
<clus scale="   50.037">  1  3  2 -1</clus>
</clustering>
</event>
<event>
 6    0  0.4582113E+002  0.8671263E+02  0.7546771E-02  0.1311014E+00
         21   -1    0    0  505  501  0.00000000000E+00  0.00000000000E+00  0.17090624302E+03  0.17090624302E+03  0.00000000000E+00 0.  1.
         21   -1    0    0  504  502 -0.00000000000E+00 -0.00000000000E+00 -0.52057850896E+03  0.52057850896E+03  0.00000000000E+00 0. -1.
         21    1    1    2  503  506 -0.65654456876E+01 -0.63739523022E+02 -0.39812310364E+03  0.40324662122E+03  0.00000000000E+00 0. -1.
         21    1    1    2  504  503 -0.25215818659E+02 -0.20199734506E+02 -0.77116118438E+02  0.83610779853E+02  0.00000000000E+00 0. -1.
         21    1    1    2  505  502 -0.27544689604E+02  0.93554869069E+02  0.98832792413E+02  0.13884935833E+03  0.00000000000E+00 0.  1.
         21    1    1    2  506  501  0.59325953951E+02 -0.96156115407E+01  0.26734163724E+02  0.65777992577E+02  0.00000000000E+00 0.  1.
<scales pt_clust_3="14000.00000" pt_clust_4="32.30893" pt_clust_5="86.71263" pt_clust_6="59.14921"></scales>
<clustering>
<clus scale="   32.309">  2  4  1 -1</clus>
<clus scale="   59.149">  1  6  2 -1</clus>
<clus scale="   86.713">  1  5  2 -1</clus>
<clus scale="   59.149">  1  3  2 -1</clus>
</clustering>
</event>
<event>
 6    0  0.4582113E+002  0.2328782E+03  0.7546771E-02  0.1124630E+00
         21   -1    0    0  503  501  0.00000000000E+00  0.00000000000E+00  0.30474852852E+03  0.30474852852E+03  0.00000000000E+00 0. -1.
         21   -1    0    0  506  502 -0.00000000000E+00 -0.00000000000E+00 -0.80761976706E+03  0.80761976706E+03  0.00000000000E+00 0. -1.
         21    1    1    2  503  505 -0.13104517699E+03  0.17055138315E+03  0.20455705513E+03  0.29682351913E+03  0.00000000000E+00 0. -1.
         21    1    1    2  504  501  0.13318057019E+03 -0.81843547524E+02 -0.10602948698E+03  0.18888536909E+03  0.00000000000E+00 0. -1.
         21    1    1    2  505  502  0.80770466103E+00 -0.31118455706E+02 -0.54537026544E+03  0.54625794008E+03  0.00000000000E+00 0. -1.
         21    1    1    2  506  504 -0.29430978607E+01 -0.57589379923E+02 -0.56028541251E+02  0.80401467273E+02  0.00000000000E+00 0. -1.
<scales pt_clust_3="210.67269" pt_clust_4="62.36124" pt_clust_5="31.12894" pt_clust_6="62.36124"></scales>
<clustering>
<clus scale="   31.129">  2  5  1 -1</clus>
<clus scale="   62.361">  4  6 -1 -1</clus>
<clus scale="  210.673">  1  3  2 -1</clus>
<clus scale="  210.673">  1  3  2 -1</clus>
</clustering>
</event>
<event>
 6    0  0.4582113E+002  0.1341438E+03  0.7546771E-02  0.1221433E+00
         21   -1    0    0  503  501  0.00000000000E+00  0.00000000000E+00  0.12649019026E+03  0.12649019026E+03  0.00000000000E+00 0. -1.
         21   -1    0    0  501  502 -0.00000000000E+00 -0.00000000000E+00 -0.12962482921E+04  0.12962482921E+04  0.00000000000E+00 0.  1.
         21    1    1    2  503  506  0.25229133244E+02  0.97831534118E+02  0.68016515216E+02  0.12179394309E+03  0.00000000000E+00 0. -1.
         21    1    1    2  504  505 -0.38275046790E+02 -0.10232639463E+03 -0.51173027292E+03  0.52326240307E+03  0.00000000000E+00 0.  1.
         21    1    1    2  505  502  0.34971300647E+02 -0.21101970441E+02 -0.74005592910E+03  0.74118220649E+03  0.00000000000E+00 0.  1.
         21    1    1    2  506  504 -0.21925387101E+02  0.25596830948E+02  0.14011584977E+02  0.36499929695E+02  0.00000000000E+00 0. -1.
<scales pt_clust_3="32.06891" pt_clust_4="122.11342" pt_clust_5="40.84465" pt_clust_6="32.06891"></scales>
<clustering>
<clus scale="   32.069">  3  6 -1 -1</clus>
<clus scale="   40.845">  2  5  1 -1</clus>
<clus scale="  122.113">  2  4  1 -1</clus>
<clus scale="  134.144">  1  3  2 -1</clus>
</clustering>
</event>
<event>
 6    0  0.4582113E+002  0.8988134E+02  0.7546771E-02  0.1303139E+00
         21   -1    0    0  505  501  0.00000000000E+00  0.00000000000E+00  0.43395739970E+02  0.43395739970E+02  0.00000000000E+00 0. -1.
         21   -1    0    0  503  502 -0.00000000000E+00 -0.00000000000E+00 -0.17328105906E+04  0.17328105906E+04  0.00000000000E+00 0. -1.
         21    1    1    2  503  504 -0.79883416158E+02  0.30133823069E+02 -0.47356201975E+03  0.48119683501E+03  0.00000000000E+00 0. -1.
         21    1    1    2  504  501  0.87877753434E+02 -0.21898909983E+02 -0.33577379048E+02  0.96589348226E+02  0.00000000000E+00 0. -1.
         21    1    1    2  505  506 -0.54400733636E+02  0.81078109895E+01 -0.93093853264E+02  0.10812789619E+03  0.00000000000E+00 0. -1.
         21    1    1    2  506  502  0.46406396360E+02 -0.16342724076E+02 -0.10891815986E+04  0.10902922511E+04  0.00000000000E+00 0. -1.
<scales pt_clust_3="14000.00000" pt_clust_4="89.88134" pt_clust_5="47.46601" pt_clust_6="49.19998"></scales>
<clustering>
<clus scale="   49.200">  2  6  1 -1</clus>
<clus scale="   47.466">  2  5  1 -1</clus>
<clus scale="   89.881">  1  4  2 -1</clus>
<clus scale="   89.881">  1  3  2 -1</clus>
</clustering>
</event>
<event>
 6    0  0.4582113E+002  0.9220601E+02  0.7546771E-02  0.1297596E+00
         21   -1    0    0  506  501  0.00000000000E+00  0.00000000000E+00  0.58984544068E+03  0.58984544068E+03  0.00000000000E+00 0.  1.
         21   -1    0    0  503  502 -0.00000000000E+00 -0.00000000000E+00 -0.11381350832E+03  0.11381350832E+03  0.00000000000E+00 0. -1.
         21    1    1    2  503  501  0.49391163460E+02  0.14417115725E+02  0.41028367912E+03  0.41349732479E+03  0.00000000000E+00 0.  1.
         21    1    1    2  504  502 -0.39202536226E+02 -0.10404890210E+03 -0.61765330137E+02  0.12719264476E+03  0.00000000000E+00 0. -1.
         21    1    1    2  505  504  0.17174918993E+01  0.59538350299E+02  0.45975232168E+02  0.75242852868E+02  0.00000000000E+00 0. -1.
         21    1    1    2  506  505 -0.11906119134E+02  0.30093436075E+02  0.81538351205E+02  0.87726126581E+02  0.00000000000E+00 0. -1.
<scales pt_clust_3="55.60649" pt_clust_4="92.20601" pt_clust_5="14000.00000" pt_clust_6="32.36311"></scales>
<clustering>
<clus scale="   32.363">  1  6  2 -1</clus>
<clus scale="   55.606">  1  3  2 -1</clus>
<clus scale="   92.206">  2  4  1 -1</clus>
<clus scale="   32.363">  1  3  2 -1</clus>
</clustering>
</event>
<event>
 6    0  0.4582113E+002  0.2348276E+03  0.7546771E-02  0.1123287E+00
         21   -1    0    0  506  501  0.00000000000E+00  0.00000000000E+00  0.13213762338E+04  0.13213762338E+04  0.00000000000E+00 0. -1.
         21   -1    0    0  504  502 -0.00000000000E+00 -0.00000000000E+00 -0.54267830917E+02  0.54267830917E+02  0.00000000000E+00 0. -1.
         21    1    1    2  503  501  0.54641859258E+02  0.47156629087E+02  0.32070128182E+03  0.32872297245E+03  0.00000000000E+00 0. -1.
         21    1    1    2  504  505 -0.10335260365E+02  0.45642370364E+02  0.33736877698E+02  0.57690731458E+02  0.00000000000E+00 0. -1.
         21    1    1    2  505  503  0.15488525190E+03  0.11010314248E+02  0.41954480980E+03  0.44735725736E+03  0.00000000000E+00 0. -1.
         21    1    1    2  506  502 -0.19919185079E+03 -0.10380931370E+03  0.49312543358E+03  0.54187310348E+03  0.00000000000E+00 0. -1.
<scales pt_clust_3="58.40854" pt_clust_4="46.79790" pt_clust_5="58.40854" pt_clust_6="219.30057"></scales>
<clustering>
<clus scale="   46.798">  2  4  1 -1</clus>
<clus scale="   58.409">  3  5 -1 -1</clus>
<clus scale="  219.301">  2  6  1 -1</clus>
<clus scale="  234.828">  1  3  2 -1</clus>
</clustering>
</event>
<event>
 6    0  0.4582113E+002  0.1737912E+03  0.7546771E-02  0.1173951E+00
         21   -1    0    0  506  501  0.00000000000E+00  0.00000000000E+00  0.37674111474E+03  0.37674111474E+03  0.00000000000E+00 0. -1.
         21   -1    0    0  503  502 -0.00000000000E+00 -0.00000000000E+00 -0.12031017870E+03  0.12031017870E+03  0.00000000000E+00 0. -1.
         21    1    1    2  503  504  0.52381714190E+02 -0.16901506809E+02  0.86218762770E+01  0.55712132112E+02  0.00000000000E+00 0. -1.
         21    1    1    2  504  505  0.98274393287E+02  0.47751059499E+02  0.24726487893E+02  0.11202419052E+03  0.00000000000E+00 0. -1.
         21    1    1    2  505  501  0.21565441646E+02  0.47636526371E+02  0.38398112226E+02  0.64874663318E+02  0.00000000000E+00 0. -1.
         21    1    1    2  506  502 -0.17222154912E+03 -0.78486079060E+02  0.18468445964E+03  0.26444030749E+03  0.00000000000E+00 0. -1.
<scales pt_clust_3="41.22952" pt_clust_4="41.22952" pt_clust_5="52.29060" pt_clust_6="163.79558"></scales>
<clustering>
<clus scale="   41.230">  3  4 -1 -1</clus>
<clus scale="   52.291">  1  5  2 -1</clus>
<clus scale="  163.796">  1  6  2 -1</clus>
<clus scale="   52.291">  1  3  2 -1</clus>
</clustering>
</event>
<event>
 6    0  0.4582113E+002  0.1888469E+03  0.7546771E-02  0.1159506E+00
         21   -1    0    0  503  501  0.00000000000E+00  0.00000000000E+00  0.55350662878E+03  0.55350662878E+03  0.00000000000E+00 0.  1.
         21   -1    0    0  501  502 -0.00000000000E+00 -0.00000000000E+00 -0.57872134751E+02  0.57872134751E+02  0.00000000000E+00 0.  1.
         21    1    1    2  503  506  0.53895475452E+02  0.55659988564E+02  0.15389459040E+03  0.17229713159E+03  0.00000000000E+00 0.  1.
         21    1    1    2  504  502 -0.88108291131E+02 -0.14380391498E+03  0.21843811599E+03  0.27596711298E+03  0.00000000000E+00 0.  1.
         21    1    1    2  505  504 -0.56039882048E+01  0.51164795092E+02  0.70996622337E+02  0.87691284196E+02  0.00000000000E+00 0.  1.
         21    1    1    2  506  505  0.39816803883E+02  0.36979131321E+02  0.52305165298E+02  0.75423234760E+02  0.00000000000E+00 0.  1.
<scales pt_clust_3="44.94388" pt_clust_4="168.64945" pt_clust_5="44.94388" pt_clust_6="32.25143"></scales>
<clustering>
<clus scale="   32.251">  3  6 -1 -1</clus>
<clus scale="   44.944">  3  5 -1 -1</clus>
<clus scale="  168.649">  2  4  1 -1</clus>
<clus scale="  188.847">  1  3  2 -1</clus>
</clustering>
</event>
<event>
 6    0  0.4582113E+002  0.1535859E+03  0.7546771E-02  0.1196135E+00
         21   -1    0    0  506  501  0.00000000000E+00  0.00000000000E+00  0.69776927492E+02  0.69776927492E+02  0.00000000000E+00 0. -1.
         21   -1    0    0  503  502 -0.00000000000E+00 -0.00000000000E+00 -0.10404379210E+04  0.10404379210E+04  0.00000000000E+00 0. -1.
         21    1    1    2  503  501 -0.85430866129E+02  0.89784234760E+02 -0.32293488445E+03  0.34589966940E+03  0.00000000000E+00 0. -1.
         21    1    1    2  504  505 -0.66321180935E+01  0.56132000680E+02 -0.24001161177E+02  0.61407183851E+02  0.00000000000E+00 0.  1.
         21    1    1    2  505  502  0.71143806366E+02 -0.18975525007E+03 -0.62213331151E+03  0.65430753733E+03  0.00000000000E+00 0. -1.
         21    1    1    2  506  504  0.20919177856E+02  0.43839014628E+02 -0.15916364025E+01  0.48600457942E+02  0.00000000000E+00 0. -1.
<scales pt_clust_3="14000.00000" pt_clust_4="106.98920" pt_clust_5="153.58593" pt_clust_6="32.75399"></scales>
<clustering>
<clus scale="   32.754">  4  6 -1 -1</clus>
<clus scale="  106.989">  1  4  2 -1</clus>
<clus scale="  153.586">  1  5  2 -1</clus>
<clus scale="  106.989">  1  3  2 -1</clus>
</clustering>
</event>
<event>
 6    0  0.4582113E+002  0.1589342E+03  0.7546771E-02  0.1189905E+00
         21   -1    0    0  504  501  0.00000000000E+00  0.00000000000E+00  0.13415895948E+03  0.13415895948E+03  0.00000000000E+00 0.  1.
         21   -1    0    0  505  502 -0.00000000000E+00 -0.00000000000E+00 -0.20949861094E+04  0.20949861094E+04  0.00000000000E+00 0. -1.
         21    1    1    2  503  501  0.53236342531E+02  0.33488770304E+02 -0.29766401168E-01  0.62893614847E+02  0.00000000000E+00 0.  1.
         21    1    1    2  504  502 -0.48002244459E+02 -0.35287116164E+02 -0.17979814314E+04  0.17989682108E+04  0.00000000000E+00 0. -1.
         21    1    1    2  505  506  0.13354337184E+03 -0.88399955489E+02 -0.10701837191E+03  0.19261701955E+03  0.00000000000E+00 0.  1.
         21    1    1    2  506  503 -0.13877746992E+03  0.90198301349E+02 -0.55797580233E+02  0.17466622365E+03  0.00000000000E+00 0.  1.
<scales pt_clust_3="56.59054" pt_clust_4="59.57681" pt_clust_5="14000.00000" pt_clust_6="158.93421"></scales>
<clustering>
<clus scale="   59.577">  2  4  1 -1</clus>
<clus scale="   56.591">  1  3  2 -1</clus>
<clus scale="  158.934">  1  6  2 -1</clus>
<clus scale="   56.591">  1  3  2 -1</clus>
</clustering>
</event>
<event>
 6    0  0.4582113E+002  0.1663032E+03  0.7546771E-02  0.1181759E+00
         21   -1    0    0  506  501  0.00000000000E+00  0.00000000000E+00  0.28137517903E+02  0.28137517903E+02  0.00000000000E+00 0. -1.
         21   -1    0    0  503  502 -0.00000000000E+00 -0.00000000000E+00 -0.26160242019E+04  0.26160242019E+04  0.00000000000E+00 0. -1.
         21    1    1    2  503  505  0.83592537380E+02  0.13626582301E+03 -0.97021534732E+03  0.98329746618E+03  0.00000000000E+00 0. -1.
         21    1    1    2  504  501  0.59465390636E+02 -0.11010723423E+03 -0.46647506560E+03  0.48296865586E+03  0.00000000000E+00 0. -1.
         21    1    1    2  505  504  0.39132398402E+02 -0.30423543688E+02 -0.10709943966E+03  0.11801367120E+03  0.00000000000E+00 0. -1.
         21    1    1    2  506  502 -0.18219032642E+03  0.42649549087E+01 -0.10440968315E+04  0.10598819266E+04  0.00000000000E+00 0. -1.
<scales pt_clust_3="159.86271" pt_clust_4="32.83343" pt_clust_5="32.83343" pt_clust_6="157.90859"></scales>
<clustering>
<clus scale="   32.833">  4  5 -1 -1</clus>
<clus scale="  159.863">  2  3  1 -1</clus>
<clus scale="  157.909">  2  6  1 -1</clus>
<clus scale="  166.303">  1  3  2 -1</clus>
</clustering>
</event>
<event>
 6    0  0.4582113E+002  0.1063791E+03  0.7546771E-02  0.1267426E+00
         21   -1    0    0  503  501  0.00000000000E+00  0.00000000000E+00  0.31166467774E+02  0.31166467774E+02  0.00000000000E+00 0. -1.
         21   -1    0    0  501  502 -0.00000000000E+00 -0.00000000000E+00 -0.21141023334E+04  0.21141023334E+04  0.00000000000E+00 0.  1.
         21    1    1    2  503  504  0.56408561489E+02 -0.13118718114E+02 -0.24538126484E+02  0.62897903189E+02  0.00000000000E+00 0. -1.
         21    1    1    2  504  505  0.36810311385E+02 -0.53371446455E+01 -0.62585683181E+02  0.72804202327E+02  0.00000000000E+00 0.  1.
         21    1    1    2  505  506 -0.11422360598E+03 -0.22268460619E+02 -0.51247930675E+03  0.52552636123E+03  0.00000000000E+00 0.  1.
         21    1    1    2  506  502  0.21004733101E+02  0.40724323378E+02 -0.14833327492E+04  0.14840403344E+04  0.00000000000E+00 0.  1.
<scales pt_clust_3="33.94520" pt_clust_4="33.94520" pt_clust_5="97.58269" pt_clust_6="45.82215"></scales>
<clustering>
<clus scale="   33.945">  3  4 -1 -1</clus>
<clus scale="   45.822">  2  6  1 -1</clus>
<clus scale="   97.583">  2  5  1 -1</clus>
<clus scale="  106.379">  1  3  2 -1</clus>
</clustering>
</event>
<event>
 6    0  0.4582113E+002  0.2016307E+03  0.7546771E-02  0.1148370E+00
         21   -1    0    0  503  501  0.00000000000E+00  0.00000000000E+00  0.30563246736E+03  0.30563246736E+03  0.00000000000E+00 0.  1.
         21   -1    0    0  504  502 -0.00000000000E+00 -0.00000000000E+00 -0.40403653278E+03  0.40403653278E+03  0.00000000000E+00 0.  1.
         21    1    1    2  503  505  0.12795892695E+03 -0.76123827885E+02 -0.29158130608E+03  0.32739575778E+03  0.00000000000E+00 0.  1.
         21    1    1    2  504  506 -0.44978089600E+02  0.51189253074E+02  0.69483151275E+02  0.97320483380E+02  0.00000000000E+00 0.  1.
         21    1    1    2  505  502  0.47178123387E+02 -0.11643366834E+01 -0.48405431193E+02  0.67603378431E+02  0.00000000000E+00 0. -1.
         21    1    1    2  506  501 -0.13015896073E+03  0.26098911495E+02  0.17209952058E+03  0.21734938054E+03  0.00000000000E+00 0.  1.
<scales pt_clust_3="201.08042" pt_clust_4="45.36090" pt_clust_5="34.64532" pt_clust_6="45.36090"></scales>
<clustering>
<clus scale="   34.645">  3  5 -1 -1</clus>
<clus scale="   45.361">  4  6 -1 -1</clus>
<clus scale="  201.080">  2  3  1 -1</clus>
<clus scale="  201.631">  1  3  2 -1</clus>
</clustering>
</event>
<event>
 6    0  0.4582113E+002  0.1318456E+03  0.7546771E-02  0.1224743E+00
         21   -1    0    0  503  501  0.00000000000E+00  0.00000000000E+00  0.13620470229E+03  0.13620470229E+03  0.00000000000E+00 0. -1.
         21   -1    0    0  505  502 -0.00000000000E+00 -0.00000000000E+00 -0.42885580774E+03  0.42885580774E+03  0.00000000000E+00 0. -1.
         21    1    1    2  503  502  0.33430620570E+02  0.27116923175E+02 -0.15586027478E+02  0.45780543539E+02  0.00000000000E+00 0. -1.
         21    1    1    2  504  501  0.76535674279E+01 -0.14418621039E+03  0.49236666476E+02  0.15255323558E+03  0.00000000000E+00 0. -1.
         21    1    1    2  505  506 -0.27478806228E+02  0.17939363811E+02 -0.21322712113E+03  0.21573759698E+03  0.00000000000E+00 0. -1.
         21    1    1    2  506  504 -0.13605381770E+02  0.99129923404E+02 -0.11307462332E+03  0.15098913394E+03  0.00000000000E+00 0. -1.
<scales pt_clust_3="41.84832" pt_clust_4="131.84560" pt_clust_5="32.81624" pt_clust_6="14000.00000"></scales>
<clustering>
<clus scale="   32.816">  2  5  1 -1</clus>
<clus scale="   41.848">  2  3  1 -1</clus>
<clus scale="  131.846">  1  4  2 -1</clus>
<clus scale="  131.846">  1  3  2 -1</clus>
</clustering>
</event>
<event>
 6    0  0.4582113E+002  0.1513084E+03  0.7546771E-02  0.1198874E+00
         21   -1    0    0  503  501  0.00000000000E+00  0.00000000000E+00  0.20403468398E+04  0.20403468398E+04  0.00000000000E+00 0. -1.
         21   -1    0    0  504  502 -0.00000000000E+00 -0.00000000000E+00 -0.80802064209E+02  0.80802064209E+02  0.00000000000E+00 0. -1.
         21    1    1    2  503  506 -0.50699236381E+01 -0.50627176841E+02  0.78651500957E+03  0.78815904197E+03  0.00000000000E+00 0. -1.
         21    1    1    2  504  501  0.45243537086E+02  0.83337338155E+02  0.13244971423E+03  0.16289572241E+03  0.00000000000E+00 0. -1.
         21    1    1    2  505  502 -0.10103561360E+03  0.47258508327E+02 -0.12490890553E+02  0.11223896013E+03  0.00000000000E+00 0. -1.
         21    1    1    2  506  505  0.60862000151E+02 -0.79968669641E+02  0.10530709423E+04  0.10578551795E+04  0.00000000000E+00 0. -1.
<scales pt_clust_3="42.23980" pt_clust_4="94.82663" pt_clust_5="139.17697" pt_clust_6="42.23980"></scales>
<clustering>
<clus scale="   42.240">  3  6 -1 -1</clus>
<clus scale="   94.827">  2  4  1 -1</clus>
<clus scale="  139.177">  2  5  1 -1</clus>
<clus scale="  151.308">  1  3  2 -1</clus>
</clustering>
</event>
<event>
 6    0  0.4582113E+002  0.1288310E+03  0.7546771E-02  0.1229201E+00
         21   -1    0    0  504  501  0.00000000000E+00  0.00000000000E+00  0.99506301410E+02  0.99506301410E+02  0.00000000000E+00 0.  1.
         21   -1    0    0  506  502 -0.00000000000E+00 -0.00000000000E+00 -0.19318190523E+04  0.19318190523E+04  0.00000000000E+00 0. -1.
         21    1    1    2  503  501 -0.18295135251E+02  0.12083998304E+03 -0.66937390298E+00  0.12221890826E+03  0.00000000000E+00 0.  1.
         21    1    1    2  504  505 -0.49683947732E+02 -0.10282410659E+02  0.95786915900E+00  0.50745838692E+02  0.00000000000E+00 0. -1.
         21    1    1    2  505  502  0.78258323855E+02  0.70850552028E+02 -0.37831805363E+03  0.39277056366E+03  0.00000000000E+00 0. -1.
         21    1    1    2  506  503 -0.10279240872E+02 -0.18140812441E+03 -0.14542831926E+04  0.14655900431E+04  0.00000000000E+00 0. -1.
<scales pt_clust_3="128.83096" pt_clust_4="50.73680" pt_clust_5="101.30673" pt_clust_6="14000.00000"></scales>
<clustering>
<clus scale="   50.737">  1  4  2 -1</clus>
<clus scale="  101.307">  2  5  1 -1</clus>
<clus scale="  128.831">  1  3  2 -1</clus>
<clus scale="   50.737">  1  3  2 -1</clus>
</clustering>
</event>
<event>
 6    0  0.4582113E+002  0.8859999E+02  0.7546771E-02  0.1306278E+00
         21   -1    0    0  504  501  0.00000000000E+00  0.00000000000E+00  0.52115124529E+03  0.52115124529E+03  0.00000000000E+00 0. -1.
         21   -1    0    0  505  502 -0.00000000000E+00 -0.00000000000E+00 -0.84801982504E+03  0.84801982504E+03  0.00000000000E+00 0. -1.
         21    1    1    2  503  502  0.46047971714E+02 -0.28252616266E+02 -0.77923759560E+03  0.78110809522E+03  0.00000000000E+00 0. -1.
         21    1    1    2  504  506  0.70694325548E+02  0.58294682009E+02  0.30839002658E+03  0.32171472784E+03  0.00000000000E+00 0. -1.
         21    1    1    2  505  501 -0.28295672352E+02 -0.11560299357E+02 -0.46429862837E+02  0.55587928169E+02  0.00000000000E+00 0. -1.
         21    1    1    2  506  503 -0.88446624910E+02 -0.18481766386E+02  0.19040885211E+03  0.21076031911E+03  0.00000000000E+00 0. -1.
<scales pt_clust_3="43.61659" pt_clust_4="88.59999" pt_clust_5="30.56609" pt_clust_6="14000.00000"></scales>
<clustering>
<clus scale="   30.566">  2  5  1 -1</clus>
<clus scale="   43.617">  2  3  1 -1</clus>
<clus scale="   88.600">  1  4  2 -1</clus>
<clus scale="   88.600">  1  3  2 -1</clus>
</clustering>
</event>
<event>
 6    0  0.4582113E+002  0.1495885E+03  0.7546771E-02  0.1200980E+00
         21   -1    0    0  506  501  0.00000000000E+00  0.00000000000E+00  0.17956062276E+03  0.17956062276E+03  0.00000000000E+00 0.  1.
         21   -1    0    0  501  502 -0.00000000000E+00 -0.00000000000E+00 -0.39322639761E+03  0.39322639761E+03  0.00000000000E+00 0. -1.
         21    1    1    2  503  505 -0.83388267244E+01  0.55803719749E+02 -0.10390180651E+03  0.11823356784E+03  0.00000000000E+00 0. -1.
         21    1    1    2  504  503  0.20454578618E+02 -0.96130404471E+02  0.96551123450E+02  0.13777359649E+03  0.00000000000E+00 0.  1.
         21    1    1    2  505  502 -0.56347726507E+02  0.64557573441E+02 -0.24086031055E+03  0.25564904805E+03  0.00000000000E+00 0. -1.
         21    1    1    2  506  504  0.44231974613E+02 -0.24230888720E+02  0.34545218754E+02  0.61130807987E+02  0.00000000000E+00 0.  1.
<scales pt_clust_3="38.54287" pt_clust_4="43.60627" pt_clust_5="144.66269" pt_clust_6="43.60627"></scales>
<clustering>
<clus scale="   38.543">  3  5 -1 -1</clus>
<clus scale="   43.606">  4  6 -1 -1</clus>
<clus scale="  144.663">  2  3  1 -1</clus>
<clus scale="  149.588">  1  3  2 -1</clus>
</clustering>
</event>
<event>
 6    0  0.4582113E+002  0.9922878E+02  0.7546771E-02  0.1281926E+00
         21   -1    0    0  506  501  0.00000000000E+00  0.00000000000E+00  0.10046867339E+03  0.10046867339E+03  0.00000000000E+00 0. -1.
         21   -1    0    0  501  502 -0.00000000000E+00 -0.00000000000E+00 -0.83586742022E+03  0.83586742022E+03  0.00000000000E+00 0.  1.
         21    1    1    2  503  504 -0.44472498709E+02 -0.90526203461E+02 -0.15245938765E+03  0.18280224708E+03  0.00000000000E+00 0. -1.
         21    1    1    2  504  505 -0.72987597103E+02  0.59805495297E+02 -0.23871810062E+02  0.97333190199E+02  0.00000000000E+00 0. -1.
         21    1    1    2  505  502  0.10158239590E+03 -0.57042695869E+01 -0.59439028655E+03  0.60303510229E+03  0.00000000000E+00 0.  1.
         21    1    1    2  506  503  0.15877699911E+02  0.36424977750E+02  0.35322737424E+02  0.53165554052E+02  0.00000000000E+00 0. -1.
<scales pt_clust_3="90.15075" pt_clust_4="14000.00000" pt_clust_5="99.22878" pt_clust_6="39.73513"></scales>
<clustering>
<clus scale="   39.735">  1  6  2 -1</clus>
<clus scale="   90.151">  1  3  2 -1</clus>
<clus scale="   99.229">  2  5  1 -1</clus>
<clus scale="   39.735">  1  3  2 -1</clus>
</clustering>
</event>
<event>
 6    0  0.4582113E+002  0.9753444E+02  0.7546771E-02  0.1285568E+00
         21   -1    0    0  503  501  0.00000000000E+00  0.00000000000E+00  0.36802165926E+03  0.36802165926E+03  0.00000000000E+00 0.  1.
         21   -1    0    0  504  502 -0.00000000000E+00 -0.00000000000E+00 -0.29338195838E+03  0.29338195838E+03  0.00000000000E+00 0. -1.
         21    1    1    2  503  502  0.20571941528E+02  0.55407172099E+02  0.37606709731E+02  0.70053009321E+02  0.00000000000E+00 0. -1.
         21    1    1    2  504  506 -0.73397002412E+02 -0.77019288660E+02 -0.24260328006E+03  0.26490647837E+03  0.00000000000E+00 0. -1.
         21    1    1    2  505  501 -0.51231067245E+00  0.41639441673E+02  0.26413792336E+03  0.26740035176E+03  0.00000000000E+00 0.  1.
         21    1    1    2  506  505  0.53337371557E+02 -0.20027325112E+02  0.15498347848E+02  0.59043778180E+02  0.00000000000E+00 0.  1.
<scales pt_clust_3="97.53444" pt_clust_4="14000.00000" pt_clust_5="41.64259" pt_clust_6="53.37143"></scales>
<clustering>
<clus scale="   41.643">  1  5  2 -1</clus>
<clus scale="   53.371">  1  6  2 -1</clus>
<clus scale="   97.534">  1  3  2 -1</clus>
<clus scale="   41.643">  1  3  2 -1</clus>
</clustering>
</event>
<event>
 6    0  0.4582113E+002  0.1033567E+03  0.7546771E-02  0.1273392E+00
         21   -1    0    0  506  501  0.00000000000E+00  0.00000000000E+00  0.20924665918E+03  0.20924665918E+03  0.00000000000E+00 0. -1.
         21   -1    0    0  503  502 -0.00000000000E+00 -0.00000000000E+00 -0.25610671049E+03  0.25610671049E+03  0.00000000000E+00 0. -1.
         21    1    1    2  503  504  0.39088318698E+01 -0.91188731166E+02 -0.39467957511E+02  0.99440350605E+02  0.00000000000E+00 0. -1.
         21    1    1    2  504  501 -0.76524363737E+02 -0.16486479280E+02  0.84459069170E+02  0.11515692167E+03  0.00000000000E+00 0. -1.
         21    1    1    2  505  502  0.22615840673E+01  0.11180691239E+03 -0.12929806294E+03  0.17094996198E+03  0.00000000000E+00 0. -1.
         21    1    1    2  506  505  0.70353947800E+02 -0.41317019423E+01  0.37446899971E+02  0.79806135412E+02  0.00000000000E+00 0. -1.
<scales pt_clust_3="14000.00000" pt_clust_4="35.55075" pt_clust_5="103.35666" pt_clust_6="70.47517"></scales>
<clustering>
<clus scale="   70.475">  1  6  2 -1</clus>
<clus scale="   35.551">  1  4  2 -1</clus>
<clus scale="  103.357">  2  5  1 -1</clus>
<clus scale="   70.475">  1  3  2 -1</clus>
</clustering>
</event>
<event>
 6    0  0.4582113E+002  0.8312134E+02  0.7546771E-02  0.1320420E+00
         21   -1    0    0  506  501  0.00000000000E+00  0.00000000000E+00  0.77035197895E+02  0.77035197895E+02  0.00000000000E+00 0.  1.
         21   -1    0    0  504  502 -0.00000000000E+00 -0.00000000000E+00 -0.27709009872E+04  0.27709009872E+04  0.00000000000E+00 0.  1.
         21    1    1    2  503  505 -0.35197214756E+02  0.41705764436E+02 -0.24161879193E+03  0.24770517824E+03  0.00000000000E+00 0.  1.
         21    1    1    2  504  501  0.40262171417E+01 -0.14135245115E+03 -0.15237988937E+02  0.14222841550E+03  0.00000000000E+00 0.  1.
         21    1    1    2  505  502  0.14334674804E+02  0.49454531080E+02 -0.23786553979E+04  0.23792126293E+04  0.00000000000E+00 0.  1.
         21    1    1    2  506  503  0.16836322810E+02  0.50192155631E+02 -0.58353610503E+02  0.78789961997E+02  0.00000000000E+00 0.  1.
<scales pt_clust_3="14000.00000" pt_clust_4="83.12134" pt_clust_5="51.49013" pt_clust_6="61.94186"></scales>
<clustering>
<clus scale="   51.490">  2  5  1 -1</clus>
<clus scale="   61.942">  1  6  2 -1</clus>
<clus scale="   83.121">  1  4  2 -1</clus>
<clus scale="   61.942">  1  3  2 -1</clus>
</clustering>
</event>
<event>
 6    0  0.4582113E+002  0.1092965E+03  0.7546771E-02  0.1261878E+00
         21   -1    0    0  506  501  0.00000000000E+00  0.00000000000E+00  0.52930440421E+03  0.52930440421E+03  0.00000000000E+00 0.  1.
         21   -1    0    0  505  502 -0.00000000000E+00 -0.00000000000E+00 -0.32403252308E+03  0.32403252308E+03  0.00000000000E+00 0. -1.
         21    1    1    2  503  502 -0.37863770536E+02  0.94808379339E+01 -0.25707358344E+03  0.26001995830E+03  0.00000000000E+00 0. -1.
         21    1    1    2  504  501 -0.61357379505E+02 -0.96652621445E+02  0.43032808134E+03  0.44529621023E+03  0.00000000000E+00 0.  1.
         21    1    1    2  505  504  0.30731949612E+02  0.39697333476E+02  0.40160046503E+02  0.64289659723E+02  0.00000000000E+00 0.  1.
         21    1    1    2  506  503  0.68489200428E+02  0.47474450034E+02 -0.81426632760E+01  0.83731099041E+02  0.00000000000E+00 0.  1.
<scales pt_clust_3="39.03270" pt_clust_4="109.29649" pt_clust_5="47.76987" pt_clust_6="14000.00000"></scales>
<clustering>
<clus scale="   39.033">  2  3  1 -1</clus>
<clus scale="   47.770">  2  5  1 -1</clus>
<clus scale="  109.296">  1  4  2 -1</clus>
<clus scale="  109.296">  1  3  2 -1</clus>
</clustering>
</event>
<event>
 6    0  0.4582113E+002  0.1455423E+03  0.7546771E-02  0.1206060E+00
         21   -1    0    0  506  501  0.00000000000E+00  0.00000000000E+00  0.21073210470E+04  0.21073210470E+04  0.00000000000E+00 0. -1.
         21   -1    0    0  501  502 -0.00000000000E+00 -0.00000000000E+00 -0.98710545746E+02  0.98710545746E+02  0.00000000000E+00 0. -1.
         21    1    1    2  503  502 -0.92974594705E+01  0.35629619876E+02  0.63799377599E+01  0.37371328194E+02  0.00000000000E+00 0. -1.
         21    1    1    2  504  505 -0.47114123581E+02 -0.61223167941E+01  0.44755083820E+03  0.45006552431E+03  0.00000000000E+00 0. -1.
         21    1    1    2  505  503  0.14725422545E+03 -0.45713793766E+02 -0.68519540071E+01  0.15433893587E+03  0.00000000000E+00 0. -1.
         21    1    1    2  506  504 -0.90842642397E+02  0.16206490684E+02  0.15615316793E+04  0.15642558043E+04  0.00000000000E+00 0. -1.
<scales pt_clust_3="36.82272" pt_clust_4="31.63775" pt_clust_5="138.70282" pt_clust_6="31.63775"></scales>
<clustering>
<clus scale="   31.638">  4  6 -1 -1</clus>
<clus scale="   36.823">  2  3  1 -1</clus>
<clus scale="  138.703">  2  5  1 -1</clus>
<clus scale="  145.542">  1  3  2 -1</clus>
</clustering>
</event>
<event>
 6    0  0.4582113E+002  0.1038811E+03  0.7546771E-02  0.1272340E+00
         21   -1    0    0  506  501  0.00000000000E+00  0.00000000000E+00  0.33648932663E+03  0.33648932663E+03  0.00000000000E+00 0.  1.
         21   -1    0    0  503  502 -0.00000000000E+00 -0.00000000000E+00 -0.15724142747E+04  0.15724142747E+04  0.00000000000E+00 0. -1.
         21    1    1    2  503  501 -0.48704591192E+02 -0.37709779266E+02 -0.26669942589E+03  0.27372020098E+03  0.00000000000E+00 0. -1.
         21    1    1    2  504  505 -0.10024046573E+02 -0.59050725218E+02 -0.14979327451E+02  0.61740180672E+02  0.00000000000E+00 0.  1.
         21    1    1    2  505  502  0.49035767058E+02  0.15163571826E+03 -0.12562616994E+04  0.12663298760E+04  0.00000000000E+00 0. -1.
         21    1    1    2  506  504  0.96928707071E+01 -0.54875213777E+02  0.30201550464E+03  0.30711334369E+03  0.00000000000E+00 0.  1.
<scales pt_clust_3="64.67587" pt_clust_4="14000.00000" pt_clust_5="103.88113" pt_clust_6="55.72469"></scales>
<clustering>
<clus scale="   55.725">  1  6  2 -1</clus>
<clus scale="   64.676">  2  3  1 -1</clus>
<clus scale="  103.881">  2  5  1 -1</clus>
<clus scale="   55.725">  1  3  2 -1</clus>
</clustering>
</event>
<event>
 6    0  0.4582113E+002  0.1053557E+03  0.7546771E-02  0.1269420E+00
         21   -1    0    0  505  501  0.00000000000E+00  0.00000000000E+00  0.55004489236E+03  0.55004489236E+03  0.00000000000E+00 0.  1.
         21   -1    0    0  506  502 -0.00000000000E+00 -0.00000000000E+00 -0.95543034942E+03  0.95543034942E+03  0.00000000000E+00 0. -1.
         21    1    1    2  503  502  0.22424648897E+02  0.76657733797E+02 -0.42591774198E+03  0.43334189270E+03  0.00000000000E+00 0. -1.
         21    1    1    2  504  503 -0.32545674466E+02 -0.12531957388E+03  0.24890901242E+03  0.28057069160E+03  0.00000000000E+00 0.  1.
         21    1    1    2  505  504  0.34075075200E+02  0.19406339290E+02  0.27952160332E+03  0.28225882355E+03  0.00000000000E+00 0.  1.
         21    1    1    2  506  501 -0.23954049631E+02  0.29255500791E+02 -0.50789833081E+03  0.50930383393E+03  0.00000000000E+00 0. -1.
<scales pt_clust_3="14000.00000" pt_clust_4="105.35566" pt_clust_5="39.19449" pt_clust_6="37.81112"></scales>
<clustering>
<clus scale="   37.811">  2  6  1 -1</clus>
<clus scale="   39.194">  1  5  2 -1</clus>
<clus scale="  105.356">  1  4  2 -1</clus>
<clus scale="   39.194">  1  3  2 -1</clus>
</clustering>
</event>
<event>
 6    0  0.4582113E+002  0.1431701E+03  0.7546771E-02  0.1209126E+00
         21   -1    0    0  502  501  0.00000000000E+00  0.00000000000E+00  0.13904724910E+03  0.13904724910E+03  0.00000000000E+00 0.  1.
         21   -1    0    0  505  502 -0.00000000000E+00 -0.00000000000E+00 -0.28876168433E+03  0.28876168433E+03  0.00000000000E+00 0.  1.
         21    1    1    2  503  504  0.29027932919E+02  0.44516332770E+02  0.25515854417E+01  0.53205595205E+02  0.00000000000E+00 0.  1.
         21    1    1    2  504  506 -0.23505478665E+02  0.72736311390E+02  0.45518851430E+02  0.88966535042E+02  0.00000000000E+00 0.  1.
         21    1    1    2  505  503  0.42789904294E+02 -0.12451181484E+03 -0.19679131882E+03  0.23677202348E+03  0.00000000000E+00 0.  1.
         21    1    1    2  506  501 -0.48312358547E+02  0.72591706777E+01 -0.99355328257E+00  0.48864779703E+02  0.00000000000E+00 0.  1.
<scales pt_clust_3="46.87153" pt_clust_4="46.87153" pt_clust_5="127.96176" pt_clust_6="48.85468"></scales>
<clustering>
<clus scale="   48.855">  1  6  2 -1</clus>
<clus scale="   46.872">  3  4 -1 -1</clus>
<clus scale="  127.962">  2  5  1 -1</clus>
<clus scale="   48.855">  1  3  2 -1</clus>
</clustering>
</event>
<event>
 6    0  0.4582113E+002  0.1305315E+03  0.7546771E-02  0.1226669E+00
         21   -1    0    0  506  501  0.00000000000E+00  0.00000000000E+00  0.26960072799E+03  0.26960072799E+03  0.00000000000E+00 0. -1.
         21   -1    0    0  504  502 -0.00000000000E+00 -0.00000000000E+00 -0.17623404979E+03  0.17623404979E+03  0.00000000000E+00 0. -1.
         21    1    1    2  503  501  0.38067951325E+01 -0.48872650575E+02  0.25928621292E+02  0.55455577407E+02  0.00000000000E+00 0.  1.
         21    1    1    2  504  505  0.70720190586E+02  0.86498261951E+02 -0.73775845006E+02  0.13388864770E+03  0.00000000000E+00 0. -1.
         21    1    1    2  505  503  0.14397678105E+02 -0.79856072520E+02  0.13542941130E+03  0.15787783536E+03  0.00000000000E+00 0. -1.
         21    1    1    2  506  502 -0.88924663823E+02  0.42230461145E+02  0.57844906131E+01  0.98612717315E+02  0.00000000000E+00 0. -1.
<scales pt_clust_3="39.42018" pt_clust_4="120.27560" pt_clust_5="39.42018" pt_clust_6="98.44292"></scales>
<clustering>
<clus scale="   39.420">  3  5 -1 -1</clus>
<clus scale="   98.443">  2  6  1 -1</clus>
<clus scale="  120.276">  2  4  1 -1</clus>
<clus scale="  130.531">  1  3  2 -1</clus>
</clustering>
</event>
<event>
 6    0  0.4582113E+002  0.1197400E+03  0.7546771E-02  0.1243527E+00
         21   -1    0    0  504  501  0.00000000000E+00  0.00000000000E+00  0.38140548420E+02  0.38140548420E+02  0.00000000000E+00 0. -1.
         21   -1    0    0  505  502 -0.00000000000E+00 -0.00000000000E+00 -0.77027998749E+03  0.77027998749E+03  0.00000000000E+00 0. -1.
         21    1    1    2  503  501 -0.48719438224E+02 -0.49441267070E+02 -0.91292302511E+02  0.11468350818E+03  0.00000000000E+00 0. -1.
         21    1    1    2  504  502  0.64292669711E+01 -0.47509216546E+02 -0.32860303462E+03  0.33208194093E+03  0.00000000000E+00 0. -1.
         21    1    1    2  505  506  0.83990102782E+02  0.10238171772E+03 -0.27605794120E+03  0.30617697560E+03  0.00000000000E+00 0. -1.
         21    1    1    2  506  503 -0.41699931529E+02 -0.54312340992E+01 -0.36186160739E+02  0.55478111201E+02  0.00000000000E+00 0.  1.
<scales pt_clust_3="30.32148" pt_clust_4="47.94227" pt_clust_5="113.22589" pt_clust_6="30.32148"></scales>
<clustering>
<clus scale="   30.321">  3  6 -1 -1</clus>
<clus scale="   47.942">  2  4  1 -1</clus>
<clus scale="  113.226">  2  5  1 -1</clus>
<clus scale="  119.740">  1  3  2 -1</clus>
</clustering>
</event>
<event>
 6    0  0.4582113E+002  0.1678918E+03  0.7546771E-02  0.1180064E+00
         21   -1    0    0  504  501  0.00000000000E+00  0.00000000000E+00  0.19844376058E+03  0.19844376058E+03  0.00000000000E+00 0.  1.
         21   -1    0    0  506  502 -0.00000000000E+00 -0.00000000000E+00 -0.18056649468E+04  0.18056649468E+04  0.00000000000E+00 0.  1.
         21    1    1    2  503  502  0.10762239382E+03  0.51971021386E+02  0.82929081950E+02  0.14546751991E+03  0.00000000000E+00 0.  1.
         21    1    1    2  504  503  0.67377803275E+01  0.39010184662E+02  0.49480965355E+02  0.63368431602E+02  0.00000000000E+00 0.  1.
         21    1    1    2  505  501 -0.40169424172E+02  0.43442301508E+02 -0.11426340137E+02  0.60260911440E+02  0.00000000000E+00 0.  1.
         21    1    1    2  506  505 -0.74190749974E+02 -0.13442350756E+03 -0.17282048934E+04  0.17350118445E+04  0.00000000000E+00 0.  1.
<scales pt_clust_3="39.55813" pt_clust_4="39.55813" pt_clust_5="59.16770" pt_clust_6="153.17780"></scales>
<clustering>
<clus scale="   39.558">  3  4 -1 -1</clus>
<clus scale="   59.168">  1  5  2 -1</clus>
<clus scale="  153.178">  2  6  1 -1</clus>
<clus scale="   59.168">  1  3  2 -1</clus>
</clustering>
</event>
<event>
 6    0  0.4582113E+002  0.8355411E+02  0.7546771E-02  0.1319258E+00
         21   -1    0    0  503  501  0.00000000000E+00  0.00000000000E+00  0.45767756124E+03  0.45767756124E+03  0.00000000000E+00 0. -1.
         21   -1    0    0  506  502 -0.00000000000E+00 -0.00000000000E+00 -0.52099782117E+02  0.52099782117E+02  0.00000000000E+00 0.  1.
         21    1    1    2  503  504 -0.35929004785E+02  0.11473686347E+03  0.15436606787E+03  0.19566380384E+03  0.00000000000E+00 0.  1.
         21    1    1    2  504  502  0.38940738149E+02 -0.52910806234E+01  0.17576328270E+02  0.43050016692E+02  0.00000000000E+00 0.  1.
         21    1    1    2  505  501  0.21787605860E+02 -0.68966796604E+02  0.20056765982E+03  0.21321000203E+03  0.00000000000E+00 0. -1.
         21    1    1    2  506  505 -0.24799339224E+02 -0.40478986239E+02  0.33067723166E+02  0.57853520794E+02  0.00000000000E+00 0.  1.
<scales pt_clust_3="14000.00000" pt_clust_4="39.29856" pt_clust_5="83.55411" pt_clust_6="43.97068"></scales>
<clustering>
<clus scale="   39.299">  2  4  1 -1</clus>
<clus scale="   43.971">  2  6  1 -1</clus>
<clus scale="   83.554">  1  5  2 -1</clus>
<clus scale="   83.554">  1  3  2 -1</clus>
</clustering>
</event>
<event>
 6    0  0.4582113E+002  0.1243066E+03  0.7546771E-02  0.1236157E+00
         21   -1    0    0  504  501  0.00000000000E+00  0.00000000000E+00  0.49804251171E+03  0.49804251171E+03  0.00000000000E+00 0. -1.
         21   -1    0    0  505  502 -0.00000000000E+00 -0.00000000000E+00 -0.58750517773E+03  0.58750517773E+03  0.00000000000E+00 0.  1.
         21    1    1    2  503  506 -0.13709001700E+02  0.99448724857E+02  0.37978777770E+03  0.39283169639E+03  0.00000000000E+00 0. -1.
         21    1    1    2  504  502  0.26364990841E+02 -0.14136794436E+03 -0.53655219864E+03  0.55548921709E+03  0.00000000000E+00 0.  1.
         21    1    1    2  505  503 -0.43166490139E+02  0.16638540986E+02 -0.12679853303E+02  0.47968381220E+02  0.00000000000E+00 0.  1.
         21    1    1    2  506  501  0.30510500998E+02  0.25280678515E+02  0.79981608229E+02  0.89258394744E+02  0.00000000000E+00 0.  1.
<scales pt_clust_3="124.30659" pt_clust_4="14000.00000" pt_clust_5="45.45913" pt_clust_6="39.62327"></scales>
<clustering>
<clus scale="   39.623">  1  6  2 -1</clus>
<clus scale="   45.459">  2  5  1 -1</clus>
<clus scale="  124.307">  1  3  2 -1</clus>
<clus scale="   39.623">  1  3  2 -1</clus>
</clustering>
</event>
<event>
 6    0  0.4582113E+002  0.3015145E+03  0.7546771E-02  0.1084486E+00
         21   -1    0    0  505  501  0.00000000000E+00  0.00000000000E+00  0.77571749870E+03  0.77571749870E+03  0.00000000000E+00 0. -1.
         21   -1    0    0  506  502 -0.00000000000E+00 -0.00000000000E+00 -0.44066850214E+03  0.44066850214E+03  0.00000000000E+00 0.  1.
         21    1    1    2  503  504  0.34912851969E+02 -0.30374113923E+02  0.52140871391E+02  0.69714880037E+02  0.00000000000E+00 0. -1.
         21    1    1    2  504  502 -0.12973307260E+03 -0.22615526237E+03  0.25775658499E+02  0.26199476597E+03  0.00000000000E+00 0. -1.
         21    1    1    2  505  503  0.14396334103E+03 -0.99690772163E+02  0.44553830609E+03  0.47871502568E+03  0.00000000000E+00 0. -1.
         21    1    1    2  506  501 -0.49143120393E+02  0.35622014845E+03 -0.18840583941E+03  0.40596132916E+03  0.00000000000E+00 0.  1.
<scales pt_clust_3="33.22518" pt_clust_4="301.51455" pt_clust_5="230.41440" pt_clust_6="14000.00000"></scales>
<clustering>
<clus scale="   33.225">  3  5 -1 -1</clus>
<clus scale="  230.414">  1  3  2 -1</clus>
<clus scale="  301.515">  1  4  2 -1</clus>
<clus scale="  230.414">  1  3  2 -1</clus>
</clustering>
</event>
<event>
 6    0  0.4582113E+002  0.8038848E+02  0.7546771E-02  0.1327953E+00
         21   -1    0    0  504  501  0.00000000000E+00  0.00000000000E+00  0.27195507320E+03  0.27195507320E+03  0.00000000000E+00 0.  1.
         21   -1    0    0  505  502 -0.00000000000E+00 -0.00000000000E+00 -0.22419221563E+03  0.22419221563E+03  0.00000000000E+00 0.  1.
         21    1    1    2  503  502 -0.94622885797E+02 -0.57913931223E+02 -0.21846536173E+02  0.11306982395E+03  0.00000000000E+00 0.  1.
         21    1    1    2  504  503  0.10110380781E+03 -0.41029148691E+01  0.12357053375E+03  0.15971377735E+03  0.00000000000E+00 0.  1.
         21    1    1    2  505  506  0.53431159726E+02  0.11047361294E+02 -0.11268645145E+03  0.12520051662E+03  0.00000000000E+00 0.  1.
         21    1    1    2  506  501 -0.59912081742E+02  0.50969484798E+02  0.58725311442E+02  0.98163170911E+02  0.00000000000E+00 0.  1.
<scales pt_clust_3="80.38848" pt_clust_4="14000.00000" pt_clust_5="54.56128" pt_clust_6="72.82390"></scales>
<clustering>
<clus scale="   54.561">  2  5  1 -1</clus>
<clus scale="   72.824">  1  6  2 -1</clus>
<clus scale="   80.388">  2  3  1 -1</clus>
<clus scale="   72.824">  1  3  2 -1</clus>
</clustering>
</event>
<event>
 6    0  0.4582113E+002  0.1039072E+03  0.7546771E-02  0.1272288E+00
         21   -1    0    0  503  501  0.00000000000E+00  0.00000000000E+00  0.24336691209E+04  0.24336691209E+04  0.00000000000E+00 0.  1.
         21   -1    0    0  505  502 -0.00000000000E+00 -0.00000000000E+00 -0.46124976684E+02  0.46124976684E+02  0.00000000000E+00 0.  1.
         21    1    1    2  503  506 -0.79558021893E+02  0.89629037850E+00  0.12386189439E+04  0.12411716925E+04  0.00000000000E+00 0.  1.
         21    1    1    2  504  501  0.37835653868E+01  0.72566078354E+02  0.75273236231E+03  0.75623155208E+03  0.00000000000E+00 0.  1.
         21    1    1    2  505  504  0.13086707780E+03 -0.13647619805E+03  0.24385698479E+03  0.30857442168E+03  0.00000000000E+00 0.  1.
         21    1    1    2  506  502 -0.55092621294E+02  0.63013829317E+02  0.15233585321E+03  0.17381643127E+03  0.00000000000E+00 0. -1.
<scales pt_clust_3="103.90716" pt_clust_4="72.66465" pt_clust_5="14000.00000" pt_clust_6="88.90113"></scales>
<clustering>
<clus scale="   72.665">  1  4  2 -1</clus>
<clus scale="   88.901">  2  6  1 -1</clus>
<clus scale="  103.907">  1  3  2 -1</clus>
<clus scale="   72.665">  1  3  2 -1</clus>
</clustering>
</event>
<event>
 6    0  0.4582113E+002  0.1120529E+03  0.7546771E-02  0.1256815E+00
         21   -1    0    0  505  501  0.00000000000E+00  0.00000000000E+00  0.24661843555E+04  0.24661843555E+04  0.00000000000E+00 0.  1.
         21   -1    0    0  506  502 -0.00000000000E+00 -0.00000000000E+00 -0.79529233723E+02  0.79529233723E+02  0.00000000000E+00 0. -1.
         21    1    1    2  503  501  0.50310216157E+02 -0.55995535596E+02  0.10011628306E+04  0.10039888601E+04  0.00000000000E+00 0.  1.
         21    1    1    2  504  502  0.10721629106E+02  0.11374111293E+03 -0.31661050877E+02  0.11855132325E+03  0.00000000000E+00 0. -1.
         21    1    1    2  505  504 -0.45776787491E+02 -0.74371304712E+01  0.21848935716E+03  0.22335716773E+03  0.00000000000E+00 0.  1.
         21    1    1    2  506  503 -0.15255057772E+02 -0.50308446860E+02  0.11986639849E+04  0.11998162381E+04  0.00000000000E+00 0.  1.
<scales pt_clust_3="66.41256" pt_clust_4="14000.00000" pt_clust_5="46.37699" pt_clust_6="112.05293"></scales>
<clustering>
<clus scale="   46.377">  1  5  2 -1</clus>
<clus scale="   66.413">  1  3  2 -1</clus>
<clus scale="  112.053">  1  6  2 -1</clus>
<clus scale="   46.377">  1  3  2 -1</clus>
</clustering>
</event>
<event>
 6    0  0.4582113E+002  0.1467316E+03  0.7546771E-02  0.1204548E+00
         21   -1    0    0  506  501  0.00000000000E+00  0.00000000000E+00  0.10218927121E+04  0.10218927121E+04  0.00000000000E+00 0. -1.
         21   -1    0    0  504  502 -0.00000000000E+00 -0.00000000000E+00 -0.15228047942E+04  0.15228047942E+04  0.00000000000E+00 0. -1.
         21    1    1    2  503  501  0.93883899266E+02 -0.62844987344E+01  0.90600767066E+03  0.91088066219E+03  0.00000000000E+00 0. -1.
         21    1    1    2  504  503 -0.95097406550E+02  0.11222552128E+03 -0.98847528384E+02  0.17722561391E+03  0.00000000000E+00 0. -1.
         21    1    1    2  505  502 -0.56855657493E+02 -0.86443608963E+02 -0.13674039171E+04  0.13713127053E+04  0.00000000000E+00 0. -1.
         21    1    1    2  506  505  0.58069164777E+02 -0.19497413580E+02  0.59331692710E+02  0.85278524812E+02  0.00000000000E+00 0. -1.
<scales pt_clust_3="146.73164" pt_clust_4="14000.00000" pt_clust_5="103.43320" pt_clust_6="61.25502"></scales>
<clustering>
<clus scale="   61.255">  1  6  2 -1</clus>
<clus scale="  103.433">  2  5  1 -1</clus>
<clus scale="  146.732">  1  3  2 -1</clus>
<clus scale="   61.255">  1  3  2 -1</clus>
</clustering>
</event>
<event>
 6    0  0.4582113E+002  0.9738973E+02  0.7546771E-02  0.1285883E+00
         21   -1    0    0  506  501  0.00000000000E+00  0.00000000000E+00  0.16884229273E+03  0.16884229273E+03  0.00000000000E+00 0.  1.
         21   -1    0    0  504  502 -0.00000000000E+00 -0.00000000000E+00 -0.21161695686E+03  0.21161695686E+03  0.00000000000E+00 0.  1.
         21    1    1    2  503  502 -0.13221555877E+02  0.27973703935E+02 -0.55192667604E+01  0.31429285025E+02  0.00000000000E+00 0.  1.
         21    1    1    2  504  505 -0.22417497448E+02 -0.40527376353E+02 -0.39439159443E+02  0.60831404089E+02  0.00000000000E+00 0.  1.
         21    1    1    2  505  501 -0.63512682583E+02 -0.67744570098E+02  0.93128563421E+02  0.13151470242E+03  0.00000000000E+00 0.  1.
         21    1    1    2  506  503  0.99151735907E+02  0.80298242516E+02 -0.90944801350E+02  0.15668385806E+03  0.00000000000E+00 0.  1.
<scales pt_clust_3="30.94087" pt_clust_4="42.12870" pt_clust_5="97.38973" pt_clust_6="14000.00000"></scales>
<clustering>
<clus scale="   30.941">  2  3  1 -1</clus>
<clus scale="   42.129">  2  4  1 -1</clus>
<clus scale="   97.390">  1  5  2 -1</clus>
<clus scale="   97.390">  1  3  2 -1</clus>
</clustering>
</event>
<event>
 6    0  0.4582113E+002  0.1708459E+03  0.7546771E-02  0.1176969E+00
         21   -1    0    0  506  501  0.00000000000E+00  0.00000000000E+00  0.16769418315E+04  0.16769418315E+04  0.00000000000E+00 0. -1.
         21   -1    0    0  505  502 -0.00000000000E+00 -0.00000000000E+00 -0.14130701285E+03  0.14130701285E+03  0.00000000000E+00 0. -1.
         21    1    1    2  503  504  0.37020482648E+01 -0.64189563726E+02 -0.17717874121E+01  0.64320638083E+02  0.00000000000E+00 0. -1.
         21    1    1    2  504  502  0.51710972585E+02 -0.84884817535E+02 -0.60036190366E+02  0.11611977044E+03  0.00000000000E+00 0. -1.
         21    1    1    2  505  501  0.99674577264E+02  0.99072447164E+00  0.19431747755E+03  0.21839250209E+03  0.00000000000E+00 0. -1.
         21    1    1    2  506  503 -0.15508759811E+03  0.14808365679E+03  0.14031253189E+04  0.14194159338E+04  0.00000000000E+00 0. -1.
<scales pt_clust_3="47.20497" pt_clust_4="47.20497" pt_clust_5="99.67950" pt_clust_6="160.44808"></scales>
<clustering>
<clus scale="   47.205">  3  4 -1 -1</clus>
<clus scale="   99.680">  1  5  2 -1</clus>
<clus scale="  160.448">  1  6  2 -1</clus>
<clus scale="   99.680">  1  3  2 -1</clus>
</clustering>
</event>
<event>
 6    0  0.4582113E+002  0.9852117E+02  0.7546771E-02  0.1283437E+00
         21   -1    0    0  505  501  0.00000000000E+00  0.00000000000E+00  0.81430740012E+02  0.81430740012E+02  0.00000000000E+00 0. -1.
         21   -1    0    0  503  502 -0.00000000000E+00 -0.00000000000E+00 -0.57688534054E+03  0.57688534054E+03  0.00000000000E+00 0. -1.
         21    1    1    2  503  501 -0.94711640168E+02  0.10647544379E+03 -0.26284702111E+03  0.29899142366E+03  0.00000000000E+00 0. -1.
         21    1    1    2  504  506  0.20950756678E+01 -0.71228216036E+02  0.19333265020E+02  0.73835108438E+02  0.00000000000E+00 0. -1.
         21    1    1    2  505  504  0.42270883756E+02 -0.18503094782E+02 -0.25103417396E+02  0.52529741052E+02  0.00000000000E+00 0. -1.
         21    1    1    2  506  502  0.50345680744E+02 -0.16744132977E+02 -0.22683742704E+03  0.23295980741E+03  0.00000000000E+00 0. -1.
<scales pt_clust_3="98.52117" pt_clust_4="14000.00000" pt_clust_5="46.14317" pt_clust_6="55.13459"></scales>
<clustering>
<clus scale="   46.143">  1  5  2 -1</clus>
<clus scale="   55.135">  2  6  1 -1</clus>
<clus scale="   98.521">  2  3  1 -1</clus>
<clus scale="   46.143">  1  3  2 -1</clus>
</clustering>
</event>
<event>
 6    0  0.4582113E+002  0.7482155E+02  0.7546771E-02  0.1344425E+00
         21   -1    0    0  506  501  0.00000000000E+00  0.00000000000E+00  0.11579411471E+04  0.11579411471E+04  0.00000000000E+00 0. -1.
         21   -1    0    0  504  502 -0.00000000000E+00 -0.00000000000E+00 -0.70273900799E+02  0.70273900799E+02  0.00000000000E+00 0. -1.
         21    1    1    2  503  501 -0.28310801918E+02  0.63828763122E+02  0.65933259658E+03  0.66301967197E+03  0.00000000000E+00 0. -1.
         21    1    1    2  504  503  0.74954058496E+02  0.18168652151E+02 -0.34883455715E+02  0.84646714577E+02  0.00000000000E+00 0. -1.
         21    1    1    2  505  502 -0.68721497087E+01 -0.58520228151E+02  0.11436172961E+03  0.12864854739E+03  0.00000000000E+00 0. -1.
         21    1    1    2  506  505 -0.39771106869E+02 -0.23477187122E+02  0.34885637586E+03  0.35190011400E+03  0.00000000000E+00 0. -1.
<scales pt_clust_3="14000.00000" pt_clust_4="74.82155" pt_clust_5="63.37035" pt_clust_6="46.18354"></scales>
<clustering>
<clus scale="   46.184">  1  6  2 -1</clus>
<clus scale="   63.370">  1  5  2 -1</clus>
<clus scale="   74.822">  2  4  1 -1</clus>
<clus scale="   46.184">  1  3  2 -1</clus>
</clustering>
</event>
<event>
 6    0  0.4582113E+002  0.7358958E+02  0.7546771E-02  0.1348295E+00
         21   -1    0    0  505  501  0.00000000000E+00  0.00000000000E+00  0.36076477168E+04  0.36076477168E+04  0.00000000000E+00 0.  1.
         21   -1    0    0  503  502 -0.00000000000E+00 -0.00000000000E+00 -0.16712889524E+03  0.16712889524E+03  0.00000000000E+00 0.  1.
         21    1    1    2  503  501  0.76607604551E+01  0.47925197767E+02  0.15343385331E+04  0.15351059397E+04  0.00000000000E+00 0.  1.
         21    1    1    2  504  502  0.33811836042E+02 -0.65917671157E+02 -0.13988741042E+03  0.15829361080E+03  0.00000000000E+00 0.  1.
         21    1    1    2  505  506  0.42305532452E+02 -0.12754803651E+02  0.19490723984E+04  0.19495731988E+04  0.00000000000E+00 0.  1.
         21    1    1    2  506  504 -0.83778128949E+02  0.30747277040E+02  0.96995300454E+02  0.13180386279E+03  0.00000000000E+00 0.  1.
<scales pt_clust_3="59.12863" pt_clust_4="14000.00000" pt_clust_5="44.18646" pt_clust_6="73.58958"></scales>
<clustering>
<clus scale="   44.186">  1  5  2 -1</clus>
<clus scale="   59.129">  1  3  2 -1</clus>
<clus scale="   73.590">  1  6  2 -1</clus>
<clus scale="   44.186">  1  3  2 -1</clus>
</clustering>
</event>
<event>
 6    0  0.4582113E+002  0.9660154E+02  0.7546771E-02  0.1287609E+00
         21   -1    0    0  505  501  0.00000000000E+00  0.00000000000E+00  0.18480300104E+03  0.18480300104E+03  0.00000000000E+00 0.  1.
         21   -1    0    0  506  502 -0.00000000000E+00 -0.00000000000E+00 -0.19393273747E+03  0.19393273747E+03  0.00000000000E+00 0.  1.
         21    1    1    2  503  502  0.29930198305E+02 -0.91552337046E+02 -0.96715393930E+02  0.13649730625E+03  0.00000000000E+00 0.  1.
         21    1    1    2  504  501 -0.23844394339E+02 -0.27951022015E+02  0.39753831725E+02  0.54131154707E+02  0.00000000000E+00 0.  1.
         21    1    1    2  505  503 -0.51754600789E+02  0.10195178799E+02  0.45433567313E+02  0.69618168694E+02  0.00000000000E+00 0.  1.
         21    1    1    2  506  504  0.45668796823E+02  0.10930818026E+03  0.23982584617E+01  0.11848910886E+03  0.00000000000E+00 0.  1.
<scales pt_clust_3="96.60154" pt_clust_4="36.73983" pt_clust_5="61.72175" pt_clust_6="14000.00000"></scales>
<clustering>
<clus scale="   36.740">  1  4  2 -1</clus>
<clus scale="   61.722">  1  5  2 -1</clus>
<clus scale="   96.602">  2  3  1 -1</clus>
<clus scale="   36.740">  1  3  2 -1</clus>
</clustering>
</event>
<event>
 6    0  0.4582113E+002  0.9880657E+02  0.7546771E-02  0.1282826E+00
         21   -1    0    0  504  501  0.00000000000E+00  0.00000000000E+00  0.19615839492E+03  0.19615839492E+03  0.00000000000E+00 0. -1.
         21   -1    0    0  506  502 -0.00000000000E+00 -0.00000000000E+00 -0.27845018580E+03  0.27845018580E+03  0.00000000000E+00 0. -1.
         21    1    1    2  503  501 -0.11105695575E+02  0.36770595447E+02  0.23991686379E+02  0.45288124040E+02  0.00000000000E+00 0. -1.
         21    1    1    2  504  505  0.32923850114E+02  0.64407327179E+02  0.12991557336E+03  0.14869546026E+03  0.00000000000E+00 0. -1.
         21    1    1    2  505  502 -0.62674424161E+02 -0.87978548448E+02 -0.15764090071E+03  0.19109935114E+03  0.00000000000E+00 0. -1.
         21    1    1    2  506  503  0.40856269622E+02 -0.13199374179E+02 -0.78558149912E+02  0.89525645285E+02  0.00000000000E+00 0. -1.
<scales pt_clust_3="38.41111" pt_clust_4="98.80657" pt_clust_5="14000.00000" pt_clust_6="42.20655"></scales>
<clustering>
<clus scale="   38.411">  1  3  2 -1</clus>
<clus scale="   42.207">  2  6  1 -1</clus>
<clus scale="   98.807">  1  4  2 -1</clus>
<clus scale="   38.411">  1  3  2 -1</clus>
</clustering>
</event>
<event>
 6    0  0.4582113E+002  0.1206971E+03  0.7546771E-02  0.1241951E+00
         21   -1    0    0  502  501  0.00000000000E+00  0.00000000000E+00  0.14923420302E+03  0.14923420302E+03  0.00000000000E+00 0. -1.
         21   -1    0    0  504  502 -0.00000000000E+00 -0.00000000000E+00 -0.33494676751E+03  0.33494676751E+03  0.00000000000E+00 0.  1.
         21    1    1    2  503  505  0.10499684506E+03 -0.26006674397E+02 -0.56469934836E+02  0.12202269513E+03  0.00000000000E+00 0.  1.
         21    1    1    2  504  503 -0.17656191476E+02 -0.47385118125E+02 -0.20864935815E+03  0.21468964850E+03  0.00000000000E+00 0.  1.
         21    1    1    2  505  506 -0.68051926087E+02  0.34972066715E+02  0.30536455900E+02  0.82380733387E+02  0.00000000000E+00 0. -1.
         21    1    1    2  506  501 -0.19288727501E+02  0.38419725807E+02  0.48870272584E+02  0.65087893515E+02  0.00000000000E+00 0. -1.
<scales pt_clust_3="110.18606" pt_clust_4="50.56768" pt_clust_5="36.92640" pt_clust_6="36.92640"></scales>
<clustering>
<clus scale="   36.926">  5  6 -1 -1</clus>
<clus scale="   50.568">  2  4  1 -1</clus>
<clus scale="  110.186">  2  3  1 -1</clus>
<clus scale="  120.697">  1  3  2 -1</clus>
</clustering>
</event>
<event>
 6    0  0.4582113E+002  0.7427626E+02  0.7546771E-02  0.1346127E+00
         21   -1    0    0  505  501  0.00000000000E+00  0.00000000000E+00  0.59823973836E+03  0.59823973836E+03  0.00000000000E+00 0.  1.
         21   -1    0    0  503  502 -0.00000000000E+00 -0.00000000000E+00 -0.77635322726E+03  0.77635322726E+03  0.00000000000E+00 0. -1.
         21    1    1    2  503  506  0.58673302829E+02 -0.13687469120E+02 -0.67758776972E+03  0.68026104471E+03  0.00000000000E+00 0. -1.
         21    1    1    2  504  502  0.19302262289E+02 -0.40067383276E+02  0.55490050738E+02  0.71113418305E+02  0.00000000000E+00 0.  1.
         21    1    1    2  505  504  0.41238246209E+02 -0.13063426142E+02  0.47995579015E+03  0.48190124149E+03  0.00000000000E+00 0.  1.
         21    1    1    2  506  501 -0.11921381133E+03  0.66818278538E+02 -0.35971560072E+02  0.14131726112E+03  0.00000000000E+00 0.  1.
<scales pt_clust_3="60.74009" pt_clust_4="14000.00000" pt_clust_5="43.25790" pt_clust_6="74.27626"></scales>
<clustering>
<clus scale="   43.258">  1  5  2 -1</clus>
<clus scale="   60.740">  2  3  1 -1</clus>
<clus scale="   74.276">  2  6  1 -1</clus>
<clus scale="   43.258">  1  3  2 -1</clus>
</clustering>
</event>
<event>
 6    0  0.4582113E+002  0.1195103E+03  0.7546771E-02  0.1243907E+00
         21   -1    0    0  505  501  0.00000000000E+00  0.00000000000E+00  0.29266595133E+03  0.29266595133E+03  0.00000000000E+00 0.  1.
         21   -1    0    0  503  502 -0.00000000000E+00 -0.00000000000E+00 -0.33562852282E+03  0.33562852282E+03  0.00000000000E+00 0.  1.
         21    1    1    2  503  504 -0.58658497582E+02 -0.24106731537E+01 -0.22323320127E+03  0.23082394337E+03  0.00000000000E+00 0.  1.
         21    1    1    2  504  501  0.85423216298E+01 -0.10071659884E+03 -0.67097758327E+02  0.12132153029E+03  0.00000000000E+00 0.  1.
         21    1    1    2  505  506  0.69739843762E+00  0.50229013922E+02  0.95288332448E+02  0.10771864511E+03  0.00000000000E+00 0.  1.
         21    1    1    2  506  502  0.49418777515E+02  0.52898258071E+02  0.15208005567E+03  0.16843035537E+03  0.00000000000E+00 0.  1.
<scales pt_clust_3="58.70801" pt_clust_4="111.18643" pt_clust_5="36.50390" pt_clust_6="36.50390"></scales>
<clustering>
<clus scale="   36.504">  5  6 -1 -1</clus>
<clus scale="   58.708">  2  3  1 -1</clus>
<clus scale="  111.186">  2  4  1 -1</clus>
<clus scale="  119.510">  1  3  2 -1</clus>
</clustering>
</event>
<event>
 6    0  0.4582113E+002  0.7322173E+02  0.7546771E-02  0.1349468E+00
         21   -1    0    0  503  501  0.00000000000E+00  0.00000000000E+00  0.10117490050E+03  0.10117490050E+03  0.00000000000E+00 0. -1.
         21   -1    0    0  505  502 -0.00000000000E+00 -0.00000000000E+00 -0.22309242250E+03  0.22309242250E+03  0.00000000000E+00 0. -1.
         21    1    1    2  503  506 -0.47559031271E+02  0.11774106830E+02  0.34721706212E+02  0.60050711314E+02  0.00000000000E+00 0. -1.
         21    1    1    2  504  501 -0.72658987567E+01  0.37821317219E+02 -0.26813027808E+01  0.38606148545E+02  0.00000000000E+00 0. -1.
         21    1    1    2  505  504 -0.44719332076E+02  0.13209311880E+02 -0.52487790165E+02  0.70208779352E+02  0.00000000000E+00 0. -1.
         21    1    1    2  506  502  0.99544262104E+02 -0.62804735928E+02 -0.10147013527E+03  0.15540168379E+03  0.00000000000E+00 0. -1.
<scales pt_clust_3="14000.00000" pt_clust_4="38.51292" pt_clust_5="48.64886" pt_clust_6="73.22173"></scales>
<clustering>
<clus scale="   38.513">  1  4  2 -1</clus>
<clus scale="   48.649">  2  5  1 -1</clus>
<clus scale="   73.222">  2  6  1 -1</clus>
<clus scale="   38.513">  1  3  2 -1</clus>
</clustering>
</event>
<event>
 6    0  0.4582113E+002  0.8715635E+02  0.7546771E-02  0.1309888E+00
         21   -1    0    0  503  501  0.00000000000E+00  0.00000000000E+00  0.39741110181E+02  0.39741110181E+02  0.00000000000E+00 0. -1.
         21   -1    0    0  505  502 -0.00000000000E+00 -0.00000000000E+00 -0.94865334450E+03  0.94865334450E+03  0.00000000000E+00 0. -1.
         21    1    1    2  503  506  0.33401625988E+02  0.19155314891E+02 -0.15679665807E+02  0.41574591123E+02  0.00000000000E+00 0. -1.
         21    1    1    2  504  501 -0.12560351420E+03 -0.95243777609E+02 -0.32301121671E+03  0.35942157152E+03  0.00000000000E+00 0. -1.
         21    1    1    2  505  504  0.46985977480E+02  0.59750961012E+02 -0.47155395593E+03  0.47764107108E+03  0.00000000000E+00 0. -1.
         21    1    1    2  506  502  0.45215910737E+02  0.16337501706E+02 -0.98667395861E+02  0.10975722095E+03  0.00000000000E+00 0.  1.
<scales pt_clust_3="38.50448" pt_clust_4="87.15635" pt_clust_5="14000.00000" pt_clust_6="55.94212"></scales>
<clustering>
<clus scale="   38.504">  1  3  2 -1</clus>
<clus scale="   55.942">  1  6  2 -1</clus>
<clus scale="   87.156">  1  4  2 -1</clus>
<clus scale="   38.504">  1  3  2 -1</clus>
</clustering>
</event>
<event>
 6    0  0.4582113E+002  0.7710594E+02  0.7546771E-02  0.1337471E+00
         21   -1    0    0  503  501  0.00000000000E+00  0.00000000000E+00  0.10886836662E+04  0.10886836662E+04  0.00000000000E+00 0.  1.
         21   -1    0    0  505  502 -0.00000000000E+00 -0.00000000000E+00 -0.10693861077E+03  0.10693861077E+03  0.00000000000E+00 0. -1.
         21    1    1    2  503  504  0.44897976002E+02  0.24333335249E+01  0.32448757888E+03  0.32758806176E+03  0.00000000000E+00 0.  1.
         21    1    1    2  504  502  0.10861837768E+03  0.65776270136E+01 -0.16235532445E+02  0.11002185992E+03  0.00000000000E+00 0. -1.
         21    1    1    2  505  506 -0.36941958134E+02 -0.65872792412E+01 -0.28047398202E+02  0.46848234379E+02  0.00000000000E+00 0. -1.
         21    1    1    2  506  501 -0.11657439554E+03 -0.24236812973E+01  0.70154040717E+03  0.71116412088E+03  0.00000000000E+00 0.  1.
<scales pt_clust_3="44.13312" pt_clust_4="77.10594" pt_clust_5="37.52467" pt_clust_6="14000.00000"></scales>
<clustering>
<clus scale="   37.525">  2  5  1 -1</clus>
<clus scale="   44.133">  1  3  2 -1</clus>
<clus scale="   77.106">  2  4  1 -1</clus>
<clus scale="   44.133">  1  3  2 -1</clus>
</clustering>
</event>
<event>
 6    0  0.4582113E+002  0.2003318E+03  0.7546771E-02  0.1149459E+00
         21   -1    0    0  502  501  0.00000000000E+00  0.00000000000E+00  0.73362264544E+03  0.73362264544E+03  0.00000000000E+00 0.  1.
         21   -1    0    0  506  502 -0.00000000000E+00 -0.00000000000E+00 -0.15191466536E+03  0.15191466536E+03  0.00000000000E+00 0. -1.
         21    1    1    2  503  501  0.94505154548E+02  0.18172797567E+03  0.54329465271E+03  0.58062497452E+03  0.00000000000E+00 0.  1.
         21    1    1    2  504  505 -0.28976563027E+01 -0.60383904041E+02  0.29832811204E+02  0.67413714507E+02  0.00000000000E+00 0.  1.
         21    1    1    2  505  503 -0.60683009253E+02 -0.97582718041E+02  0.90827873046E+02  0.14647360511E+03  0.00000000000E+00 0.  1.
         21    1    1    2  506  504 -0.30924488993E+02 -0.23761353586E+02 -0.82247356878E+02  0.91025016656E+02  0.00000000000E+00 0. -1.
<scales pt_clust_3="194.78189" pt_clust_4="33.96485" pt_clust_5="33.96485" pt_clust_6="38.99905"></scales>
<clustering>
<clus scale="   33.965">  4  5 -1 -1</clus>
<clus scale="   38.999">  2  6  1 -1</clus>
<clus scale="  194.782">  1  3  2 -1</clus>
<clus scale="  194.782">  1  3  2 -1</clus>
</clustering>
</event>
<event>
 6    0  0.4582113E+002  0.8217866E+02  0.7546771E-02  0.1322980E+00
         21   -1    0    0  503  501  0.00000000000E+00  0.00000000000E+00  0.97447368517E+03  0.97447368517E+03  0.00000000000E+00 0.  1.
         21   -1    0    0  505  502 -0.00000000000E+00 -0.00000000000E+00 -0.15984687203E+03  0.15984687203E+03  0.00000000000E+00 0.  1.
         21    1    1    2  503  504 -0.69907496322E+02 -0.13453767806E+02  0.89928554974E+02  0.11469615037E+03  0.00000000000E+00 0. -1.
         21    1    1    2  504  502  0.47613910517E+02 -0.15244159129E+02 -0.20115775184E+02  0.53889825325E+02  0.00000000000E+00 0.  1.
         21    1    1    2  505  506 -0.49498478825E+02  0.79278040989E+02 -0.87959533560E+02  0.12834323797E+03  0.00000000000E+00 0.  1.
         21    1    1    2  506  501  0.71792064630E+02 -0.50580114053E+02  0.83277356690E+03  0.83739134353E+03  0.00000000000E+00 0.  1.
<scales pt_clust_3="14000.00000" pt_clust_4="49.99469" pt_clust_5="66.29187" pt_clust_6="82.17866"></scales>
<clustering>
<clus scale="   49.995">  2  4  1 -1</clus>
<clus scale="   66.292">  2  5  1 -1</clus>
<clus scale="   82.179">  1  6  2 -1</clus>
<clus scale="   82.179">  1  3  2 -1</clus>
</clustering>
</event>
<event>
 6    0  0.4582113E+002  0.7842823E+02  0.7546771E-02  0.1333572E+00
         21   -1    0    0  504  501  0.00000000000E+00  0.00000000000E+00  0.11715056492E+03  0.11715056492E+03  0.00000000000E+00 0.  1.
         21   -1    0    0  503  502 -0.00000000000E+00 -0.00000000000E+00 -0.74328355980E+03  0.74328355980E+03  0.00000000000E+00 0.  1.
         21    1    1    2  503  505  0.22607890512E+02 -0.23476907421E+02 -0.51033597249E+02  0.60553364429E+02  0.00000000000E+00 0.  1.
         21    1    1    2  504  506 -0.74257194395E+02  0.81099288145E+02 -0.28094069909E+03  0.30169339048E+03  0.00000000000E+00 0.  1.
         21    1    1    2  505  501  0.78250538284E+02 -0.38125011992E+01  0.84250376975E+02  0.11504698139E+03  0.00000000000E+00 0.  1.
         21    1    1    2  506  502 -0.26601234401E+02 -0.53809879525E+02 -0.37840907551E+03  0.38314038842E+03  0.00000000000E+00 0.  1.
<scales pt_clust_3="32.59267" pt_clust_4="14000.00000" pt_clust_5="78.42823" pt_clust_6="68.28024"></scales>
<clustering>
<clus scale="   32.593">  2  3  1 -1</clus>
<clus scale="   68.280">  2  6  1 -1</clus>
<clus scale="   78.428">  1  5  2 -1</clus>
<clus scale="   78.428">  1  3  2 -1</clus>
</clustering>
</event>
<event>
 6    0  0.4582113E+002  0.1269281E+03  0.7546771E-02  0.1232086E+00
         21   -1    0    0  505  501  0.00000000000E+00  0.00000000000E+00  0.21273510015E+02  0.21273510015E+02  0.00000000000E+00 0.  1.
         21   -1    0    0  506  502 -0.00000000000E+00 -0.00000000000E+00 -0.11133111886E+04  0.11133111886E+04  0.00000000000E+00 0.  1.
         21    1    1    2  503  504  0.57023537792E+02  0.47642457633E+02 -0.30077284423E+03  0.30981573791E+03  0.00000000000E+00 0.  1.
         21    1    1    2  504  501 -0.22249744087E+01  0.36964078787E+02 -0.12292977908E+03  0.12838623063E+03  0.00000000000E+00 0. -1.
         21    1    1    2  505  502 -0.97391932208E+02 -0.89458471087E+02 -0.33266043083E+03  0.35798179946E+03  0.00000000000E+00 0.  1.
         21    1    1    2  506  503  0.42593368825E+02  0.48519346671E+01 -0.33567462450E+03  0.33840093066E+03  0.00000000000E+00 0.  1.
<scales pt_clust_3="34.11898" pt_clust_4="34.11898" pt_clust_5="117.36630" pt_clust_6="42.86883"></scales>
<clustering>
<clus scale="   34.119">  3  4 -1 -1</clus>
<clus scale="   42.869">  2  6  1 -1</clus>
<clus scale="  117.366">  1  5  2 -1</clus>
<clus scale="  117.366">  1  3  2 -1</clus>
</clustering>
</event>
<event>
 6    0  0.4582113E+002  0.1062708E+03  0.7546771E-02  0.1267636E+00
         21   -1    0    0  505  501  0.00000000000E+00  0.00000000000E+00  0.48097675111E+03  0.48097675111E+03  0.00000000000E+00 0. -1.
         21   -1    0    0  504  502 -0.00000000000E+00 -0.00000000000E+00 -0.45503942829E+03  0.45503942829E+03  0.00000000000E+00 0. -1.
         21    1    1    2  503  506  0.77373239443E+02  0.68252807937E+02  0.99881498727E+02  0.14360145459E+03  0.00000000000E+00 0.  1.
         21    1    1    2  504  501  0.38411025431E+02 -0.67524307091E+02 -0.38567574556E+03  0.39342180879E+03  0.00000000000E+00 0. -1.
         21    1    1    2  505  503 -0.10447356330E+03 -0.34295224839E+02  0.33764903493E+03  0.35510246220E+03  0.00000000000E+00 0. -1.
         21    1    1    2  506  502 -0.11310701578E+02  0.33566723992E+02 -0.25917465276E+02  0.43890453815E+02  0.00000000000E+00 0. -1.
<scales pt_clust_3="14000.00000" pt_clust_4="45.87801" pt_clust_5="106.27084" pt_clust_6="35.42114"></scales>
<clustering>
<clus scale="   35.421">  2  6  1 -1</clus>
<clus scale="   45.878">  2  4  1 -1</clus>
<clus scale="  106.271">  1  5  2 -1</clus>
<clus scale="  106.271">  1  3  2 -1</clus>
</clustering>
</event>
<event>
 6    0  0.4902684E+002  0.1177599E+03  0.7546771E-02  0.1246839E+00
         21   -1    0    0  505  501  0.00000000000E+00  0.00000000000E+00  0.13615857027E+04  0.13615857027E+04  0.00000000000E+00 0. -1.
         21   -1    0    0  506  502 -0.00000000000E+00 -0.00000000000E+00 -0.22486768016E+03  0.22486768016E+03  0.00000000000E+00 0.  1.
         21    1    1    2  503  504 -0.28808776307E+02 -0.63902350011E+02  0.23700505333E+03  0.24715349731E+03  0.00000000000E+00 0.  1.
         21    1    1    2  504  502  0.74988063645E+02  0.95458117032E+02 -0.19036708658E+03  0.22577663619E+03  0.00000000000E+00 0.  1.
         21    1    1    2  505  503 -0.36028427971E+02  0.21003804942E+02  0.10380020126E+04  0.10388394416E+04  0.00000000000E+00 0. -1.
         21    1    1    2  506  501 -0.10150859366E+02 -0.52559571963E+02  0.52078043273E+02  0.74683807763E+02  0.00000000000E+00 0. -1.
<scales pt_clust_3="14000.00000" pt_clust_4="117.75994" pt_clust_5="41.70381" pt_clust_6="51.40890"></scales>
<clustering>
<clus scale="   41.704">  1  5  2 -1</clus>
<clus scale="   51.409">  1  6  2 -1</clus>
<clus scale="  117.760">  2  4  1 -1</clus>
<clus scale="   41.704">  1  3  2 -1</clus>
</clustering>
</event>
<event>
 6    0  0.4582113E+002  0.8697763E+02  0.7546771E-02  0.1310340E+00
         21   -1    0    0  504  501  0.00000000000E+00  0.00000000000E+00  0.91782675192E+02  0.91782675192E+02  0.00000000000E+00 0. -1.
         21   -1    0    0  505  502 -0.00000000000E+00 -0.00000000000E+00 -0.32139739759E+03  0.32139739759E+03  0.00000000000E+00 0. -1.
         21    1    1    2  503  501 -0.77088859369E+01 -0.80643496805E+02 -0.67710815977E+00  0.81013943089E+02  0.00000000000E+00 0. -1.
         21    1    1    2  504  506  0.83161256160E+02  0.84082089874E+02 -0.61914285434E+02  0.13348771893E+03  0.00000000000E+00 0. -1.
         21    1    1    2  505  503 -0.32825541706E+02  0.96048431555E+01 -0.14495858662E+03  0.14893878284E+03  0.00000000000E+00 0. -1.
         21    1    1    2  506  502 -0.42626828517E+02 -0.13043436224E+02 -0.22064742183E+02  0.49739627919E+02  0.00000000000E+00 0. -1.
<scales pt_clust_3="86.97763" pt_clust_4="14000.00000" pt_clust_5="34.20189" pt_clust_6="50.60729"></scales>
<clustering>
<clus scale="   34.202">  2  5  1 -1</clus>
<clus scale="   50.607">  2  6  1 -1</clus>
<clus scale="   86.978">  1  3  2 -1</clus>
<clus scale="   86.978">  1  3  2 -1</clus>
</clustering>
</event>
<event>
 6    0  0.4582113E+002  0.1995481E+03  0.7546771E-02  0.1150121E+00
         21   -1    0    0  504  501  0.00000000000E+00  0.00000000000E+00  0.11521580627E+03  0.11521580627E+03  0.00000000000E+00 0.  1.
         21   -1    0    0  505  502 -0.00000000000E+00 -0.00000000000E+00 -0.48194526016E+03  0.48194526016E+03  0.00000000000E+00 0. -1.
         21    1    1    2  503  501  0.91956500166E+02  0.98970488711E+02 -0.54241717162E+02  0.14557925484E+03  0.00000000000E+00 0.  1.
         21    1    1    2  504  502 -0.91982970994E+02 -0.15480498199E+03 -0.26620491604E+03  0.32138840478E+03  0.00000000000E+00 0. -1.
         21    1    1    2  505  506 -0.34572050197E+02  0.21216380161E+01 -0.55720387141E+02  0.65608608778E+02  0.00000000000E+00 0. -1.
         21    1    1    2  506  503  0.34598521024E+02  0.53712855264E+02  0.94375664535E+01  0.64584798042E+02  0.00000000000E+00 0.  1.
<scales pt_clust_3="36.99343" pt_clust_4="192.31820" pt_clust_5="34.63709" pt_clust_6="36.99343"></scales>
<clustering>
<clus scale="   34.637">  2  5  1 -1</clus>
<clus scale="   36.993">  3  6 -1 -1</clus>
<clus scale="  192.318">  2  4  1 -1</clus>
<clus scale="  199.548">  1  3  2 -1</clus>
</clustering>
</event>
<event>
 6    0  0.4582113E+002  0.2444627E+03  0.7546771E-02  0.1116855E+00
         21   -1    0    0  506  501  0.00000000000E+00  0.00000000000E+00  0.71428822724E+03  0.71428822724E+03  0.00000000000E+00 0. -1.
         21   -1    0    0  504  502 -0.00000000000E+00 -0.00000000000E+00 -0.55721658374E+03  0.55721658374E+03  0.00000000000E+00 0.  1.
         21    1    1    2  503  505  0.82630488332E+02  0.82672556286E+02 -0.30683986066E+01  0.11692717492E+03  0.00000000000E+00 0.  1.
         21    1    1    2  504  501 -0.21461978966E+03 -0.15589874891E+03  0.57350403576E+03  0.63188048954E+03  0.00000000000E+00 0. -1.
         21    1    1    2  505  502  0.94314660336E+02  0.27997588415E+02 -0.44508585327E+03  0.45582950420E+03  0.00000000000E+00 0.  1.
         21    1    1    2  506  503  0.37674640995E+02  0.45228604206E+02  0.31721859619E+02  0.66867642326E+02  0.00000000000E+00 0. -1.
<scales pt_clust_3="32.73227" pt_clust_4="240.07196" pt_clust_5="98.38252" pt_clust_6="32.73227"></scales>
<clustering>
<clus scale="   32.732">  3  6 -1 -1</clus>
<clus scale="   98.383">  2  5  1 -1</clus>
<clus scale="  240.072">  1  4  2 -1</clus>
<clus scale="  240.072">  1  3  2 -1</clus>
</clustering>
</event>
<event>
 6    0  0.4582113E+002  0.7511665E+02  0.7546771E-02  0.1343510E+00
         21   -1    0    0  505  501  0.00000000000E+00  0.00000000000E+00  0.51661216978E+03  0.51661216978E+03  0.00000000000E+00 0.  1.
         21   -1    0    0  503  502 -0.00000000000E+00 -0.00000000000E+00 -0.23472169329E+03  0.23472169329E+03  0.00000000000E+00 0.  1.
         21    1    1    2  503  506 -0.54459000769E+02 -0.23426176908E+02 -0.85322359026E+02  0.10389645557E+03  0.00000000000E+00 0.  1.
         21    1    1    2  504  502  0.11062402970E+03  0.49011378703E+02 -0.10910699450E+03  0.16292368593E+03  0.00000000000E+00 0.  1.
         21    1    1    2  505  504 -0.30836701182E+02  0.15820285167E+02  0.12005127038E+03  0.12495395585E+03  0.00000000000E+00 0.  1.
         21    1    1    2  506  501 -0.25328327747E+02 -0.41405486962E+02  0.35626855963E+03  0.35955976572E+03  0.00000000000E+00 0.  1.
<scales pt_clust_3="14000.00000" pt_clust_4="75.11665" pt_clust_5="34.65810" pt_clust_6="59.79520"></scales>
<clustering>
<clus scale="   34.658">  1  5  2 -1</clus>
<clus scale="   59.795">  1  6  2 -1</clus>
<clus scale="   75.117">  1  4  2 -1</clus>
<clus scale="   34.658">  1  3  2 -1</clus>
</clustering>
</event>
<event>
 6    0  0.4582113E+002  0.1562613E+03  0.7546771E-02  0.1192984E+00
         21   -1    0    0  505  501  0.00000000000E+00  0.00000000000E+00  0.29322622240E+02  0.29322622240E+02  0.00000000000E+00 0.  1.
         21   -1    0    0  504  502 -0.00000000000E+00 -0.00000000000E+00 -0.15172185819E+04  0.15172185819E+04  0.00000000000E+00 0.  1.
         21    1    1    2  503  501  0.42508157135E+02 -0.95382131367E+01 -0.80613199893E+02  0.91631920911E+02  0.00000000000E+00 0.  1.
         21    1    1    2  504  506  0.16632746721E+02 -0.66360039040E+02 -0.16832885433E+03  0.18170004470E+03  0.00000000000E+00 0.  1.
         21    1    1    2  505  502 -0.66618805898E+02  0.14084617814E+03 -0.11612729938E+04  0.11716785725E+04  0.00000000000E+00 0.  1.
         21    1    1    2  506  503  0.74779020417E+01 -0.64947925968E+02 -0.77680911673E+02  0.10153066603E+03  0.00000000000E+00 0.  1.
<scales pt_clust_3="43.56513" pt_clust_4="42.33783" pt_clust_5="150.13947" pt_clust_6="42.33783"></scales>
<clustering>
<clus scale="   42.338">  4  6 -1 -1</clus>
<clus scale="   43.565">  1  3  2 -1</clus>
<clus scale="  150.139">  2  5  1 -1</clus>
<clus scale="   43.565">  1  3  2 -1</clus>
</clustering>
</event>
<event>
 6    0  0.4582113E+002  0.1086506E+03  0.7546771E-02  0.1263089E+00
         21   -1    0    0  505  501  0.00000000000E+00  0.00000000000E+00  0.20770176420E+03  0.20770176420E+03  0.00000000000E+00 0. -1.
         21   -1    0    0  504  502 -0.00000000000E+00 -0.00000000000E+00 -0.61318122009E+03  0.61318122009E+03  0.00000000000E+00 0. -1.
         21    1    1    2  503  506  0.58453725559E+02 -0.53777354822E+02 -0.10663566582E+01  0.79435376501E+02  0.00000000000E+00 0.  1.
         21    1    1    2  504  503  0.10297204157E+02 -0.28637661450E+02 -0.86229159937E+02  0.91441872740E+02  0.00000000000E+00 0.  1.
         21    1    1    2  505  502  0.32395581374E+02  0.66830910835E+01 -0.45935558183E+03  0.46054499015E+03  0.00000000000E+00 0. -1.
         21    1    1    2  506  501 -0.10114651109E+03  0.75731925188E+02  0.14117164254E+03  0.18946074489E+03  0.00000000000E+00 0. -1.
<scales pt_clust_3="108.65065" pt_clust_4="30.43268" pt_clust_5="45.34575" pt_clust_6="14000.00000"></scales>
<clustering>
<clus scale="   30.433">  2  4  1 -1</clus>
<clus scale="   45.346">  2  5  1 -1</clus>
<clus scale="  108.651">  2  3  1 -1</clus>
<clus scale="  108.651">  1  3  2 -1</clus>
</clustering>
</event>
<event>
 6    0  0.4582113E+002  0.1963517E+03  0.7546771E-02  0.1152854E+00
         21   -1    0    0  502  501  0.00000000000E+00  0.00000000000E+00  0.72652709953E+03  0.72652709953E+03  0.00000000000E+00 0. -1.
         21   -1    0    0  503  502 -0.00000000000E+00 -0.00000000000E+00 -0.16982625013E+03  0.16982625013E+03  0.00000000000E+00 0. -1.
         21    1    1    2  503  505 -0.29218702529E+02  0.25601577683E+02 -0.35027476678E+02  0.52307719122E+02  0.00000000000E+00 0. -1.
         21    1    1    2  504  501  0.76304499777E+02  0.29702892147E+02  0.28665111609E+03  0.29811658935E+03  0.00000000000E+00 0.  1.
         21    1    1    2  505  506 -0.97617809411E+02 -0.15752788679E+03 -0.33801284557E+02  0.18837940086E+03  0.00000000000E+00 0. -1.
         21    1    1    2  506  504  0.50532012162E+02  0.10222341696E+03  0.33887849455E+03  0.35754964032E+03  0.00000000000E+00 0. -1.
<scales pt_clust_3="38.84808" pt_clust_4="60.12674" pt_clust_5="182.85271" pt_clust_6="60.12674"></scales>
<clustering>
<clus scale="   38.848">  2  3  1 -1</clus>
<clus scale="   60.127">  4  6 -1 -1</clus>
<clus scale="  182.853">  2  5  1 -1</clus>
<clus scale="  196.352">  1  3  2 -1</clus>
</clustering>
</event>
<event>
 6    0  0.4582113E+002  0.1056837E+03  0.7546771E-02  0.1268778E+00
         21   -1    0    0  504  501  0.00000000000E+00  0.00000000000E+00  0.80535808587E+03  0.80535808587E+03  0.00000000000E+00 0.  1.
         21   -1    0    0  506  502 -0.00000000000E+00 -0.00000000000E+00 -0.17899042763E+03  0.17899042763E+03  0.00000000000E+00 0.  1.
         21    1    1    2  503  502 -0.38757320257E+02 -0.14606881026E+02 -0.10157686080E+01  0.41430938110E+02  0.00000000000E+00 0.  1.
         21    1    1    2  504  505  0.37193987196E+01  0.52224531307E+02  0.66995827205E+03  0.67200098355E+03  0.00000000000E+00 0.  1.
         21    1    1    2  505  503 -0.30837129524E+02  0.66616351881E+02  0.71835574709E+02  0.10270840613E+03  0.00000000000E+00 0.  1.
         21    1    1    2  506  501  0.65875051062E+02 -0.10423400216E+03 -0.11441041991E+03  0.16820818572E+03  0.00000000000E+00 0.  1.
<scales pt_clust_3="41.41848" pt_clust_4="52.24523" pt_clust_5="14000.00000" pt_clust_6="105.68365"></scales>
<clustering>
<clus scale="   41.418">  2  3  1 -1</clus>
<clus scale="   52.245">  1  4  2 -1</clus>
<clus scale="  105.684">  2  6  1 -1</clus>
<clus scale="   52.245">  1  3  2 -1</clus>
</clustering>
</event>
<event>
 6    0  0.4582113E+002  0.1678472E+03  0.7546771E-02  0.1180112E+00
         21   -1    0    0  503  501  0.00000000000E+00  0.00000000000E+00  0.71364377099E+03  0.71364377099E+03  0.00000000000E+00 0.  1.
         21   -1    0    0  504  502 -0.00000000000E+00 -0.00000000000E+00 -0.12077380187E+03  0.12077380187E+03  0.00000000000E+00 0. -1.
         21    1    1    2  503  506 -0.79114257651E+02  0.31364649938E+02  0.40027743040E+03  0.40922466729E+03  0.00000000000E+00 0.  1.
         21    1    1    2  504  505  0.10025515950E+03 -0.63153038848E+02 -0.28309447639E+02  0.12182293769E+03  0.00000000000E+00 0. -1.
         21    1    1    2  505  501  0.42026925727E+02 -0.53014672085E+02  0.11278997704E+02  0.68585958705E+02  0.00000000000E+00 0. -1.
         21    1    1    2  506  502 -0.63167827575E+02  0.84803060995E+02  0.20962298866E+03  0.23478400918E+03  0.00000000000E+00 0.  1.
<scales pt_clust_3="85.10468" pt_clust_4="35.65362" pt_clust_5="35.65362" pt_clust_6="161.07857"></scales>
<clustering>
<clus scale="   35.654">  4  5 -1 -1</clus>
<clus scale="   85.105">  1  3  2 -1</clus>
<clus scale="  161.079">  1  6  2 -1</clus>
<clus scale="   85.105">  1  3  2 -1</clus>
</clustering>
</event>
<event>
 6    0  0.4582113E+002  0.1778660E+03  0.7546771E-02  0.1169884E+00
         21   -1    0    0  505  501  0.00000000000E+00  0.00000000000E+00  0.28019900951E+03  0.28019900951E+03  0.00000000000E+00 0. -1.
         21   -1    0    0  504  502 -0.00000000000E+00 -0.00000000000E+00 -0.48562638188E+03  0.48562638188E+03  0.00000000000E+00 0. -1.
         21    1    1    2  503  501 -0.15244647123E+02 -0.45197470919E+02  0.64881574609E+02  0.80528438251E+02  0.00000000000E+00 0. -1.
         21    1    1    2  504  506  0.40419182370E+02  0.49949773504E+02 -0.28330106641E+02  0.70223109578E+02  0.00000000000E+00 0.  1.
         21    1    1    2  505  502  0.87314367585E+02  0.68882262484E+02 -0.39559604465E+03  0.41093161890E+03  0.00000000000E+00 0. -1.
         21    1    1    2  506  503 -0.11248890283E+03 -0.73634565069E+02  0.15361720430E+03  0.20414222466E+03  0.00000000000E+00 0. -1.
<scales pt_clust_3="31.84708" pt_clust_4="64.25488" pt_clust_5="169.63954" pt_clust_6="31.84708"></scales>
<clustering>
<clus scale="   31.847">  3  6 -1 -1</clus>
<clus scale="   64.255">  2  4  1 -1</clus>
<clus scale="  169.640">  2  5  1 -1</clus>
<clus scale="  177.866">  1  3  2 -1</clus>
</clustering>
</event>
<event>
 6    0  0.4582113E+002  0.6377541E+02  0.7546771E-02  0.1382638E+00
         21   -1    0    0  505  501  0.00000000000E+00  0.00000000000E+00  0.71259177258E+03  0.71259177258E+03  0.00000000000E+00 0.  1.
         21   -1    0    0  503  502 -0.00000000000E+00 -0.00000000000E+00 -0.10643575076E+03  0.10643575076E+03  0.00000000000E+00 0.  1.
         21    1    1    2  503  504 -0.25814421256E+02 -0.42120146209E+02 -0.54685446089E+02  0.73695244591E+02  0.00000000000E+00 0.  1.
         21    1    1    2  504  501 -0.69769586832E+02  0.73338810477E+02  0.54344440776E+03  0.55279128132E+03  0.00000000000E+00 0.  1.
         21    1    1    2  505  506  0.31114501542E+02 -0.23352074998E+02  0.12138928311E+03  0.12747074044E+03  0.00000000000E+00 0.  1.
         21    1    1    2  506  502  0.64469506545E+02 -0.78665892694E+01 -0.39922229647E+01  0.65070256993E+02  0.00000000000E+00 0.  1.
<scales pt_clust_3="49.46430" pt_clust_4="14000.00000" pt_clust_5="38.90285" pt_clust_6="63.77541"></scales>
<clustering>
<clus scale="   38.903">  1  5  2 -1</clus>
<clus scale="   49.464">  2  3  1 -1</clus>
<clus scale="   63.775">  2  6  1 -1</clus>
<clus scale="   38.903">  1  3  2 -1</clus>
</clustering>
</event>
<event>
 6    0  0.4582113E+002  0.1525498E+03  0.7546771E-02  0.1197374E+00
         21   -1    0    0  504  501  0.00000000000E+00  0.00000000000E+00  0.21416268463E+03  0.21416268463E+03  0.00000000000E+00 0.  1.
         21   -1    0    0  505  502 -0.00000000000E+00 -0.00000000000E+00 -0.71845490983E+03  0.71845490983E+03  0.00000000000E+00 0.  1.
         21    1    1    2  503  506 -0.53285824081E+02  0.55701988586E+02 -0.12303902341E+03  0.14519191390E+03  0.00000000000E+00 0.  1.
         21    1    1    2  504  502  0.27009034799E+02  0.16346407653E+02 -0.38857473716E+03  0.38985512612E+03  0.00000000000E+00 0. -1.
         21    1    1    2  505  503 -0.22096225517E+02  0.67642912368E+02 -0.15951175493E+03  0.17466484115E+03  0.00000000000E+00 0.  1.
         21    1    1    2  506  501  0.48373014798E+02 -0.13969130861E+03  0.16683329030E+03  0.22290571328E+03  0.00000000000E+00 0.  1.
<scales pt_clust_3="39.43577" pt_clust_4="31.57045" pt_clust_5="39.43577" pt_clust_6="147.29038"></scales>
<clustering>
<clus scale="   31.570">  2  4  1 -1</clus>
<clus scale="   39.436">  3  5 -1 -1</clus>
<clus scale="  147.290">  1  6  2 -1</clus>
<clus scale="  147.290">  1  3  2 -1</clus>
</clustering>
</event>
<event>
 6    0  0.4582113E+002  0.8843005E+02  0.7546771E-02  0.1306699E+00
         21   -1    0    0  504  501  0.00000000000E+00  0.00000000000E+00  0.48235467344E+02  0.48235467344E+02  0.00000000000E+00 0.  1.
         21   -1    0    0  506  502 -0.00000000000E+00 -0.00000000000E+00 -0.60313184162E+03  0.60313184162E+03  0.00000000000E+00 0.  1.
         21    1    1    2  503  501 -0.18479211425E+02  0.44289984942E+02 -0.25710410469E+02  0.54443633489E+02  0.00000000000E+00 0.  1.
         21    1    1    2  504  505  0.66791911275E+02 -0.95864913885E+02 -0.30181843826E+03  0.32364426582E+03  0.00000000000E+00 0.  1.
         21    1    1    2  505  502  0.34631035896E+02  0.57516009917E+02 -0.11964523301E+03  0.13719468585E+03  0.00000000000E+00 0.  1.
         21    1    1    2  506  503 -0.82943735745E+02 -0.59410809739E+01 -0.10772229254E+03  0.13608472380E+03  0.00000000000E+00 0.  1.
<scales pt_clust_3="47.99046" pt_clust_4="88.43005" pt_clust_5="75.16874" pt_clust_6="14000.00000"></scales>
<clustering>
<clus scale="   47.990">  1  3  2 -1</clus>
<clus scale="   75.169">  2  5  1 -1</clus>
<clus scale="   88.430">  2  4  1 -1</clus>
<clus scale="   47.990">  1  3  2 -1</clus>
</clustering>
</event>
<event>
 6    0  0.4582113E+002  0.2544764E+03  0.7546771E-02  0.1110508E+00
         21   -1    0    0  504  501  0.00000000000E+00  0.00000000000E+00  0.25592946952E+03  0.25592946952E+03  0.00000000000E+00 0.  1.
         21   -1    0    0  503  502 -0.00000000000E+00 -0.00000000000E+00 -0.56255921030E+03  0.56255921030E+03  0.00000000000E+00 0.  1.
         21    1    1    2  503  506  0.26613616222E+02  0.18637844901E+03  0.12257417357E+03  0.22465448772E+03  0.00000000000E+00 0.  1.
         21    1    1    2  504  505 -0.34618900377E+02 -0.14577613528E+03 -0.31723759487E+03  0.35084019365E+03  0.00000000000E+00 0.  1.
         21    1    1    2  505  502 -0.65500004959E+02 -0.83991768044E+02 -0.11607608816E+03  0.15753896658E+03  0.00000000000E+00 0.  1.
         21    1    1    2  506  501  0.73505289114E+02  0.43389454316E+02  0.41097686850E+01  0.85455031872E+02  0.00000000000E+00 0.  1.
<scales pt_clust_3="238.50931" pt_clust_4="74.80484" pt_clust_5="74.80484" pt_clust_6="85.35615"></scales>
<clustering>
<clus scale="   74.805">  4  5 -1 -1</clus>
<clus scale="   85.356">  1  6  2 -1</clus>
<clus scale="  238.509">  1  3  2 -1</clus>
<clus scale="   85.356">  1  3  2 -1</clus>
</clustering>
</event>
<event>
 6    0  0.4582113E+002  0.1372670E+03  0.7546771E-02  0.1217054E+00
         21   -1    0    0  504  501  0.00000000000E+00  0.00000000000E+00  0.11450514060E+03  0.11450514060E+03  0.00000000000E+00 0. -1.
         21   -1    0    0  505  502 -0.00000000000E+00 -0.00000000000E+00 -0.23476740640E+03  0.23476740640E+03  0.00000000000E+00 0. -1.
         21    1    1    2  503  501 -0.98077352794E+02  0.19401285462E+01 -0.12428401016E+01  0.98104413160E+02  0.00000000000E+00 0. -1.
         21    1    1    2  504  506  0.14655824215E+02 -0.30117538537E+02  0.46350073570E+01  0.33813349497E+02  0.00000000000E+00 0.  1.
         21    1    1    2  505  503 -0.36754514380E+02  0.36802644777E+02 -0.12648376897E+02  0.53528594489E+02  0.00000000000E+00 0.  1.
         21    1    1    2  506  502  0.12017604296E+03 -0.86252347857E+01 -0.11100605616E+03  0.16382618985E+03  0.00000000000E+00 0. -1.
<scales pt_clust_3="39.26367" pt_clust_4="33.49417" pt_clust_5="39.26367" pt_clust_6="125.39243"></scales>
<clustering>
<clus scale="   33.494">  1  4  2 -1</clus>
<clus scale="   39.264">  3  5 -1 -1</clus>
<clus scale="  125.392">  2  6  1 -1</clus>
<clus scale="   33.494">  1  3  2 -1</clus>
</clustering>
</event>
<event>
 6    0  0.4582113E+002  0.8158463E+02  0.7546771E-02  0.1324614E+00
         21   -1    0    0  505  501  0.00000000000E+00  0.00000000000E+00  0.80587338409E+03  0.80587338409E+03  0.00000000000E+00 0. -1.
         21   -1    0    0  503  502 -0.00000000000E+00 -0.00000000000E+00 -0.75323383382E+03  0.75323383382E+03  0.00000000000E+00 0.  1.
         21    1    1    2  503  504 -0.76244956944E+02  0.35434923797E+02  0.64963538253E+02  0.10625059335E+03  0.00000000000E+00 0.  1.
         21    1    1    2  504  501 -0.72234105451E+02 -0.37663835649E+02  0.66344709773E+03  0.66842978838E+03  0.00000000000E+00 0. -1.
         21    1    1    2  505  506  0.82769619471E+02  0.21012976850E+02  0.18021696749E+02  0.87276208998E+02  0.00000000000E+00 0. -1.
         21    1    1    2  506  502  0.65709442925E+02 -0.18784064997E+02 -0.69379278246E+03  0.69715062718E+03  0.00000000000E+00 0.  1.
<scales pt_clust_3="60.07225" pt_clust_4="81.58463" pt_clust_5="14000.00000" pt_clust_6="68.34158"></scales>
<clustering>
<clus scale="   68.342">  2  6  1 -1</clus>
<clus scale="   60.072">  2  3  1 -1</clus>
<clus scale="   81.585">  1  4  2 -1</clus>
<clus scale="   81.585">  1  3  2 -1</clus>
</clustering>
</event>
<event>
 6    0  0.4582113E+002  0.2924456E+03  0.7546771E-02  0.1089079E+00
         21   -1    0    0  503  501  0.00000000000E+00  0.00000000000E+00  0.23149895386E+03  0.23149895386E+03  0.00000000000E+00 0.  1.
         21   -1    0    0  506  502 -0.00000000000E+00 -0.00000000000E+00 -0.10942319483E+04  0.10942319483E+04  0.00000000000E+00 0. -1.
         21    1    1    2  503  505  0.33845643874E+02 -0.77891285412E+01  0.57902808902E+02  0.67519874196E+02  0.00000000000E+00 0.  1.
         21    1    1    2  504  501  0.66272214603E+02  0.51745669301E+02  0.36356422173E+02  0.91604640455E+02  0.00000000000E+00 0.  1.
         21    1    1    2  505  502  0.17798794635E+02  0.24593216772E+03 -0.12243204443E+03  0.27529808157E+03  0.00000000000E+00 0.  1.
         21    1    1    2  506  504 -0.11791665311E+03 -0.28988870848E+03 -0.83456018111E+03  0.89130830596E+03  0.00000000000E+00 0. -1.
<scales pt_clust_3="34.73036" pt_clust_4="92.94005" pt_clust_5="292.44563" pt_clust_6="14000.00000"></scales>
<clustering>
<clus scale="   34.730">  1  3  2 -1</clus>
<clus scale="   92.940">  1  4  2 -1</clus>
<clus scale="  292.446">  1  5  2 -1</clus>
<clus scale="   34.730">  1  3  2 -1</clus>
</clustering>
</event>
<event>
 6    0  0.4582113E+002  0.2808888E+03  0.7546771E-02  0.1095204E+00
         21   -1    0    0  506  501  0.00000000000E+00  0.00000000000E+00  0.12939069185E+04  0.12939069185E+04  0.00000000000E+00 0.  1.
         21   -1    0    0  504  502 -0.00000000000E+00 -0.00000000000E+00 -0.39303568651E+03  0.39303568651E+03  0.00000000000E+00 0. -1.
         21    1    1    2  503  501  0.24338542566E+03  0.10012560892E+03  0.92013801857E+03  0.95703478317E+03  0.00000000000E+00 0.  1.
         21    1    1    2  504  503  0.37937126179E+02  0.10627146896E+02 -0.30511762344E+03  0.30765065566E+03  0.00000000000E+00 0. -1.
         21    1    1    2  505  502 -0.11043576738E+03 -0.78969375506E+02  0.14394572223E+03  0.19787013906E+03  0.00000000000E+00 0. -1.
         21    1    1    2  506  505 -0.17088678447E+03 -0.31783380314E+02  0.14190511459E+03  0.22438702707E+03  0.00000000000E+00 0. -1.
<scales pt_clust_3="271.50811" pt_clust_4="39.39748" pt_clust_5="64.43473" pt_clust_6="64.43473"></scales>
<clustering>
<clus scale="   39.397">  2  4  1 -1</clus>
<clus scale="   64.435">  5  6 -1 -1</clus>
<clus scale="  271.508">  1  3  2 -1</clus>
<clus scale="  271.508">  1  3  2 -1</clus>
</clustering>
</event>
<event>
 6    0  0.4582113E+002  0.8517460E+02  0.7546771E-02  0.1314977E+00
         21   -1    0    0  504  501  0.00000000000E+00  0.00000000000E+00  0.29688644426E+03  0.29688644426E+03  0.00000000000E+00 0. -1.
         21   -1    0    0  506  502 -0.00000000000E+00 -0.00000000000E+00 -0.31432320290E+03  0.31432320290E+03  0.00000000000E+00 0. -1.
         21    1    1    2  503  501 -0.42171881180E+02  0.53005784947E+02  0.74025551160E+02  0.10033874139E+03  0.00000000000E+00 0. -1.
         21    1    1    2  504  505  0.34464127049E+02  0.34507187640E+02  0.47025167932E+02  0.67748715642E+02  0.00000000000E+00 0. -1.
         21    1    1    2  505  502  0.58767813377E+02 -0.89589901339E+02  0.13076983034E+03  0.16905843617E+03  0.00000000000E+00 0. -1.
         21    1    1    2  506  503 -0.51060059246E+02  0.20769287527E+01 -0.26925730808E+03  0.27406375396E+03  0.00000000000E+00 0. -1.
<scales pt_clust_3="85.17460" pt_clust_4="48.77009" pt_clust_5="14000.00000" pt_clust_6="50.77209"></scales>
<clustering>
<clus scale="   48.770">  1  4  2 -1</clus>
<clus scale="   50.772">  2  6  1 -1</clus>
<clus scale="   85.175">  1  3  2 -1</clus>
<clus scale="   48.770">  1  3  2 -1</clus>
</clustering>
</event>
<event>
 6    0  0.4582113E+002  0.1910562E+03  0.7546771E-02  0.1157512E+00
         21   -1    0    0  504  501  0.00000000000E+00  0.00000000000E+00  0.62051320158E+03  0.62051320158E+03  0.00000000000E+00 0. -1.
         21   -1    0    0  505  502 -0.00000000000E+00 -0.00000000000E+00 -0.38081549940E+03  0.38081549940E+03  0.00000000000E+00 0. -1.
         21    1    1    2  503  502  0.18041431825E+02  0.73422650298E+02 -0.31674297773E+03  0.32564166315E+03  0.00000000000E+00 0. -1.
         21    1    1    2  504  506 -0.50014894953E+01 -0.15754199466E+03  0.34069601029E+03  0.37539081822E+03  0.00000000000E+00 0. -1.
         21    1    1    2  505  501 -0.23268954356E+02  0.14480421034E+03  0.14063229993E+03  0.20319238999E+03  0.00000000000E+00 0. -1.
         21    1    1    2  506  503  0.10229012027E+02 -0.60684865979E+02  0.75112369689E+02  0.97103829617E+02  0.00000000000E+00 0. -1.
<scales pt_clust_3="75.60674" pt_clust_4="32.49387" pt_clust_5="183.84282" pt_clust_6="32.49387"></scales>
<clustering>
<clus scale="   32.494">  4  6 -1 -1</clus>
<clus scale="   75.607">  2  3  1 -1</clus>
<clus scale="  183.843">  2  5  1 -1</clus>
<clus scale="  191.056">  1  3  2 -1</clus>
</clustering>
</event>
<event>
 6    0  0.4582113E+002  0.9454579E+02  0.7546771E-02  0.1292202E+00
         21   -1    0    0  503  501  0.00000000000E+00  0.00000000000E+00  0.93499077632E+02  0.93499077632E+02  0.00000000000E+00 0. -1.
         21   -1    0    0  506  502 -0.00000000000E+00 -0.00000000000E+00 -0.83434126119E+03  0.83434126119E+03  0.00000000000E+00 0. -1.
         21    1    1    2  503  502 -0.44844044205E+02 -0.15244279032E+02 -0.47452766798E+03  0.47688560895E+03  0.00000000000E+00 0. -1.
         21    1    1    2  504  501 -0.10936127277E+01  0.43550551781E+02 -0.46950116245E+01  0.43816545772E+02  0.00000000000E+00 0.  1.
         21    1    1    2  505  504 -0.59472617609E+02  0.32292359241E+02  0.42295225409E+02  0.79803977363E+02  0.00000000000E+00 0. -1.
         21    1    1    2  506  505  0.10541027454E+03 -0.60598631990E+02 -0.30391472936E+03  0.32733420674E+03  0.00000000000E+00 0. -1.
<scales pt_clust_3="47.16196" pt_clust_4="43.56428" pt_clust_5="94.54579" pt_clust_6="14000.00000"></scales>
<clustering>
<clus scale="   43.564">  1  4  2 -1</clus>
<clus scale="   47.162">  2  3  1 -1</clus>
<clus scale="   94.546">  1  5  2 -1</clus>
<clus scale="   43.564">  1  3  2 -1</clus>
</clustering>
</event>
<event>
 6    0  0.4582113E+002  0.1030808E+03  0.7546771E-02  0.1273948E+00
         21   -1    0    0  504  501  0.00000000000E+00  0.00000000000E+00  0.91994386305E+03  0.91994386305E+03  0.00000000000E+00 0. -1.
         21   -1    0    0  506  502 -0.00000000000E+00 -0.00000000000E+00 -0.11324911842E+03  0.11324911842E+03  0.00000000000E+00 0. -1.
         21    1    1    2  503  501 -0.80954446046E+02 -0.11425964556E+03  0.55552823439E+03  0.57290532214E+03  0.00000000000E+00 0. -1.
         21    1    1    2  504  505  0.86844393610E+02 -0.58621844981E+01  0.27293087312E+03  0.28647438875E+03  0.00000000000E+00 0. -1.
         21    1    1    2  505  502 -0.20088226140E+02  0.46010929303E+02 -0.68594234910E+02  0.85004185236E+02  0.00000000000E+00 0. -1.
         21    1    1    2  506  503  0.14198278576E+02  0.74110900758E+02  0.46829872030E+02  0.88809085346E+02  0.00000000000E+00 0. -1.
<scales pt_clust_3="103.08077" pt_clust_4="83.15574" pt_clust_5="50.20500" pt_clust_6="14000.00000"></scales>
<clustering>
<clus scale="   50.205">  2  5  1 -1</clus>
<clus scale="   83.156">  1  4  2 -1</clus>
<clus scale="  103.081">  1  3  2 -1</clus>
<clus scale="   83.156">  1  3  2 -1</clus>
</clustering>
</event>
<event>
 6    0  0.4582113E+002  0.9214371E+02  0.7546771E-02  0.1297742E+00
         21   -1    0    0  505  501  0.00000000000E+00  0.00000000000E+00  0.55482891764E+03  0.55482891764E+03  0.00000000000E+00 0.  1.
         21   -1    0    0  503  502 -0.00000000000E+00 -0.00000000000E+00 -0.92747642632E+03  0.92747642632E+03  0.00000000000E+00 0. -1.
         21    1    1    2  503  501 -0.26035069629E+02 -0.29244008945E+02 -0.32047540501E+01  0.39284950786E+02  0.00000000000E+00 0.  1.
         21    1    1    2  504  502 -0.21211020301E+02 -0.64798033488E+02 -0.66163818394E+03  0.66514192393E+03  0.00000000000E+00 0. -1.
         21    1    1    2  505  506 -0.60813729248E+02  0.64507243281E+01  0.51315174954E+03  0.51678297143E+03  0.00000000000E+00 0.  1.
         21    1    1    2  506  504  0.10805981918E+03  0.87591318105E+02 -0.22095632023E+03  0.26109549781E+03  0.00000000000E+00 0. -1.
<scales pt_clust_3="39.15402" pt_clust_4="68.29848" pt_clust_5="14000.00000" pt_clust_6="92.14371"></scales>
<clustering>
<clus scale="   39.154">  1  3  2 -1</clus>
<clus scale="   68.298">  2  4  1 -1</clus>
<clus scale="   92.144">  2  6  1 -1</clus>
<clus scale="   39.154">  1  3  2 -1</clus>
</clustering>
</event>
<event>
 6    0  0.4582113E+002  0.1971961E+03  0.7546771E-02  0.1152126E+00
         21   -1    0    0  506  501  0.00000000000E+00  0.00000000000E+00  0.68170928564E+03  0.68170928564E+03  0.00000000000E+00 0.  1.
         21   -1    0    0  504  502 -0.00000000000E+00 -0.00000000000E+00 -0.19052718853E+03  0.19052718853E+03  0.00000000000E+00 0. -1.
         21    1    1    2  503  501  0.30011646414E+02  0.12519828759E+02  0.33170588676E+03  0.33329602510E+03  0.00000000000E+00 0.  1.
         21    1    1    2  504  503  0.26877223855E+02 -0.23638784312E+03  0.51166274634E+02  0.24335074522E+03  0.00000000000E+00 0.  1.
         21    1    1    2  505  502 -0.53486174513E+02  0.16596688285E+03  0.18814395658E+01  0.17438267369E+03  0.00000000000E+00 0. -1.
         21    1    1    2  506  505 -0.34026957561E+01  0.57901131511E+02  0.10642849614E+03  0.12120703016E+03  0.00000000000E+00 0. -1.
<scales pt_clust_3="32.51838" pt_clust_4="14000.00000" pt_clust_5="197.19609" pt_clust_6="62.30912"></scales>
<clustering>
<clus scale="   32.518">  1  3  2 -1</clus>
<clus scale="   62.309">  1  6  2 -1</clus>
<clus scale="  197.196">  2  5  1 -1</clus>
<clus scale="   32.518">  1  3  2 -1</clus>
</clustering>
</event>
<event>
 6    0  0.4582113E+002  0.1028477E+03  0.7546771E-02  0.1274419E+00
         21   -1    0    0  505  501  0.00000000000E+00  0.00000000000E+00  0.50638386547E+03  0.50638386547E+03  0.00000000000E+00 0. -1.
         21   -1    0    0  504  502 -0.00000000000E+00 -0.00000000000E+00 -0.23662932356E+03  0.23662932356E+03  0.00000000000E+00 0. -1.
         21    1    1    2  503  501  0.10245868059E+02 -0.94863431827E+02  0.34869289040E+03  0.36151179832E+03  0.00000000000E+00 0. -1.
         21    1    1    2  504  506 -0.39072262962E+02 -0.58108802309E+01 -0.34647669428E+02  0.52543972621E+02  0.00000000000E+00 0. -1.
         21    1    1    2  505  502  0.13134087005E+02  0.15891464132E+03  0.89029837321E+02  0.18262715954E+03  0.00000000000E+00 0. -1.
         21    1    1    2  506  503  0.15692307898E+02 -0.58240329265E+02 -0.13332051637E+03  0.14633025855E+03  0.00000000000E+00 0. -1.
<scales pt_clust_3="14000.00000" pt_clust_4="39.50200" pt_clust_5="102.84774" pt_clust_6="63.70989"></scales>
<clustering>
<clus scale="   39.502">  2  4  1 -1</clus>
<clus scale="   63.710">  2  6  1 -1</clus>
<clus scale="  102.848">  2  5  1 -1</clus>
<clus scale="  102.848">  1  3  2 -1</clus>
</clustering>
</event>
<event>
 6    0  0.4582113E+002  0.7740368E+02  0.7546771E-02  0.1336585E+00
         21   -1    0    0  503  501  0.00000000000E+00  0.00000000000E+00  0.13740611082E+03  0.13740611082E+03  0.00000000000E+00 0.  1.
         21   -1    0    0  505  502 -0.00000000000E+00 -0.00000000000E+00 -0.63756549472E+03  0.63756549472E+03  0.00000000000E+00 0.  1.
         21    1    1    2  503  506  0.94418337680E+01 -0.85695826342E+02  0.82463408720E+02  0.11930271018E+03  0.00000000000E+00 0.  1.
         21    1    1    2  504  501  0.31669181464E+02  0.58022718210E+02 -0.17012159377E+02  0.68256768527E+02  0.00000000000E+00 0.  1.
         21    1    1    2  505  504 -0.38058712450E+02 -0.43270152651E+02 -0.92353364240E+02  0.10885731758E+03  0.00000000000E+00 0.  1.
         21    1    1    2  506  502 -0.30523027816E+01  0.70943260783E+02 -0.47325726900E+03  0.47855480926E+03  0.00000000000E+00 0.  1.
<scales pt_clust_3="14000.00000" pt_clust_4="77.40368" pt_clust_5="57.62614" pt_clust_6="49.14613"></scales>
<clustering>
<clus scale="   57.626">  2  5  1 -1</clus>
<clus scale="   49.146">  2  6  1 -1</clus>
<clus scale="   77.404">  2  4  1 -1</clus>
<clus scale="   77.404">  1  3  2 -1</clus>
</clustering>
</event>
<event>
 6    0  0.4582113E+002  0.2332752E+03  0.7546771E-02  0.1124356E+00
         21   -1    0    0  503  501  0.00000000000E+00  0.00000000000E+00  0.19854911857E+04  0.19854911857E+04  0.00000000000E+00 0.  1.
         21   -1    0    0  504  502 -0.00000000000E+00 -0.00000000000E+00 -0.76149362373E+02  0.76149362373E+02  0.00000000000E+00 0. -1.
         21    1    1    2  503  506 -0.37619052856E+02 -0.19708842846E+02  0.22963661499E+03  0.23353074010E+03  0.00000000000E+00 0.  1.
         21    1    1    2  504  501  0.68508374271E+02  0.19408762319E+03  0.85393101844E+02  0.22283488206E+03  0.00000000000E+00 0. -1.
         21    1    1    2  505  502  0.54470631139E+01 -0.87534386980E+02  0.96255631755E+03  0.96654363784E+03  0.00000000000E+00 0.  1.
         21    1    1    2  506  505 -0.36336384528E+02 -0.86844393368E+02  0.63175578897E+03  0.63873128810E+03  0.00000000000E+00 0.  1.
<scales pt_clust_3="30.19620" pt_clust_4="205.82372" pt_clust_5="73.40412" pt_clust_6="73.40412"></scales>
<clustering>
<clus scale="   30.196">  3  6 -1 -1</clus>
<clus scale="   73.404">  3  5 -1 -1</clus>
<clus scale="  205.824">  2  4  1 -1</clus>
<clus scale="  233.275">  1  3  2 -1</clus>
</clustering>
</event>
<event>
 6    0  0.4582113E+002  0.1294183E+03  0.7546771E-02  0.1228321E+00
         21   -1    0    0  504  501  0.00000000000E+00  0.00000000000E+00  0.10690201988E+04  0.10690201988E+04  0.00000000000E+00 0.  1.
         21   -1    0    0  506  502 -0.00000000000E+00 -0.00000000000E+00 -0.43424002877E+02  0.43424002877E+02  0.00000000000E+00 0.  1.
         21    1    1    2  503  505 -0.26113324724E+02  0.45051093184E+02  0.10857938299E+03  0.12042005288E+03  0.00000000000E+00 0. -1.
         21    1    1    2  504  503 -0.66896422904E+01  0.72829598693E+02  0.25531951467E+03  0.26558794462E+03  0.00000000000E+00 0.  1.
         21    1    1    2  505  502 -0.66856785816E+02 -0.31884843018E+02  0.27959510039E+02  0.79172010367E+02  0.00000000000E+00 0.  1.
         21    1    1    2  506  501  0.99659752830E+02 -0.85995848858E+02  0.63373778820E+03  0.64726419378E+03  0.00000000000E+00 0.  1.
<scales pt_clust_3="33.83472" pt_clust_4="33.83472" pt_clust_5="74.07073" pt_clust_6="123.04967"></scales>
<clustering>
<clus scale="   33.835">  3  4 -1 -1</clus>
<clus scale="   74.071">  2  5  1 -1</clus>
<clus scale="  123.050">  1  6  2 -1</clus>
<clus scale="  123.050">  1  3  2 -1</clus>
</clustering>
</event>
<event>
 6    0  0.4582113E+002  0.1467058E+03  0.7546771E-02  0.1204580E+00
         21   -1    0    0  503  501  0.00000000000E+00  0.00000000000E+00  0.33985061188E+03  0.33985061188E+03  0.00000000000E+00 0.  1.
         21   -1    0    0  505  502 -0.00000000000E+00 -0.00000000000E+00 -0.38298656209E+03  0.38298656209E+03  0.00000000000E+00 0. -1.
         21    1    1    2  503  504  0.69941518732E+02 -0.16402215576E+01  0.96462261130E+02  0.11916154662E+03  0.00000000000E+00 0.  1.
         21    1    1    2  504  502 -0.97980368371E+02  0.12944593413E+03 -0.52400234787E+01  0.16243109399E+03  0.00000000000E+00 0.  1.
         21    1    1    2  505  506  0.37373338815E+02  0.14091685163E+02 -0.25294731284E+03  0.25608140330E+03  0.00000000000E+00 0. -1.
         21    1    1    2  506  501 -0.93344891767E+01 -0.14189739773E+03  0.11858912498E+03  0.18516313006E+03  0.00000000000E+00 0.  1.
<scales pt_clust_3="73.24427" pt_clust_4="14000.00000" pt_clust_5="39.94173" pt_clust_6="146.70579"></scales>
<clustering>
<clus scale="   39.942">  2  5  1 -1</clus>
<clus scale="   73.244">  1  3  2 -1</clus>
<clus scale="  146.706">  1  6  2 -1</clus>
<clus scale="   73.244">  1  3  2 -1</clus>
</clustering>
</event>
<event>
 6    0  0.4582113E+002  0.1239489E+03  0.7546771E-02  0.1236721E+00
         21   -1    0    0  505  501  0.00000000000E+00  0.00000000000E+00  0.12007663210E+04  0.12007663210E+04  0.00000000000E+00 0.  1.
         21   -1    0    0  506  502 -0.00000000000E+00 -0.00000000000E+00 -0.13068824752E+04  0.13068824752E+04  0.00000000000E+00 0. -1.
         21    1    1    2  503  501 -0.96492730838E+02  0.19316909323E+02  0.10475143039E+04  0.10521265166E+04  0.00000000000E+00 0.  1.
         21    1    1    2  504  503  0.12222081747E+03  0.24134538896E+02  0.67461985195E+02  0.14167400480E+03  0.00000000000E+00 0. -1.
         21    1    1    2  505  502 -0.29741525012E+02  0.87656856623E+01  0.40590860473E+02  0.51078503395E+02  0.00000000000E+00 0. -1.
         21    1    1    2  506  504  0.40134383841E+01 -0.52217133881E+02 -0.12616833037E+04  0.12627697714E+04  0.00000000000E+00 0. -1.
<scales pt_clust_3="123.94894" pt_clust_4="14000.00000" pt_clust_5="31.00638" pt_clust_6="52.36596"></scales>
<clustering>
<clus scale="   31.006">  1  5  2 -1</clus>
<clus scale="   52.366">  2  6  1 -1</clus>
<clus scale="  123.949">  1  3  2 -1</clus>
<clus scale="   31.006">  1  3  2 -1</clus>
</clustering>
</event>
<event>
 6    0  0.4582113E+002  0.8444130E+02  0.7546771E-02  0.1316900E+00
         21   -1    0    0  503  501  0.00000000000E+00  0.00000000000E+00  0.82661799465E+02  0.82661799465E+02  0.00000000000E+00 0. -1.
         21   -1    0    0  504  502 -0.00000000000E+00 -0.00000000000E+00 -0.41720667222E+03  0.41720667222E+03  0.00000000000E+00 0. -1.
         21    1    1    2  503  506 -0.66090522115E+02 -0.14125230866E+01  0.21304440138E+02  0.69453808424E+02  0.00000000000E+00 0. -1.
         21    1    1    2  504  505  0.39056039802E+02 -0.85395426290E+02 -0.20972840870E+03  0.22979068408E+03  0.00000000000E+00 0. -1.
         21    1    1    2  505  501 -0.35692170137E+02  0.41512127694E+02 -0.34159488895E+02  0.64529516009E+02  0.00000000000E+00 0. -1.
         21    1    1    2  506  502  0.62726652450E+02  0.45295821683E+02 -0.11196141530E+03  0.13609446317E+03  0.00000000000E+00 0.  1.
<scales pt_clust_3="84.44130" pt_clust_4="14000.00000" pt_clust_5="54.74658" pt_clust_6="77.16193"></scales>
<clustering>
<clus scale="   54.747">  1  5  2 -1</clus>
<clus scale="   77.162">  2  6  1 -1</clus>
<clus scale="   84.441">  1  3  2 -1</clus>
<clus scale="   54.747">  1  3  2 -1</clus>
</clustering>
</event>
<event>
 6    0  0.4582113E+002  0.9713787E+02  0.7546771E-02  0.1286432E+00
         21   -1    0    0  506  501  0.00000000000E+00  0.00000000000E+00  0.80271505273E+02  0.80271505273E+02  0.00000000000E+00 0.  1.
         21   -1    0    0  503  502 -0.00000000000E+00 -0.00000000000E+00 -0.47821341190E+03  0.47821341190E+03  0.00000000000E+00 0.  1.
         21    1    1    2  503  504 -0.11988253325E+03 -0.32241976688E+01 -0.21956920601E+03  0.25018563799E+03  0.00000000000E+00 0.  1.
         21    1    1    2  504  501  0.70075067219E+02 -0.11715885665E+02  0.22193201129E+02  0.74433293620E+02  0.00000000000E+00 0.  1.
         21    1    1    2  505  502  0.25037753216E+02  0.45690374701E+02 -0.18367111768E+03  0.19091772809E+03  0.00000000000E+00 0.  1.
         21    1    1    2  506  505  0.24769712811E+02 -0.30750291367E+02 -0.16894784063E+02  0.42948257478E+02  0.00000000000E+00 0.  1.
<scales pt_clust_3="14000.00000" pt_clust_4="97.13787" pt_clust_5="51.32690" pt_clust_6="39.48568"></scales>
<clustering>
<clus scale="   39.486">  1  6  2 -1</clus>
<clus scale="   51.327">  2  5  1 -1</clus>
<clus scale="   97.138">  1  4  2 -1</clus>
<clus scale="   39.486">  1  3  2 -1</clus>
</clustering>
</event>
<event>
 6    0  0.4582113E+002  0.6466990E+02  0.7546771E-02  0.1379218E+00
         21   -1    0    0  506  501  0.00000000000E+00  0.00000000000E+00  0.51116494798E+03  0.51116494798E+03  0.00000000000E+00 0.  1.
         21   -1    0    0  504  502 -0.00000000000E+00 -0.00000000000E+00 -0.13717749457E+03  0.13717749457E+03  0.00000000000E+00 0.  1.
         21    1    1    2  503  501 -0.93717262891E+01  0.99223051059E+02  0.38553811516E+03  0.39821185487E+03  0.00000000000E+00 0.  1.
         21    1    1    2  504  503  0.22121196078E+02 -0.40130248923E+02 -0.48013426161E+02  0.66370726124E+02  0.00000000000E+00 0.  1.
         21    1    1    2  505  502 -0.53823611615E+02 -0.19909828947E+02 -0.52795908439E+02  0.77979422951E+02  0.00000000000E+00 0.  1.
         21    1    1    2  506  505  0.41074141826E+02 -0.39182973189E+02  0.89258672845E+02  0.10578043861E+03  0.00000000000E+00 0.  1.
<scales pt_clust_3="64.66990" pt_clust_4="45.82340" pt_clust_5="14000.00000" pt_clust_6="61.29657"></scales>
<clustering>
<clus scale="   45.823">  2  4  1 -1</clus>
<clus scale="   61.297">  1  6  2 -1</clus>
<clus scale="   64.670">  1  3  2 -1</clus>
<clus scale="   61.297">  1  3  2 -1</clus>
</clustering>
</event>
<event>
 6    0  0.4582113E+002  0.1364750E+03  0.7546771E-02  0.1218152E+00
         21   -1    0    0  504  501  0.00000000000E+00  0.00000000000E+00  0.22762609265E+02  0.22762609265E+02  0.00000000000E+00 0.  1.
         21   -1    0    0  506  502 -0.00000000000E+00 -0.00000000000E+00 -0.12803795390E+04  0.12803795390E+04  0.00000000000E+00 0.  1.
         21    1    1    2  503  505  0.69994269655E+02 -0.21423846260E+02 -0.16826126682E+03  0.18349395872E+03  0.00000000000E+00 0.  1.
         21    1    1    2  504  502 -0.84006693108E+01  0.31911509644E+02 -0.24222543223E+03  0.24446283095E+03  0.00000000000E+00 0. -1.
         21    1    1    2  505  501  0.63428444068E+02  0.13590277167E+02 -0.11470823590E+03  0.13177952244E+03  0.00000000000E+00 0.  1.
         21    1    1    2  506  503 -0.12502204441E+03 -0.24077940552E+02 -0.73242199473E+03  0.74340583612E+03  0.00000000000E+00 0.  1.
<scales pt_clust_3="36.68960" pt_clust_4="32.99872" pt_clust_5="36.68960" pt_clust_6="131.00681"></scales>
<clustering>
<clus scale="   32.999">  2  4  1 -1</clus>
<clus scale="   36.690">  3  5 -1 -1</clus>
<clus scale="  131.007">  2  6  1 -1</clus>
<clus scale="  136.475">  1  3  2 -1</clus>
</clustering>
</event>
<event>
 6    0  0.4582113E+002  0.1493067E+03  0.7546771E-02  0.1201328E+00
         21   -1    0    0  506  501  0.00000000000E+00  0.00000000000E+00  0.52376207612E+03  0.52376207612E+03  0.00000000000E+00 0. -1.
         21   -1    0    0  504  502 -0.00000000000E+00 -0.00000000000E+00 -0.91156137280E+02  0.91156137280E+02  0.00000000000E+00 0. -1.
         21    1    1    2  503  501 -0.55867285914E+02 -0.53186159906E+02  0.73563895530E+02  0.10659065609E+03  0.00000000000E+00 0. -1.
         21    1    1    2  504  505 -0.77046871553E+02  0.71583479585E+02  0.28494345799E+02  0.10896028041E+03  0.00000000000E+00 0. -1.
         21    1    1    2  505  503 -0.12974379175E+02 -0.63006778612E+02  0.14859654559E+03  0.16192319792E+03  0.00000000000E+00 0.  1.
         21    1    1    2  506  502  0.14588853664E+03  0.44609458934E+02  0.18195115192E+03  0.23744407897E+03  0.00000000000E+00 0. -1.
<scales pt_clust_3="61.29088" pt_clust_4="105.16851" pt_clust_5="61.29088" pt_clust_6="133.37180"></scales>
<clustering>
<clus scale="   61.291">  3  5 -1 -1</clus>
<clus scale="  105.169">  2  4  1 -1</clus>
<clus scale="  133.372">  2  6  1 -1</clus>
<clus scale="  149.307">  1  3  2 -1</clus>
</clustering>
</event>
<event>
 6    0  0.4582113E+002  0.2501034E+03  0.7546771E-02  0.1113240E+00
         21   -1    0    0  503  501  0.00000000000E+00  0.00000000000E+00  0.28001800138E+03  0.28001800138E+03  0.00000000000E+00 0.  1.
         21   -1    0    0  504  502 -0.00000000000E+00 -0.00000000000E+00 -0.14425372919E+04  0.14425372919E+04  0.00000000000E+00 0.  1.
         21    1    1    2  503  505  0.25287916057E+02 -0.10626926946E+03 -0.40543492729E+02  0.11651785757E+03  0.00000000000E+00 0. -1.
         21    1    1    2  504  501 -0.26945762551E+03  0.20991434640E+02  0.73651216058E+02  0.28012953058E+03  0.00000000000E+00 0.  1.
         21    1    1    2  505  506  0.80283806455E+02 -0.11280423864E+03 -0.43033723924E+02  0.14499030046E+03  0.00000000000E+00 0.  1.
         21    1    1    2  506  502  0.16388590300E+03  0.19808207346E+03 -0.11525932899E+04  0.11809176047E+04  0.00000000000E+00 0.  1.
<scales pt_clust_3="42.25204" pt_clust_4="250.10335" pt_clust_5="247.79299" pt_clust_6="14000.00000"></scales>
<clustering>
<clus scale="   42.252">  3  5 -1 -1</clus>
<clus scale="  247.793">  1  3  2 -1</clus>
<clus scale="  250.103">  1  4  2 -1</clus>
<clus scale="  247.793">  1  3  2 -1</clus>
</clustering>
</event>
<event>
 6    0  0.7244337E+002  0.7346830E+02  0.7546771E-02  0.1348681E+00
         21   -1    0    0  504  501  0.00000000000E+00  0.00000000000E+00  0.29475985040E+03  0.29475985040E+03  0.00000000000E+00 0. -1.
         21   -1    0    0  506  502 -0.00000000000E+00 -0.00000000000E+00 -0.85460286209E+03  0.85460286209E+03  0.00000000000E+00 0.  1.
         21    1    1    2  503  505 -0.41492532458E+02 -0.46446391322E+02 -0.13887601713E+02  0.63810367480E+02  0.00000000000E+00 0. -1.
         21    1    1    2  504  503  0.32780431472E+02 -0.49897589645E+02 -0.17427579739E+02  0.62193622466E+02  0.00000000000E+00 0. -1.
         21    1    1    2  505  502 -0.57826195015E+02  0.45928707785E+02 -0.76707739537E+03  0.77062380285E+03  0.00000000000E+00 0.  1.
         21    1    1    2  506  501  0.66538296000E+02  0.50415273183E+02  0.23854956514E+03  0.25273491969E+03  0.00000000000E+00 0. -1.
<scales pt_clust_3="63.90863" pt_clust_4="59.70198" pt_clust_5="73.46830" pt_clust_6="14000.00000"></scales>
<clustering>
<clus scale="   59.702">  1  4  2 -1</clus>
<clus scale="   63.909">  1  3  2 -1</clus>
<clus scale="   73.468">  2  5  1 -1</clus>
<clus scale="   59.702">  1  3  2 -1</clus>
</clustering>
</event>
<event>
 6    0  0.4582113E+002  0.1584531E+03  0.7546771E-02  0.1190454E+00
         21   -1    0    0  504  501  0.00000000000E+00  0.00000000000E+00  0.21972362803E+04  0.21972362803E+04  0.00000000000E+00 0. -1.
         21   -1    0    0  506  502 -0.00000000000E+00 -0.00000000000E+00 -0.34907389745E+03  0.34907389745E+03  0.00000000000E+00 0.  1.
         21    1    1    2  503  501 -0.51152516737E+01 -0.30078839557E+02  0.69539345749E+02  0.75938284126E+02  0.00000000000E+00 0.  1.
         21    1    1    2  504  505 -0.99138933485E+02 -0.39435560143E+02  0.12888361249E+04  0.12932448525E+04  0.00000000000E+00 0. -1.
         21    1    1    2  505  502 -0.42355656099E+02  0.13352602086E+03  0.80848522422E+03  0.82053126548E+03  0.00000000000E+00 0. -1.
         21    1    1    2  506  503  0.14660984126E+03 -0.64011621163E+02 -0.31869831199E+03  0.35659577572E+03  0.00000000000E+00 0.  1.
<scales pt_clust_3="30.51069" pt_clust_4="117.41154" pt_clust_5="158.45309" pt_clust_6="14000.00000"></scales>
<clustering>
<clus scale="   30.511">  1  3  2 -1</clus>
<clus scale="  117.412">  1  4  2 -1</clus>
<clus scale="  158.453">  1  5  2 -1</clus>
<clus scale="   30.511">  1  3  2 -1</clus>
</clustering>
</event>
<event>
 6    0  0.4582113E+002  0.1023916E+03  0.7546771E-02  0.1275346E+00
         21   -1    0    0  505  501  0.00000000000E+00  0.00000000000E+00  0.36285177139E+02  0.36285177139E+02  0.00000000000E+00 0. -1.
         21   -1    0    0  504  502 -0.00000000000E+00 -0.00000000000E+00 -0.83186966650E+03  0.83186966650E+03  0.00000000000E+00 0. -1.
         21    1    1    2  503  501 -0.92294923715E+02  0.64095741540E+02 -0.12851137507E+03  0.17070966742E+03  0.00000000000E+00 0. -1.
         21    1    1    2  504  506  0.34156913125E+02  0.41650333409E+01 -0.38255873466E+03  0.38410314719E+03  0.00000000000E+00 0. -1.
         21    1    1    2  505  502  0.20721156580E+02  0.22949884035E+02 -0.91920611314E+02  0.96981762675E+02  0.00000000000E+00 0. -1.
         21    1    1    2  506  503  0.37416854010E+02 -0.91210658915E+02 -0.19259376831E+03  0.21636026635E+03  0.00000000000E+00 0. -1.
<scales pt_clust_3="102.39158" pt_clust_4="47.72428" pt_clust_5="30.92028" pt_clust_6="14000.00000"></scales>
<clustering>
<clus scale="   30.920">  2  5  1 -1</clus>
<clus scale="   47.724">  2  4  1 -1</clus>
<clus scale="  102.392">  1  3  2 -1</clus>
<clus scale="  102.392">  1  3  2 -1</clus>
</clustering>
</event>
<event>
 6    0  0.4582113E+002  0.1329989E+03  0.7546771E-02  0.1223073E+00
         21   -1    0    0  506  501  0.00000000000E+00  0.00000000000E+00  0.16423210885E+04  0.16423210885E+04  0.00000000000E+00 0. -1.
         21   -1    0    0  505  502 -0.00000000000E+00 -0.00000000000E+00 -0.46070274205E+02  0.46070274205E+02  0.00000000000E+00 0.  1.
         21    1    1    2  503  504 -0.47853738487E+02 -0.18390760697E+02  0.56841997701E+03  0.57072714201E+03  0.00000000000E+00 0. -1.
         21    1    1    2  504  501 -0.81034085903E+02  0.20937412472E+02  0.94481988328E+03  0.94851964143E+03  0.00000000000E+00 0. -1.
         21    1    1    2  505  503  0.26032853462E+02 -0.27624422411E+02  0.39210268937E+02  0.54573467574E+02  0.00000000000E+00 0.  1.
         21    1    1    2  506  502  0.10285497093E+03  0.25077770636E+02  0.43800685077E+02  0.11457111171E+03  0.00000000000E+00 0.  1.
<scales pt_clust_3="31.27989" pt_clust_4="31.27989" pt_clust_5="37.95811" pt_clust_6="126.85165"></scales>
<clustering>
<clus scale="   31.280">  3  4 -1 -1</clus>
<clus scale="   37.958">  2  5  1 -1</clus>
<clus scale="  126.852">  2  6  1 -1</clus>
<clus scale="  132.999">  1  3  2 -1</clus>
</clustering>
</event>
<event>
 6    0  0.4582113E+002  0.9645264E+02  0.7546771E-02  0.1287938E+00
         21   -1    0    0  506  501  0.00000000000E+00  0.00000000000E+00  0.41635354460E+03  0.41635354460E+03  0.00000000000E+00 0. -1.
         21   -1    0    0  505  502 -0.00000000000E+00 -0.00000000000E+00 -0.15735370134E+03  0.15735370134E+03  0.00000000000E+00 0.  1.
         21    1    1    2  503  501 -0.27319393027E+02 -0.43669716981E+02  0.27709729651E+03  0.28184446979E+03  0.00000000000E+00 0. -1.
         21    1    1    2  504  503 -0.15562853118E+02 -0.65619215648E+02  0.53315791535E+02  0.85968933263E+02  0.00000000000E+00 0. -1.
         21    1    1    2  505  504 -0.17285764070E+02  0.12754625847E+03 -0.35652143123E+02  0.13355867998E+03  0.00000000000E+00 0.  1.
         21    1    1    2  506  502  0.60168010214E+02 -0.18257325842E+02 -0.35761101661E+02  0.72335162902E+02  0.00000000000E+00 0.  1.
<scales pt_clust_3="51.51110" pt_clust_4="96.45264" pt_clust_5="14000.00000" pt_clust_6="61.43866"></scales>
<clustering>
<clus scale="   51.511">  1  3  2 -1</clus>
<clus scale="   61.439">  2  6  1 -1</clus>
<clus scale="   96.453">  1  4  2 -1</clus>
<clus scale="   51.511">  1  3  2 -1</clus>
</clustering>
</event>
<event>
 6    0  0.4582113E+002  0.9659703E+02  0.7546771E-02  0.1287619E+00
         21   -1    0    0  504  501  0.00000000000E+00  0.00000000000E+00  0.12427413406E+03  0.12427413406E+03  0.00000000000E+00 0. -1.
         21   -1    0    0  503  502 -0.00000000000E+00 -0.00000000000E+00 -0.31289885151E+03  0.31289885151E+03  0.00000000000E+00 0. -1.
         21    1    1    2  503  505  0.44688259040E+02 -0.55533695364E+02 -0.13995137874E+01  0.71295094191E+02  0.00000000000E+00 0. -1.
         21    1    1    2  504  506  0.10487226089E+02  0.72705309735E+02  0.10994765248E+02  0.74276031380E+02  0.00000000000E+00 0. -1.
         21    1    1    2  505  501  0.31022924397E+02 -0.18314346546E+02  0.30482791036E+02  0.47191500050E+02  0.00000000000E+00 0. -1.
         21    1    1    2  506  502 -0.86198409526E+02  0.11427321746E+01 -0.22870275995E+03  0.24441035995E+03  0.00000000000E+00 0. -1.
<scales pt_clust_3="31.85275" pt_clust_4="73.45777" pt_clust_5="31.85275" pt_clust_6="85.57726"></scales>
<clustering>
<clus scale="   31.853">  3  5 -1 -1</clus>
<clus scale="   73.458">  1  4  2 -1</clus>
<clus scale="   85.577">  2  6  1 -1</clus>
<clus scale="   73.458">  1  3  2 -1</clus>
</clustering>
</event>
<event>
 6    0  0.4582113E+002  0.1022169E+03  0.7546771E-02  0.1275702E+00
         21   -1    0    0  503  501  0.00000000000E+00  0.00000000000E+00  0.61782085230E+03  0.61782085230E+03  0.00000000000E+00 0. -1.
         21   -1    0    0  506  502 -0.00000000000E+00 -0.00000000000E+00 -0.35217780948E+03  0.35217780948E+03  0.00000000000E+00 0.  1.
         21    1    1    2  503  505  0.23631168224E+02 -0.87590581026E+02  0.32733604884E+03  0.33967547875E+03  0.00000000000E+00 0. -1.
         21    1    1    2  504  502 -0.16666550625E+02 -0.74625473817E+02 -0.60635666276E+02  0.97588007854E+02  0.00000000000E+00 0. -1.
         21    1    1    2  505  504 -0.37007619567E+02  0.12865175479E+03  0.24682629841E+03  0.28079184373E+03  0.00000000000E+00 0. -1.
         21    1    1    2  506  501  0.30043001968E+02  0.33564300048E+02 -0.24788363814E+03  0.25194333145E+03  0.00000000000E+00 0.  1.
<scales pt_clust_3="102.21687" pt_clust_4="49.10225" pt_clust_5="14000.00000" pt_clust_6="45.04602"></scales>
<clustering>
<clus scale="   45.046">  2  6  1 -1</clus>
<clus scale="   49.102">  2  4  1 -1</clus>
<clus scale="  102.217">  1  3  2 -1</clus>
<clus scale="  102.217">  1  3  2 -1</clus>
</clustering>
</event>
<event>
 6    0  0.4582113E+002  0.1115649E+03  0.7546771E-02  0.1257699E+00
         21   -1    0    0  506  501  0.00000000000E+00  0.00000000000E+00  0.45771802986E+03  0.45771802986E+03  0.00000000000E+00 0. -1.
         21   -1    0    0  504  502 -0.00000000000E+00 -0.00000000000E+00 -0.51804627975E+03  0.51804627975E+03  0.00000000000E+00 0.  1.
         21    1    1    2  503  502  0.36446425278E+02 -0.30102624196E+02 -0.95687618653E+02  0.10672689568E+03  0.00000000000E+00 0. -1.
         21    1    1    2  504  505 -0.24398414031E+02 -0.82495290305E+02 -0.40159313843E+03  0.41070403500E+03  0.00000000000E+00 0.  1.
         21    1    1    2  505  501 -0.39071633977E+02  0.87734797040E+02  0.36662729820E+03  0.37899810419E+03  0.00000000000E+00 0. -1.
         21    1    1    2  506  503  0.27023622730E+02  0.24863117461E+02  0.70325209005E+02  0.79335274733E+02  0.00000000000E+00 0. -1.
<scales pt_clust_3="47.34562" pt_clust_4="111.56490" pt_clust_5="14000.00000" pt_clust_6="36.72126"></scales>
<clustering>
<clus scale="   36.721">  1  6  2 -1</clus>
<clus scale="   47.346">  2  3  1 -1</clus>
<clus scale="  111.565">  2  4  1 -1</clus>
<clus scale="   36.721">  1  3  2 -1</clus>
</clustering>
</event>
<event>
 6    0  0.4582113E+002  0.7467912E+02  0.7546771E-02  0.1344868E+00
         21   -1    0    0  505  501  0.00000000000E+00  0.00000000000E+00  0.12683955446E+03  0.12683955446E+03  0.00000000000E+00 0.  1.
         21   -1    0    0  503  502 -0.00000000000E+00 -0.00000000000E+00 -0.19968290541E+04  0.19968290541E+04  0.00000000000E+00 0. -1.
         21    1    1    2  503  501  0.63293189782E+02  0.69723370063E+02 -0.16271188406E+04  0.16298414333E+04  0.00000000000E+00 0. -1.
         21    1    1    2  504  506 -0.49374691654E+02 -0.26669005599E+02  0.35825954928E+02  0.66577737135E+02  0.00000000000E+00 0.  1.
         21    1    1    2  505  504 -0.27830574970E+02  0.25415958556E+02  0.65750835565E+02  0.75787098044E+02  0.00000000000E+00 0.  1.
         21    1    1    2  506  502  0.13912076842E+02 -0.68470323021E+02 -0.34444744948E+03  0.35146234004E+03  0.00000000000E+00 0. -1.
<scales pt_clust_3="14000.00000" pt_clust_4="74.67912" pt_clust_5="37.68968" pt_clust_6="67.97891"></scales>
<clustering>
<clus scale="   37.690">  1  5  2 -1</clus>
<clus scale="   67.979">  2  6  1 -1</clus>
<clus scale="   74.679">  1  4  2 -1</clus>
<clus scale="   37.690">  1  3  2 -1</clus>
</clustering>
</event>
<event>
 6    0  0.4582113E+002  0.1380578E+03  0.7546771E-02  0.1215966E+00
         21   -1    0    0  503  501  0.00000000000E+00  0.00000000000E+00  0.11571737673E+04  0.11571737673E+04  0.00000000000E+00 0. -1.
         21   -1    0    0  506  502 -0.00000000000E+00 -0.00000000000E+00 -0.72456433251E+02  0.72456433251E+02  0.00000000000E+00 0. -1.
         21    1    1    2  503  502  0.23842368506E+02 -0.19114999399E+03  0.89211919382E+03  0.91267926170E+03  0.00000000000E+00 0. -1.
         21    1    1    2  504  501 -0.33590784672E+01  0.51112620934E+02  0.11729058257E+03  0.12798775014E+03  0.00000000000E+00 0.  1.
         21    1    1    2  505  504  0.27972809911E+02  0.97341902449E+02  0.18511564003E+02  0.10295922527E+03  0.00000000000E+00 0. -1.
         21    1    1    2  506  505 -0.48456099950E+02  0.42695470606E+02  0.56795993645E+02  0.86003963436E+02  0.00000000000E+00 0. -1.
<scales pt_clust_3="138.05780" pt_clust_4="51.22288" pt_clust_5="14000.00000" pt_clust_6="67.13485"></scales>
<clustering>
<clus scale="   51.223">  1  4  2 -1</clus>
<clus scale="   67.135">  2  6  1 -1</clus>
<clus scale="  138.058">  1  3  2 -1</clus>
<clus scale="   51.223">  1  3  2 -1</clus>
</clustering>
</event>
<event>
 6    0  0.4582113E+002  0.3015461E+03  0.7546771E-02  0.1084470E+00
         21   -1    0    0  504  501  0.00000000000E+00  0.00000000000E+00  0.72686049922E+03  0.72686049922E+03  0.00000000000E+00 0.  1.
         21   -1    0    0  501  502 -0.00000000000E+00 -0.00000000000E+00 -0.35494912455E+03  0.35494912455E+03  0.00000000000E+00 0.  1.
         21    1    1    2  503  502  0.35547959991E+02  0.21439650646E+02 -0.22168166934E+02  0.47061063573E+02  0.00000000000E+00 0.  1.
         21    1    1    2  504  505  0.79140060253E+02  0.15673293263E+03  0.35036911919E+03  0.39190162157E+03  0.00000000000E+00 0.  1.
         21    1    1    2  505  506  0.44006691534E+01  0.12248976678E+03  0.23648456737E+03  0.26636076937E+03  0.00000000000E+00 0.  1.
         21    1    1    2  506  503 -0.11908868940E+03 -0.30066235005E+03 -0.19277414495E+03  0.37648616926E+03  0.00000000000E+00 0.  1.
<scales pt_clust_3="41.51284" pt_clust_4="52.51739" pt_clust_5="52.51739" pt_clust_6="294.89367"></scales>
<clustering>
<clus scale="   41.513">  2  3  1 -1</clus>
<clus scale="   52.517">  4  5 -1 -1</clus>
<clus scale="  294.894">  2  6  1 -1</clus>
<clus scale="  301.546">  1  3  2 -1</clus>
</clustering>
</event>
<event>
 6    0  0.4582113E+002  0.1263578E+03  0.7546771E-02  0.1232962E+00
         21   -1    0    0  504  501  0.00000000000E+00  0.00000000000E+00  0.78892321369E+02  0.78892321369E+02  0.00000000000E+00 0. -1.
         21   -1    0    0  505  502 -0.00000000000E+00 -0.00000000000E+00 -0.25316977839E+03  0.25316977839E+03  0.00000000000E+00 0. -1.
         21    1    1    2  503  506 -0.40053741040E+02 -0.55951022432E+02 -0.18547392339E+02  0.71265874337E+02  0.00000000000E+00 0. -1.
         21    1    1    2  504  503  0.63428031877E-01 -0.44979650707E+02 -0.46590448358E+02  0.64759886343E+02  0.00000000000E+00 0.  1.
         21    1    1    2  505  501  0.24111679620E+02 -0.21861941800E+02 -0.25254786479E+01  0.32644994039E+02  0.00000000000E+00 0. -1.
         21    1    1    2  506  502  0.15878633388E+02  0.12279261494E+03 -0.10661413768E+03  0.16339134504E+03  0.00000000000E+00 0. -1.
<scales pt_clust_3="40.81331" pt_clust_4="40.81331" pt_clust_5="32.54716" pt_clust_6="116.15701"></scales>
<clustering>
<clus scale="   32.547">  1  5  2 -1</clus>
<clus scale="   40.813">  3  4 -1 -1</clus>
<clus scale="  116.157">  2  6  1 -1</clus>
<clus scale="   32.547">  1  3  2 -1</clus>
</clustering>
</event>
<event>
 6    0  0.4582113E+002  0.1741191E+03  0.7546771E-02  0.1173619E+00
         21   -1    0    0  505  501  0.00000000000E+00  0.00000000000E+00  0.34942764459E+03  0.34942764459E+03  0.00000000000E+00 0. -1.
         21   -1    0    0  503  502 -0.00000000000E+00 -0.00000000000E+00 -0.25737693982E+03  0.25737693982E+03  0.00000000000E+00 0.  1.
         21    1    1    2  503  504  0.66091951332E+01  0.84798400751E+02 -0.15463022016E+03  0.17647933368E+03  0.00000000000E+00 0.  1.
         21    1    1    2  504  506 -0.39615949181E+02  0.33897215505E+02 -0.68035720924E+00  0.52143144655E+02  0.00000000000E+00 0.  1.
         21    1    1    2  505  502  0.88965698625E+02 -0.18083694944E+03  0.18820210435E+03  0.27574794632E+03  0.00000000000E+00 0. -1.
         21    1    1    2  506  501 -0.55958944577E+02  0.62141333184E+02  0.59159177784E+02  0.10243415975E+03  0.00000000000E+00 0. -1.
<scales pt_clust_3="85.05557" pt_clust_4="36.32576" pt_clust_5="167.93171" pt_clust_6="36.32576"></scales>
<clustering>
<clus scale="   36.326">  4  6 -1 -1</clus>
<clus scale="   85.056">  2  3  1 -1</clus>
<clus scale="  167.932">  1  5  2 -1</clus>
<clus scale="  167.932">  1  3  2 -1</clus>
</clustering>
</event>
<event>
 6    0  0.4582113E+002  0.1442109E+03  0.7546771E-02  0.1207773E+00
         21   -1    0    0  505  501  0.00000000000E+00  0.00000000000E+00  0.52111166576E+03  0.52111166576E+03  0.00000000000E+00 0.  1.
         21   -1    0    0  503  502 -0.00000000000E+00 -0.00000000000E+00 -0.35125482240E+03  0.35125482240E+03  0.00000000000E+00 0.  1.
         21    1    1    2  503  506 -0.42923072574E+02  0.12791847313E+03 -0.27653634118E+03  0.30769769892E+03  0.00000000000E+00 0.  1.
         21    1    1    2  504  501  0.33394661824E+02 -0.71302127941E+01  0.21187670179E+03  0.21461076426E+03  0.00000000000E+00 0.  1.
         21    1    1    2  505  502 -0.54684135631E+02 -0.15795747697E+02 -0.25511542853E+02  0.62375469166E+02  0.00000000000E+00 0. -1.
         21    1    1    2  506  504  0.64212546381E+02 -0.10499251264E+03  0.26002802560E+03  0.28768255581E+03  0.00000000000E+00 0.  1.
<scales pt_clust_3="14000.00000" pt_clust_4="34.14738" pt_clust_5="55.12588" pt_clust_6="144.21090"></scales>
<clustering>
<clus scale="   34.147">  1  4  2 -1</clus>
<clus scale="   55.126">  2  5  1 -1</clus>
<clus scale="  144.211">  1  6  2 -1</clus>
<clus scale="   34.147">  1  3  2 -1</clus>
</clustering>
</event>
<event>
 6    0  0.4582113E+002  0.7782048E+02  0.7546771E-02  0.1335353E+00
         21   -1    0    0  505  501  0.00000000000E+00  0.00000000000E+00  0.58682426053E+03  0.58682426053E+03  0.00000000000E+00 0. -1.
         21   -1    0    0  504  502 -0.00000000000E+00 -0.00000000000E+00 -0.10084759597E+03  0.10084759597E+03  0.00000000000E+00 0.  1.
         21    1    1    2  503  502 -0.55729036565E+02  0.51328693377E+02 -0.47984319867E+02  0.89681967158E+02  0.00000000000E+00 0.  1.
         21    1    1    2  504  506  0.30346929059E+02 -0.23921122185E+02 -0.51576062237E+00  0.38644821114E+02  0.00000000000E+00 0.  1.
         21    1    1    2  505  503  0.78106772003E+02 -0.47132510533E+02  0.44009270232E+03  0.44944824843E+03  0.00000000000E+00 0. -1.
         21    1    1    2  506  501 -0.52724664497E+02  0.19724939341E+02  0.94384042733E+02  0.10989681979E+03  0.00000000000E+00 0. -1.
<scales pt_clust_3="43.20547" pt_clust_4="38.64138" pt_clust_5="14000.00000" pt_clust_6="77.82048"></scales>
<clustering>
<clus scale="   38.641">  2  4  1 -1</clus>
<clus scale="   43.205">  2  3  1 -1</clus>
<clus scale="   77.820">  2  6  1 -1</clus>
<clus scale="   77.820">  1  3  2 -1</clus>
</clustering>
</event>
<event>
 6    0  0.4582113E+002  0.9699069E+02  0.7546771E-02  0.1286754E+00
         21   -1    0    0  504  501  0.00000000000E+00  0.00000000000E+00  0.66359029179E+03  0.66359029179E+03  0.00000000000E+00 0.  1.
         21   -1    0    0  503  502 -0.00000000000E+00 -0.00000000000E+00 -0.10414080623E+03  0.10414080623E+03  0.00000000000E+00 0.  1.
         21    1    1    2  503  501 -0.88325012886E+02 -0.16923530711E+02  0.88333415147E+02  0.12605755045E+03  0.00000000000E+00 0.  1.
         21    1    1    2  504  505  0.93089938679E+02  0.34074742679E+02  0.48210234755E+03  0.49218847842E+03  0.00000000000E+00 0.  1.
         21    1    1    2  505  506 -0.16817403554E+02 -0.51207491111E+02  0.53262944292E+02  0.75775810406E+02  0.00000000000E+00 0.  1.
         21    1    1    2  506  502  0.12052477761E+02  0.34056279143E+02 -0.64249221436E+02  0.73709258743E+02  0.00000000000E+00 0.  1.
<scales pt_clust_3="96.99069" pt_clust_4="14000.00000" pt_clust_5="42.33698" pt_clust_6="36.12606"></scales>
<clustering>
<clus scale="   36.126">  2  6  1 -1</clus>
<clus scale="   42.337">  2  5  1 -1</clus>
<clus scale="   96.991">  2  3  1 -1</clus>
<clus scale="   96.991">  1  3  2 -1</clus>
</clustering>
</event>
<event>
 6    0  0.9652834E+002  0.1110664E+03  0.7546771E-02  0.1258608E+00
         21   -1    0    0  505  501  0.00000000000E+00  0.00000000000E+00  0.17463878082E+04  0.17463878082E+04  0.00000000000E+00 0. -1.
         21   -1    0    0  504  502 -0.00000000000E+00 -0.00000000000E+00 -0.98449405193E+03  0.98449405193E+03  0.00000000000E+00 0. -1.
         21    1    1    2  503  506  0.98859962177E+02 -0.23161439381E+02  0.14768585200E+03  0.17922292063E+03  0.00000000000E+00 0. -1.
         21    1    1    2  504  503  0.69973710780E+01 -0.48633103747E+02 -0.95441780062E+03  0.95568168347E+03  0.00000000000E+00 0. -1.
         21    1    1    2  505  502 -0.21416165203E+02  0.32170884558E+02  0.18147722107E+02  0.42696109459E+02  0.00000000000E+00 0. -1.
         21    1    1    2  506  501 -0.84441168052E+02  0.39623658570E+02  0.15504779828E+04  0.15532811466E+04  0.00000000000E+00 0. -1.
<scales pt_clust_3="111.06643" pt_clust_4="49.12107" pt_clust_5="38.64735" pt_clust_6="14000.00000"></scales>
<clustering>
<clus scale="   38.647">  1  5  2 -1</clus>
<clus scale="   49.121">  2  4  1 -1</clus>
<clus scale="  111.066">  2  3  1 -1</clus>
<clus scale="   38.647">  1  3  2 -1</clus>
</clustering>
</event>
<event>
 6    0  0.4582113E+002  0.1352405E+03  0.7546771E-02  0.1219881E+00
         21   -1    0    0  503  501  0.00000000000E+00  0.00000000000E+00  0.81892073061E+02  0.81892073061E+02  0.00000000000E+00 0.  1.
         21   -1    0    0  504  502 -0.00000000000E+00 -0.00000000000E+00 -0.10491530279E+04  0.10491530279E+04  0.00000000000E+00 0. -1.
         21    1    1    2  503  502  0.83264988257E+02  0.12029017242E+03 -0.78165599614E+03  0.79522882251E+03  0.00000000000E+00 0. -1.
         21    1    1    2  504  506  0.86429337795E+01 -0.44679613907E+02 -0.19637435585E+03  0.20157841114E+03  0.00000000000E+00 0.  1.
         21    1    1    2  505  501 -0.64369108255E+02 -0.22711383915E+02  0.25400617510E+02  0.72831177574E+02  0.00000000000E+00 0.  1.
         21    1    1    2  506  505 -0.27538813781E+02 -0.52899174598E+02 -0.14631220389E+02  0.61406689763E+02  0.00000000000E+00 0.  1.
<scales pt_clust_3="120.62418" pt_clust_4="45.50789" pt_clust_5="57.84295" pt_clust_6="57.84295"></scales>
<clustering>
<clus scale="   45.508">  2  4  1 -1</clus>
<clus scale="   57.843">  5  6 -1 -1</clus>
<clus scale="  120.624">  2  3  1 -1</clus>
<clus scale="  135.241">  1  3  2 -1</clus>
</clustering>
</event>
<event>
 6    0  0.4582113E+002  0.9018649E+02  0.7546771E-02  0.1302401E+00
         21   -1    0    0  504  501  0.00000000000E+00  0.00000000000E+00  0.91559492122E+02  0.91559492122E+02  0.00000000000E+00 0. -1.
         21   -1    0    0  506  502 -0.00000000000E+00 -0.00000000000E+00 -0.24859987893E+03  0.24859987893E+03  0.00000000000E+00 0.  1.
         21    1    1    2  503  505 -0.56895471276E+02  0.48915265363E+02  0.47896234853E+01  0.75184694788E+02  0.00000000000E+00 0. -1.
         21    1    1    2  504  503 -0.48658600564E+02 -0.22449079607E+02  0.51616175612E+01  0.53835516900E+02  0.00000000000E+00 0. -1.
         21    1    1    2  505  502  0.76821177837E+02 -0.46189941112E+02 -0.14319965679E+03  0.16894124934E+03  0.00000000000E+00 0.  1.
         21    1    1    2  506  501  0.28732894003E+02  0.19723755356E+02 -0.23791971066E+02  0.42197910023E+02  0.00000000000E+00 0. -1.
<scales pt_clust_3="14000.00000" pt_clust_4="49.71426" pt_clust_5="90.18649" pt_clust_6="34.85119"></scales>
<clustering>
<clus scale="   34.851">  2  6  1 -1</clus>
<clus scale="   49.714">  1  4  2 -1</clus>
<clus scale="   90.186">  2  5  1 -1</clus>
<clus scale="   49.714">  1  3  2 -1</clus>
</clustering>
</event>
<event>
 6    0  0.4582113E+002  0.7221568E+02  0.7546771E-02  0.1352717E+00
         21   -1    0    0  505  501  0.00000000000E+00  0.00000000000E+00  0.72627331739E+03  0.72627331739E+03  0.00000000000E+00 0. -1.
         21   -1    0    0  504  502 -0.00000000000E+00 -0.00000000000E+00 -0.63199374304E+03  0.63199374304E+03  0.00000000000E+00 0. -1.
         21    1    1    2  503  501  0.23347309704E+02  0.16059880307E+03  0.44829635534E+03  0.47676691855E+03  0.00000000000E+00 0. -1.
         21    1    1    2  504  503 -0.90726424789E+01 -0.71220251172E+02 -0.59533982506E+03  0.59965335347E+03  0.00000000000E+00 0. -1.
         21    1    1    2  505  506 -0.62878215780E+02 -0.34028890477E+02  0.10782052352E+03  0.12937117415E+03  0.00000000000E+00 0. -1.
         21    1    1    2  506  502  0.48603548554E+02 -0.55349661419E+02  0.13350252055E+03  0.15247561426E+03  0.00000000000E+00 0.  1.
<scales pt_clust_3="72.21568" pt_clust_4="14000.00000" pt_clust_5="71.49570" pt_clust_6="71.81273"></scales>
<clustering>
<clus scale="   71.496">  1  5  2 -1</clus>
<clus scale="   71.813">  1  6  2 -1</clus>
<clus scale="   72.216">  1  3  2 -1</clus>
<clus scale="   71.496">  1  3  2 -1</clus>
</clustering>
</event>
<event>
 6    0  0.4582113E+002  0.1254549E+03  0.7546771E-02  0.1234360E+00
         21   -1    0    0  506  501  0.00000000000E+00  0.00000000000E+00  0.11076412257E+03  0.11076412257E+03  0.00000000000E+00 0. -1.
         21   -1    0    0  503  502 -0.00000000000E+00 -0.00000000000E+00 -0.47937433109E+03  0.47937433109E+03  0.00000000000E+00 0.  1.
         21    1    1    2  503  504  0.59913016252E+02 -0.14123095395E+03 -0.33384024803E+03  0.36740313427E+03  0.00000000000E+00 0.  1.
         21    1    1    2  504  505 -0.32556018254E+02  0.85342871358E+02 -0.43020776805E+02  0.10096577268E+03  0.00000000000E+00 0. -1.
         21    1    1    2  505  501  0.99609421832E+01  0.60630308017E+02  0.39347826569E+02  0.72962360674E+02  0.00000000000E+00 0. -1.
         21    1    1    2  506  502 -0.37317940181E+02 -0.47422254246E+01 -0.31097010254E+02  0.48807186029E+02  0.00000000000E+00 0. -1.
<scales pt_clust_3="14000.00000" pt_clust_4="125.45485" pt_clust_5="61.04830" pt_clust_6="37.61805"></scales>
<clustering>
<clus scale="   37.618">  2  6  1 -1</clus>
<clus scale="   61.048">  1  5  2 -1</clus>
<clus scale="  125.455">  1  4  2 -1</clus>
<clus scale="   61.048">  1  3  2 -1</clus>
</clustering>
</event>
<event>
 6    0  0.4582113E+002  0.8587180E+02  0.7546771E-02  0.1313168E+00
         21   -1    0    0  503  501  0.00000000000E+00  0.00000000000E+00  0.28107621495E+03  0.28107621495E+03  0.00000000000E+00 0. -1.
         21   -1    0    0  505  502 -0.00000000000E+00 -0.00000000000E+00 -0.57847609913E+03  0.57847609913E+03  0.00000000000E+00 0. -1.
         21    1    1    2  503  506 -0.71872068021E+02  0.26444593227E+02  0.82910471343E+02  0.11286743078E+03  0.00000000000E+00 0. -1.
         21    1    1    2  504  501  0.69646321773E+02  0.61500747697E+02  0.16291605514E+03  0.18754890863E+03  0.00000000000E+00 0. -1.
         21    1    1    2  505  504  0.42031890333E+02 -0.11525183705E+02 -0.23905474890E+03  0.24299523172E+03  0.00000000000E+00 0. -1.
         21    1    1    2  506  502 -0.39806144084E+02 -0.76420157219E+02 -0.30417166177E+03  0.31614074296E+03  0.00000000000E+00 0. -1.
<scales pt_clust_3="74.65532" pt_clust_4="14000.00000" pt_clust_5="43.58336" pt_clust_6="85.87180"></scales>
<clustering>
<clus scale="   43.583">  2  5  1 -1</clus>
<clus scale="   74.655">  1  3  2 -1</clus>
<clus scale="   85.872">  2  6  1 -1</clus>
<clus scale="   74.655">  1  3  2 -1</clus>
</clustering>
</event>
<event>
 6    0  0.4582113E+002  0.7850032E+02  0.7546771E-02  0.1333362E+00
         21   -1    0    0  503  501  0.00000000000E+00  0.00000000000E+00  0.14684328983E+03  0.14684328983E+03  0.00000000000E+00 0.  1.
         21   -1    0    0  501  502 -0.00000000000E+00 -0.00000000000E+00 -0.25661956022E+03  0.25661956022E+03  0.00000000000E+00 0.  1.
         21    1    1    2  503  504 -0.20610434308E+02  0.52119461484E+02  0.40866038317E+02  0.69363256523E+02  0.00000000000E+00 0.  1.
         21    1    1    2  504  505 -0.56979343077E+02 -0.42311679216E+01  0.15850301512E+02  0.59294016372E+02  0.00000000000E+00 0.  1.
         21    1    1    2  505  506  0.10451941900E+03 -0.33013600402E+02 -0.42709684106E+01  0.10969251538E+03  0.00000000000E+00 0.  1.
         21    1    1    2  506  502 -0.26929641617E+02 -0.14874693160E+02 -0.16222164181E+03  0.16511306176E+03  0.00000000000E+00 0.  1.
<scales pt_clust_3="55.64126" pt_clust_4="14000.00000" pt_clust_5="78.50032" pt_clust_6="30.76462"></scales>
<clustering>
<clus scale="   30.765">  2  6  1 -1</clus>
<clus scale="   55.641">  1  3  2 -1</clus>
<clus scale="   78.500">  2  5  1 -1</clus>
<clus scale="   55.641">  1  3  2 -1</clus>
</clustering>
</event>
<event>
 6    0  0.4582113E+002  0.1336391E+03  0.7546771E-02  0.1222154E+00
         21   -1    0    0  504  501  0.00000000000E+00  0.00000000000E+00  0.40388496884E+03  0.40388496884E+03  0.00000000000E+00 0.  1.
         21   -1    0    0  506  502 -0.00000000000E+00 -0.00000000000E+00 -0.98379692253E+02  0.98379692253E+02  0.00000000000E+00 0.  1.
         21    1    1    2  503  502  0.34001306967E+02 -0.48111053933E+02  0.12284638351E+03  0.13624241750E+03  0.00000000000E+00 0.  1.
         21    1    1    2  504  503 -0.20715763094E+02 -0.66566227771E+02  0.16872490841E+03  0.18256040161E+03  0.00000000000E+00 0.  1.
         21    1    1    2  505  501 -0.35689211576E+02  0.14216540928E+03  0.18372363441E+02  0.14772361747E+03  0.00000000000E+00 0.  1.
         21    1    1    2  506  505  0.22403667703E+02 -0.27488127580E+02 -0.44383787751E+01  0.35738224502E+02  0.00000000000E+00 0. -1.
<scales pt_clust_3="53.42152" pt_clust_4="53.42152" pt_clust_5="120.68710" pt_clust_6="35.46155"></scales>
<clustering>
<clus scale="   35.462">  2  6  1 -1</clus>
<clus scale="   53.422">  3  4 -1 -1</clus>
<clus scale="  120.687">  2  5  1 -1</clus>
<clus scale="  133.639">  1  3  2 -1</clus>
</clustering>
</event>
<event>
 6    0  0.4582113E+002  0.1281345E+03  0.7546771E-02  0.1230250E+00
         21   -1    0    0  506  501  0.00000000000E+00  0.00000000000E+00  0.45868252344E+03  0.45868252344E+03  0.00000000000E+00 0. -1.
         21   -1    0    0  505  502 -0.00000000000E+00 -0.00000000000E+00 -0.15204641087E+03  0.15204641087E+03  0.00000000000E+00 0. -1.
         21    1    1    2  503  501 -0.11594000317E+02 -0.47937031543E+02  0.86681853297E+02  0.99730253823E+02  0.00000000000E+00 0.  1.
         21    1    1    2  504  503 -0.89769622984E+02 -0.55792984932E+02  0.79592965253E+02  0.13231206482E+03  0.00000000000E+00 0. -1.
         21    1    1    2  505  504  0.10219674977E+03  0.19704036616E+02 -0.87406293508E+02  0.13591278405E+03  0.00000000000E+00 0. -1.
         21    1    1    2  506  502 -0.83312646878E+00  0.84025979859E+02  0.22776758753E+03  0.24277383162E+03  0.00000000000E+00 0. -1.
<scales pt_clust_3="49.07746" pt_clust_4="49.07746" pt_clust_5="106.09723" pt_clust_6="84.03011"></scales>
<clustering>
<clus scale="   49.077">  3  4 -1 -1</clus>
<clus scale="   84.030">  1  6  2 -1</clus>
<clus scale="  106.097">  2  5  1 -1</clus>
<clus scale="   84.030">  1  3  2 -1</clus>
</clustering>
</event>
<event>
 6    0  0.4582113E+002  0.1172516E+03  0.7546771E-02  0.1247701E+00
         21   -1    0    0  504  501  0.00000000000E+00  0.00000000000E+00  0.19197946411E+04  0.19197946411E+04  0.00000000000E+00 0. -1.
         21   -1    0    0  506  502 -0.00000000000E+00 -0.00000000000E+00 -0.33183791282E+02  0.33183791282E+02  0.00000000000E+00 0. -1.
         21    1    1    2  503  502 -0.76394685029E+02  0.77909015145E+02  0.87673094318E+02  0.13997333321E+03  0.00000000000E+00 0. -1.
         21    1    1    2  504  503  0.64872314497E+02  0.46876994544E+02  0.41226359657E+03  0.41996088254E+03  0.00000000000E+00 0.  1.
         21    1    1    2  505  501  0.39901384963E+00 -0.59768973357E+02  0.89067471088E+03  0.89267795424E+03  0.00000000000E+00 0. -1.
         21    1    1    2  506  505  0.11123356683E+02 -0.65017036332E+02  0.49599944806E+03  0.50036626241E+03  0.00000000000E+00 0. -1.
<scales pt_clust_3="108.37568" pt_clust_4="80.03668" pt_clust_5="42.59903" pt_clust_6="42.59903"></scales>
<clustering>
<clus scale="   42.599">  5  6 -1 -1</clus>
<clus scale="   80.037">  1  4  2 -1</clus>
<clus scale="  108.376">  2  3  1 -1</clus>
<clus scale="   80.037">  1  3  2 -1</clus>
</clustering>
</event>
<event>
 6    0  0.4582113E+002  0.6797891E+02  0.7546771E-02  0.1367104E+00
         21   -1    0    0  505  501  0.00000000000E+00  0.00000000000E+00  0.50673819084E+03  0.50673819084E+03  0.00000000000E+00 0. -1.
         21   -1    0    0  504  502 -0.00000000000E+00 -0.00000000000E+00 -0.68150064399E+02  0.68150064399E+02  0.00000000000E+00 0. -1.
         21    1    1    2  503  501 -0.38425617623E+02 -0.24586877564E+02  0.27403490990E+03  0.27780600152E+03  0.00000000000E+00 0. -1.
         21    1    1    2  504  506 -0.40773115090E+02 -0.44190925948E+02 -0.10590846787E+02  0.61052853217E+02  0.00000000000E+00 0. -1.
         21    1    1    2  505  502 -0.25629877355E+02  0.25778431632E+02  0.80756092502E+02  0.88560513926E+02  0.00000000000E+00 0. -1.
         21    1    1    2  506  503  0.10482861007E+03  0.42999371879E+02  0.94387970824E+02  0.14746888657E+03  0.00000000000E+00 0. -1.
<scales pt_clust_3="55.71979" pt_clust_4="67.97891" pt_clust_5="36.35132" pt_clust_6="14000.00000"></scales>
<clustering>
<clus scale="   36.351">  1  5  2 -1</clus>
<clus scale="   55.720">  1  3  2 -1</clus>
<clus scale="   67.979">  2  4  1 -1</clus>
<clus scale="   36.351">  1  3  2 -1</clus>
</clustering>
</event>
<event>
 6    0  0.4582113E+002  0.1519365E+03  0.7546771E-02  0.1198113E+00
         21   -1    0    0  504  501  0.00000000000E+00  0.00000000000E+00  0.15827886430E+03  0.15827886430E+03  0.00000000000E+00 0. -1.
         21   -1    0    0  506  502 -0.00000000000E+00 -0.00000000000E+00 -0.24845588501E+03  0.24845588501E+03  0.00000000000E+00 0. -1.
         21    1    1    2  503  505 -0.10509468681E+03 -0.22282447520E+02 -0.10809150070E+03  0.15239807475E+03  0.00000000000E+00 0. -1.
         21    1    1    2  504  502  0.11663827764E+03  0.10051493304E+03  0.45348552016E+02  0.16051240059E+03  0.00000000000E+00 0. -1.
         21    1    1    2  505  501  0.42573174234E+01 -0.40534955046E+02  0.57674020632E+01  0.41163943674E+02  0.00000000000E+00 0. -1.
         21    1    1    2  506  503 -0.15800908254E+02 -0.37697530471E+02 -0.33201474086E+02  0.52660330294E+02  0.00000000000E+00 0. -1.
<scales pt_clust_3="38.38194" pt_clust_4="138.61020" pt_clust_5="40.75791" pt_clust_6="38.38194"></scales>
<clustering>
<clus scale="   38.382">  3  6 -1 -1</clus>
<clus scale="   40.758">  1  5  2 -1</clus>
<clus scale="  138.610">  1  4  2 -1</clus>
<clus scale="   40.758">  1  3  2 -1</clus>
</clustering>
</event>
<event>
 6    0  0.4582113E+002  0.9910064E+02  0.7546771E-02  0.1282199E+00
         21   -1    0    0  505  501  0.00000000000E+00  0.00000000000E+00  0.14339813139E+04  0.14339813139E+04  0.00000000000E+00 0. -1.
         21   -1    0    0  506  502 -0.00000000000E+00 -0.00000000000E+00 -0.10563903846E+03  0.10563903846E+03  0.00000000000E+00 0. -1.
         21    1    1    2  503  502 -0.35883732345E+02  0.28221278289E+01  0.14695491952E+03  0.15129889300E+03  0.00000000000E+00 0.  1.
         21    1    1    2  504  501 -0.15709119555E+02  0.94473262897E+02  0.94904390136E+03  0.95386387946E+03  0.00000000000E+00 0. -1.
         21    1    1    2  505  503  0.23402368588E+02 -0.10991309831E+03  0.32125046430E+03  0.34033868550E+03  0.00000000000E+00 0. -1.
         21    1    1    2  506  504  0.28190483312E+02  0.12617707581E+02 -0.88907009761E+02  0.94118894376E+02  0.00000000000E+00 0. -1.
<scales pt_clust_3="31.90663" pt_clust_4="14000.00000" pt_clust_5="99.10064" pt_clust_6="30.88543"></scales>
<clustering>
<clus scale="   30.885">  2  6  1 -1</clus>
<clus scale="   31.907">  2  3  1 -1</clus>
<clus scale="   99.101">  2  5  1 -1</clus>
<clus scale="   99.101">  1  3  2 -1</clus>
</clustering>
</event>
<event>
 6    0  0.4582113E+002  0.1476471E+03  0.7546771E-02  0.1203394E+00
         21   -1    0    0  504  501  0.00000000000E+00  0.00000000000E+00  0.18297239636E+04  0.18297239636E+04  0.00000000000E+00 0.  1.
         21   -1    0    0  503  502 -0.00000000000E+00 -0.00000000000E+00 -0.22061381023E+02  0.22061381023E+02  0.00000000000E+00 0.  1.
         21    1    1    2  503  506  0.57795380906E+02 -0.35971148496E+02  0.31397085164E+03  0.32126612840E+03  0.00000000000E+00 0.  1.
         21    1    1    2  504  502 -0.15123057347E+03  0.19970002868E+02  0.34953360282E+03  0.38137019662E+03  0.00000000000E+00 0.  1.
         21    1    1    2  505  501  0.52788487627E+02  0.33555415748E+02  0.63887525426E+03  0.64193004358E+03  0.00000000000E+00 0.  1.
         21    1    1    2  506  505  0.40646704940E+02 -0.17554270120E+02  0.50528287388E+03  0.50721897604E+03  0.00000000000E+00 0.  1.
<scales pt_clust_3="41.55526" pt_clust_4="138.36397" pt_clust_5="62.55070" pt_clust_6="41.55526"></scales>
<clustering>
<clus scale="   41.555">  3  6 -1 -1</clus>
<clus scale="   62.551">  1  5  2 -1</clus>
<clus scale="  138.364">  2  4  1 -1</clus>
<clus scale="   62.551">  1  3  2 -1</clus>
</clustering>
</event>
<event>
 6    0  0.4582113E+002  0.1678326E+03  0.7546771E-02  0.1180127E+00
         21   -1    0    0  504  501  0.00000000000E+00  0.00000000000E+00  0.77291389354E+03  0.77291389354E+03  0.00000000000E+00 0. -1.
         21   -1    0    0  506  502 -0.00000000000E+00 -0.00000000000E+00 -0.16673598914E+03  0.16673598914E+03  0.00000000000E+00 0. -1.
         21    1    1    2  503  505 -0.43100492078E+02  0.34908763822E+01  0.21345759705E+02  0.48223231877E+02  0.00000000000E+00 0. -1.
         21    1    1    2  504  502 -0.57132348976E+02 -0.77123424582E+02 -0.10177434277E+03  0.13989333352E+03  0.00000000000E+00 0. -1.
         21    1    1    2  505  501  0.13867870205E+03  0.10631610098E+03  0.67823356627E+03  0.70038251417E+03  0.00000000000E+00 0. -1.
         21    1    1    2  506  503 -0.38445860994E+02 -0.32683552783E+02  0.83729211928E+01  0.51150803116E+02  0.00000000000E+00 0. -1.
<scales pt_clust_3="35.73253" pt_clust_4="167.83255" pt_clust_5="14000.00000" pt_clust_6="94.82615"></scales>
<clustering>
<clus scale="   35.733">  3  6 -1 -1</clus>
<clus scale="   94.826">  2  3  1 -1</clus>
<clus scale="  167.833">  2  4  1 -1</clus>
<clus scale="  167.833">  1  3  2 -1</clus>
</clustering>
</event>
<event>
 6    0  0.4582113E+002  0.7219910E+02  0.7546771E-02  0.1352771E+00
         21   -1    0    0  506  501  0.00000000000E+00  0.00000000000E+00  0.51880765174E+03  0.51880765174E+03  0.00000000000E+00 0.  1.
         21   -1    0    0  503  502 -0.00000000000E+00 -0.00000000000E+00 -0.11145054381E+03  0.11145054381E+03  0.00000000000E+00 0. -1.
         21    1    1    2  503  501  0.89741218450E+02 -0.32866465289E+02 -0.39501964427E+02  0.10341226244E+03  0.00000000000E+00 0. -1.
         21    1    1    2  504  502 -0.52599157620E+02 -0.31867225317E+02 -0.57172907502E+00  0.61502181310E+02  0.00000000000E+00 0. -1.
         21    1    1    2  505  504 -0.62226976727E+02  0.30820603762E+02  0.15445881455E+03  0.16935061748E+03  0.00000000000E+00 0.  1.
         21    1    1    2  506  505  0.25084915898E+02  0.33913086844E+02  0.29297198689E+03  0.29599313432E+03  0.00000000000E+00 0.  1.
<scales pt_clust_3="14000.00000" pt_clust_4="56.24132" pt_clust_5="72.19910" pt_clust_6="42.18235"></scales>
<clustering>
<clus scale="   42.182">  1  6  2 -1</clus>
<clus scale="   56.241">  2  4  1 -1</clus>
<clus scale="   72.199">  1  5  2 -1</clus>
<clus scale="   42.182">  1  3  2 -1</clus>
</clustering>
</event>
<event>
 6    0  0.4582113E+002  0.2862045E+03  0.7546771E-02  0.1092348E+00
         21   -1    0    0  503  501  0.00000000000E+00  0.00000000000E+00  0.19365296614E+04  0.19365296614E+04  0.00000000000E+00 0.  1.
         21   -1    0    0  506  502 -0.00000000000E+00 -0.00000000000E+00 -0.53949437125E+03  0.53949437125E+03  0.00000000000E+00 0. -1.
         21    1    1    2  503  505 -0.23811469608E+03 -0.43437687050E+02  0.12187914403E+04  0.12425932626E+04  0.00000000000E+00 0.  1.
         21    1    1    2  504  501  0.18531165703E+03 -0.17293139901E+03  0.31511702339E+03  0.40440625295E+03  0.00000000000E+00 0. -1.
         21    1    1    2  505  502 -0.48470392676E+02 -0.44355300325E+02  0.30174412161E+03  0.30881432376E+03  0.00000000000E+00 0.  1.
         21    1    1    2  506  504  0.10127343172E+03  0.26072438638E+03 -0.43861729520E+03  0.52021019336E+03  0.00000000000E+00 0. -1.
<scales pt_clust_3="36.83506" pt_clust_4="253.46731" pt_clust_5="36.83506" pt_clust_6="277.33469"></scales>
<clustering>
<clus scale="   36.835">  3  5 -1 -1</clus>
<clus scale="  253.467">  1  4  2 -1</clus>
<clus scale="  277.335">  2  6  1 -1</clus>
<clus scale="  253.467">  1  3  2 -1</clus>
</clustering>
</event>
<event>
 6    0  0.4582113E+002  0.2104320E+03  0.7546771E-02  0.1141224E+00
         21   -1    0    0  504  501  0.00000000000E+00  0.00000000000E+00  0.39679723244E+03  0.39679723244E+03  0.00000000000E+00 0. -1.
         21   -1    0    0  506  502 -0.00000000000E+00 -0.00000000000E+00 -0.61347022405E+03  0.61347022405E+03  0.00000000000E+00 0.  1.
         21    1    1    2  503  501 -0.14710556844E+02  0.30238596691E+02  0.11625033345E+02  0.35579693826E+02  0.00000000000E+00 0.  1.
         21    1    1    2  504  505  0.13248645234E+03  0.14336205577E+03  0.29911063126E+03  0.35717293966E+03  0.00000000000E+00 0. -1.
         21    1    1    2  505  502  0.51095856508E+02  0.47593683535E+01 -0.22501412719E+02  0.56033487432E+02  0.00000000000E+00 0.  1.
         21    1    1    2  506  503 -0.16887175201E+03 -0.17836002082E+03 -0.50490724350E+03  0.56148133557E+03  0.00000000000E+00 0.  1.
<scales pt_clust_3="33.62697" pt_clust_4="14000.00000" pt_clust_5="50.80467" pt_clust_6="210.43203"></scales>
<clustering>
<clus scale="   33.627">  1  3  2 -1</clus>
<clus scale="   50.805">  2  5  1 -1</clus>
<clus scale="  210.432">  2  6  1 -1</clus>
<clus scale="   33.627">  1  3  2 -1</clus>
</clustering>
</event>
<event>
 6    0  0.4582113E+002  0.1483910E+03  0.7546771E-02  0.1202464E+00
         21   -1    0    0  506  501  0.00000000000E+00  0.00000000000E+00  0.19955840494E+03  0.19955840494E+03  0.00000000000E+00 0.  1.
         21   -1    0    0  505  502 -0.00000000000E+00 -0.00000000000E+00 -0.61302683820E+03  0.61302683820E+03  0.00000000000E+00 0.  1.
         21    1    1    2  503  501 -0.13616747209E+03 -0.29308560690E+02 -0.19289009467E+02  0.14061521280E+03  0.00000000000E+00 0.  1.
         21    1    1    2  504  502 -0.12647645514E+03 -0.86440219090E+02 -0.26514319210E+03  0.30621743500E+03  0.00000000000E+00 0.  1.
         21    1    1    2  505  503  0.58558248617E+02 -0.11425926390E+02 -0.10924158710E+03  0.12447226449E+03  0.00000000000E+00 0. -1.
         21    1    1    2  506  504  0.20408567861E+03  0.12717470617E+03 -0.19794644600E+02  0.24128033085E+03  0.00000000000E+00 0.  1.
<scales pt_clust_3="130.50354" pt_clust_4="148.39097" pt_clust_5="59.66255" pt_clust_6="14000.00000"></scales>
<clustering>
<clus scale="   59.663">  2  5  1 -1</clus>
<clus scale="  130.504">  1  3  2 -1</clus>
<clus scale="  148.391">  2  4  1 -1</clus>
<clus scale="  130.504">  1  3  2 -1</clus>
</clustering>
</event>
<event>
 6    0  0.4582113E+002  0.1082762E+03  0.7546771E-02  0.1263796E+00
         21   -1    0    0  503  501  0.00000000000E+00  0.00000000000E+00  0.16880303644E+04  0.16880303644E+04  0.00000000000E+00 0. -1.
         21   -1    0    0  506  502 -0.00000000000E+00 -0.00000000000E+00 -0.39878178157E+02  0.39878178157E+02  0.00000000000E+00 0.  1.
         21    1    1    2  503  505 -0.30210349066E+02  0.39799766131E+02  0.38014933142E+03  0.38341909284E+03  0.00000000000E+00 0.  1.
         21    1    1    2  504  501 -0.61034371568E+02 -0.92316356637E+02  0.10643524772E+04  0.10700905102E+04  0.00000000000E+00 0. -1.
         21    1    1    2  505  502  0.11018765030E+03  0.80630316387E+02  0.11172814785E+03  0.17642489966E+03  0.00000000000E+00 0.  1.
         21    1    1    2  506  504 -0.18942929661E+02 -0.28113725881E+02  0.91922229741E+02  0.97974039866E+02  0.00000000000E+00 0.  1.
<scales pt_clust_3="49.50198" pt_clust_4="108.27617" pt_clust_5="14000.00000" pt_clust_6="33.90009"></scales>
<clustering>
<clus scale="   33.900">  2  6  1 -1</clus>
<clus scale="   49.502">  1  3  2 -1</clus>
<clus scale="  108.276">  1  4  2 -1</clus>
<clus scale="   49.502">  1  3  2 -1</clus>
</clustering>
</event>
<event>
 6    0  0.4582113E+002  0.1274080E+03  0.7546771E-02  0.1231353E+00
         21   -1    0    0  506  501  0.00000000000E+00  0.00000000000E+00  0.11733322584E+04  0.11733322584E+04  0.00000000000E+00 0. -1.
         21   -1    0    0  505  502 -0.00000000000E+00 -0.00000000000E+00 -0.17682916798E+03  0.17682916798E+03  0.00000000000E+00 0. -1.
         21    1    1    2  503  501 -0.81883358674E+02  0.34089887809E+02  0.29166680730E+03  0.30485493495E+03  0.00000000000E+00 0. -1.
         21    1    1    2  504  503 -0.88115833069E+02  0.17226043471E+02  0.50231116468E+03  0.51027212620E+03  0.00000000000E+00 0. -1.
         21    1    1    2  505  504  0.76045679200E+02 -0.87995453620E+02 -0.13766019326E+03  0.18021230255E+03  0.00000000000E+00 0. -1.
         21    1    1    2  506  502  0.93953512543E+02  0.36679522339E+02  0.34018531167E+03  0.35482206267E+03  0.00000000000E+00 0.  1.
<scales pt_clust_3="49.67688" pt_clust_4="49.67688" pt_clust_5="117.19528" pt_clust_6="100.85956"></scales>
<clustering>
<clus scale="   49.677">  3  4 -1 -1</clus>
<clus scale="  100.860">  1  6  2 -1</clus>
<clus scale="  117.195">  2  5  1 -1</clus>
<clus scale="  100.860">  1  3  2 -1</clus>
</clustering>
</event>
<event>
 6    0  0.4582113E+002  0.1042678E+03  0.7546771E-02  0.1271569E+00
         21   -1    0    0  504  501  0.00000000000E+00  0.00000000000E+00  0.84284317131E+02  0.84284317131E+02  0.00000000000E+00 0.  1.
         21   -1    0    0  505  502 -0.00000000000E+00 -0.00000000000E+00 -0.60848446959E+03  0.60848446959E+03  0.00000000000E+00 0.  1.
         21    1    1    2  503  501  0.43993462763E+02 -0.51664818949E+01  0.10462167455E+01  0.44308146774E+02  0.00000000000E+00 0.  1.
         21    1    1    2  504  502 -0.41659583813E+02  0.43942273369E+02  0.13359097843E+02  0.62007336723E+02  0.00000000000E+00 0.  1.
         21    1    1    2  505  506  0.57809622955E+01  0.92646200974E+02 -0.29866829126E+03  0.31276106900E+03  0.00000000000E+00 0.  1.
         21    1    1    2  506  503 -0.81148412452E+01 -0.13142199245E+03 -0.23993717579E+03  0.27369223422E+03  0.00000000000E+00 0.  1.
<scales pt_clust_3="44.29579" pt_clust_4="43.36756" pt_clust_5="104.26779" pt_clust_6="14000.00000"></scales>
<clustering>
<clus scale="   44.296">  1  3  2 -1</clus>
<clus scale="   43.368">  1  4  2 -1</clus>
<clus scale="  104.268">  2  5  1 -1</clus>
<clus scale="   44.296">  1  3  2 -1</clus>
</clustering>
</event>
<event>
 6    0  0.4582113E+002  0.1546044E+03  0.7546771E-02  0.1194927E+00
         21   -1    0    0  503  501  0.00000000000E+00  0.00000000000E+00  0.69087413236E+03  0.69087413236E+03  0.00000000000E+00 0. -1.
         21   -1    0    0  506  502 -0.00000000000E+00 -0.00000000000E+00 -0.41499214566E+03  0.41499214566E+03  0.00000000000E+00 0.  1.
         21    1    1    2  503  505  0.94678458101E+02  0.12119403472E+03 -0.23979302071E+03  0.28487312485E+03  0.00000000000E+00 0.  1.
         21    1    1    2  504  501  0.42696635812E+02 -0.66571868171E+00  0.36675773365E+03  0.36923526522E+03  0.00000000000E+00 0. -1.
         21    1    1    2  505  502 -0.26662041742E+02  0.16237589361E+02 -0.12353810279E+03  0.12742129579E+03  0.00000000000E+00 0. -1.
         21    1    1    2  506  504 -0.11071305217E+03 -0.13676590540E+03  0.27245537655E+03  0.32433659216E+03  0.00000000000E+00 0. -1.
<scales pt_clust_3="14000.00000" pt_clust_4="42.58673" pt_clust_5="31.21736" pt_clust_6="154.60440"></scales>
<clustering>
<clus scale="   31.217">  2  5  1 -1</clus>
<clus scale="   42.587">  1  4  2 -1</clus>
<clus scale="  154.604">  1  6  2 -1</clus>
<clus scale="   42.587">  1  3  2 -1</clus>
</clustering>
</event>
<event>
 6    0  0.4582113E+002  0.9455232E+02  0.7546771E-02  0.1292188E+00
         21   -1    0    0  504  501  0.00000000000E+00  0.00000000000E+00  0.23535654886E+04  0.23535654886E+04  0.00000000000E+00 0. -1.
         21   -1    0    0  503  502 -0.00000000000E+00 -0.00000000000E+00 -0.34573136407E+02  0.34573136407E+02  0.00000000000E+00 0. -1.
         21    1    1    2  503  506 -0.46104007092E+02 -0.12469826678E+03  0.12888637837E+04  0.12957025469E+04  0.00000000000E+00 0. -1.
         21    1    1    2  504  502 -0.56034628133E+01  0.51845342558E+02 -0.48908158612E+01  0.52376124525E+02  0.00000000000E+00 0. -1.
         21    1    1    2  505  501  0.29624682840E+02  0.82691960315E+01  0.21263005978E+03  0.21484306775E+03  0.00000000000E+00 0. -1.
         21    1    1    2  506  505  0.22082787066E+02  0.64583728192E+02  0.82238932459E+03  0.82521688581E+03  0.00000000000E+00 0. -1.
<scales pt_clust_3="94.55232" pt_clust_4="52.20426" pt_clust_5="30.75714" pt_clust_6="14000.00000"></scales>
<clustering>
<clus scale="   30.757">  1  5  2 -1</clus>
<clus scale="   52.204">  2  4  1 -1</clus>
<clus scale="   94.552">  2  3  1 -1</clus>
<clus scale="   30.757">  1  3  2 -1</clus>
</clustering>
</event>
<event>
 6    0  0.4582113E+002  0.1016217E+03  0.7546771E-02  0.1276922E+00
         21   -1    0    0  506  501  0.00000000000E+00  0.00000000000E+00  0.33348326615E+03  0.33348326615E+03  0.00000000000E+00 0. -1.
         21   -1    0    0  505  502 -0.00000000000E+00 -0.00000000000E+00 -0.23780586184E+03  0.23780586184E+03  0.00000000000E+00 0.  1.
         21    1    1    2  503  501 -0.39217668889E+02  0.20770613957E+02  0.37127266134E+02  0.57860849007E+02  0.00000000000E+00 0.  1.
         21    1    1    2  504  502  0.39877172331E+02 -0.28090041796E+02 -0.91948789795E+02  0.10408563429E+03  0.00000000000E+00 0.  1.
         21    1    1    2  505  503 -0.48676078624E+02 -0.77770386586E+02 -0.10283937683E+03  0.13781702031E+03  0.00000000000E+00 0.  1.
         21    1    1    2  506  504  0.48016575182E+02  0.85089814424E+02  0.25333830481E+03  0.27152562438E+03  0.00000000000E+00 0. -1.
<scales pt_clust_3="44.37842" pt_clust_4="47.84346" pt_clust_5="101.62168" pt_clust_6="14000.00000"></scales>
<clustering>
<clus scale="   44.378">  1  3  2 -1</clus>
<clus scale="   47.843">  2  4  1 -1</clus>
<clus scale="  101.622">  2  5  1 -1</clus>
<clus scale="   44.378">  1  3  2 -1</clus>
</clustering>
</event>
<event>
 6    0  0.4582113E+002  0.1162575E+03  0.7546771E-02  0.1249402E+00
         21   -1    0    0  505  501  0.00000000000E+00  0.00000000000E+00  0.35493241499E+03  0.35493241499E+03  0.00000000000E+00 0.  1.
         21   -1    0    0  504  502 -0.00000000000E+00 -0.00000000000E+00 -0.40803441851E+03  0.40803441851E+03  0.00000000000E+00 0. -1.
         21    1    1    2  503  506  0.82892960113E+02 -0.68745457588E+02 -0.25568619449E+03  0.27743938226E+03  0.00000000000E+00 0. -1.
         21    1    1    2  504  501 -0.73303445373E+01  0.13199008775E+03  0.24915644012E+03  0.28205327311E+03  0.00000000000E+00 0.  1.
         21    1    1    2  505  503 -0.60898401235E+02 -0.35595259203E+02  0.59873437235E+02  0.92522787664E+02  0.00000000000E+00 0.  1.
         21    1    1    2  506  502 -0.14664214340E+02 -0.27649370961E+02 -0.10644568639E+03  0.11095139047E+03  0.00000000000E+00 0. -1.
<scales pt_clust_3="116.25750" pt_clust_4="14000.00000" pt_clust_5="71.99516" pt_clust_6="31.29739"></scales>
<clustering>
<clus scale="   31.297">  2  6  1 -1</clus>
<clus scale="   71.995">  1  5  2 -1</clus>
<clus scale="  116.257">  2  3  1 -1</clus>
<clus scale="   71.995">  1  3  2 -1</clus>
</clustering>
</event>
<event>
 6    0  0.4582113E+002  0.1180549E+03  0.7546771E-02  0.1246341E+00
         21   -1    0    0  503  501  0.00000000000E+00  0.00000000000E+00  0.10963792901E+03  0.10963792901E+03  0.00000000000E+00 0.  1.
         21   -1    0    0  506  502 -0.00000000000E+00 -0.00000000000E+00 -0.88354502358E+03  0.88354502358E+03  0.00000000000E+00 0. -1.
         21    1    1    2  503  505  0.20164831192E+02  0.29461084118E+02  0.10174722399E+02  0.37122781015E+02  0.00000000000E+00 0. -1.
         21    1    1    2  504  501 -0.43890080322E+01  0.30379049001E+02  0.64138520490E+02  0.71104850891E+02  0.00000000000E+00 0.  1.
         21    1    1    2  505  502 -0.78061117816E+02 -0.11547258174E+03 -0.70929885491E+03  0.72286397117E+03  0.00000000000E+00 0. -1.
         21    1    1    2  506  504  0.62285294656E+02  0.55632448621E+02 -0.13892148255E+03  0.16209134950E+03  0.00000000000E+00 0.  1.
<scales pt_clust_3="49.80879" pt_clust_4="30.69446" pt_clust_5="118.05487" pt_clust_6="14000.00000"></scales>
<clustering>
<clus scale="   30.694">  1  4  2 -1</clus>
<clus scale="   49.809">  1  3  2 -1</clus>
<clus scale="  118.055">  2  5  1 -1</clus>
<clus scale="   30.694">  1  3  2 -1</clus>
</clustering>
</event>
<event>
 6    0  0.4582113E+002  0.1826178E+03  0.7546771E-02  0.1165293E+00
         21   -1    0    0  506  501  0.00000000000E+00  0.00000000000E+00  0.15250360473E+03  0.15250360473E+03  0.00000000000E+00 0.  1.
         21   -1    0    0  503  502 -0.00000000000E+00 -0.00000000000E+00 -0.59366738678E+03  0.59366738678E+03  0.00000000000E+00 0. -1.
         21    1    1    2  503  501  0.30452911329E+02 -0.13102719804E+02 -0.45180683839E+02  0.56038872819E+02  0.00000000000E+00 0. -1.
         21    1    1    2  504  502 -0.65021752581E+02  0.32673017487E+02 -0.46528756354E+02  0.86372909806E+02  0.00000000000E+00 0.  1.
         21    1    1    2  505  504 -0.14577247101E+03 -0.69834229876E+02 -0.38103335066E+03  0.41389956183E+03  0.00000000000E+00 0. -1.
         21    1    1    2  506  505  0.18034131226E+03  0.50263932194E+02  0.31579008799E+02  0.18985964706E+03  0.00000000000E+00 0.  1.
<scales pt_clust_3="33.15209" pt_clust_4="68.72011" pt_clust_5="14000.00000" pt_clust_6="182.61783"></scales>
<clustering>
<clus scale="   33.152">  2  3  1 -1</clus>
<clus scale="   68.720">  2  4  1 -1</clus>
<clus scale="  182.618">  1  6  2 -1</clus>
<clus scale="  182.618">  1  3  2 -1</clus>
</clustering>
</event>
<event>
 6    0  0.4582113E+002  0.2377677E+03  0.7546771E-02  0.1121289E+00
         21   -1    0    0  502  501  0.00000000000E+00  0.00000000000E+00  0.14634365427E+04  0.14634365427E+04  0.00000000000E+00 0. -1.
         21   -1    0    0  506  502 -0.00000000000E+00 -0.00000000000E+00 -0.57793234870E+02  0.57793234870E+02  0.00000000000E+00 0. -1.
         21    1    1    2  503  504  0.25159589775E+03  0.18555527770E+02  0.71953278043E+03  0.76247768852E+03  0.00000000000E+00 0. -1.
         21    1    1    2  504  505 -0.86537051362E+02  0.38674960578E+02  0.26809347423E+03  0.28435633413E+03  0.00000000000E+00 0. -1.
         21    1    1    2  505  501 -0.12514249379E+03 -0.16738841503E+02  0.39206803681E+03  0.41189583399E+03  0.00000000000E+00 0. -1.
         21    1    1    2  506  503 -0.39916352595E+02 -0.40491646845E+02  0.25949016382E+02  0.62499920959E+02  0.00000000000E+00 0. -1.
<scales pt_clust_3="229.93270" pt_clust_4="52.45035" pt_clust_5="52.45035" pt_clust_6="56.85850"></scales>
<clustering>
<clus scale="   52.450">  4  5 -1 -1</clus>
<clus scale="   56.858">  2  6  1 -1</clus>
<clus scale="  229.933">  2  3  1 -1</clus>
<clus scale="  237.768">  1  3  2 -1</clus>
</clustering>
</event>
<event>
 6    0  0.4582113E+002  0.1182591E+03  0.7546771E-02  0.1245997E+00
         21   -1    0    0  504  501  0.00000000000E+00  0.00000000000E+00  0.71425813520E+03  0.71425813520E+03  0.00000000000E+00 0.  1.
         21   -1    0    0  506  502 -0.00000000000E+00 -0.00000000000E+00 -0.61656502501E+03  0.61656502501E+03  0.00000000000E+00 0. -1.
         21    1    1    2  503  502 -0.74757695255E+02 -0.78727502937E+02 -0.39739656355E+03  0.41195965997E+03  0.00000000000E+00 0. -1.
         21    1    1    2  504  505  0.16253427321E+02 -0.50844687589E+02  0.10171561211E+03  0.11487132759E+03  0.00000000000E+00 0.  1.
         21    1    1    2  505  503  0.12543985716E+02  0.18178427041E+03 -0.16227866043E+03  0.24400253314E+03  0.00000000000E+00 0. -1.
         21    1    1    2  506  501  0.45960282218E+02 -0.52212079883E+02  0.55565272207E+03  0.55998963952E+03  0.00000000000E+00 0.  1.
<scales pt_clust_3="108.87673" pt_clust_4="53.37936" pt_clust_5="14000.00000" pt_clust_6="118.25906"></scales>
<clustering>
<clus scale="   53.379">  1  4  2 -1</clus>
<clus scale="  108.877">  2  3  1 -1</clus>
<clus scale="  118.259">  1  6  2 -1</clus>
<clus scale="   53.379">  1  3  2 -1</clus>
</clustering>
</event>
<event>
 6    0  0.4582113E+002  0.1107239E+03  0.7546771E-02  0.1259235E+00
         21   -1    0    0  505  501  0.00000000000E+00  0.00000000000E+00  0.13958168275E+04  0.13958168275E+04  0.00000000000E+00 0.  1.
         21   -1    0    0  501  502 -0.00000000000E+00 -0.00000000000E+00 -0.46145275140E+02  0.46145275140E+02  0.00000000000E+00 0. -1.
         21    1    1    2  503  506  0.32614571480E+02  0.33285813522E+02  0.14836514108E+03  0.15551164182E+03  0.00000000000E+00 0.  1.
         21    1    1    2  504  502 -0.33728586358E+02  0.34437643994E+02 -0.12389474473E+02  0.49770151088E+02  0.00000000000E+00 0. -1.
         21    1    1    2  505  503 -0.56601745578E+02 -0.85155043938E+02  0.11237796049E+04  0.11284217915E+04  0.00000000000E+00 0.  1.
         21    1    1    2  506  504  0.57715760457E+02  0.17431586422E+02  0.89916280860E+02  0.10825851825E+03  0.00000000000E+00 0. -1.
<scales pt_clust_3="39.94988" pt_clust_4="48.20341" pt_clust_5="100.96997" pt_clust_6="39.94988"></scales>
<clustering>
<clus scale="   39.950">  3  6 -1 -1</clus>
<clus scale="   48.203">  2  4  1 -1</clus>
<clus scale="  100.970">  1  5  2 -1</clus>
<clus scale="  100.970">  1  3  2 -1</clus>
</clustering>
</event>
<event>
 6    0  0.4582113E+002  0.9545970E+02  0.7546771E-02  0.1290144E+00
         21   -1    0    0  505  501  0.00000000000E+00  0.00000000000E+00  0.26000641684E+03  0.26000641684E+03  0.00000000000E+00 0.  1.
         21   -1    0    0  503  502 -0.00000000000E+00 -0.00000000000E+00 -0.18686958369E+03  0.18686958369E+03  0.00000000000E+00 0.  1.
         21    1    1    2  503  501 -0.24177050237E+02 -0.34338903446E+02  0.11880704917E+03  0.12601113038E+03  0.00000000000E+00 0.  1.
         21    1    1    2  504  502  0.13578503927E+02  0.27284343288E+02 -0.10628239170E+03  0.11056562731E+03  0.00000000000E+00 0.  1.
         21    1    1    2  505  506 -0.83578589647E+02  0.14410919911E+02  0.76848850273E+02  0.11444999366E+03  0.00000000000E+00 0. -1.
         21    1    1    2  506  504  0.94177135957E+02 -0.73563597526E+01 -0.16236674591E+02  0.95849249176E+02  0.00000000000E+00 0.  1.
<scales pt_clust_3="40.61352" pt_clust_4="30.47640" pt_clust_5="14000.00000" pt_clust_6="95.45970"></scales>
<clustering>
<clus scale="   30.476">  2  4  1 -1</clus>
<clus scale="   40.614">  1  3  2 -1</clus>
<clus scale="   95.460">  2  6  1 -1</clus>
<clus scale="   40.614">  1  3  2 -1</clus>
</clustering>
</event>
<event>
 6    0  0.4582113E+002  0.2250506E+03  0.7546771E-02  0.1130173E+00
         21   -1    0    0  504  501  0.00000000000E+00  0.00000000000E+00  0.69286260259E+03  0.69286260259E+03  0.00000000000E+00 0. -1.
         21   -1    0    0  506  502 -0.00000000000E+00 -0.00000000000E+00 -0.10230730700E+04  0.10230730700E+04  0.00000000000E+00 0.  1.
         21    1    1    2  503  501  0.10616298473E+03  0.10112165840E+03  0.36099057156E+02  0.15099440735E+03  0.00000000000E+00 0. -1.
         21    1    1    2  504  502 -0.19730582076E+03 -0.10551784609E+03  0.56565811483E+03  0.60830313629E+03  0.00000000000E+00 0. -1.
         21    1    1    2  505  503  0.30974767570E+02  0.24716780453E+02 -0.23743619951E+02  0.46196482013E+02  0.00000000000E+00 0.  1.
         21    1    1    2  506  505  0.60168068463E+02 -0.20320592765E+02 -0.90822401944E+03  0.91044164692E+03  0.00000000000E+00 0.  1.
<scales pt_clust_3="33.24644" pt_clust_4="215.77359" pt_clust_5="33.24644" pt_clust_6="63.50687"></scales>
<clustering>
<clus scale="   33.246">  3  5 -1 -1</clus>
<clus scale="   63.507">  2  6  1 -1</clus>
<clus scale="  215.774">  1  4  2 -1</clus>
<clus scale="  215.774">  1  3  2 -1</clus>
</clustering>
</event>
<event>
 6    0  0.4582113E+002  0.1059362E+03  0.7546771E-02  0.1268286E+00
         21   -1    0    0  505  501  0.00000000000E+00  0.00000000000E+00  0.52077664307E+02  0.52077664307E+02  0.00000000000E+00 0.  1.
         21   -1    0    0  503  502 -0.00000000000E+00 -0.00000000000E+00 -0.77249977508E+03  0.77249977508E+03  0.00000000000E+00 0.  1.
         21    1    1    2  503  501  0.11125522987E+03  0.32230905264E+02 -0.76816627546E+02  0.13898687598E+03  0.00000000000E+00 0.  1.
         21    1    1    2  504  506 -0.26035515666E+02 -0.26652464209E+02 -0.17810736723E+03  0.18196273296E+03  0.00000000000E+00 0.  1.
         21    1    1    2  505  504 -0.96909316171E+02  0.50470699052E+02 -0.16618173504E+03  0.19888457980E+03  0.00000000000E+00 0.  1.
         21    1    1    2  506  502  0.11689601965E+02 -0.56049140107E+02 -0.29931638096E+03  0.30474325064E+03  0.00000000000E+00 0.  1.
<scales pt_clust_3="105.93617" pt_clust_4="35.19898" pt_clust_5="14000.00000" pt_clust_6="94.60063"></scales>
<clustering>
<clus scale="   35.199">  4  6 -1 -1</clus>
<clus scale="   94.601">  2  4  1 -1</clus>
<clus scale="  105.936">  1  3  2 -1</clus>
<clus scale="  105.936">  1  3  2 -1</clus>
</clustering>
</event>
<event>
 6    0  0.4582113E+002  0.1690080E+03  0.7546771E-02  0.1178886E+00
         21   -1    0    0  506  501  0.00000000000E+00  0.00000000000E+00  0.25959063251E+04  0.25959063251E+04  0.00000000000E+00 0.  1.
         21   -1    0    0  505  502 -0.00000000000E+00 -0.00000000000E+00 -0.24615450471E+02  0.24615450471E+02  0.00000000000E+00 0.  1.
         21    1    1    2  503  502  0.10100146969E+03  0.54735955885E+02  0.91261109686E+03  0.91981320705E+03  0.00000000000E+00 0.  1.
         21    1    1    2  504  501 -0.60781022407E+01 -0.16404873506E+03  0.77102216874E+03  0.78830458294E+03  0.00000000000E+00 0.  1.
         21    1    1    2  505  504 -0.10894218153E+03  0.47590134902E+02  0.32252049012E+03  0.34373345256E+03  0.00000000000E+00 0.  1.
         21    1    1    2  506  503  0.14018814085E+02  0.61722644271E+02  0.56513711893E+03  0.56867053305E+03  0.00000000000E+00 0.  1.
<scales pt_clust_3="52.75753" pt_clust_4="153.33595" pt_clust_5="118.88322" pt_clust_6="52.75753"></scales>
<clustering>
<clus scale="   52.758">  3  6 -1 -1</clus>
<clus scale="  118.883">  2  5  1 -1</clus>
<clus scale="  153.336">  2  4  1 -1</clus>
<clus scale="  169.008">  1  3  2 -1</clus>
</clustering>
</event>
<event>
 6    0  0.4582113E+002  0.1803999E+03  0.7546771E-02  0.1167417E+00
         21   -1    0    0  504  501  0.00000000000E+00  0.00000000000E+00  0.74386366454E+03  0.74386366454E+03  0.00000000000E+00 0. -1.
         21   -1    0    0  503  502 -0.00000000000E+00 -0.00000000000E+00 -0.29462995759E+03  0.29462995759E+03  0.00000000000E+00 0. -1.
         21    1    1    2  503  506 -0.87078958290E+02  0.16083488193E+03  0.22948794544E+03  0.29345412133E+03  0.00000000000E+00 0. -1.
         21    1    1    2  504  505 -0.38348908771E+02 -0.83429163851E+01  0.24690840491E+03  0.25000800681E+03  0.00000000000E+00 0. -1.
         21    1    1    2  505  502  0.14917755304E+03 -0.10463368971E+03 -0.22533149076E+03  0.28978687355E+03  0.00000000000E+00 0. -1.
         21    1    1    2  506  501 -0.23749685978E+02 -0.47858275844E+02  0.19816884737E+03  0.20524462044E+03  0.00000000000E+00 0. -1.
<scales pt_clust_3="14000.00000" pt_clust_4="39.24593" pt_clust_5="180.39994" pt_clust_6="64.62650"></scales>
<clustering>
<clus scale="   39.246">  1  4  2 -1</clus>
<clus scale="   64.626">  1  6  2 -1</clus>
<clus scale="  180.400">  2  5  1 -1</clus>
<clus scale="   39.246">  1  3  2 -1</clus>
</clustering>
</event>
<event>
 6    0  0.4582113E+002  0.9417409E+02  0.7546771E-02  0.1293047E+00
         21   -1    0    0  503  501  0.00000000000E+00  0.00000000000E+00  0.19706141983E+02  0.19706141983E+02  0.00000000000E+00 0.  1.
         21   -1    0    0  506  502 -0.00000000000E+00 -0.00000000000E+00 -0.11191105758E+04  0.11191105758E+04  0.00000000000E+00 0.  1.
         21    1    1    2  503  505  0.81015917332E+02 -0.39734480440E+02 -0.30075479813E+03  0.31399977133E+03  0.00000000000E+00 0.  1.
         21    1    1    2  504  501  0.36052474456E+02  0.29607662232E+02 -0.86339272504E+02  0.98136968334E+02  0.00000000000E+00 0. -1.
         21    1    1    2  505  502 -0.13520288036E+02  0.34813379001E+02 -0.18394906961E+03  0.18770197057E+03  0.00000000000E+00 0.  1.
         21    1    1    2  506  504 -0.10354810375E+03 -0.24686560793E+02 -0.52836129362E+03  0.53897800759E+03  0.00000000000E+00 0.  1.
<scales pt_clust_3="94.17409" pt_clust_4="47.93130" pt_clust_5="37.34661" pt_clust_6="14000.00000"></scales>
<clustering>
<clus scale="   37.347">  2  5  1 -1</clus>
<clus scale="   47.931">  1  4  2 -1</clus>
<clus scale="   94.174">  1  3  2 -1</clus>
<clus scale="   47.931">  1  3  2 -1</clus>
</clustering>
</event>
<event>
 6    0  0.4582113E+002  0.2999281E+03  0.7546771E-02  0.1085277E+00
         21   -1    0    0  503  501  0.00000000000E+00  0.00000000000E+00  0.14295604182E+04  0.14295604182E+04  0.00000000000E+00 0.  1.
         21   -1    0    0  504  502 -0.00000000000E+00 -0.00000000000E+00 -0.20583720415E+03  0.20583720415E+03  0.00000000000E+00 0.  1.
         21    1    1    2  503  505  0.11067829729E+01 -0.29365792362E+03  0.99922706757E+02  0.31019469434E+03  0.00000000000E+00 0.  1.
         21    1    1    2  504  506  0.34968410767E+02  0.18102680536E+03  0.61359659917E+03  0.64069827573E+03  0.00000000000E+00 0.  1.
         21    1    1    2  505  502 -0.60871736357E+02  0.63338101313E+01 -0.70657309700E+02  0.93476953587E+02  0.00000000000E+00 0.  1.
         21    1    1    2  506  501  0.24796542616E+02  0.10629730812E+03  0.58086121783E+03  0.59102769869E+03  0.00000000000E+00 0.  1.
<scales pt_clust_3="292.68488" pt_clust_4="50.40987" pt_clust_5="61.20037" pt_clust_6="50.40987"></scales>
<clustering>
<clus scale="   50.410">  4  6 -1 -1</clus>
<clus scale="   61.200">  2  5  1 -1</clus>
<clus scale="  292.685">  2  3  1 -1</clus>
<clus scale="  299.928">  1  3  2 -1</clus>
</clustering>
</event>
<event>
 6    0  0.4582113E+002  0.1498390E+03  0.7546771E-02  0.1200671E+00
         21   -1    0    0  505  501  0.00000000000E+00  0.00000000000E+00  0.47776575833E+03  0.47776575833E+03  0.00000000000E+00 0. -1.
         21   -1    0    0  503  502 -0.00000000000E+00 -0.00000000000E+00 -0.76752254996E+03  0.76752254996E+03  0.00000000000E+00 0.  1.
         21    1    1    2  503  501 -0.10789429290E+02  0.46209501526E+02 -0.43694776735E+02  0.64505529450E+02  0.00000000000E+00 0.  1.
         21    1    1    2  504  502  0.15905335640E+03 -0.25258690738E+02 -0.66907032776E+03  0.68817953699E+03  0.00000000000E+00 0.  1.
         21    1    1    2  505  506 -0.13119879621E+02  0.77479157043E+02  0.86593493004E+02  0.11693410130E+03  0.00000000000E+00 0.  1.
         21    1    1    2  506  504 -0.13514404749E+03 -0.98429967831E+02  0.33641481986E+03  0.37566914055E+03  0.00000000000E+00 0. -1.
<scales pt_clust_3="47.45240" pt_clust_4="149.83896" pt_clust_5="79.58927" pt_clust_6="14000.00000"></scales>
<clustering>
<clus scale="   47.452">  2  3  1 -1</clus>
<clus scale="   79.589">  1  5  2 -1</clus>
<clus scale="  149.839">  2  4  1 -1</clus>
<clus scale="   79.589">  1  3  2 -1</clus>
</clustering>
</event>
<event>
 6    0  0.4582113E+002  0.1230516E+03  0.7546771E-02  0.1238146E+00
         21   -1    0    0  503  501  0.00000000000E+00  0.00000000000E+00  0.49359330838E+02  0.49359330838E+02  0.00000000000E+00 0.  1.
         21   -1    0    0  501  502 -0.00000000000E+00 -0.00000000000E+00 -0.13155065258E+04  0.13155065258E+04  0.00000000000E+00 0.  1.
         21    1    1    2  503  506 -0.35517529060E+02  0.10231121230E+03 -0.41882603758E+02  0.11611731796E+03  0.00000000000E+00 0.  1.
         21    1    1    2  504  505  0.63570028352E+01 -0.84181005539E+02 -0.24293025846E+03  0.25718079954E+03  0.00000000000E+00 0.  1.
         21    1    1    2  505  502  0.65344953610E+02  0.26458835877E+02 -0.74620753800E+03  0.74953033476E+03  0.00000000000E+00 0.  1.
         21    1    1    2  506  504 -0.36184427385E+02 -0.44589042639E+02 -0.23512679478E+03  0.24203740441E+03  0.00000000000E+00 0.  1.
<scales pt_clust_3="109.23748" pt_clust_4="46.71943" pt_clust_5="70.49846" pt_clust_6="46.71943"></scales>
<clustering>
<clus scale="   46.719">  4  6 -1 -1</clus>
<clus scale="   70.498">  2  5  1 -1</clus>
<clus scale="  109.237">  1  3  2 -1</clus>
<clus scale="  109.237">  1  3  2 -1</clus>
</clustering>
</event>
<event>
 6    0  0.4582113E+002  0.1168302E+03  0.7546771E-02  0.1248420E+00
         21   -1    0    0  504  501  0.00000000000E+00  0.00000000000E+00  0.14667072593E+04  0.14667072593E+04  0.00000000000E+00 0. -1.
         21   -1    0    0  503  502 -0.00000000000E+00 -0.00000000000E+00 -0.13338578006E+03  0.13338578006E+03  0.00000000000E+00 0. -1.
         21    1    1    2  503  501 -0.32769537404E+02  0.12523946273E+02  0.24241030765E+03  0.24493560187E+03  0.00000000000E+00 0. -1.
         21    1    1    2  504  505  0.74521392610E+02  0.85141248220E+02  0.11940124648E+04  0.11993615953E+04  0.00000000000E+00 0. -1.
         21    1    1    2  505  506 -0.37063055932E+02 -0.39861096058E+02 -0.28920100978E+02  0.61635617418E+02  0.00000000000E+00 0. -1.
         21    1    1    2  506  502 -0.46887992750E+01 -0.57804098435E+02 -0.74181192286E+02  0.94160224742E+02  0.00000000000E+00 0. -1.
<scales pt_clust_3="35.08122" pt_clust_4="106.24748" pt_clust_5="47.17995" pt_clust_6="47.17995"></scales>
<clustering>
<clus scale="   35.081">  1  3  2 -1</clus>
<clus scale="   47.180">  5  6 -1 -1</clus>
<clus scale="  106.247">  1  4  2 -1</clus>
<clus scale="   35.081">  1  3  2 -1</clus>
</clustering>
</event>
<event>
 6    0  0.4582113E+002  0.1950970E+03  0.7546771E-02  0.1153943E+00
         21   -1    0    0  502  501  0.00000000000E+00  0.00000000000E+00  0.65441344602E+03  0.65441344602E+03  0.00000000000E+00 0.  1.
         21   -1    0    0  503  502 -0.00000000000E+00 -0.00000000000E+00 -0.21022815326E+03  0.21022815326E+03  0.00000000000E+00 0. -1.
         21    1    1    2  503  506 -0.24282815559E+02  0.25632898386E+02 -0.10328754268E+03  0.10915593014E+03  0.00000000000E+00 0. -1.
         21    1    1    2  504  501 -0.94687249584E+01  0.76765519542E+02  0.18387637129E+03  0.19948213369E+03  0.00000000000E+00 0.  1.
         21    1    1    2  505  504 -0.85481286931E+02  0.71838452301E+02  0.32200869411E+03  0.34081873881E+03  0.00000000000E+00 0.  1.
         21    1    1    2  506  505  0.11923282745E+03 -0.17423687023E+03  0.41587770044E+02  0.21518479664E+03  0.00000000000E+00 0. -1.
<scales pt_clust_3="35.30865" pt_clust_4="58.28150" pt_clust_5="58.28150" pt_clust_6="182.08835"></scales>
<clustering>
<clus scale="   35.309">  2  3  1 -1</clus>
<clus scale="   58.281">  4  5 -1 -1</clus>
<clus scale="  182.088">  2  6  1 -1</clus>
<clus scale="  195.097">  1  3  2 -1</clus>
</clustering>
</event>
<event>
 6    0  0.4582113E+002  0.8539271E+02  0.7546771E-02  0.1314409E+00
         21   -1    0    0  505  501  0.00000000000E+00  0.00000000000E+00  0.36830089010E+03  0.36830089010E+03  0.00000000000E+00 0. -1.
         21   -1    0    0  503  502 -0.00000000000E+00 -0.00000000000E+00 -0.78435093661E+03  0.78435093661E+03  0.00000000000E+00 0.  1.
         21    1    1    2  503  501  0.69570698455E+02 -0.78283987122E+02 -0.11823345675E+03  0.15794814028E+03  0.00000000000E+00 0.  1.
         21    1    1    2  504  506 -0.47203451322E+02  0.52696112155E+02  0.43096189323E-01  0.70746363230E+02  0.00000000000E+00 0.  1.
         21    1    1    2  505  504  0.33271910543E+02 -0.35545470923E+02  0.30833361019E+03  0.31215399358E+03  0.00000000000E+00 0. -1.
         21    1    1    2  506  502 -0.55639157676E+02  0.61133345890E+02 -0.60619329613E+03  0.61180332961E+03  0.00000000000E+00 0.  1.
<scales pt_clust_3="85.39271" pt_clust_4="41.07591" pt_clust_5="48.68779" pt_clust_6="14000.00000"></scales>
<clustering>
<clus scale="   48.688">  1  5  2 -1</clus>
<clus scale="   41.076">  1  4  2 -1</clus>
<clus scale="   85.393">  1  3  2 -1</clus>
<clus scale="   48.688">  1  3  2 -1</clus>
</clustering>
</event>
<event>
 6    0  0.4582113E+002  0.1094197E+03  0.7546771E-02  0.1261648E+00
         21   -1    0    0  503  501  0.00000000000E+00  0.00000000000E+00  0.21932789307E+03  0.21932789307E+03  0.00000000000E+00 0. -1.
         21   -1    0    0  505  502 -0.00000000000E+00 -0.00000000000E+00 -0.21942872590E+03  0.21942872590E+03  0.00000000000E+00 0. -1.
         21    1    1    2  503  504 -0.26655446245E+02  0.15231537211E+02  0.73807961458E+01  0.31575127744E+02  0.00000000000E+00 0. -1.
         21    1    1    2  504  502  0.14214688439E+03  0.33760235041E+02  0.92407184886E+02  0.17287156513E+03  0.00000000000E+00 0. -1.
         21    1    1    2  505  506 -0.47097487325E+02  0.70623321037E+00 -0.13483715756E+03  0.14282762736E+03  0.00000000000E+00 0. -1.
         21    1    1    2  506  501 -0.68393950818E+02 -0.49698005462E+02  0.34948343703E+02  0.91482298742E+02  0.00000000000E+00 0. -1.
<scales pt_clust_3="30.70037" pt_clust_4="14000.00000" pt_clust_5="47.64108" pt_clust_6="109.41969"></scales>
<clustering>
<clus scale="   30.700">  1  3  2 -1</clus>
<clus scale="   47.641">  2  5  1 -1</clus>
<clus scale="  109.420">  2  6  1 -1</clus>
<clus scale="   30.700">  1  3  2 -1</clus>
</clustering>
</event>
<event>
 6    0  0.4582113E+002  0.1214460E+03  0.7546771E-02  0.1240730E+00
         21   -1    0    0  506  501  0.00000000000E+00  0.00000000000E+00  0.14946248977E+04  0.14946248977E+04  0.00000000000E+00 0. -1.
         21   -1    0    0  504  502 -0.00000000000E+00 -0.00000000000E+00 -0.25995329550E+03  0.25995329550E+03  0.00000000000E+00 0. -1.
         21    1    1    2  503  502 -0.25384365472E+02 -0.35570255350E+02 -0.21963035216E+03  0.22393548327E+03  0.00000000000E+00 0. -1.
         21    1    1    2  504  505  0.58294890065E+02 -0.86726512771E+02  0.44923607135E+02  0.11374494584E+03  0.00000000000E+00 0. -1.
         21    1    1    2  505  501 -0.21897693582E+02  0.23468132140E+02  0.14008918334E+03  0.14371931498E+03  0.00000000000E+00 0. -1.
         21    1    1    2  506  503 -0.11012831011E+02  0.98828635982E+02  0.12692891639E+04  0.12731784491E+04  0.00000000000E+00 0. -1.
<scales pt_clust_3="43.68895" pt_clust_4="121.44604" pt_clust_5="32.09770" pt_clust_6="14000.00000"></scales>
<clustering>
<clus scale="   32.098">  1  5  2 -1</clus>
<clus scale="   43.689">  2  3  1 -1</clus>
<clus scale="  121.446">  2  4  1 -1</clus>
<clus scale="   32.098">  1  3  2 -1</clus>
</clustering>
</event>
<event>
 6    0  0.4582113E+002  0.2711338E+03  0.7546771E-02  0.1100632E+00
         21   -1    0    0  504  501  0.00000000000E+00  0.00000000000E+00  0.72008038151E+02  0.72008038151E+02  0.00000000000E+00 0. -1.
         21   -1    0    0  501  502 -0.00000000000E+00 -0.00000000000E+00 -0.20386204998E+04  0.20386204998E+04  0.00000000000E+00 0. -1.
         21    1    1    2  503  502  0.39335504888E+02 -0.76495340685E+02 -0.23706785700E+03  0.25219038030E+03  0.00000000000E+00 0. -1.
         21    1    1    2  504  506  0.12382029539E+03 -0.32719704740E+02 -0.14355364945E+03  0.19237903965E+03  0.00000000000E+00 0. -1.
         21    1    1    2  505  503 -0.29563524425E+03  0.11064094749E+03 -0.14148158316E+04  0.14496018261E+04  0.00000000000E+00 0. -1.
         21    1    1    2  506  505  0.13247944398E+03 -0.14259020679E+01 -0.17117512357E+03  0.21645729187E+03  0.00000000000E+00 0. -1.
<scales pt_clust_3="86.01639" pt_clust_4="34.58632" pt_clust_5="268.84209" pt_clust_6="34.58632"></scales>
<clustering>
<clus scale="   34.586">  4  6 -1 -1</clus>
<clus scale="   86.016">  2  3  1 -1</clus>
<clus scale="  268.842">  2  5  1 -1</clus>
<clus scale="  271.134">  1  3  2 -1</clus>
</clustering>
</event>
<event>
 6    0  0.4582113E+002  0.1075027E+03  0.7546771E-02  0.1265266E+00
         21   -1    0    0  505  501  0.00000000000E+00  0.00000000000E+00  0.20082458757E+03  0.20082458757E+03  0.00000000000E+00 0. -1.
         21   -1    0    0  506  502 -0.00000000000E+00 -0.00000000000E+00 -0.29818911636E+03  0.29818911636E+03  0.00000000000E+00 0. -1.
         21    1    1    2  503  502 -0.61714634435E+02 -0.74953696865E+02 -0.18257149352E+03  0.20678274354E+03  0.00000000000E+00 0. -1.
         21    1    1    2  504  501  0.15251944228E+02  0.93036358973E+02  0.15375612080E+03  0.18035889381E+03  0.00000000000E+00 0. -1.
         21    1    1    2  505  503  0.31033431495E+02  0.87041237878E+01  0.45073372991E+01  0.32544611395E+02  0.00000000000E+00 0. -1.
         21    1    1    2  506  504  0.15429258712E+02 -0.26786785895E+02 -0.73056493363E+02  0.79327455181E+02  0.00000000000E+00 0. -1.
<scales pt_clust_3="107.50270" pt_clust_4="14000.00000" pt_clust_5="32.76695" pt_clust_6="30.91268"></scales>
<clustering>
<clus scale="   30.913">  2  6  1 -1</clus>
<clus scale="   32.767">  1  5  2 -1</clus>
<clus scale="  107.503">  2  3  1 -1</clus>
<clus scale="   32.767">  1  3  2 -1</clus>
</clustering>
</event>
<event>
 6    0  0.4582113E+002  0.1080983E+03  0.7546771E-02  0.1264133E+00
         21   -1    0    0  503  501  0.00000000000E+00  0.00000000000E+00  0.90360113994E+02  0.90360113994E+02  0.00000000000E+00 0. -1.
         21   -1    0    0  505  502 -0.00000000000E+00 -0.00000000000E+00 -0.14099892487E+04  0.14099892487E+04  0.00000000000E+00 0. -1.
         21    1    1    2  503  506 -0.11658523913E+02 -0.88420267461E+02 -0.26876022555E+02  0.93147117326E+02  0.00000000000E+00 0. -1.
         21    1    1    2  504  501 -0.54861925455E+02 -0.16408650235E+01  0.29379486376E+02  0.62254939743E+02  0.00000000000E+00 0. -1.
         21    1    1    2  505  504  0.11592819945E+03  0.11273897732E+03 -0.12051409019E+04  0.12159416177E+04  0.00000000000E+00 0. -1.
         21    1    1    2  506  502 -0.49407750086E+02 -0.22677844838E+02 -0.11699169664E+03  0.12900568785E+03  0.00000000000E+00 0. -1.
<scales pt_clust_3="108.09827" pt_clust_4="55.52654" pt_clust_5="14000.00000" pt_clust_6="54.36369"></scales>
<clustering>
<clus scale="   54.364">  2  6  1 -1</clus>
<clus scale="   55.527">  1  4  2 -1</clus>
<clus scale="  108.098">  1  3  2 -1</clus>
<clus scale="   55.527">  1  3  2 -1</clus>
</clustering>
</event>
<event>
 6    0  0.4582113E+002  0.9217854E+02  0.7546771E-02  0.1297660E+00
         21   -1    0    0  503  501  0.00000000000E+00  0.00000000000E+00  0.12838442767E+04  0.12838442767E+04  0.00000000000E+00 0.  1.
         21   -1    0    0  505  502 -0.00000000000E+00 -0.00000000000E+00 -0.21041751727E+03  0.21041751727E+03  0.00000000000E+00 0.  1.
         21    1    1    2  503  504 -0.22253190054E+02  0.20437797291E+02  0.25924614898E+03  0.26100090763E+03  0.00000000000E+00 0.  1.
         21    1    1    2  504  502  0.55684808320E+02  0.59932633755E+02 -0.42326711256E+02  0.92110091479E+02  0.00000000000E+00 0.  1.
         21    1    1    2  505  506 -0.15459903643E+02 -0.10727017672E+03 -0.12138274616E+03  0.16272575241E+03  0.00000000000E+00 0.  1.
         21    1    1    2  506  501 -0.17971714624E+02  0.26899745674E+02  0.97789006783E+03  0.97842504241E+03  0.00000000000E+00 0.  1.
<scales pt_clust_3="30.21437" pt_clust_4="92.17854" pt_clust_5="14000.00000" pt_clust_6="60.78564"></scales>
<clustering>
<clus scale="   30.214">  1  3  2 -1</clus>
<clus scale="   60.786">  1  6  2 -1</clus>
<clus scale="   92.179">  1  4  2 -1</clus>
<clus scale="   30.214">  1  3  2 -1</clus>
</clustering>
</event>
<event>
 6    0  0.4582113E+002  0.1508815E+03  0.7546771E-02  0.1199394E+00
         21   -1    0    0  505  501  0.00000000000E+00  0.00000000000E+00  0.19961827716E+03  0.19961827716E+03  0.00000000000E+00 0.  1.
         21   -1    0    0  506  502 -0.00000000000E+00 -0.00000000000E+00 -0.33633109915E+03  0.33633109915E+03  0.00000000000E+00 0. -1.
         21    1    1    2  503  502 -0.43348155393E+02  0.38268079525E+01 -0.74821857378E+02  0.86556440411E+02  0.00000000000E+00 0. -1.
         21    1    1    2  504  503 -0.12078966943E+03  0.69087629129E+02 -0.89614050028E+02  0.16551109541E+03  0.00000000000E+00 0. -1.
         21    1    1    2  505  504  0.13090601974E+03 -0.81292583956E+01  0.11202604573E+03  0.17248856706E+03  0.00000000000E+00 0.  1.
         21    1    1    2  506  501  0.33231805091E+02 -0.64785178686E+02 -0.84302960322E+02  0.11139327343E+03  0.00000000000E+00 0. -1.
<scales pt_clust_3="36.41872" pt_clust_4="36.41872" pt_clust_5="136.10327" pt_clust_6="72.81121"></scales>
<clustering>
<clus scale="   36.419">  3  4 -1 -1</clus>
<clus scale="   72.811">  2  6  1 -1</clus>
<clus scale="  136.103">  1  5  2 -1</clus>
<clus scale="  136.103">  1  3  2 -1</clus>
</clustering>
</event>
<event>
 6    0  0.4582113E+002  0.1470761E+03  0.7546771E-02  0.1204113E+00
         21   -1    0    0  505  501  0.00000000000E+00  0.00000000000E+00  0.57139132857E+03  0.57139132857E+03  0.00000000000E+00 0. -1.
         21   -1    0    0  504  502 -0.00000000000E+00 -0.00000000000E+00 -0.42404197798E+03  0.42404197798E+03  0.00000000000E+00 0. -1.
         21    1    1    2  503  502 -0.21638278825E+01 -0.33006333296E+02 -0.19915936433E+03  0.20188747507E+03  0.00000000000E+00 0. -1.
         21    1    1    2  504  501  0.12040189513E+03  0.24630821560E+02  0.49085780385E+03  0.50600857435E+03  0.00000000000E+00 0. -1.
         21    1    1    2  505  506  0.28379729504E+02 -0.24990979901E+02  0.36353652441E+02  0.52455182479E+02  0.00000000000E+00 0. -1.
         21    1    1    2  506  503 -0.14661779675E+03  0.33366491637E+02 -0.18070274136E+03  0.23508207465E+03  0.00000000000E+00 0. -1.
<scales pt_clust_3="33.07719" pt_clust_4="147.07606" pt_clust_5="38.55352" pt_clust_6="14000.00000"></scales>
<clustering>
<clus scale="   33.077">  2  3  1 -1</clus>
<clus scale="   38.554">  1  5  2 -1</clus>
<clus scale="  147.076">  1  4  2 -1</clus>
<clus scale="   38.554">  1  3  2 -1</clus>
</clustering>
</event>
<event>
 6    0  0.4582113E+002  0.2286242E+03  0.7546771E-02  0.1127612E+00
         21   -1    0    0  506  501  0.00000000000E+00  0.00000000000E+00  0.41619951469E+03  0.41619951469E+03  0.00000000000E+00 0. -1.
         21   -1    0    0  505  502 -0.00000000000E+00 -0.00000000000E+00 -0.51484693311E+03  0.51484693311E+03  0.00000000000E+00 0. -1.
         21    1    1    2  503  504 -0.54438124739E+02  0.67600255698E+02  0.79375133839E+02  0.11761681796E+03  0.00000000000E+00 0. -1.
         21    1    1    2  504  501  0.26037375511E+01  0.14424170685E+03  0.23204045098E+03  0.27323107498E+03  0.00000000000E+00 0. -1.
         21    1    1    2  505  503  0.12784708745E+03 -0.10145056829E+03 -0.36324537725E+03  0.39822644270E+03  0.00000000000E+00 0. -1.
         21    1    1    2  506  502 -0.76012700259E+02 -0.11039139425E+03 -0.46817625991E+02  0.14197211215E+03  0.00000000000E+00 0. -1.
<scales pt_clust_3="70.31762" pt_clust_4="70.31762" pt_clust_5="209.88200" pt_clust_6="134.03056"></scales>
<clustering>
<clus scale="   70.318">  3  4 -1 -1</clus>
<clus scale="  134.031">  2  6  1 -1</clus>
<clus scale="  209.882">  2  5  1 -1</clus>
<clus scale="  228.624">  1  3  2 -1</clus>
</clustering>
</event>
<event>
 6    0  0.4582113E+002  0.7798304E+02  0.7546771E-02  0.1334875E+00
         21   -1    0    0  505  501  0.00000000000E+00  0.00000000000E+00  0.12422909941E+04  0.12422909941E+04  0.00000000000E+00 0. -1.
         21   -1    0    0  504  502 -0.00000000000E+00 -0.00000000000E+00 -0.23958924014E+03  0.23958924014E+03  0.00000000000E+00 0. -1.
         21    1    1    2  503  502 -0.53572001431E+02 -0.14046298706E+02 -0.22070891080E+03  0.22755149121E+03  0.00000000000E+00 0. -1.
         21    1    1    2  504  506  0.79602487753E+01  0.41403371136E+02  0.36822795802E+02  0.55977879494E+02  0.00000000000E+00 0. -1.
         21    1    1    2  505  503  0.84059413209E+02  0.31132156785E+02  0.83975455793E+03  0.84452525937E+03  0.00000000000E+00 0. -1.
         21    1    1    2  506  501 -0.38447660553E+02 -0.58489229214E+02  0.34683331101E+03  0.35382560416E+03  0.00000000000E+00 0. -1.
<scales pt_clust_3="52.82657" pt_clust_4="42.16165" pt_clust_5="77.98304" pt_clust_6="14000.00000"></scales>
<clustering>
<clus scale="   42.162">  2  4  1 -1</clus>
<clus scale="   52.827">  2  3  1 -1</clus>
<clus scale="   77.983">  1  5  2 -1</clus>
<clus scale="   77.983">  1  3  2 -1</clus>
</clustering>
</event>
<event>
 6    0  0.4582113E+002  0.7821742E+02  0.7546771E-02  0.1334188E+00
         21   -1    0    0  504  501  0.00000000000E+00  0.00000000000E+00  0.19719702785E+03  0.19719702785E+03  0.00000000000E+00 0.  1.
         21   -1    0    0  506  502 -0.00000000000E+00 -0.00000000000E+00 -0.73925942146E+03  0.73925942146E+03  0.00000000000E+00 0.  1.
         21    1    1    2  503  501 -0.18889427122E+02 -0.33657416208E+02  0.45162999034E+02  0.59408152677E+02  0.00000000000E+00 0.  1.
         21    1    1    2  504  505  0.61600861959E+02 -0.44836585852E+02  0.55211483814E+02  0.94091942109E+02  0.00000000000E+00 0.  1.
         21    1    1    2  505  502 -0.11918897719E+01  0.97570467360E+02  0.35235981331E+02  0.10374483641E+03  0.00000000000E+00 0.  1.
         21    1    1    2  506  503 -0.41519545065E+02 -0.19076465300E+02 -0.67767285778E+03  0.67921151811E+03  0.00000000000E+00 0.  1.
<scales pt_clust_3="38.59575" pt_clust_4="14000.00000" pt_clust_5="78.21742" pt_clust_6="45.85816"></scales>
<clustering>
<clus scale="   38.596">  1  3  2 -1</clus>
<clus scale="   45.858">  2  6  1 -1</clus>
<clus scale="   78.217">  2  5  1 -1</clus>
<clus scale="   38.596">  1  3  2 -1</clus>
</clustering>
</event>
<event>
 6    0  0.4582113E+002  0.6507485E+02  0.7546771E-02  0.1377690E+00
         21   -1    0    0  506  501  0.00000000000E+00  0.00000000000E+00  0.11494881781E+03  0.11494881781E+03  0.00000000000E+00 0.  1.
         21   -1    0    0  503  502 -0.00000000000E+00 -0.00000000000E+00 -0.21914063646E+03  0.21914063646E+03  0.00000000000E+00 0.  1.
         21    1    1    2  503  504  0.55494449914E+02  0.72270328613E+01 -0.26097239527E+02  0.61748926194E+02  0.00000000000E+00 0.  1.
         21    1    1    2  504  501  0.49161382249E+02  0.36241123651E+02  0.34962121539E+02  0.70374785901E+02  0.00000000000E+00 0.  1.
         21    1    1    2  505  502 -0.61536279377E+02  0.39756988280E+02 -0.43034408247E+02  0.84966417423E+02  0.00000000000E+00 0.  1.
         21    1    1    2  506  505 -0.43119552786E+02 -0.83225144792E+02 -0.70022292411E+02  0.11699932475E+03  0.00000000000E+00 0.  1.
<scales pt_clust_3="55.96306" pt_clust_4="65.07485" pt_clust_5="59.16407" pt_clust_6="14000.00000"></scales>
<clustering>
<clus scale="   55.963">  2  3  1 -1</clus>
<clus scale="   59.164">  2  5  1 -1</clus>
<clus scale="   65.075">  1  4  2 -1</clus>
<clus scale="   65.075">  1  3  2 -1</clus>
</clustering>
</event>
<event>
 6    0  0.4582113E+002  0.6489876E+02  0.7546771E-02  0.1378353E+00
         21   -1    0    0  505  501  0.00000000000E+00  0.00000000000E+00  0.52121084287E+03  0.52121084287E+03  0.00000000000E+00 0.  1.
         21   -1    0    0  503  502 -0.00000000000E+00 -0.00000000000E+00 -0.80921852321E+03  0.80921852321E+03  0.00000000000E+00 0. -1.
         21    1    1    2  503  501 -0.29168059559E+02 -0.66461352796E+02  0.30418447135E+03  0.31272364753E+03  0.00000000000E+00 0.  1.
         21    1    1    2  504  502 -0.11166339210E+01 -0.60863799650E+02 -0.61471497863E+03  0.61772174474E+03  0.00000000000E+00 0. -1.
         21    1    1    2  505  506  0.23731131158E+02  0.24868108858E+02  0.19568134429E+03  0.19867757278E+03  0.00000000000E+00 0. -1.
         21    1    1    2  506  504  0.65535623219E+01  0.10245704359E+03 -0.17315851736E+03  0.20130640102E+03  0.00000000000E+00 0.  1.
<scales pt_clust_3="43.29138" pt_clust_4="14000.00000" pt_clust_5="34.37426" pt_clust_6="64.89876"></scales>
<clustering>
<clus scale="   34.374">  1  5  2 -1</clus>
<clus scale="   43.291">  1  3  2 -1</clus>
<clus scale="   64.899">  1  6  2 -1</clus>
<clus scale="   34.374">  1  3  2 -1</clus>
</clustering>
</event>
<event>
 6    0  0.4582113E+002  0.1594156E+03  0.7546771E-02  0.1189358E+00
         21   -1    0    0  506  501  0.00000000000E+00  0.00000000000E+00  0.34727647283E+02  0.34727647283E+02  0.00000000000E+00 0. -1.
         21   -1    0    0  505  502 -0.00000000000E+00 -0.00000000000E+00 -0.13281657314E+04  0.13281657314E+04  0.00000000000E+00 0. -1.
         21    1    1    2  503  501 -0.66869560332E+02  0.37592129179E+02 -0.98268276043E+02  0.12466499249E+03  0.00000000000E+00 0. -1.
         21    1    1    2  504  503 -0.72124223762E+02 -0.11948582943E+02 -0.15663594866E+03  0.17285685609E+03  0.00000000000E+00 0.  1.
         21    1    1    2  505  504  0.16643966978E+03  0.25457778495E+02 -0.60567149546E+03  0.62863997850E+03  0.00000000000E+00 0. -1.
         21    1    1    2  506  502 -0.27445885682E+02 -0.51101324731E+02 -0.43286236401E+03  0.43673155165E+03  0.00000000000E+00 0. -1.
<scales pt_clust_3="58.52173" pt_clust_4="58.52173" pt_clust_5="147.80771" pt_clust_6="58.00536"></scales>
<clustering>
<clus scale="   58.005">  2  6  1 -1</clus>
<clus scale="   58.522">  3  4 -1 -1</clus>
<clus scale="  147.808">  2  5  1 -1</clus>
<clus scale="  159.416">  1  3  2 -1</clus>
</clustering>
</event>
<event>
 6    0  0.4582113E+002  0.1619915E+03  0.7546771E-02  0.1186466E+00
         21   -1    0    0  502  501  0.00000000000E+00  0.00000000000E+00  0.30065079376E+03  0.30065079376E+03  0.00000000000E+00 0.  1.
         21   -1    0    0  506  502 -0.00000000000E+00 -0.00000000000E+00 -0.13172097689E+04  0.13172097689E+04  0.00000000000E+00 0.  1.
         21    1    1    2  503  501  0.45886515517E+01  0.56591299672E+02  0.10385792721E+03  0.11836426811E+03  0.00000000000E+00 0.  1.
         21    1    1    2  504  503 -0.77149777557E+02  0.72019377815E+02  0.16845027417E+03  0.19878222714E+03  0.00000000000E+00 0.  1.
         21    1    1    2  505  504  0.92824439239E+02 -0.87874874048E+02 -0.86130676802E+03  0.87073975368E+03  0.00000000000E+00 0.  1.
         21    1    1    2  506  505 -0.20263313234E+02 -0.40735803439E+02 -0.42756040851E+03  0.42997431374E+03  0.00000000000E+00 0.  1.
<scales pt_clust_3="49.77700" pt_clust_4="49.77700" pt_clust_5="147.02700" pt_clust_6="45.49734"></scales>
<clustering>
<clus scale="   45.497">  2  6  1 -1</clus>
<clus scale="   49.777">  3  4 -1 -1</clus>
<clus scale="  147.027">  2  5  1 -1</clus>
<clus scale="  161.992">  1  3  2 -1</clus>
</clustering>
</event>
<event>
 6    0  0.4582113E+002  0.1019468E+03  0.7546771E-02  0.1276255E+00
         21   -1    0    0  504  501  0.00000000000E+00  0.00000000000E+00  0.37571296680E+02  0.37571296680E+02  0.00000000000E+00 0. -1.
         21   -1    0    0  505  502 -0.00000000000E+00 -0.00000000000E+00 -0.26027239985E+04  0.26027239985E+04  0.00000000000E+00 0. -1.
         21    1    1    2  503  506 -0.28608857488E+02 -0.82177924297E+02 -0.25505659706E+03  0.26949127198E+03  0.00000000000E+00 0.  1.
         21    1    1    2  504  502 -0.31308342762E+02  0.84445542555E+01 -0.10507804959E+03  0.10996781042E+03  0.00000000000E+00 0. -1.
         21    1    1    2  505  503  0.59143661052E+01  0.10489093491E+03 -0.21952104443E+04  0.21977229086E+04  0.00000000000E+00 0. -1.
         21    1    1    2  506  501  0.54002834144E+02 -0.31157564864E+02 -0.98076108932E+01  0.63113304266E+02  0.00000000000E+00 0. -1.
<scales pt_clust_3="101.94681" pt_clust_4="32.42719" pt_clust_5="14000.00000" pt_clust_6="39.08260"></scales>
<clustering>
<clus scale="   32.427">  1  4  2 -1</clus>
<clus scale="   39.083">  1  6  2 -1</clus>
<clus scale="  101.947">  1  3  2 -1</clus>
<clus scale="   32.427">  1  3  2 -1</clus>
</clustering>
</event>
<event>
 6    0  0.4582113E+002  0.2612593E+03  0.7546771E-02  0.1106389E+00
         21   -1    0    0  502  501  0.00000000000E+00  0.00000000000E+00  0.12757506039E+04  0.12757506039E+04  0.00000000000E+00 0. -1.
         21   -1    0    0  505  502 -0.00000000000E+00 -0.00000000000E+00 -0.36574026289E+03  0.36574026289E+03  0.00000000000E+00 0.  1.
         21    1    1    2  503  504  0.68973560530E+01 -0.21212793077E+03 -0.13339771188E+03  0.25068063761E+03  0.00000000000E+00 0.  1.
         21    1    1    2  504  506  0.23940932258E+02  0.67756598025E+02  0.23049227465E+03  0.24143490528E+03  0.00000000000E+00 0.  1.
         21    1    1    2  505  503 -0.57507372422E+02 -0.41130794078E+02 -0.15135876526E+03  0.16705782210E+03  0.00000000000E+00 0.  1.
         21    1    1    2  506  501  0.26669084111E+02  0.18550212683E+03  0.96427454353E+03  0.98231750183E+03  0.00000000000E+00 0. -1.
<scales pt_clust_3="254.66758" pt_clust_4="36.11164" pt_clust_5="70.70248" pt_clust_6="36.11164"></scales>
<clustering>
<clus scale="   36.112">  4  6 -1 -1</clus>
<clus scale="   70.702">  2  5  1 -1</clus>
<clus scale="  254.668">  2  3  1 -1</clus>
<clus scale="  261.259">  1  3  2 -1</clus>
</clustering>
</event>
<event>
 6    0  0.4582113E+002  0.1180674E+03  0.7546771E-02  0.1246320E+00
         21   -1    0    0  503  501  0.00000000000E+00  0.00000000000E+00  0.27087403015E+03  0.27087403015E+03  0.00000000000E+00 0.  1.
         21   -1    0    0  505  502 -0.00000000000E+00 -0.00000000000E+00 -0.84139362841E+02  0.84139362841E+02  0.00000000000E+00 0.  1.
         21    1    1    2  503  504 -0.41970189236E+02 -0.73270302980E+01  0.50466938332E+02  0.66046150699E+02  0.00000000000E+00 0. -1.
         21    1    1    2  504  506 -0.62126436397E+02  0.39789353355E+02  0.11058591948E+03  0.13293657257E+03  0.00000000000E+00 0.  1.
         21    1    1    2  505  501  0.11647857066E+03 -0.20010974730E+01  0.35378129078E+02  0.12174922518E+03  0.00000000000E+00 0.  1.
         21    1    1    2  506  502 -0.12381945027E+02 -0.30461225584E+02 -0.96963195798E+01  0.34281444545E+02  0.00000000000E+00 0.  1.
<scales pt_clust_3="31.93681" pt_clust_4="31.93681" pt_clust_5="110.33457" pt_clust_6="32.88159"></scales>
<clustering>
<clus scale="   31.937">  3  4 -1 -1</clus>
<clus scale="   32.882">  2  6  1 -1</clus>
<clus scale="  110.335">  2  5  1 -1</clus>
<clus scale="  118.067">  1  3  2 -1</clus>
</clustering>
</event>
<event>
 6    0  0.4582113E+002  0.1597388E+03  0.7546771E-02  0.1188992E+00
         21   -1    0    0  502  501  0.00000000000E+00  0.00000000000E+00  0.11233134063E+04  0.11233134063E+04  0.00000000000E+00 0. -1.
         21   -1    0    0  504  502 -0.00000000000E+00 -0.00000000000E+00 -0.22249347689E+03  0.22249347689E+03  0.00000000000E+00 0. -1.
         21    1    1    2  503  506 -0.12440206959E+03  0.38002085999E+02  0.90024325161E+03  0.90959218638E+03  0.00000000000E+00 0. -1.
         21    1    1    2  504  505 -0.53489434634E+01  0.33866176944E+02 -0.11556218491E+03  0.12054106237E+03  0.00000000000E+00 0. -1.
         21    1    1    2  505  503  0.14841413204E+03 -0.10703857985E+03 -0.10139530980E+02  0.18326707902E+03  0.00000000000E+00 0. -1.
         21    1    1    2  506  501 -0.18663118982E+02  0.35170316905E+02  0.12627839368E+03  0.13240655540E+03  0.00000000000E+00 0. -1.
<scales pt_clust_3="14000.00000" pt_clust_4="34.28599" pt_clust_5="159.73883" pt_clust_6="40.76788"></scales>
<clustering>
<clus scale="   34.286">  2  4  1 -1</clus>
<clus scale="   40.768">  1  6  2 -1</clus>
<clus scale="  159.739">  2  5  1 -1</clus>
<clus scale="   40.768">  1  3  2 -1</clus>
</clustering>
</event>
<event>
 6    0  0.4582113E+002  0.1030791E+03  0.7546771E-02  0.1273951E+00
         21   -1    0    0  506  501  0.00000000000E+00  0.00000000000E+00  0.54896717919E+02  0.54896717919E+02  0.00000000000E+00 0.  1.
         21   -1    0    0  504  502 -0.00000000000E+00 -0.00000000000E+00 -0.73806482569E+03  0.73806482569E+03  0.00000000000E+00 0. -1.
         21    1    1    2  503  505 -0.20830325253E+02  0.11505690809E+03 -0.43934107974E+03  0.45463455532E+03  0.00000000000E+00 0. -1.
         21    1    1    2  504  503  0.48898700131E+02  0.94599613211E+01 -0.16739293644E+03  0.17464526593E+03  0.00000000000E+00 0.  1.
         21    1    1    2  505  501 -0.87736309491E+01 -0.76288391482E+02 -0.80903455012E+02  0.11154489817E+03  0.00000000000E+00 0.  1.
         21    1    1    2  506  502 -0.19294743929E+02 -0.48228477929E+02  0.44693634173E+01  0.52136824184E+02  0.00000000000E+00 0.  1.
<scales pt_clust_3="103.07906" pt_clust_4="49.80536" pt_clust_5="14000.00000" pt_clust_6="50.84280"></scales>
<clustering>
<clus scale="   49.805">  2  4  1 -1</clus>
<clus scale="   50.843">  1  6  2 -1</clus>
<clus scale="  103.079">  2  3  1 -1</clus>
<clus scale="   50.843">  1  3  2 -1</clus>
</clustering>
</event>
<event>
 6    0  0.4582113E+002  0.8191807E+02  0.7546771E-02  0.1323695E+00
         21   -1    0    0  503  501  0.00000000000E+00  0.00000000000E+00  0.28389182463E+03  0.28389182463E+03  0.00000000000E+00 0.  1.
         21   -1    0    0  506  502 -0.00000000000E+00 -0.00000000000E+00 -0.11881463998E+03  0.11881463998E+03  0.00000000000E+00 0.  1.
         21    1    1    2  503  504 -0.11645795889E+03 -0.44782497941E+02  0.92511554498E+02  0.15532648205E+03  0.00000000000E+00 0.  1.
         21    1    1    2  504  502  0.23662215010E+02  0.54740917940E+02 -0.53317009471E+02  0.79994824927E+02  0.00000000000E+00 0.  1.
         21    1    1    2  505  501  0.52926543618E+02 -0.58148869783E+01  0.11360403065E+03  0.12546277420E+03  0.00000000000E+00 0.  1.
         21    1    1    2  506  505  0.39869200259E+02 -0.41435330210E+01  0.12278608970E+02  0.41922383442E+02  0.00000000000E+00 0. -1.
<scales pt_clust_3="14000.00000" pt_clust_4="81.91807" pt_clust_5="55.53045" pt_clust_6="40.08394"></scales>
<clustering>
<clus scale="   40.084">  2  6  1 -1</clus>
<clus scale="   55.530">  1  5  2 -1</clus>
<clus scale="   81.918">  2  4  1 -1</clus>
<clus scale="   55.530">  1  3  2 -1</clus>
</clustering>
</event>
<event>
 6    0  0.4582113E+002  0.9236964E+02  0.7546771E-02  0.1297213E+00
         21   -1    0    0  504  501  0.00000000000E+00  0.00000000000E+00  0.12125826427E+04  0.12125826427E+04  0.00000000000E+00 0. -1.
         21   -1    0    0  506  502 -0.00000000000E+00 -0.00000000000E+00 -0.23803675713E+02  0.23803675713E+02  0.00000000000E+00 0. -1.
         21    1    1    2  503  502 -0.16901468870E+02  0.34188715048E+02  0.29841500228E+02  0.48425644265E+02  0.00000000000E+00 0. -1.
         21    1    1    2  504  503 -0.17504585062E+02  0.25254677996E+02  0.43313391915E+03  0.43422252496E+03  0.00000000000E+00 0. -1.
         21    1    1    2  505  501 -0.11771980003E+02  0.64831711818E+02  0.32383369707E+03  0.33046935369E+03  0.00000000000E+00 0. -1.
         21    1    1    2  506  505  0.46178033935E+02 -0.12427510486E+03  0.40196985058E+03  0.42326879554E+03  0.00000000000E+00 0. -1.
<scales pt_clust_3="39.66610" pt_clust_4="30.72799" pt_clust_5="92.36964" pt_clust_6="14000.00000"></scales>
<clustering>
<clus scale="   30.728">  1  4  2 -1</clus>
<clus scale="   39.666">  2  3  1 -1</clus>
<clus scale="   92.370">  1  5  2 -1</clus>
<clus scale="   30.728">  1  3  2 -1</clus>
</clustering>
</event>
<event>
 6    0  0.4582113E+002  0.2093977E+03  0.7546771E-02  0.1142044E+00
         21   -1    0    0  503  501  0.00000000000E+00  0.00000000000E+00  0.34543221459E+03  0.34543221459E+03  0.00000000000E+00 0.  1.
         21   -1    0    0  506  502 -0.00000000000E+00 -0.00000000000E+00 -0.81271718249E+03  0.81271718249E+03  0.00000000000E+00 0.  1.
         21    1    1    2  503  505  0.15376532216E+03  0.50628800199E+02 -0.73542768584E+03  0.75303448182E+03  0.00000000000E+00 0.  1.
         21    1    1    2  504  501 -0.56906812182E+02 -0.34230617183E+02  0.17492422704E+03  0.18710586744E+03  0.00000000000E+00 0.  1.
         21    1    1    2  505  502  0.23996618603E+02  0.24850732000E+02 -0.26055598109E+02  0.43269975481E+02  0.00000000000E+00 0.  1.
         21    1    1    2  506  504 -0.12085512858E+03 -0.41248915016E+02  0.11927408901E+03  0.17473907234E+03  0.00000000000E+00 0.  1.
<scales pt_clust_3="191.74141" pt_clust_4="60.83128" pt_clust_5="34.54557" pt_clust_6="60.83128"></scales>
<clustering>
<clus scale="   34.546">  2  5  1 -1</clus>
<clus scale="   60.831">  4  6 -1 -1</clus>
<clus scale="  191.741">  2  3  1 -1</clus>
<clus scale="  209.398">  1  3  2 -1</clus>
</clustering>
</event>
<event>
 6    0  0.4582113E+002  0.1847208E+03  0.7546771E-02  0.1163311E+00
         21   -1    0    0  503  501  0.00000000000E+00  0.00000000000E+00  0.91022665521E+02  0.91022665521E+02  0.00000000000E+00 0. -1.
         21   -1    0    0  504  502 -0.00000000000E+00 -0.00000000000E+00 -0.32465904047E+03  0.32465904047E+03  0.00000000000E+00 0. -1.
         21    1    1    2  503  506 -0.78418705177E+02  0.49431241218E+01 -0.50465206538E+02  0.93384500152E+02  0.00000000000E+00 0. -1.
         21    1    1    2  504  501  0.13584072069E+03  0.75062326832E+02 -0.13795926425E+03  0.20765310713E+03  0.00000000000E+00 0. -1.
         21    1    1    2  505  502 -0.27348345738E+02 -0.52345800117E+02 -0.84114300759E+01  0.59655401771E+02  0.00000000000E+00 0. -1.
         21    1    1    2  506  505 -0.30073669777E+02 -0.27659650837E+02 -0.36800474087E+02  0.54988696942E+02  0.00000000000E+00 0. -1.
<scales pt_clust_3="77.76919" pt_clust_4="155.20005" pt_clust_5="77.76919" pt_clust_6="31.13285"></scales>
<clustering>
<clus scale="   31.133">  5  6 -1 -1</clus>
<clus scale="   77.769">  3  5 -1 -1</clus>
<clus scale="  155.200">  2  4  1 -1</clus>
<clus scale="  184.721">  1  3  2 -1</clus>
</clustering>
</event>
<event>
 6    0  0.4582113E+002  0.1061214E+03  0.7546771E-02  0.1267926E+00
         21   -1    0    0  503  501  0.00000000000E+00  0.00000000000E+00  0.37942801090E+03  0.37942801090E+03  0.00000000000E+00 0.  1.
         21   -1    0    0  505  502 -0.00000000000E+00 -0.00000000000E+00 -0.23550891550E+03  0.23550891550E+03  0.00000000000E+00 0. -1.
         21    1    1    2  503  506  0.17036771290E+02 -0.31159352148E+02  0.21567271136E+03  0.21857693206E+03  0.00000000000E+00 0.  1.
         21    1    1    2  504  502  0.30284661270E+02  0.10494954963E+03 -0.16054639306E+03  0.19418216448E+03  0.00000000000E+00 0. -1.
         21    1    1    2  505  501  0.64446445426E+01 -0.10053083333E+03  0.73691155321E+01  0.10100636493E+03  0.00000000000E+00 0.  1.
         21    1    1    2  506  504 -0.53766077102E+02  0.26740635841E+02  0.81423661566E+02  0.10117146492E+03  0.00000000000E+00 0.  1.
<scales pt_clust_3="35.51277" pt_clust_4="14000.00000" pt_clust_5="106.12138" pt_clust_6="45.13303"></scales>
<clustering>
<clus scale="   35.513">  1  3  2 -1</clus>
<clus scale="   45.133">  1  6  2 -1</clus>
<clus scale="  106.121">  1  5  2 -1</clus>
<clus scale="   35.513">  1  3  2 -1</clus>
</clustering>
</event>
<event>
 6    0  0.4582113E+002  0.1629714E+03  0.7546771E-02  0.1185382E+00
         21   -1    0    0  504  501  0.00000000000E+00  0.00000000000E+00  0.33840135683E+03  0.33840135683E+03  0.00000000000E+00 0. -1.
         21   -1    0    0  505  502 -0.00000000000E+00 -0.00000000000E+00 -0.56838650312E+03  0.56838650312E+03  0.00000000000E+00 0. -1.
         21    1    1    2  503  506  0.28218411889E+02 -0.77622133771E+02  0.12065049401E+03  0.14621222974E+03  0.00000000000E+00 0. -1.
         21    1    1    2  504  502 -0.68756739355E+02  0.11656600613E+03 -0.44654507089E+03  0.46660221102E+03  0.00000000000E+00 0. -1.
         21    1    1    2  505  503  0.28884482557E+02  0.38677494126E+02 -0.84450834080E+02  0.97273867309E+02  0.00000000000E+00 0.  1.
         21    1    1    2  506  501  0.11653844909E+02 -0.77621366490E+02  0.18036026467E+03  0.19669955188E+03  0.00000000000E+00 0. -1.
<scales pt_clust_3="35.02267" pt_clust_4="158.96231" pt_clust_5="48.27279" pt_clust_6="35.02267"></scales>
<clustering>
<clus scale="   35.023">  3  6 -1 -1</clus>
<clus scale="   48.273">  2  5  1 -1</clus>
<clus scale="  158.962">  2  4  1 -1</clus>
<clus scale="  162.971">  1  3  2 -1</clus>
</clustering>
</event>
<event>
 6    0  0.4582113E+002  0.1274172E+03  0.7546771E-02  0.1231339E+00
         21   -1    0    0  504  501  0.00000000000E+00  0.00000000000E+00  0.94607066576E+03  0.94607066576E+03  0.00000000000E+00 0.  1.
         21   -1    0    0  505  502 -0.00000000000E+00 -0.00000000000E+00 -0.26095095649E+03  0.26095095649E+03  0.00000000000E+00 0. -1.
         21    1    1    2  503  501  0.65146856518E+02 -0.90094612400E+00  0.58881468341E+03  0.59240835242E+03  0.00000000000E+00 0.  1.
         21    1    1    2  504  502  0.32877267728E+02 -0.90448201903E+01 -0.13434639647E+03  0.13860619665E+03  0.00000000000E+00 0. -1.
         21    1    1    2  505  506 -0.15474353442E+03  0.61334088360E+01 -0.70055894387E+02  0.16997355232E+03  0.00000000000E+00 0. -1.
         21    1    1    2  506  503  0.56719410177E+02  0.38123574783E+01  0.30070731672E+03  0.30603352086E+03  0.00000000000E+00 0.  1.
<scales pt_clust_3="30.81850" pt_clust_4="34.09873" pt_clust_5="123.07146" pt_clust_6="30.81850"></scales>
<clustering>
<clus scale="   30.818">  3  6 -1 -1</clus>
<clus scale="   34.099">  2  4  1 -1</clus>
<clus scale="  123.071">  2  5  1 -1</clus>
<clus scale="  127.417">  1  3  2 -1</clus>
</clustering>
</event>
<event>
 6    0  0.4582113E+002  0.1068407E+03  0.7546771E-02  0.1266535E+00
         21   -1    0    0  503  501  0.00000000000E+00  0.00000000000E+00  0.52760570878E+02  0.52760570878E+02  0.00000000000E+00 0.  1.
         21   -1    0    0  504  502 -0.00000000000E+00 -0.00000000000E+00 -0.13027131580E+04  0.13027131580E+04  0.00000000000E+00 0.  1.
         21    1    1    2  503  506 -0.25258287968E+00 -0.56961508381E+02  0.27867240107E+01  0.57030194335E+02  0.00000000000E+00 0.  1.
         21    1    1    2  504  505  0.87619489053E+02  0.91283198802E+02 -0.81279059723E+03  0.82258030137E+03  0.00000000000E+00 0.  1.
         21    1    1    2  505  501 -0.33257511854E+02 -0.63119165843E+02 -0.66873728983E+02  0.97786434742E+02  0.00000000000E+00 0.  1.
         21    1    1    2  506  502 -0.54109394319E+02  0.28797475422E+02 -0.37307498496E+03  0.37807679848E+03  0.00000000000E+00 0.  1.
<scales pt_clust_3="56.96207" pt_clust_4="106.84074" pt_clust_5="14000.00000" pt_clust_6="58.65099"></scales>
<clustering>
<clus scale="   56.962">  1  3  2 -1</clus>
<clus scale="   58.651">  2  6  1 -1</clus>
<clus scale="  106.841">  2  4  1 -1</clus>
<clus scale="   56.962">  1  3  2 -1</clus>
</clustering>
</event>
<event>
 6    0  0.4582113E+002  0.1251290E+03  0.7546771E-02  0.1234868E+00
         21   -1    0    0  503  501  0.00000000000E+00  0.00000000000E+00  0.98140459028E+03  0.98140459028E+03  0.00000000000E+00 0.  1.
         21   -1    0    0  504  502 -0.00000000000E+00 -0.00000000000E+00 -0.18871877198E+03  0.18871877198E+03  0.00000000000E+00 0.  1.
         21    1    1    2  503  506 -0.40044078432E+02  0.43932848552E+02  0.13004686353E+03  0.14298884612E+03  0.00000000000E+00 0.  1.
         21    1    1    2  504  505  0.18331098177E+03  0.72086127206E+02 -0.38463056985E+02  0.20069562159E+03  0.00000000000E+00 0.  1.
         21    1    1    2  505  501 -0.73984028667E+02 -0.84172030938E+02  0.73463936067E+03  0.74313764373E+03  0.00000000000E+00 0.  1.
         21    1    1    2  506  502 -0.69282874669E+02 -0.31846944819E+02 -0.33537348918E+02  0.83301250826E+02  0.00000000000E+00 0.  1.
<scales pt_clust_3="59.44429" pt_clust_4="14000.00000" pt_clust_5="125.12903" pt_clust_6="76.80111"></scales>
<clustering>
<clus scale="   59.444">  1  3  2 -1</clus>
<clus scale="   76.801">  2  6  1 -1</clus>
<clus scale="  125.129">  1  5  2 -1</clus>
<clus scale="   59.444">  1  3  2 -1</clus>
</clustering>
</event>
<event>
 6    0  0.4582113E+002  0.9030820E+02  0.7546771E-02  0.1302107E+00
         21   -1    0    0  502  501  0.00000000000E+00  0.00000000000E+00  0.38048414088E+03  0.38048414088E+03  0.00000000000E+00 0. -1.
         21   -1    0    0  504  502 -0.00000000000E+00 -0.00000000000E+00 -0.87354269859E+03  0.87354269859E+03  0.00000000000E+00 0. -1.
         21    1    1    2  503  505 -0.42422556354E+02 -0.11437123625E+03 -0.19820440984E+03  0.23273470100E+03  0.00000000000E+00 0. -1.
         21    1    1    2  504  503 -0.10990911801E+02  0.41194522035E+02 -0.64842302807E+03  0.64982321605E+03  0.00000000000E+00 0. -1.
         21    1    1    2  505  506  0.29641965273E+02  0.46195933461E+02  0.31072041787E+03  0.31553112121E+03  0.00000000000E+00 0. -1.
         21    1    1    2  506  501  0.23771502882E+02  0.26980780753E+02  0.42848462335E+02  0.55937801206E+02  0.00000000000E+00 0.  1.
<scales pt_clust_3="14000.00000" pt_clust_4="42.67775" pt_clust_5="90.30820" pt_clust_6="35.95896"></scales>
<clustering>
<clus scale="   35.959">  1  6  2 -1</clus>
<clus scale="   42.678">  2  4  1 -1</clus>
<clus scale="   90.308">  1  5  2 -1</clus>
<clus scale="   35.959">  1  3  2 -1</clus>
</clustering>
</event>
<event>
 6    0  0.4582113E+002  0.1326177E+03  0.7546771E-02  0.1223622E+00
         21   -1    0    0  506  501  0.00000000000E+00  0.00000000000E+00  0.31109336360E+03  0.31109336360E+03  0.00000000000E+00 0.  1.
         21   -1    0    0  504  502 -0.00000000000E+00 -0.00000000000E+00 -0.40592785487E+03  0.40592785487E+03  0.00000000000E+00 0.  1.
         21    1    1    2  503  501 -0.17458385586E+02 -0.61904596637E+02  0.55212672791E+02  0.84766818678E+02  0.00000000000E+00 0. -1.
         21    1    1    2  504  505 -0.85208653368E+02  0.11652016802E+03 -0.24243007252E+03  0.28215209413E+03  0.00000000000E+00 0.  1.
         21    1    1    2  505  503  0.40942228795E+02 -0.76322684705E+02  0.20349311931E+03  0.22115801569E+03  0.00000000000E+00 0.  1.
         21    1    1    2  506  502  0.61724810159E+02  0.21707113322E+02 -0.11111021085E+03  0.12894428996E+03  0.00000000000E+00 0.  1.
<scales pt_clust_3="64.31932" pt_clust_4="132.61766" pt_clust_5="14000.00000" pt_clust_6="64.09137"></scales>
<clustering>
<clus scale="   64.319">  1  3  2 -1</clus>
<clus scale="   64.091">  2  6  1 -1</clus>
<clus scale="  132.618">  2  4  1 -1</clus>
<clus scale="   64.319">  1  3  2 -1</clus>
</clustering>
</event>
<event>
 6    0  0.4582113E+002  0.1969190E+03  0.7546771E-02  0.1152365E+00
         21   -1    0    0  506  501  0.00000000000E+00  0.00000000000E+00  0.16141942628E+03  0.16141942628E+03  0.00000000000E+00 0.  1.
         21   -1    0    0  505  502 -0.00000000000E+00 -0.00000000000E+00 -0.61785332538E+03  0.61785332538E+03  0.00000000000E+00 0. -1.
         21    1    1    2  503  501 -0.16352932233E+03  0.88812020498E+02 -0.20007481242E+03  0.27323862247E+03  0.00000000000E+00 0. -1.
         21    1    1    2  504  502  0.10144333971E+03 -0.10346240006E+02  0.67533745479E+01  0.10219297394E+03  0.00000000000E+00 0.  1.
         21    1    1    2  505  503 -0.40868296121E+02 -0.10758521160E+03 -0.27312397896E+03  0.29638067290E+03  0.00000000000E+00 0. -1.
         21    1    1    2  506  504  0.10295427874E+03  0.29119431113E+02  0.10011517735E+02  0.10746048234E+03  0.00000000000E+00 0.  1.
<scales pt_clust_3="192.96215" pt_clust_4="38.34395" pt_clust_5="115.08603" pt_clust_6="38.34395"></scales>
<clustering>
<clus scale="   38.344">  4  6 -1 -1</clus>
<clus scale="  115.086">  2  5  1 -1</clus>
<clus scale="  192.962">  2  3  1 -1</clus>
<clus scale="  196.919">  1  3  2 -1</clus>
</clustering>
</event>
<event>
 6    0  0.4582113E+002  0.1064154E+03  0.7546771E-02  0.1267356E+00
         21   -1    0    0  504  501  0.00000000000E+00  0.00000000000E+00  0.60222979092E+03  0.60222979092E+03  0.00000000000E+00 0. -1.
         21   -1    0    0  505  502 -0.00000000000E+00 -0.00000000000E+00 -0.49975074461E+02  0.49975074461E+02  0.00000000000E+00 0. -1.
         21    1    1    2  503  501 -0.73899296142E+02  0.86248841038E+02  0.31628460834E+03  0.33605940252E+03  0.00000000000E+00 0. -1.
         21    1    1    2  504  502  0.43087449553E+02  0.64482521291E+01  0.20091666873E+03  0.20558603075E+03  0.00000000000E+00 0. -1.
         21    1    1    2  505  506  0.30356814381E+02 -0.45150489764E+02  0.57585369508E+01  0.54710727039E+02  0.00000000000E+00 0. -1.
         21    1    1    2  506  503  0.45503220880E+00 -0.47546603403E+02  0.29294902437E+02  0.55848705073E+02  0.00000000000E+00 0. -1.
<scales pt_clust_3="99.35645" pt_clust_4="43.56728" pt_clust_5="35.62908" pt_clust_6="35.62908"></scales>
<clustering>
<clus scale="   35.629">  5  6 -1 -1</clus>
<clus scale="   43.567">  1  4  2 -1</clus>
<clus scale="   99.356">  1  3  2 -1</clus>
<clus scale="   43.567">  1  3  2 -1</clus>
</clustering>
</event>
<event>
 6    0  0.4582113E+002  0.9418880E+02  0.7546771E-02  0.1293014E+00
         21   -1    0    0  505  501  0.00000000000E+00  0.00000000000E+00  0.31370141765E+03  0.31370141765E+03  0.00000000000E+00 0.  1.
         21   -1    0    0  506  502 -0.00000000000E+00 -0.00000000000E+00 -0.33665460960E+03  0.33665460960E+03  0.00000000000E+00 0.  1.
         21    1    1    2  503  501  0.75671879218E+00  0.36709964669E+02  0.36258862750E+02  0.51603287271E+02  0.00000000000E+00 0. -1.
         21    1    1    2  504  502  0.17038824506E+02 -0.95232690983E+02 -0.30323201915E+03  0.31829113153E+03  0.00000000000E+00 0.  1.
         21    1    1    2  505  504  0.42687645752E+02  0.37724112705E+02  0.18449036184E+03  0.19308557013E+03  0.00000000000E+00 0.  1.
         21    1    1    2  506  503 -0.60483189050E+02  0.20798613609E+02  0.59529602605E+02  0.87376038318E+02  0.00000000000E+00 0.  1.
<scales pt_clust_3="36.71776" pt_clust_4="94.18880" pt_clust_5="14000.00000" pt_clust_6="67.68754"></scales>
<clustering>
<clus scale="   36.718">  1  3  2 -1</clus>
<clus scale="   67.688">  1  6  2 -1</clus>
<clus scale="   94.189">  2  4  1 -1</clus>
<clus scale="   36.718">  1  3  2 -1</clus>
</clustering>
</event>
<event>
 6    0  0.4582113E+002  0.1256839E+03  0.7546771E-02  0.1234004E+00
         21   -1    0    0  503  501  0.00000000000E+00  0.00000000000E+00  0.40356589120E+02  0.40356589120E+02  0.00000000000E+00 0. -1.
         21   -1    0    0  506  502 -0.00000000000E+00 -0.00000000000E+00 -0.12319151727E+04  0.12319151727E+04  0.00000000000E+00 0. -1.
         21    1    1    2  503  504  0.14351941167E+02 -0.32299030048E+02 -0.40411611086E+01  0.35574380394E+02  0.00000000000E+00 0.  1.
         21    1    1    2  504  505  0.14578841653E+02 -0.42358210442E+02 -0.10848290774E+03  0.11736823202E+03  0.00000000000E+00 0. -1.
         21    1    1    2  505  502 -0.11442952988E+03  0.85454588161E+02 -0.96947502871E+03  0.97993797520E+03  0.00000000000E+00 0. -1.
         21    1    1    2  506  501  0.85498747064E+02 -0.10797347671E+02 -0.10955948598E+03  0.13939117416E+03  0.00000000000E+00 0. -1.
<scales pt_clust_3="35.34410" pt_clust_4="51.16151" pt_clust_5="125.68385" pt_clust_6="14000.00000"></scales>
<clustering>
<clus scale="   35.344">  1  3  2 -1</clus>
<clus scale="   51.162">  1  4  2 -1</clus>
<clus scale="  125.684">  2  5  1 -1</clus>
<clus scale="   35.344">  1  3  2 -1</clus>
</clustering>
</event>
<event>
 6    0  0.4582113E+002  0.6481962E+02  0.7546771E-02  0.1378651E+00
         21   -1    0    0  506  501  0.00000000000E+00  0.00000000000E+00  0.74114660378E+03  0.74114660378E+03  0.00000000000E+00 0. -1.
         21   -1    0    0  503  502 -0.00000000000E+00 -0.00000000000E+00 -0.11885772438E+03  0.11885772438E+03  0.00000000000E+00 0. -1.
         21    1    1    2  503  504  0.62792673648E+02 -0.34809131819E+01 -0.58271504795E+02  0.85735668724E+02  0.00000000000E+00 0. -1.
         21    1    1    2  504  501  0.61503745191E+01  0.48621225604E+02  0.11076759265E+03  0.12112518429E+03  0.00000000000E+00 0. -1.
         21    1    1    2  505  502 -0.64986762149E+02  0.43479552161E+02  0.17439767541E+01  0.78209923703E+02  0.00000000000E+00 0. -1.
         21    1    1    2  506  505 -0.39562860176E+01 -0.88619864583E+02  0.56804881479E+03  0.57493355145E+03  0.00000000000E+00 0. -1.
<scales pt_clust_3="14000.00000" pt_clust_4="49.00868" pt_clust_5="64.81962" pt_clust_6="44.20693"></scales>
<clustering>
<clus scale="   49.009">  1  4  2 -1</clus>
<clus scale="   44.207">  1  6  2 -1</clus>
<clus scale="   64.820">  1  5  2 -1</clus>
<clus scale="   49.009">  1  3  2 -1</clus>
</clustering>
</event>
<event>
 6    0  0.4582113E+002  0.9946422E+02  0.7546771E-02  0.1281427E+00
         21   -1    0    0  506  501  0.00000000000E+00  0.00000000000E+00  0.22175778789E+04  0.22175778789E+04  0.00000000000E+00 0.  1.
         21   -1    0    0  505  502 -0.00000000000E+00 -0.00000000000E+00 -0.13146086521E+03  0.13146086521E+03  0.00000000000E+00 0.  1.
         21    1    1    2  503  501 -0.15891389922E+02 -0.40188862066E+02  0.13340417235E+03  0.14022964775E+03  0.00000000000E+00 0.  1.
         21    1    1    2  504  503  0.95229512550E+01 -0.67097914678E+02 -0.14732313252E+02  0.69353138418E+02  0.00000000000E+00 0. -1.
         21    1    1    2  505  504  0.36759128886E+02 -0.24794979000E+02 -0.77894766356E+02  0.89630458917E+02  0.00000000000E+00 0.  1.
         21    1    1    2  506  502 -0.30390690220E+02  0.13208175574E+03  0.20453399209E+04  0.20498254990E+04  0.00000000000E+00 0.  1.
<scales pt_clust_3="43.21667" pt_clust_4="14000.00000" pt_clust_5="44.36626" pt_clust_6="99.46422"></scales>
<clustering>
<clus scale="   43.217">  1  3  2 -1</clus>
<clus scale="   44.366">  2  5  1 -1</clus>
<clus scale="   99.464">  1  6  2 -1</clus>
<clus scale="   43.217">  1  3  2 -1</clus>
</clustering>
</event>
<event>
 6    0  0.4582113E+002  0.1642021E+03  0.7546771E-02  0.1184033E+00
         21   -1    0    0  504  501  0.00000000000E+00  0.00000000000E+00  0.53628130167E+03  0.53628130167E+03  0.00000000000E+00 0. -1.
         21   -1    0    0  505  502 -0.00000000000E+00 -0.00000000000E+00 -0.10370541342E+03  0.10370541342E+03  0.00000000000E+00 0. -1.
         21    1    1    2  503  506 -0.39345703722E+02 -0.19513396608E+02  0.23474904389E+02  0.49798877344E+02  0.00000000000E+00 0. -1.
         21    1    1    2  504  502  0.15247075748E+03  0.10003334619E+03  0.31723382863E+03  0.36591160717E+03  0.00000000000E+00 0. -1.
         21    1    1    2  505  503 -0.77143031709E+02 -0.74347546823E+02 -0.17876608162E+02  0.10861941898E+03  0.00000000000E+00 0. -1.
         21    1    1    2  506  501 -0.35982022048E+02 -0.61724027601E+01  0.10974376339E+03  0.11565681160E+03  0.00000000000E+00 0.  1.
<scales pt_clust_3="33.17924" pt_clust_4="155.81014" pt_clust_5="33.17924" pt_clust_6="36.50759"></scales>
<clustering>
<clus scale="   33.179">  3  5 -1 -1</clus>
<clus scale="   36.508">  1  6  2 -1</clus>
<clus scale="  155.810">  1  4  2 -1</clus>
<clus scale="   36.508">  1  3  2 -1</clus>
</clustering>
</event>
<event>
 6    0  0.4582113E+002  0.1219918E+03  0.7546771E-02  0.1239847E+00
         21   -1    0    0  506  501  0.00000000000E+00  0.00000000000E+00  0.85205656841E+02  0.85205656841E+02  0.00000000000E+00 0. -1.
         21   -1    0    0  504  502 -0.00000000000E+00 -0.00000000000E+00 -0.40068914815E+03  0.40068914815E+03  0.00000000000E+00 0. -1.
         21    1    1    2  503  502 -0.49390517175E+02  0.39054243684E+02 -0.26530103968E+02  0.68326448416E+02  0.00000000000E+00 0.  1.
         21    1    1    2  504  505  0.46664794067E+02  0.79570045149E+01 -0.21783227417E+03  0.22291661355E+03  0.00000000000E+00 0. -1.
         21    1    1    2  505  501  0.25806261894E+02 -0.10556027029E+03 -0.74293742901E+02  0.13163773794E+03  0.00000000000E+00 0. -1.
         21    1    1    2  506  503 -0.23080538787E+02  0.58549022086E+02  0.31726297280E+01  0.63014005089E+02  0.00000000000E+00 0. -1.
<scales pt_clust_3="43.87858" pt_clust_4="47.33832" pt_clust_5="113.82313" pt_clust_6="43.87858"></scales>
<clustering>
<clus scale="   43.879">  3  6 -1 -1</clus>
<clus scale="   47.338">  2  4  1 -1</clus>
<clus scale="  113.823">  2  5  1 -1</clus>
<clus scale="  121.992">  1  3  2 -1</clus>
</clustering>
</event>
<event>
 6    0  0.4582113E+002  0.1170048E+03  0.7546771E-02  0.1248122E+00
         21   -1    0    0  503  501  0.00000000000E+00  0.00000000000E+00  0.57529087565E+02  0.57529087565E+02  0.00000000000E+00 0. -1.
         21   -1    0    0  504  502 -0.00000000000E+00 -0.00000000000E+00 -0.18441266345E+04  0.18441266345E+04  0.00000000000E+00 0.  1.
         21    1    1    2  503  506 -0.16965431345E+02 -0.76553982632E+02 -0.10178460730E+02  0.79069205007E+02  0.00000000000E+00 0. -1.
         21    1    1    2  504  501  0.65444248674E+02  0.14752049563E+02 -0.10690662566E+04  0.10711690967E+04  0.00000000000E+00 0.  1.
         21    1    1    2  505  502 -0.75561097239E+02  0.90005812883E+02 -0.70221431304E+03  0.71197996264E+03  0.00000000000E+00 0.  1.
         21    1    1    2  506  505  0.27082279910E+02 -0.28203879813E+02 -0.51385165715E+01  0.39437457755E+02  0.00000000000E+00 0. -1.
<scales pt_clust_3="36.91464" pt_clust_4="67.08631" pt_clust_5="104.67796" pt_clust_6="36.91464"></scales>
<clustering>
<clus scale="   36.915">  3  6 -1 -1</clus>
<clus scale="   67.086">  2  4  1 -1</clus>
<clus scale="  104.678">  2  5  1 -1</clus>
<clus scale="  117.005">  1  3  2 -1</clus>
</clustering>
</event>
<event>
 6    0  0.4582113E+002  0.1111425E+03  0.7546771E-02  0.1258469E+00
         21   -1    0    0  504  501  0.00000000000E+00  0.00000000000E+00  0.88780238531E+02  0.88780238531E+02  0.00000000000E+00 0. -1.
         21   -1    0    0  501  502 -0.00000000000E+00 -0.00000000000E+00 -0.22741342382E+04  0.22741342382E+04  0.00000000000E+00 0. -1.
         21    1    1    2  503  506 -0.78061197380E+02  0.14843659206E+01 -0.14350902458E+01  0.78088496992E+02  0.00000000000E+00 0. -1.
         21    1    1    2  504  503 -0.29398401613E+02 -0.34714790509E+02  0.32056717902E+02  0.55650838809E+02  0.00000000000E+00 0. -1.
         21    1    1    2  505  502 -0.60175732517E+02  0.88272200679E+00 -0.92555206248E+03  0.92750661364E+03  0.00000000000E+00 0. -1.
         21    1    1    2  506  505  0.16763533151E+03  0.32347702581E+02 -0.12904235649E+04  0.13016685273E+04  0.00000000000E+00 0. -1.
<scales pt_clust_3="14000.00000" pt_clust_4="45.49047" pt_clust_5="60.81536" pt_clust_6="111.14249"></scales>
<clustering>
<clus scale="   45.490">  1  4  2 -1</clus>
<clus scale="   60.815">  2  5  1 -1</clus>
<clus scale="  111.142">  2  6  1 -1</clus>
<clus scale="   45.490">  1  3  2 -1</clus>
</clustering>
</event>
<event>
 6    0  0.4582113E+002  0.8292306E+02  0.7546771E-02  0.1320955E+00
         21   -1    0    0  503  501  0.00000000000E+00  0.00000000000E+00  0.93157544851E+02  0.93157544851E+02  0.00000000000E+00 0.  1.
         21   -1    0    0  505  502 -0.00000000000E+00 -0.00000000000E+00 -0.16093915605E+04  0.16093915605E+04  0.00000000000E+00 0.  1.
         21    1    1    2  503  502 -0.16820006740E+02 -0.73746286744E+02  0.24868689821E+02  0.79623358185E+02  0.00000000000E+00 0.  1.
         21    1    1    2  504  501  0.25916788552E+02  0.25363470892E+02 -0.69778345951E+02  0.78638433022E+02  0.00000000000E+00 0.  1.
         21    1    1    2  505  506 -0.75074786791E+02 -0.34259973884E+02 -0.14273918769E+04  0.14297753459E+04  0.00000000000E+00 0.  1.
         21    1    1    2  506  504  0.65978004979E+02  0.82642789737E+02 -0.43932482533E+02  0.11451196819E+03  0.00000000000E+00 0.  1.
<scales pt_clust_3="58.83201" pt_clust_4="36.26273" pt_clust_5="14000.00000" pt_clust_6="82.92306"></scales>
<clustering>
<clus scale="   36.263">  1  4  2 -1</clus>
<clus scale="   58.832">  1  3  2 -1</clus>
<clus scale="   82.923">  1  6  2 -1</clus>
<clus scale="   36.263">  1  3  2 -1</clus>
</clustering>
</event>
<event>
 6    0  0.4582113E+002  0.1394836E+03  0.7546771E-02  0.1214026E+00
         21   -1    0    0  504  501  0.00000000000E+00  0.00000000000E+00  0.28484726777E+03  0.28484726777E+03  0.00000000000E+00 0. -1.
         21   -1    0    0  505  502 -0.00000000000E+00 -0.00000000000E+00 -0.14915179025E+03  0.14915179025E+03  0.00000000000E+00 0. -1.
         21    1    1    2  503  501 -0.59054956123E+02  0.10416480124E+02  0.41287202686E+02  0.72805384460E+02  0.00000000000E+00 0.  1.
         21    1    1    2  504  506  0.17804790849E+03 -0.25532925817E+02  0.51022426820E+02  0.18696597566E+03  0.00000000000E+00 0. -1.
         21    1    1    2  505  503 -0.56575356393E+02 -0.23803028205E+02  0.72610877628E+02  0.95077308821E+02  0.00000000000E+00 0. -1.
         21    1    1    2  506  502 -0.62417595970E+02  0.38919473898E+02 -0.29225029618E+02  0.79150389079E+02  0.00000000000E+00 0. -1.
<scales pt_clust_3="40.29903" pt_clust_4="133.39195" pt_clust_5="40.29903" pt_clust_6="73.55734"></scales>
<clustering>
<clus scale="   40.299">  3  5 -1 -1</clus>
<clus scale="   73.557">  2  6  1 -1</clus>
<clus scale="  133.392">  2  4  1 -1</clus>
<clus scale="  139.484">  1  3  2 -1</clus>
</clustering>
</event>
<event>
 6    0  0.4582113E+002  0.1489753E+03  0.7546771E-02  0.1201738E+00
         21   -1    0    0  503  501  0.00000000000E+00  0.00000000000E+00  0.17095239557E+04  0.17095239557E+04  0.00000000000E+00 0.  1.
         21   -1    0    0  506  502 -0.00000000000E+00 -0.00000000000E+00 -0.54553316367E+03  0.54553316367E+03  0.00000000000E+00 0.  1.
         21    1    1    2  503  505 -0.67039629890E+02  0.43599303291E+02  0.15585011816E+03  0.17516983346E+03  0.00000000000E+00 0.  1.
         21    1    1    2  504  501  0.97407956822E+02  0.10213138552E+03  0.14982452665E+04  0.15048780710E+04  0.00000000000E+00 0.  1.
         21    1    1    2  505  502 -0.40158404664E+02  0.41562963026E+02 -0.88076596852E+01  0.58461544880E+02  0.00000000000E+00 0.  1.
         21    1    1    2  506  504  0.97900777320E+01 -0.18729365183E+03 -0.48129693301E+03  0.51654766998E+03  0.00000000000E+00 0.  1.
<scales pt_clust_3="81.03332" pt_clust_4="148.97527" pt_clust_5="57.79427" pt_clust_6="14000.00000"></scales>
<clustering>
<clus scale="   57.794">  2  5  1 -1</clus>
<clus scale="   81.033">  1  3  2 -1</clus>
<clus scale="  148.975">  1  4  2 -1</clus>
<clus scale="   81.033">  1  3  2 -1</clus>
</clustering>
</event>
<event>
 6    0  0.4582113E+002  0.8023895E+02  0.7546771E-02  0.1328375E+00
         21   -1    0    0  505  501  0.00000000000E+00  0.00000000000E+00  0.13438860469E+04  0.13438860469E+04  0.00000000000E+00 0.  1.
         21   -1    0    0  506  502 -0.00000000000E+00 -0.00000000000E+00 -0.59335604012E+02  0.59335604012E+02  0.00000000000E+00 0. -1.
         21    1    1    2  503  502  0.65168969066E+02  0.47857321999E+02 -0.14035864848E+02  0.82062922809E+02  0.00000000000E+00 0. -1.
         21    1    1    2  504  503 -0.26093591593E+02  0.52401334037E+02  0.14020364509E+03  0.15193366127E+03  0.00000000000E+00 0.  1.
         21    1    1    2  505  504 -0.40321669287E+02  0.35506000960E+01  0.14516891330E+03  0.15070652661E+03  0.00000000000E+00 0.  1.
         21    1    1    2  506  501  0.12462918143E+01 -0.10380925613E+03  0.10132137494E+04  0.10185185402E+04  0.00000000000E+00 0.  1.
<scales pt_clust_3="80.23895" pt_clust_4="61.26723" pt_clust_5="40.47769" pt_clust_6="14000.00000"></scales>
<clustering>
<clus scale="   40.478">  1  5  2 -1</clus>
<clus scale="   61.267">  1  4  2 -1</clus>
<clus scale="   80.239">  2  3  1 -1</clus>
<clus scale="   40.478">  1  3  2 -1</clus>
</clustering>
</event>
<event>
 6    0  0.4582113E+002  0.1651093E+03  0.7546771E-02  0.1183046E+00
         21   -1    0    0  503  501  0.00000000000E+00  0.00000000000E+00  0.14212069103E+04  0.14212069103E+04  0.00000000000E+00 0.  1.
         21   -1    0    0  504  502 -0.00000000000E+00 -0.00000000000E+00 -0.25908280567E+02  0.25908280567E+02  0.00000000000E+00 0. -1.
         21    1    1    2  503  506 -0.21968934904E+02 -0.74762986398E+02  0.54720396952E+03  0.55272445440E+03  0.00000000000E+00 0.  1.
         21    1    1    2  504  501 -0.24787483826E+02  0.33378751696E+02  0.17767246688E+03  0.18247209624E+03  0.00000000000E+00 0.  1.
         21    1    1    2  505  502  0.95704470803E+02  0.11412130335E+03  0.36661656627E+03  0.39571545872E+03  0.00000000000E+00 0. -1.
         21    1    1    2  506  505 -0.48948052073E+02 -0.72737068644E+02  0.30380562707E+03  0.31620318151E+03  0.00000000000E+00 0.  1.
<scales pt_clust_3="57.05008" pt_clust_4="41.57596" pt_clust_5="152.40951" pt_clust_6="57.05008"></scales>
<clustering>
<clus scale="   41.576">  1  4  2 -1</clus>
<clus scale="   57.050">  3  6 -1 -1</clus>
<clus scale="  152.410">  2  5  1 -1</clus>
<clus scale="   41.576">  1  3  2 -1</clus>
</clustering>
</event>
<event>
 6    0  0.4582113E+002  0.1357919E+03  0.7546771E-02  0.1219106E+00
         21   -1    0    0  503  501  0.00000000000E+00  0.00000000000E+00  0.41253927329E+03  0.41253927329E+03  0.00000000000E+00 0.  1.
         21   -1    0    0  504  502 -0.00000000000E+00 -0.00000000000E+00 -0.14985769409E+03  0.14985769409E+03  0.00000000000E+00 0.  1.
         21    1    1    2  503  505 -0.51044652698E+02 -0.70973371148E+02  0.25676866174E+03  0.27124328864E+03  0.00000000000E+00 0.  1.
         21    1    1    2  504  501  0.73095517795E+02 -0.12608558427E+02 -0.63028104734E+02  0.97336901809E+02  0.00000000000E+00 0.  1.
         21    1    1    2  505  506 -0.38533674950E+02 -0.28729248504E+02  0.64206232856E+02  0.80203828851E+02  0.00000000000E+00 0.  1.
         21    1    1    2  506  502  0.16482809852E+02  0.11231117808E+03  0.47347893347E+01  0.11361294808E+03  0.00000000000E+00 0.  1.
<scales pt_clust_3="37.26122" pt_clust_4="74.17500" pt_clust_5="37.26122" pt_clust_6="126.15120"></scales>
<clustering>
<clus scale="   37.261">  3  5 -1 -1</clus>
<clus scale="   74.175">  2  4  1 -1</clus>
<clus scale="  126.151">  2  6  1 -1</clus>
<clus scale="  135.792">  1  3  2 -1</clus>
</clustering>
</event>
<event>
 6    0  0.4582113E+002  0.7610648E+02  0.7546771E-02  0.1340478E+00
         21   -1    0    0  504  501  0.00000000000E+00  0.00000000000E+00  0.61267616612E+03  0.61267616612E+03  0.00000000000E+00 0. -1.
         21   -1    0    0  503  502 -0.00000000000E+00 -0.00000000000E+00 -0.12960695365E+03  0.12960695365E+03  0.00000000000E+00 0. -1.
         21    1    1    2  503  506  0.47750785680E+02 -0.61302985318E+02 -0.64597432775E+02  0.10104960100E+03  0.00000000000E+00 0. -1.
         21    1    1    2  504  505 -0.78263823982E+02  0.35987758444E+01  0.41689889407E+03  0.42419672937E+03  0.00000000000E+00 0. -1.
         21    1    1    2  505  502  0.18958561336E+02  0.94085306892E+02  0.17563676417E+02  0.97570255458E+02  0.00000000000E+00 0. -1.
         21    1    1    2  506  501  0.11554476965E+02 -0.36381097419E+02  0.11320407476E+03  0.11946653393E+03  0.00000000000E+00 0. -1.
<scales pt_clust_3="14000.00000" pt_clust_4="73.68822" pt_clust_5="76.10648" pt_clust_6="38.17185"></scales>
<clustering>
<clus scale="   38.172">  1  6  2 -1</clus>
<clus scale="   73.688">  1  4  2 -1</clus>
<clus scale="   76.106">  1  5  2 -1</clus>
<clus scale="   38.172">  1  3  2 -1</clus>
</clustering>
</event>
<event>
 6    0  0.4582113E+002  0.1272202E+03  0.7546771E-02  0.1231640E+00
         21   -1    0    0  506  501  0.00000000000E+00  0.00000000000E+00  0.49770479733E+03  0.49770479733E+03  0.00000000000E+00 0. -1.
         21   -1    0    0  504  502 -0.00000000000E+00 -0.00000000000E+00 -0.27693128602E+03  0.27693128602E+03  0.00000000000E+00 0. -1.
         21    1    1    2  503  501  0.29820431498E+02 -0.59156341206E+01  0.17831243515E+02  0.35244944419E+02  0.00000000000E+00 0. -1.
         21    1    1    2  504  503 -0.13591386669E+03 -0.51583603679E+02 -0.31470434533E+00  0.14537381596E+03  0.00000000000E+00 0. -1.
         21    1    1    2  505  502  0.55995405950E+01  0.51191867714E+02 -0.18545676785E+03  0.19247382917E+03  0.00000000000E+00 0. -1.
         21    1    1    2  506  505  0.10049389460E+03  0.63073700859E+01  0.38871373998E+03  0.40154349380E+03  0.00000000000E+00 0. -1.
<scales pt_clust_3="30.40153" pt_clust_4="14000.00000" pt_clust_5="51.47806" pt_clust_6="127.22025"></scales>
<clustering>
<clus scale="   30.402">  1  3  2 -1</clus>
<clus scale="   51.478">  2  5  1 -1</clus>
<clus scale="  127.220">  1  6  2 -1</clus>
<clus scale="   30.402">  1  3  2 -1</clus>
</clustering>
</event>
<event>
 6    0  0.4582113E+002  0.1276005E+03  0.7546771E-02  0.1231060E+00
         21   -1    0    0  503  501  0.00000000000E+00  0.00000000000E+00  0.86661725016E+02  0.86661725016E+02  0.00000000000E+00 0.  1.
         21   -1    0    0  504  502 -0.00000000000E+00 -0.00000000000E+00 -0.85701965587E+03  0.85701965587E+03  0.00000000000E+00 0. -1.
         21    1    1    2  503  505 -0.74781195793E+02 -0.89287387128E+02 -0.11801554187E+03  0.16580751752E+03  0.00000000000E+00 0. -1.
         21    1    1    2  504  506  0.18174833927E+03 -0.18156598826E+02 -0.33895786546E+03  0.38503838181E+03  0.00000000000E+00 0. -1.
         21    1    1    2  505  502 -0.56798215653E+02  0.30374138383E+02 -0.29119855131E+03  0.29823685531E+03  0.00000000000E+00 0. -1.
         21    1    1    2  506  501 -0.50168927822E+02  0.77069847571E+02 -0.22185972215E+02  0.94598626241E+02  0.00000000000E+00 0.  1.
<scales pt_clust_3="127.60053" pt_clust_4="14000.00000" pt_clust_5="64.40983" pt_clust_6="97.87453"></scales>
<clustering>
<clus scale="   64.410">  2  5  1 -1</clus>
<clus scale="   97.875">  1  6  2 -1</clus>
<clus scale="  127.601">  1  3  2 -1</clus>
<clus scale="   97.875">  1  3  2 -1</clus>
</clustering>
</event>
<event>
 6    0  0.4582113E+002  0.1194285E+03  0.7546771E-02  0.1244043E+00
         21   -1    0    0  506  501  0.00000000000E+00  0.00000000000E+00  0.68746033927E+03  0.68746033927E+03  0.00000000000E+00 0. -1.
         21   -1    0    0  505  502 -0.00000000000E+00 -0.00000000000E+00 -0.29151470633E+03  0.29151470633E+03  0.00000000000E+00 0.  1.
         21    1    1    2  503  501  0.47017481824E+02  0.39927033790E+02  0.31108834229E+03  0.31714471198E+03  0.00000000000E+00 0. -1.
         21    1    1    2  504  502 -0.11941136813E+03  0.27932498093E+02 -0.25370980769E+03  0.28179419051E+03  0.00000000000E+00 0.  1.
         21    1    1    2  505  503  0.27002958874E+02 -0.89108211722E+02  0.30699057439E+03  0.32080000927E+03  0.00000000000E+00 0.  1.
         21    1    1    2  506  504  0.45390927427E+02  0.21248679839E+02  0.31576523953E+02  0.59236133842E+02  0.00000000000E+00 0. -1.
<scales pt_clust_3="85.58264" pt_clust_4="119.42847" pt_clust_5="14000.00000" pt_clust_6="50.11829"></scales>
<clustering>
<clus scale="   50.118">  1  6  2 -1</clus>
<clus scale="   85.583">  1  3  2 -1</clus>
<clus scale="  119.428">  2  4  1 -1</clus>
<clus scale="   50.118">  1  3  2 -1</clus>
</clustering>
</event>
<event>
 6    0  0.4582113E+002  0.8605961E+02  0.7546771E-02  0.1312685E+00
         21   -1    0    0  503  501  0.00000000000E+00  0.00000000000E+00  0.22883999870E+04  0.22883999870E+04  0.00000000000E+00 0. -1.
         21   -1    0    0  505  502 -0.00000000000E+00 -0.00000000000E+00 -0.10615992727E+02  0.10615992727E+02  0.00000000000E+00 0. -1.
         21    1    1    2  503  506 -0.12873026450E+02 -0.35481686852E+02  0.87087560124E+03  0.87169316720E+03  0.00000000000E+00 0.  1.
         21    1    1    2  504  501  0.76245232753E+02  0.49439932132E+02  0.73556083177E+03  0.74115273705E+03  0.00000000000E+00 0. -1.
         21    1    1    2  505  504  0.35161394443E+02  0.33701055970E+01  0.98274327101E+02  0.10442951995E+03  0.00000000000E+00 0.  1.
         21    1    1    2  506  502 -0.98533600746E+02 -0.17328350877E+02  0.57307323412E+03  0.58174055547E+03  0.00000000000E+00 0. -1.
<scales pt_clust_3="36.96316" pt_clust_4="14000.00000" pt_clust_5="35.32253" pt_clust_6="86.05961"></scales>
<clustering>
<clus scale="   35.323">  2  5  1 -1</clus>
<clus scale="   36.963">  1  3  2 -1</clus>
<clus scale="   86.060">  2  6  1 -1</clus>
<clus scale="   36.963">  1  3  2 -1</clus>
</clustering>
</event>
<event>
 6    0  0.4582113E+002  0.1452551E+03  0.7546771E-02  0.1206428E+00
         21   -1    0    0  505  501  0.00000000000E+00  0.00000000000E+00  0.12753027237E+03  0.12753027237E+03  0.00000000000E+00 0. -1.
         21   -1    0    0  504  502 -0.00000000000E+00 -0.00000000000E+00 -0.41500431719E+03  0.41500431719E+03  0.00000000000E+00 0. -1.
         21    1    1    2  503  502 -0.77222392480E+02 -0.57110541721E+02 -0.21190573959E+03  0.23265630089E+03  0.00000000000E+00 0. -1.
         21    1    1    2  504  501  0.10548150462E+03 -0.93149330394E+02 -0.49767875758E+02  0.14926482180E+03  0.00000000000E+00 0. -1.
         21    1    1    2  505  506 -0.10741401428E+02  0.52516949263E+02  0.10985838844E+02  0.54718336229E+02  0.00000000000E+00 0. -1.
         21    1    1    2  506  503 -0.17517710712E+02  0.97742922852E+02 -0.36786268315E+02  0.10589513064E+03  0.00000000000E+00 0. -1.
<scales pt_clust_3="96.04640" pt_clust_4="139.08492" pt_clust_5="30.77446" pt_clust_6="30.77446"></scales>
<clustering>
<clus scale="   30.774">  5  6 -1 -1</clus>
<clus scale="   96.046">  2  3  1 -1</clus>
<clus scale="  139.085">  2  4  1 -1</clus>
<clus scale="  145.255">  1  3  2 -1</clus>
</clustering>
</event>
<event>
 6    0  0.4582113E+002  0.1314190E+03  0.7546771E-02  0.1225365E+00
         21   -1    0    0  505  501  0.00000000000E+00  0.00000000000E+00  0.23916802317E+03  0.23916802317E+03  0.00000000000E+00 0. -1.
         21   -1    0    0  504  502 -0.00000000000E+00 -0.00000000000E+00 -0.12692207648E+03  0.12692207648E+03  0.00000000000E+00 0.  1.
         21    1    1    2  503  501  0.42645589448E+02  0.49013833336E+02 -0.56395303882E+02  0.86031578258E+02  0.00000000000E+00 0.  1.
         21    1    1    2  504  503  0.53370700127E+02  0.27802759972E+02 -0.92988211265E+01  0.60892472182E+02  0.00000000000E+00 0. -1.
         21    1    1    2  505  506 -0.43979343330E+02 -0.55580634507E+02  0.86427278428E+02  0.11177237596E+03  0.00000000000E+00 0. -1.
         21    1    1    2  506  502 -0.52036946246E+02 -0.21235958801E+02  0.91512793267E+02  0.10739367324E+03  0.00000000000E+00 0. -1.
<scales pt_clust_3="44.63653" pt_clust_4="44.63653" pt_clust_5="127.94955" pt_clust_6="31.49851"></scales>
<clustering>
<clus scale="   31.499">  5  6 -1 -1</clus>
<clus scale="   44.637">  3  4 -1 -1</clus>
<clus scale="  127.950">  1  5  2 -1</clus>
<clus scale="  127.950">  1  3  2 -1</clus>
</clustering>
</event>
<event>
 6    0  0.4582113E+002  0.1071507E+03  0.7546771E-02  0.1265939E+00
         21   -1    0    0  505  501  0.00000000000E+00  0.00000000000E+00  0.43930666270E+03  0.43930666270E+03  0.00000000000E+00 0.  1.
         21   -1    0    0  504  502 -0.00000000000E+00 -0.00000000000E+00 -0.70965298797E+03  0.70965298797E+03  0.00000000000E+00 0. -1.
         21    1    1    2  503  506 -0.58809058447E+02 -0.13462845247E+02  0.80632823990E+01  0.60866822495E+02  0.00000000000E+00 0.  1.
         21    1    1    2  504  501  0.42765467476E+02 -0.91968303132E+02 -0.14568846371E+03  0.17751671033E+03  0.00000000000E+00 0.  1.
         21    1    1    2  505  503  0.57160688662E+02  0.93417444537E+02  0.38030736352E+03  0.39576237065E+03  0.00000000000E+00 0.  1.
         21    1    1    2  506  502 -0.41117097691E+02  0.12013703842E+02 -0.51302850748E+03  0.51481374719E+03  0.00000000000E+00 0. -1.
<scales pt_clust_3="65.43575" pt_clust_4="14000.00000" pt_clust_5="107.15073" pt_clust_6="42.83626"></scales>
<clustering>
<clus scale="   42.836">  2  6  1 -1</clus>
<clus scale="   65.436">  2  3  1 -1</clus>
<clus scale="  107.151">  1  5  2 -1</clus>
<clus scale="  107.151">  1  3  2 -1</clus>
</clustering>
</event>
<event>
 6    0  0.4582113E+002  0.8977746E+02  0.7546771E-02  0.1303392E+00
         21   -1    0    0  504  501  0.00000000000E+00  0.00000000000E+00  0.37159375448E+03  0.37159375448E+03  0.00000000000E+00 0. -1.
         21   -1    0    0  506  502 -0.00000000000E+00 -0.00000000000E+00 -0.14099098384E+03  0.14099098384E+03  0.00000000000E+00 0. -1.
         21    1    1    2  503  505  0.24373503985E+02 -0.11242788021E+03  0.11042110462E+01  0.11504484008E+03  0.00000000000E+00 0. -1.
         21    1    1    2  504  503 -0.24935478349E+02  0.67937036509E+02  0.24750541008E+03  0.25786846847E+03  0.00000000000E+00 0. -1.
         21    1    1    2  505  502 -0.23366780697E+02  0.23110624264E+02 -0.70706313452E+02  0.77971085384E+02  0.00000000000E+00 0. -1.
         21    1    1    2  506  501  0.23928755061E+02  0.21380219442E+02  0.52699462956E+02  0.61700344392E+02  0.00000000000E+00 0. -1.
<scales pt_clust_3="14000.00000" pt_clust_4="89.77746" pt_clust_5="32.84421" pt_clust_6="32.08892"></scales>
<clustering>
<clus scale="   32.089">  1  6  2 -1</clus>
<clus scale="   32.844">  2  5  1 -1</clus>
<clus scale="   89.777">  1  4  2 -1</clus>
<clus scale="   32.089">  1  3  2 -1</clus>
</clustering>
</event>
<event>
 6    0  0.4582113E+002  0.1306111E+03  0.7546771E-02  0.1226552E+00
         21   -1    0    0  506  501  0.00000000000E+00  0.00000000000E+00  0.15108060398E+04  0.15108060398E+04  0.00000000000E+00 0.  1.
         21   -1    0    0  503  502 -0.00000000000E+00 -0.00000000000E+00 -0.60466937153E+03  0.60466937153E+03  0.00000000000E+00 0.  1.
         21    1    1    2  503  505  0.50613323832E+01 -0.37504928765E+02  0.13225917059E+03  0.13756716531E+03  0.00000000000E+00 0. -1.
         21    1    1    2  504  502 -0.11211842267E+03 -0.66382650642E+02 -0.58603180148E+03  0.60034196035E+03  0.00000000000E+00 0.  1.
         21    1    1    2  505  501 -0.19120580383E+02 -0.24232793694E+02  0.38322544345E+03  0.38446659854E+03  0.00000000000E+00 0.  1.
         21    1    1    2  506  504  0.12617767067E+03  0.12812037310E+03  0.97668385572E+03  0.99309968714E+03  0.00000000000E+00 0.  1.
<scales pt_clust_3="40.50093" pt_clust_4="130.61111" pt_clust_5="30.86786" pt_clust_6="14000.00000"></scales>
<clustering>
<clus scale="   30.868">  1  5  2 -1</clus>
<clus scale="   40.501">  1  3  2 -1</clus>
<clus scale="  130.611">  2  4  1 -1</clus>
<clus scale="   30.868">  1  3  2 -1</clus>
</clustering>
</event>
<event>
 6    0  0.4582113E+002  0.7017598E+02  0.7546771E-02  0.1359496E+00
         21   -1    0    0  504  501  0.00000000000E+00  0.00000000000E+00  0.19606613830E+03  0.19606613830E+03  0.00000000000E+00 0.  1.
         21   -1    0    0  505  502 -0.00000000000E+00 -0.00000000000E+00 -0.54900943159E+03  0.54900943159E+03  0.00000000000E+00 0.  1.
         21    1    1    2  503  502  0.33101562612E+02 -0.49060645514E+02 -0.18466282653E+03  0.19391498108E+03  0.00000000000E+00 0.  1.
         21    1    1    2  504  503  0.79626781529E+02 -0.15311364070E+02  0.16660407307E+02  0.82779413975E+02  0.00000000000E+00 0.  1.
         21    1    1    2  505  506 -0.46810552898E+02  0.85841872378E+02 -0.31018491134E+03  0.32523027863E+03  0.00000000000E+00 0.  1.
         21    1    1    2  506  501 -0.65917791243E+02 -0.21469862794E+02  0.12524403727E+03  0.14315089620E+03  0.00000000000E+00 0.  1.
<scales pt_clust_3="59.18328" pt_clust_4="70.17598" pt_clust_5="46.00089" pt_clust_6="14000.00000"></scales>
<clustering>
<clus scale="   59.183">  2  3  1 -1</clus>
<clus scale="   46.001">  2  5  1 -1</clus>
<clus scale="   70.176">  2  4  1 -1</clus>
<clus scale="   70.176">  1  3  2 -1</clus>
</clustering>
</event>
<event>
 6    0  0.4582113E+002  0.1120713E+03  0.7546771E-02  0.1256782E+00
         21   -1    0    0  503  501  0.00000000000E+00  0.00000000000E+00  0.88020656849E+03  0.88020656849E+03  0.00000000000E+00 0.  1.
         21   -1    0    0  506  502 -0.00000000000E+00 -0.00000000000E+00 -0.28239796961E+03  0.28239796961E+03  0.00000000000E+00 0. -1.
         21    1    1    2  503  505  0.34422536706E+02 -0.18372707933E+02  0.14429259878E+03  0.14947515342E+03  0.00000000000E+00 0. -1.
         21    1    1    2  504  501 -0.33726277339E+02 -0.49997521576E+02  0.66051139666E+03  0.66325901356E+03  0.00000000000E+00 0.  1.
         21    1    1    2  505  502  0.67866460928E+02 -0.34969335005E+02  0.30286782003E+02  0.82134037242E+02  0.00000000000E+00 0. -1.
         21    1    1    2  506  504 -0.68562720294E+02  0.10333956451E+03 -0.23728217857E+03  0.26773633387E+03  0.00000000000E+00 0. -1.
<scales pt_clust_3="39.01881" pt_clust_4="66.63343" pt_clust_5="14000.00000" pt_clust_6="112.07127"></scales>
<clustering>
<clus scale="   39.019">  1  3  2 -1</clus>
<clus scale="   66.633">  1  4  2 -1</clus>
<clus scale="  112.071">  2  6  1 -1</clus>
<clus scale="   39.019">  1  3  2 -1</clus>
</clustering>
</event>
<event>
 6    0  0.4582113E+002  0.1140375E+03  0.7546771E-02  0.1253271E+00
         21   -1    0    0  506  501  0.00000000000E+00  0.00000000000E+00  0.85394524645E+02  0.85394524645E+02  0.00000000000E+00 0. -1.
         21   -1    0    0  504  502 -0.00000000000E+00 -0.00000000000E+00 -0.97310196893E+03  0.97310196893E+03  0.00000000000E+00 0. -1.
         21    1    1    2  503  505 -0.40219000927E+02 -0.25000855797E+02  0.41777431540E+01  0.47540134244E+02  0.00000000000E+00 0. -1.
         21    1    1    2  504  501  0.37707295564E+02 -0.96454498211E+02 -0.40242389275E+03  0.41553615947E+03  0.00000000000E+00 0. -1.
         21    1    1    2  505  502  0.64677349724E+02  0.92083006351E+02 -0.51109943697E+03  0.52334030429E+03  0.00000000000E+00 0. -1.
         21    1    1    2  506  503 -0.62165644361E+02  0.29372347656E+02  0.21638142277E+02  0.72079895580E+02  0.00000000000E+00 0. -1.
<scales pt_clust_3="46.51071" pt_clust_4="103.56307" pt_clust_5="99.31661" pt_clust_6="46.51071"></scales>
<clustering>
<clus scale="   46.511">  3  6 -1 -1</clus>
<clus scale="  103.563">  2  4  1 -1</clus>
<clus scale="   99.317">  2  5  1 -1</clus>
<clus scale="  114.038">  1  3  2 -1</clus>
</clustering>
</event>
<event>
 6    0  0.4582113E+002  0.9026200E+02  0.7546771E-02  0.1302218E+00
         21   -1    0    0  503  501  0.00000000000E+00  0.00000000000E+00  0.11415091567E+03  0.11415091567E+03  0.00000000000E+00 0.  1.
         21   -1    0    0  506  502 -0.00000000000E+00 -0.00000000000E+00 -0.21199815972E+04  0.21199815972E+04  0.00000000000E+00 0. -1.
         21    1    1    2  503  505 -0.72542105750E+02  0.54453039524E+02  0.89837817847E+02  0.12766488999E+03  0.00000000000E+00 0.  1.
         21    1    1    2  504  501  0.32856479290E+02  0.16918075610E+02 -0.10535000789E+03  0.11164404899E+03  0.00000000000E+00 0.  1.
         21    1    1    2  505  502  0.14124607996E+02 -0.90057453093E+02 -0.10429903568E+04  0.10469664434E+04  0.00000000000E+00 0. -1.
         21    1    1    2  506  504  0.25561018464E+02  0.18686337959E+02 -0.94732813470E+03  0.94785713042E+03  0.00000000000E+00 0. -1.
<scales pt_clust_3="90.26200" pt_clust_4="39.85364" pt_clust_5="14000.00000" pt_clust_6="31.66299"></scales>
<clustering>
<clus scale="   31.663">  2  6  1 -1</clus>
<clus scale="   39.854">  2  4  1 -1</clus>
<clus scale="   90.262">  1  3  2 -1</clus>
<clus scale="   90.262">  1  3  2 -1</clus>
</clustering>
</event>
<event>
 6    0  0.4582113E+002  0.1278794E+03  0.7546771E-02  0.1230637E+00
         21   -1    0    0  506  501  0.00000000000E+00  0.00000000000E+00  0.76611632686E+03  0.76611632686E+03  0.00000000000E+00 0. -1.
         21   -1    0    0  505  502 -0.00000000000E+00 -0.00000000000E+00 -0.96845726037E+03  0.96845726037E+03  0.00000000000E+00 0. -1.
         21    1    1    2  503  501 -0.45857449420E+02  0.75967344946E+02 -0.58399993385E+02  0.10622853850E+03  0.00000000000E+00 0. -1.
         21    1    1    2  504  502  0.62166189978E+02 -0.79320620819E+02  0.67862598645E+03  0.68606823681E+03  0.00000000000E+00 0. -1.
         21    1    1    2  505  503 -0.66932515928E+02  0.62042798387E+01 -0.87014989875E+03  0.87274240247E+03  0.00000000000E+00 0. -1.
         21    1    1    2  506  504  0.50623775369E+02 -0.28510039661E+01  0.47582972178E+02  0.69534409450E+02  0.00000000000E+00 0. -1.
<scales pt_clust_3="127.87945" pt_clust_4="14000.00000" pt_clust_5="67.12662" pt_clust_6="50.70399"></scales>
<clustering>
<clus scale="   50.704">  1  6  2 -1</clus>
<clus scale="   67.127">  2  5  1 -1</clus>
<clus scale="  127.879">  2  3  1 -1</clus>
<clus scale="   50.704">  1  3  2 -1</clus>
</clustering>
</event>
<event>
 6    0  0.4582113E+002  0.8614821E+02  0.7546771E-02  0.1312457E+00
         21   -1    0    0  504  501  0.00000000000E+00  0.00000000000E+00  0.36736083429E+03  0.36736083429E+03  0.00000000000E+00 0.  1.
         21   -1    0    0  505  502 -0.00000000000E+00 -0.00000000000E+00 -0.22199313272E+03  0.22199313272E+03  0.00000000000E+00 0.  1.
         21    1    1    2  503  502 -0.86140712078E+02  0.55781685891E+02 -0.10339537106E+03  0.14567917324E+03  0.00000000000E+00 0.  1.
         21    1    1    2  504  503 -0.38631820928E+02 -0.78163959769E+02  0.26587202018E+03  0.27980341904E+03  0.00000000000E+00 0.  1.
         21    1    1    2  505  506  0.31696263651E+02  0.11754523652E+02 -0.53570155838E+02  0.63344956802E+02  0.00000000000E+00 0.  1.
         21    1    1    2  506  501  0.93076269355E+02  0.10627750225E+02  0.36461208288E+02  0.10052641793E+03  0.00000000000E+00 0.  1.
<scales pt_clust_3="14000.00000" pt_clust_4="86.14821" pt_clust_5="33.80565" pt_clust_6="85.00707"></scales>
<clustering>
<clus scale="   33.806">  2  5  1 -1</clus>
<clus scale="   86.148">  1  4  2 -1</clus>
<clus scale="   85.007">  1  6  2 -1</clus>
<clus scale="   86.148">  1  3  2 -1</clus>
</clustering>
</event>
<event>
 6    0  0.4582113E+002  0.2664287E+03  0.7546771E-02  0.1103341E+00
         21   -1    0    0  504  501  0.00000000000E+00  0.00000000000E+00  0.31412250655E+03  0.31412250655E+03  0.00000000000E+00 0. -1.
         21   -1    0    0  506  502 -0.00000000000E+00 -0.00000000000E+00 -0.85154371359E+03  0.85154371359E+03  0.00000000000E+00 0. -1.
         21    1    1    2  503  501 -0.92334919696E+02  0.14132299185E+02  0.46654228254E+02  0.10441300824E+03  0.00000000000E+00 0.  1.
         21    1    1    2  504  502 -0.71868858013E+02  0.24782213981E+03  0.44153070985E+02  0.26178319161E+03  0.00000000000E+00 0. -1.
         21    1    1    2  505  503  0.17221740729E+03 -0.20179068925E+03 -0.12618384204E+03  0.29376977318E+03  0.00000000000E+00 0. -1.
         21    1    1    2  506  505 -0.80136295849E+01 -0.60163749746E+02 -0.50204466423E+03  0.50570024711E+03  0.00000000000E+00 0. -1.
<scales pt_clust_3="93.44812" pt_clust_4="266.42866" pt_clust_5="14000.00000" pt_clust_6="60.69510"></scales>
<clustering>
<clus scale="   60.695">  2  6  1 -1</clus>
<clus scale="   93.448">  1  3  2 -1</clus>
<clus scale="  266.429">  1  4  2 -1</clus>
<clus scale="   93.448">  1  3  2 -1</clus>
</clustering>
</event>
<event>
 6    0  0.4582113E+002  0.1333836E+03  0.7546771E-02  0.1222520E+00
         21   -1    0    0  503  501  0.00000000000E+00  0.00000000000E+00  0.82139923664E+03  0.82139923664E+03  0.00000000000E+00 0. -1.
         21   -1    0    0  505  502 -0.00000000000E+00 -0.00000000000E+00 -0.12739197893E+03  0.12739197893E+03  0.00000000000E+00 0.  1.
         21    1    1    2  503  504 -0.37036119939E+01  0.17146532336E+03  0.45316564039E+02  0.17739127609E+03  0.00000000000E+00 0.  1.
         21    1    1    2  504  502  0.30194391423E+02 -0.12375878159E+02  0.45845873506E+00  0.32635468712E+02  0.00000000000E+00 0.  1.
         21    1    1    2  505  506 -0.33218650701E+02 -0.29445822045E+02 -0.26472076189E+02  0.51684678659E+02  0.00000000000E+00 0.  1.
         21    1    1    2  506  501  0.67278712721E+01 -0.12964362316E+03  0.67470431113E+03  0.68707979211E+03  0.00000000000E+00 0. -1.
<scales pt_clust_3="133.38357" pt_clust_4="32.63225" pt_clust_5="40.66177" pt_clust_6="14000.00000"></scales>
<clustering>
<clus scale="   32.632">  2  4  1 -1</clus>
<clus scale="   40.662">  2  5  1 -1</clus>
<clus scale="  133.384">  2  3  1 -1</clus>
<clus scale="  133.384">  1  3  2 -1</clus>
</clustering>
</event>
<event>
 6    0  0.4582113E+002  0.1303186E+03  0.7546771E-02  0.1226984E+00
         21   -1    0    0  505  501  0.00000000000E+00  0.00000000000E+00  0.31886887208E+03  0.31886887208E+03  0.00000000000E+00 0. -1.
         21   -1    0    0  506  502 -0.00000000000E+00 -0.00000000000E+00 -0.29454616618E+03  0.29454616618E+03  0.00000000000E+00 0.  1.
         21    1    1    2  503  502 -0.40210086847E+02 -0.32721178837E+02 -0.11094590942E+03  0.12246028517E+03  0.00000000000E+00 0.  1.
         21    1    1    2  504  503 -0.83587719036E+01  0.13823518038E+03 -0.78860516588E+02  0.15936692015E+03  0.00000000000E+00 0. -1.
         21    1    1    2  505  504  0.19674835289E+02  0.70312791972E+02  0.44115131582E+02  0.85306111698E+02  0.00000000000E+00 0. -1.
         21    1    1    2  506  501  0.28894023462E+02 -0.17582679351E+03  0.17001400032E+03  0.24628172123E+03  0.00000000000E+00 0. -1.
<scales pt_clust_3="51.84136" pt_clust_4="130.31861" pt_clust_5="68.19762" pt_clust_6="14000.00000"></scales>
<clustering>
<clus scale="   51.841">  2  3  1 -1</clus>
<clus scale="   68.198">  1  5  2 -1</clus>
<clus scale="  130.319">  2  4  1 -1</clus>
<clus scale="   68.198">  1  3  2 -1</clus>
</clustering>
</event>
<event>
 6    0  0.4582113E+002  0.1099723E+03  0.7546771E-02  0.1260621E+00
         21   -1    0    0  505  501  0.00000000000E+00  0.00000000000E+00  0.32151418721E+03  0.32151418721E+03  0.00000000000E+00 0. -1.
         21   -1    0    0  504  502 -0.00000000000E+00 -0.00000000000E+00 -0.18533859592E+04  0.18533859592E+04  0.00000000000E+00 0. -1.
         21    1    1    2  503  501 -0.35229870947E+02 -0.40264726170E+02  0.28794165685E+03  0.29286991947E+03  0.00000000000E+00 0. -1.
         21    1    1    2  504  503  0.48689959219E+02  0.12374777047E+03 -0.11658765796E+04  0.11734361601E+04  0.00000000000E+00 0. -1.
         21    1    1    2  505  506 -0.30960445966E+02  0.11882441155E+02  0.12276874423E+02  0.35361890049E+02  0.00000000000E+00 0. -1.
         21    1    1    2  506  502  0.17500357694E+02 -0.95365485454E+02 -0.66621372359E+03  0.67323217677E+03  0.00000000000E+00 0. -1.
<scales pt_clust_3="71.43902" pt_clust_4="14000.00000" pt_clust_5="33.16235" pt_clust_6="109.97228"></scales>
<clustering>
<clus scale="   33.162">  1  5  2 -1</clus>
<clus scale="   71.439">  1  3  2 -1</clus>
<clus scale="  109.972">  2  6  1 -1</clus>
<clus scale="   33.162">  1  3  2 -1</clus>
</clustering>
</event>
<event>
 6    0  0.4582113E+002  0.8284829E+02  0.7546771E-02  0.1321157E+00
         21   -1    0    0  503  501  0.00000000000E+00  0.00000000000E+00  0.29493678340E+03  0.29493678340E+03  0.00000000000E+00 0. -1.
         21   -1    0    0  504  502 -0.00000000000E+00 -0.00000000000E+00 -0.10172239027E+04  0.10172239027E+04  0.00000000000E+00 0. -1.
         21    1    1    2  503  506  0.37909372579E+02  0.31201113323E+02  0.34289790316E+02  0.59886724087E+02  0.00000000000E+00 0.  1.
         21    1    1    2  504  501 -0.97684855333E+02  0.22903551144E+02  0.22767681816E+03  0.24880441544E+03  0.00000000000E+00 0. -1.
         21    1    1    2  505  502 -0.19105858410E+02  0.45350346886E+02 -0.51512478259E+03  0.51747002756E+03  0.00000000000E+00 0. -1.
         21    1    1    2  506  505  0.78881341163E+02 -0.99455011352E+02 -0.46912894519E+03  0.48599951901E+03  0.00000000000E+00 0. -1.
<scales pt_clust_3="49.09817" pt_clust_4="14000.00000" pt_clust_5="49.27755" pt_clust_6="82.84829"></scales>
<clustering>
<clus scale="   49.098">  1  3  2 -1</clus>
<clus scale="   49.278">  2  5  1 -1</clus>
<clus scale="   82.848">  2  6  1 -1</clus>
<clus scale="   49.098">  1  3  2 -1</clus>
</clustering>
</event>
<event>
 6    0  0.4582113E+002  0.1182440E+03  0.7546771E-02  0.1246022E+00
         21   -1    0    0  506  501  0.00000000000E+00  0.00000000000E+00  0.62337619395E+02  0.62337619395E+02  0.00000000000E+00 0.  1.
         21   -1    0    0  503  502 -0.00000000000E+00 -0.00000000000E+00 -0.68703320637E+03  0.68703320637E+03  0.00000000000E+00 0.  1.
         21    1    1    2  503  501 -0.51811227132E+02 -0.34187036146E+02 -0.91965994076E+02  0.11095449862E+03  0.00000000000E+00 0.  1.
         21    1    1    2  504  505  0.21064484602E+01  0.66481477644E+02 -0.13929381716E+02  0.67957719722E+02  0.00000000000E+00 0.  1.
         21    1    1    2  505  502  0.76433854382E+02 -0.84807648405E+02 -0.49315066864E+03  0.50619369149E+03  0.00000000000E+00 0.  1.
         21    1    1    2  506  504 -0.26729075710E+02  0.52513206906E+02 -0.25649542549E+02  0.64264915941E+02  0.00000000000E+00 0.  1.
<scales pt_clust_3="62.07380" pt_clust_4="31.92262" pt_clust_5="113.27543" pt_clust_6="31.92262"></scales>
<clustering>
<clus scale="   31.923">  4  6 -1 -1</clus>
<clus scale="   62.074">  1  3  2 -1</clus>
<clus scale="  113.275">  2  5  1 -1</clus>
<clus scale="   62.074">  1  3  2 -1</clus>
</clustering>
</event>
<event>
 6    0  0.4582113E+002  0.1862031E+03  0.7546771E-02  0.1161931E+00
         21   -1    0    0  504  501  0.00000000000E+00  0.00000000000E+00  0.74068993514E+03  0.74068993514E+03  0.00000000000E+00 0. -1.
         21   -1    0    0  505  502 -0.00000000000E+00 -0.00000000000E+00 -0.10870458368E+03  0.10870458368E+03  0.00000000000E+00 0. -1.
         21    1    1    2  503  506 -0.10644575220E+03  0.82486686201E+02  0.15640789891E+03  0.20639327122E+03  0.00000000000E+00 0. -1.
         21    1    1    2  504  503  0.11445869205E+03 -0.12401337171E+03  0.49637405646E+03  0.52427789623E+03  0.00000000000E+00 0. -1.
         21    1    1    2  505  501  0.36776153424E+02 -0.88513046976E+00 -0.39782697865E+02  0.54184240938E+02  0.00000000000E+00 0. -1.
         21    1    1    2  506  502 -0.44789093280E+02  0.42411815977E+02  0.18986093958E+02  0.64539110430E+02  0.00000000000E+00 0. -1.
<scales pt_clust_3="42.14792" pt_clust_4="174.64796" pt_clust_5="36.78680" pt_clust_6="42.14792"></scales>
<clustering>
<clus scale="   36.787">  2  5  1 -1</clus>
<clus scale="   42.148">  3  6 -1 -1</clus>
<clus scale="  174.648">  1  4  2 -1</clus>
<clus scale="  174.648">  1  3  2 -1</clus>
</clustering>
</event>
<event>
 6    0  0.4582113E+002  0.1036325E+03  0.7546771E-02  0.1272838E+00
         21   -1    0    0  506  501  0.00000000000E+00  0.00000000000E+00  0.14965471905E+03  0.14965471905E+03  0.00000000000E+00 0.  1.
         21   -1    0    0  504  502 -0.00000000000E+00 -0.00000000000E+00 -0.45173699033E+03  0.45173699033E+03  0.00000000000E+00 0. -1.
         21    1    1    2  503  502 -0.51092988630E+02  0.27399174291E+02 -0.16312525257E+03  0.17312150723E+03  0.00000000000E+00 0. -1.
         21    1    1    2  504  505 -0.47897071319E+01 -0.10548595671E+03 -0.19137657151E+03  0.21857543430E+03  0.00000000000E+00 0.  1.
         21    1    1    2  505  501 -0.25605501217E+02 -0.47065483102E+02  0.16952621277E+02  0.56197800316E+02  0.00000000000E+00 0. -1.
         21    1    1    2  506  503  0.81488196979E+02  0.12515226552E+03  0.35466931515E+02  0.15349696754E+03  0.00000000000E+00 0.  1.
<scales pt_clust_3="58.03853" pt_clust_4="103.63249" pt_clust_5="53.57986" pt_clust_6="14000.00000"></scales>
<clustering>
<clus scale="   53.580">  1  5  2 -1</clus>
<clus scale="   58.039">  2  3  1 -1</clus>
<clus scale="  103.632">  2  4  1 -1</clus>
<clus scale="   53.580">  1  3  2 -1</clus>
</clustering>
</event>
<event>
 6    0  0.4582113E+002  0.9312669E+02  0.7546771E-02  0.1295452E+00
         21   -1    0    0  503  501  0.00000000000E+00  0.00000000000E+00  0.10394803718E+04  0.10394803718E+04  0.00000000000E+00 0.  1.
         21   -1    0    0  504  502 -0.00000000000E+00 -0.00000000000E+00 -0.20104597103E+03  0.20104597103E+03  0.00000000000E+00 0. -1.
         21    1    1    2  503  505 -0.36603554062E+02  0.29923906590E+02  0.58791179676E+03  0.58980974994E+03  0.00000000000E+00 0.  1.
         21    1    1    2  504  501  0.10521771665E+03  0.37073507547E+02  0.40281624317E+03  0.41797863417E+03  0.00000000000E+00 0.  1.
         21    1    1    2  505  506 -0.27639756345E+02 -0.77215799617E+02 -0.80128701065E+01  0.82404137812E+02  0.00000000000E+00 0.  1.
         21    1    1    2  506  502 -0.40974406244E+02  0.10218385480E+02 -0.14428076909E+03  0.15033382087E+03  0.00000000000E+00 0. -1.
<scales pt_clust_3="47.95400" pt_clust_4="93.12669" pt_clust_5="14000.00000" pt_clust_6="42.22934"></scales>
<clustering>
<clus scale="   42.229">  2  6  1 -1</clus>
<clus scale="   47.954">  1  3  2 -1</clus>
<clus scale="   93.127">  1  4  2 -1</clus>
<clus scale="   47.954">  1  3  2 -1</clus>
</clustering>
</event>
<event>
 6    0  0.4582113E+002  0.1160821E+03  0.7546771E-02  0.1249704E+00
         21   -1    0    0  505  501  0.00000000000E+00  0.00000000000E+00  0.94359885689E+03  0.94359885689E+03  0.00000000000E+00 0.  1.
         21   -1    0    0  506  502 -0.00000000000E+00 -0.00000000000E+00 -0.34679770677E+03  0.34679770677E+03  0.00000000000E+00 0. -1.
         21    1    1    2  503  501  0.43248897369E+02 -0.13230375340E+03  0.50746082813E+03  0.52620456324E+03  0.00000000000E+00 0.  1.
         21    1    1    2  504  502  0.27561702259E+02  0.11609164281E+03  0.10108957888E+03  0.15638420611E+03  0.00000000000E+00 0.  1.
         21    1    1    2  505  504 -0.24195820166E+02  0.93400678027E+02  0.28330412436E+03  0.29928306208E+03  0.00000000000E+00 0.  1.
         21    1    1    2  506  503 -0.46614779463E+02 -0.77188567441E+02 -0.29505338125E+03  0.30852473223E+03  0.00000000000E+00 0. -1.
<scales pt_clust_3="116.08211" pt_clust_4="68.68565" pt_clust_5="14000.00000" pt_clust_6="90.17213"></scales>
<clustering>
<clus scale="   90.172">  2  6  1 -1</clus>
<clus scale="   68.686">  2  4  1 -1</clus>
<clus scale="  116.082">  2  3  1 -1</clus>
<clus scale="  116.082">  1  3  2 -1</clus>
</clustering>
</event>
<event>
 6    0  0.4582113E+002  0.7413570E+02  0.7546771E-02  0.1346569E+00
         21   -1    0    0  504  501  0.00000000000E+00  0.00000000000E+00  0.67880559350E+03  0.67880559350E+03  0.00000000000E+00 0. -1.
         21   -1    0    0  503  502 -0.00000000000E+00 -0.00000000000E+00 -0.19699018231E+04  0.19699018231E+04  0.00000000000E+00 0. -1.
         21    1    1    2  503  505  0.29729056284E+02 -0.50766229971E+02 -0.71728897420E+03  0.71969750549E+03  0.00000000000E+00 0. -1.
         21    1    1    2  504  506 -0.24899893687E+02  0.35129144626E+02  0.24391724045E+03  0.24768867899E+03  0.00000000000E+00 0. -1.
         21    1    1    2  505  501  0.69801093149E+02 -0.55960511737E+02  0.42499322497E+03  0.43430750943E+03  0.00000000000E+00 0. -1.
         21    1    1    2  506  502 -0.74630255746E+02  0.71597597083E+02 -0.12427177208E+04  0.12470137227E+04  0.00000000000E+00 0. -1.
<scales pt_clust_3="14000.00000" pt_clust_4="43.05881" pt_clust_5="49.78772" pt_clust_6="74.13570"></scales>
<clustering>
<clus scale="   43.059">  1  4  2 -1</clus>
<clus scale="   49.788">  1  5  2 -1</clus>
<clus scale="   74.136">  1  6  2 -1</clus>
<clus scale="   43.059">  1  3  2 -1</clus>
</clustering>
</event>
<event>
 6    0  0.4582113E+002  0.1051958E+03  0.7546771E-02  0.1269734E+00
         21   -1    0    0  505  501  0.00000000000E+00  0.00000000000E+00  0.11879741234E+03  0.11879741234E+03  0.00000000000E+00 0.  1.
         21   -1    0    0  501  502 -0.00000000000E+00 -0.00000000000E+00 -0.61506413123E+03  0.61506413123E+03  0.00000000000E+00 0.  1.
         21    1    1    2  503  504 -0.10096611257E+03  0.42733148264E+02 -0.30035684505E+03  0.31974132078E+03  0.00000000000E+00 0.  1.
         21    1    1    2  504  502  0.75591750258E+01 -0.58743646637E+02 -0.27572509828E+03  0.28201469283E+03  0.00000000000E+00 0.  1.
         21    1    1    2  505  506  0.35025233639E+02 -0.15398046218E+02  0.36752318748E+02  0.53052801549E+02  0.00000000000E+00 0.  1.
         21    1    1    2  506  503  0.58381703904E+02  0.31408544591E+02  0.43062905686E+02  0.79052728417E+02  0.00000000000E+00 0.  1.
<scales pt_clust_3="94.68867" pt_clust_4="59.22801" pt_clust_5="34.81520" pt_clust_6="34.81520"></scales>
<clustering>
<clus scale="   34.815">  5  6 -1 -1</clus>
<clus scale="   59.228">  2  4  1 -1</clus>
<clus scale="   94.689">  2  3  1 -1</clus>
<clus scale="  105.196">  1  3  2 -1</clus>
</clustering>
</event>
<event>
 6    0  0.4582113E+002  0.8781226E+02  0.7546771E-02  0.1308238E+00
         21   -1    0    0  504  501  0.00000000000E+00  0.00000000000E+00  0.40655454066E+03  0.40655454066E+03  0.00000000000E+00 0.  1.
         21   -1    0    0  505  502 -0.00000000000E+00 -0.00000000000E+00 -0.16902932947E+03  0.16902932947E+03  0.00000000000E+00 0.  1.
         21    1    1    2  503  502  0.37624921877E+02 -0.74140909802E+02  0.14454457461E+02  0.84388628339E+02  0.00000000000E+00 0.  1.
         21    1    1    2  504  503 -0.10955087487E+02  0.29636515385E+02  0.11253491204E+03  0.11688645522E+03  0.00000000000E+00 0.  1.
         21    1    1    2  505  506 -0.75820936703E+01  0.90542720032E+02 -0.11316306769E+03  0.14512529822E+03  0.00000000000E+00 0.  1.
         21    1    1    2  506  501 -0.19087740719E+02 -0.46038325615E+02  0.22369890938E+03  0.22918348834E+03  0.00000000000E+00 0.  1.
<scales pt_clust_3="87.81226" pt_clust_4="31.59647" pt_clust_5="14000.00000" pt_clust_6="35.94556"></scales>
<clustering>
<clus scale="   31.596">  1  4  2 -1</clus>
<clus scale="   35.946">  1  6  2 -1</clus>
<clus scale="   87.812">  1  3  2 -1</clus>
<clus scale="   31.596">  1  3  2 -1</clus>
</clustering>
</event>
<event>
 6    0  0.4582113E+002  0.1430739E+03  0.7546771E-02  0.1209252E+00
         21   -1    0    0  505  501  0.00000000000E+00  0.00000000000E+00  0.16152434361E+03  0.16152434361E+03  0.00000000000E+00 0.  1.
         21   -1    0    0  503  502 -0.00000000000E+00 -0.00000000000E+00 -0.20998851388E+03  0.20998851388E+03  0.00000000000E+00 0.  1.
         21    1    1    2  503  501  0.23724001739E+02 -0.70571343875E+02 -0.34285207791E+02  0.81967178237E+02  0.00000000000E+00 0.  1.
         21    1    1    2  504  502 -0.62789994977E+02  0.15317156407E+02 -0.31675267873E+02  0.71975838615E+02  0.00000000000E+00 0.  1.
         21    1    1    2  505  506  0.12276910945E+03  0.16333974136E+02  0.13448016843E+01  0.12385823121E+03  0.00000000000E+00 0.  1.
         21    1    1    2  506  504 -0.83703116214E+02  0.38920213332E+02  0.16151503701E+02  0.93711609427E+02  0.00000000000E+00 0.  1.
<scales pt_clust_3="74.45229" pt_clust_4="44.35137" pt_clust_5="132.89363" pt_clust_6="44.35137"></scales>
<clustering>
<clus scale="   44.351">  4  6 -1 -1</clus>
<clus scale="   74.452">  2  3  1 -1</clus>
<clus scale="  132.894">  1  5  2 -1</clus>
<clus scale="  132.894">  1  3  2 -1</clus>
</clustering>
</event>
<event>
 6    0  0.4582113E+002  0.1349222E+03  0.7546771E-02  0.1220330E+00
         21   -1    0    0  505  501  0.00000000000E+00  0.00000000000E+00  0.46998256039E+03  0.46998256039E+03  0.00000000000E+00 0. -1.
         21   -1    0    0  504  502 -0.00000000000E+00 -0.00000000000E+00 -0.44424164374E+03  0.44424164374E+03  0.00000000000E+00 0.  1.
         21    1    1    2  503  502  0.34013858177E+02 -0.12031450307E+02 -0.24298865878E+03  0.24565257304E+03  0.00000000000E+00 0.  1.
         21    1    1    2  504  506  0.54043864566E+02 -0.51435389048E+02 -0.14098951852E+03  0.15951295520E+03  0.00000000000E+00 0.  1.
         21    1    1    2  505  503 -0.11475865245E+02 -0.53127511940E+02 -0.19496591046E+02  0.57743788155E+02  0.00000000000E+00 0.  1.
         21    1    1    2  506  501 -0.76581857498E+02  0.11659435130E+03  0.42921568499E+03  0.45131488774E+03  0.00000000000E+00 0. -1.
<scales pt_clust_3="36.07906" pt_clust_4="134.92220" pt_clust_5="55.66824" pt_clust_6="14000.00000"></scales>
<clustering>
<clus scale="   36.079">  2  3  1 -1</clus>
<clus scale="   55.668">  2  5  1 -1</clus>
<clus scale="  134.922">  2  4  1 -1</clus>
<clus scale="  134.922">  1  3  2 -1</clus>
</clustering>
</event>
<event>
 6    0  0.4582113E+002  0.1642047E+03  0.7546771E-02  0.1184030E+00
         21   -1    0    0  504  501  0.00000000000E+00  0.00000000000E+00  0.14760009367E+04  0.14760009367E+04  0.00000000000E+00 0.  1.
         21   -1    0    0  505  502 -0.00000000000E+00 -0.00000000000E+00 -0.91063086016E+02  0.91063086016E+02  0.00000000000E+00 0.  1.
         21    1    1    2  503  502 -0.59343966254E+01 -0.42418125721E+02 -0.34001776796E+02  0.54686701110E+02  0.00000000000E+00 0.  1.
         21    1    1    2  504  503  0.36376954916E+02  0.31581443481E+02 -0.15001008570E+01  0.48196687893E+02  0.00000000000E+00 0.  1.
         21    1    1    2  505  506  0.56873271249E+02 -0.13719876156E+03  0.35266624390E+03  0.38266375416E+03  0.00000000000E+00 0.  1.
         21    1    1    2  506  501 -0.87315829539E+02  0.14803544380E+03  0.10677734845E+04  0.10815168796E+04  0.00000000000E+00 0.  1.
<scales pt_clust_3="42.83123" pt_clust_4="34.42352" pt_clust_5="14000.00000" pt_clust_6="164.20469"></scales>
<clustering>
<clus scale="   42.831">  2  3  1 -1</clus>
<clus scale="   34.424">  2  4  1 -1</clus>
<clus scale="  164.205">  1  6  2 -1</clus>
<clus scale="  164.205">  1  3  2 -1</clus>
</clustering>
</event>
<event>
 6    0  0.4582113E+002  0.1118041E+03  0.7546771E-02  0.1257265E+00
         21   -1    0    0  503  501  0.00000000000E+00  0.00000000000E+00  0.12876616514E+03  0.12876616514E+03  0.00000000000E+00 0.  1.
         21   -1    0    0  504  502 -0.00000000000E+00 -0.00000000000E+00 -0.16985012197E+04  0.16985012197E+04  0.00000000000E+00 0.  1.
         21    1    1    2  503  502 -0.16946539932E+01  0.11062264453E+03 -0.10681007377E+04  0.10738153599E+04  0.00000000000E+00 0.  1.
         21    1    1    2  504  506 -0.25517808306E+02 -0.66463312158E+02 -0.45116440260E+03  0.45674702908E+03  0.00000000000E+00 0.  1.
         21    1    1    2  505  501 -0.29157648558E+02 -0.11462817363E+03  0.76552698278E+02  0.14089039099E+03  0.00000000000E+00 0.  1.
         21    1    1    2  506  505  0.56370110857E+02  0.70468841261E+02 -0.12702261260E+03  0.15581460489E+03  0.00000000000E+00 0.  1.
<scales pt_clust_3="58.43110" pt_clust_4="71.19361" pt_clust_5="14000.00000" pt_clust_6="111.80406"></scales>
<clustering>
<clus scale="   71.194">  2  4  1 -1</clus>
<clus scale="   58.431">  2  3  1 -1</clus>
<clus scale="  111.804">  2  6  1 -1</clus>
<clus scale="  111.804">  1  3  2 -1</clus>
</clustering>
</event>
<event>
 6    0  0.4582113E+002  0.7598227E+02  0.7546771E-02  0.1340856E+00
         21   -1    0    0  503  501  0.00000000000E+00  0.00000000000E+00  0.47272752672E+02  0.47272752672E+02  0.00000000000E+00 0.  1.
         21   -1    0    0  505  502 -0.00000000000E+00 -0.00000000000E+00 -0.62596450413E+03  0.62596450413E+03  0.00000000000E+00 0.  1.
         21    1    1    2  503  502 -0.75103241750E+02 -0.11453497911E+02 -0.26698707590E+03  0.27758562324E+03  0.00000000000E+00 0.  1.
         21    1    1    2  504  501 -0.44118277551E+02 -0.13554873786E+02  0.23085669371E+00  0.46154201458E+02  0.00000000000E+00 0.  1.
         21    1    1    2  505  506  0.67533207508E+02  0.41304354058E+02 -0.26884706135E+03  0.28025974769E+03  0.00000000000E+00 0.  1.
         21    1    1    2  506  504  0.51688311794E+02 -0.16295982361E+02 -0.43088470903E+02  0.69237684407E+02  0.00000000000E+00 0.  1.
<scales pt_clust_3="14000.00000" pt_clust_4="46.15362" pt_clust_5="75.98227" pt_clust_6="36.45216"></scales>
<clustering>
<clus scale="   46.154">  1  4  2 -1</clus>
<clus scale="   36.452">  1  6  2 -1</clus>
<clus scale="   75.982">  1  5  2 -1</clus>
<clus scale="   46.154">  1  3  2 -1</clus>
</clustering>
</event>
<event>
 6    0  0.4582113E+002  0.7526496E+02  0.7546771E-02  0.1343052E+00
         21   -1    0    0  505  501  0.00000000000E+00  0.00000000000E+00  0.10675831192E+03  0.10675831192E+03  0.00000000000E+00 0. -1.
         21   -1    0    0  504  502 -0.00000000000E+00 -0.00000000000E+00 -0.12415614106E+04  0.12415614106E+04  0.00000000000E+00 0. -1.
         21    1    1    2  503  502 -0.72877006263E+02 -0.20540952653E+02 -0.11341988748E+04  0.11367233948E+04  0.00000000000E+00 0. -1.
         21    1    1    2  504  501  0.69654565566E+02 -0.64991138840E+02  0.37724060395E+02  0.10246321957E+03  0.00000000000E+00 0. -1.
         21    1    1    2  505  506 -0.12590759385E+02  0.35033164161E+02  0.88214271403E+01  0.38257906239E+02  0.00000000000E+00 0. -1.
         21    1    1    2  506  503  0.15813200083E+02  0.50498927332E+02 -0.47149711496E+02  0.70875201958E+02  0.00000000000E+00 0. -1.
<scales pt_clust_3="75.26496" pt_clust_4="14000.00000" pt_clust_5="37.22700" pt_clust_6="57.23613"></scales>
<clustering>
<clus scale="   37.227">  1  5  2 -1</clus>
<clus scale="   57.236">  1  6  2 -1</clus>
<clus scale="   75.265">  2  3  1 -1</clus>
<clus scale="   37.227">  1  3  2 -1</clus>
</clustering>
</event>
<event>
 6    0  0.4582113E+002  0.1185434E+03  0.7546771E-02  0.1245520E+00
         21   -1    0    0  504  501  0.00000000000E+00  0.00000000000E+00  0.40277705970E+03  0.40277705970E+03  0.00000000000E+00 0. -1.
         21   -1    0    0  505  502 -0.00000000000E+00 -0.00000000000E+00 -0.88736438607E+02  0.88736438607E+02  0.00000000000E+00 0. -1.
         21    1    1    2  503  501 -0.82634798078E+02  0.45149972636E+00  0.71755256551E+02  0.10944190490E+03  0.00000000000E+00 0. -1.
         21    1    1    2  504  506  0.98453808154E+02  0.28690282389E+02  0.17820735237E+03  0.20560677295E+03  0.00000000000E+00 0. -1.
         21    1    1    2  505  503 -0.68044960056E+02  0.33082766941E+02  0.57368594126E+02  0.94951259336E+02  0.00000000000E+00 0. -1.
         21    1    1    2  506  502  0.52225949981E+02 -0.62224549056E+02  0.67094180473E+01  0.81513561124E+02  0.00000000000E+00 0. -1.
<scales pt_clust_3="34.16241" pt_clust_4="113.03924" pt_clust_5="34.16241" pt_clust_6="81.23696"></scales>
<clustering>
<clus scale="   34.162">  3  5 -1 -1</clus>
<clus scale="   81.237">  2  6  1 -1</clus>
<clus scale="  113.039">  1  4  2 -1</clus>
<clus scale="  113.039">  1  3  2 -1</clus>
</clustering>
</event>
<event>
 6    0  0.4582113E+002  0.5325005E+03  0.7546771E-02  0.1005628E+00
         21   -1    0    0  504  501  0.00000000000E+00  0.00000000000E+00  0.50225900510E+03  0.50225900510E+03  0.00000000000E+00 0.  1.
         21   -1    0    0  503  502 -0.00000000000E+00 -0.00000000000E+00 -0.11693479599E+04  0.11693479599E+04  0.00000000000E+00 0.  1.
         21    1    1    2  503  506  0.51096462332E+03 -0.19310828677E+03 -0.51703838020E+03  0.75213319519E+03  0.00000000000E+00 0.  1.
         21    1    1    2  504  505 -0.52906732138E+03  0.10118404522E+03  0.14858610533E+03  0.55877390084E+03  0.00000000000E+00 0.  1.
         21    1    1    2  505  502  0.12909118028E+02  0.13099556281E+03 -0.29257461616E+03  0.32082142825E+03  0.00000000000E+00 0. -1.
         21    1    1    2  506  501  0.51935800314E+01 -0.39071321260E+02 -0.60620637904E+01  0.39878440742E+02  0.00000000000E+00 0. -1.
<scales pt_clust_3="532.50052" pt_clust_4="14000.00000" pt_clust_5="130.51371" pt_clust_6="39.41499"></scales>
<clustering>
<clus scale="   39.415">  1  6  2 -1</clus>
<clus scale="  130.514">  2  5  1 -1</clus>
<clus scale="  532.501">  2  3  1 -1</clus>
<clus scale="   39.415">  1  3  2 -1</clus>
</clustering>
</event>
<event>
 6    0  0.4582113E+002  0.2188762E+03  0.7546771E-02  0.1134724E+00
         21   -1    0    0  504  501  0.00000000000E+00  0.00000000000E+00  0.53424694123E+03  0.53424694123E+03  0.00000000000E+00 0.  1.
         21   -1    0    0  506  502 -0.00000000000E+00 -0.00000000000E+00 -0.74352250947E+03  0.74352250947E+03  0.00000000000E+00 0. -1.
         21    1    1    2  503  505  0.87706739407E+02  0.55656049991E+02  0.16790621360E+03  0.19744002787E+03  0.00000000000E+00 0.  1.
         21    1    1    2  504  503  0.66291979077E+02  0.85395209769E+02  0.30784862561E+03  0.32627863037E+03  0.00000000000E+00 0.  1.
         21    1    1    2  505  502 -0.25826624946E+02  0.26210511068E+02 -0.38868548632E+03  0.39042337625E+03  0.00000000000E+00 0. -1.
         21    1    1    2  506  501 -0.12817209354E+03 -0.16726177083E+03 -0.29634492113E+03  0.36362741622E+03  0.00000000000E+00 0. -1.
<scales pt_clust_3="64.34744" pt_clust_4="64.34744" pt_clust_5="36.79681" pt_clust_6="208.75657"></scales>
<clustering>
<clus scale="   36.797">  2  5  1 -1</clus>
<clus scale="   64.347">  3  4 -1 -1</clus>
<clus scale="  208.757">  2  6  1 -1</clus>
<clus scale="  218.876">  1  3  2 -1</clus>
</clustering>
</event>
<event>
 6    0  0.4582113E+002  0.1930805E+03  0.7546771E-02  0.1155712E+00
         21   -1    0    0  504  501  0.00000000000E+00  0.00000000000E+00  0.33273664298E+03  0.33273664298E+03  0.00000000000E+00 0. -1.
         21   -1    0    0  503  502 -0.00000000000E+00 -0.00000000000E+00 -0.10432808696E+04  0.10432808696E+04  0.00000000000E+00 0. -1.
         21    1    1    2  503  505  0.55560500269E+02  0.56916234304E+02 -0.81180280718E+03  0.81569002977E+03  0.00000000000E+00 0. -1.
         21    1    1    2  504  506 -0.95846168886E+02 -0.26331614829E+02  0.53693502855E+02  0.11297271475E+03  0.00000000000E+00 0. -1.
         21    1    1    2  505  501  0.15891854066E+03 -0.16129552185E+03  0.12033822211E+03  0.25642276738E+03  0.00000000000E+00 0. -1.
         21    1    1    2  506  502 -0.11863287204E+03  0.13071090237E+03 -0.72773144369E+02  0.19093200064E+03  0.00000000000E+00 0. -1.
<scales pt_clust_3="79.53884" pt_clust_4="90.68068" pt_clust_5="14000.00000" pt_clust_6="193.08046"></scales>
<clustering>
<clus scale="   79.539">  2  3  1 -1</clus>
<clus scale="   90.681">  1  4  2 -1</clus>
<clus scale="  193.080">  2  6  1 -1</clus>
<clus scale="   90.681">  1  3  2 -1</clus>
</clustering>
</event>
<event>
 6    0  0.4582113E+002  0.8193085E+02  0.7546771E-02  0.1323660E+00
         21   -1    0    0  506  501  0.00000000000E+00  0.00000000000E+00  0.16599854506E+03  0.16599854506E+03  0.00000000000E+00 0.  1.
         21   -1    0    0  505  502 -0.00000000000E+00 -0.00000000000E+00 -0.47009572619E+03  0.47009572619E+03  0.00000000000E+00 0. -1.
         21    1    1    2  503  501 -0.30011793683E+02  0.41798276286E+01  0.35607116301E+02  0.46755164959E+02  0.00000000000E+00 0.  1.
         21    1    1    2  504  503 -0.39172019828E+02  0.82732825982E+02 -0.10259602254E+03  0.13749585984E+03  0.00000000000E+00 0. -1.
         21    1    1    2  505  504 -0.24287657960E+02 -0.38384816556E+02 -0.31663224449E+03  0.31987382313E+03  0.00000000000E+00 0. -1.
         21    1    1    2  506  502  0.93471471471E+02 -0.48527837055E+02  0.79523969601E+02  0.13196942331E+03  0.00000000000E+00 0.  1.
<scales pt_clust_3="30.30146" pt_clust_4="81.93085" pt_clust_5="45.58731" pt_clust_6="14000.00000"></scales>
<clustering>
<clus scale="   30.301">  1  3  2 -1</clus>
<clus scale="   45.587">  2  5  1 -1</clus>
<clus scale="   81.931">  2  4  1 -1</clus>
<clus scale="   30.301">  1  3  2 -1</clus>
</clustering>
</event>
<event>
 6    0  0.4582113E+002  0.2711297E+03  0.7546771E-02  0.1100635E+00
         21   -1    0    0  504  501  0.00000000000E+00  0.00000000000E+00  0.19706929002E+03  0.19706929002E+03  0.00000000000E+00 0.  1.
         21   -1    0    0  506  502 -0.00000000000E+00 -0.00000000000E+00 -0.15453611759E+04  0.15453611759E+04  0.00000000000E+00 0. -1.
         21    1    1    2  503  505 -0.70400348308E+02  0.61257444846E+02 -0.30822795787E+03  0.32204527260E+03  0.00000000000E+00 0. -1.
         21    1    1    2  504  503 -0.25202236016E+03  0.19192942797E+02 -0.64358648894E+02  0.26081732067E+03  0.00000000000E+00 0.  1.
         21    1    1    2  505  502  0.32233836359E+02  0.10461054051E+02 -0.81484009651E+03  0.81554450322E+03  0.00000000000E+00 0. -1.
         21    1    1    2  506  501  0.29018887210E+03 -0.90911441694E+02 -0.16086518258E+03  0.34402336940E+03  0.00000000000E+00 0. -1.
<scales pt_clust_3="86.70032" pt_clust_4="271.12972" pt_clust_5="33.88885" pt_clust_6="14000.00000"></scales>
<clustering>
<clus scale="   33.889">  2  5  1 -1</clus>
<clus scale="   86.700">  2  3  1 -1</clus>
<clus scale="  271.130">  1  4  2 -1</clus>
<clus scale="  271.130">  1  3  2 -1</clus>
</clustering>
</event>
<event>
 6    0  0.4582113E+002  0.9407417E+02  0.7546771E-02  0.1293275E+00
         21   -1    0    0  503  501  0.00000000000E+00  0.00000000000E+00  0.63198246008E+03  0.63198246008E+03  0.00000000000E+00 0. -1.
         21   -1    0    0  504  502 -0.00000000000E+00 -0.00000000000E+00 -0.15181763872E+03  0.15181763872E+03  0.00000000000E+00 0. -1.
         21    1    1    2  503  505  0.19883356193E+02 -0.64159682114E+02  0.30487809627E+03  0.31218979203E+03  0.00000000000E+00 0. -1.
         21    1    1    2  504  501 -0.42025248354E+02  0.67610091549E+02 -0.34408556756E+02  0.86724822033E+02  0.00000000000E+00 0. -1.
         21    1    1    2  505  506 -0.73594862772E+02 -0.25886967848E+02  0.26209839854E+03  0.27346281182E+03  0.00000000000E+00 0.  1.
         21    1    1    2  506  502  0.95736754934E+02  0.22436558413E+02 -0.52403116706E+02  0.11142267291E+03  0.00000000000E+00 0. -1.
<scales pt_clust_3="67.17003" pt_clust_4="74.36380" pt_clust_5="14000.00000" pt_clust_6="94.07417"></scales>
<clustering>
<clus scale="   67.170">  1  3  2 -1</clus>
<clus scale="   74.364">  2  4  1 -1</clus>
<clus scale="   94.074">  2  6  1 -1</clus>
<clus scale="   67.170">  1  3  2 -1</clus>
</clustering>
</event>
<event>
 6    0  0.4582113E+002  0.6194363E+02  0.7546771E-02  0.1389852E+00
         21   -1    0    0  505  501  0.00000000000E+00  0.00000000000E+00  0.19513152795E+03  0.19513152795E+03  0.00000000000E+00 0. -1.
         21   -1    0    0  504  502 -0.00000000000E+00 -0.00000000000E+00 -0.36279031402E+03  0.36279031402E+03  0.00000000000E+00 0. -1.
         21    1    1    2  503  502 -0.59012194712E+02  0.15512572935E+02 -0.29851403664E+03  0.30468624701E+03  0.00000000000E+00 0. -1.
         21    1    1    2  504  501 -0.65871934011E+02 -0.18998933171E+02  0.33754380454E+02  0.76416158971E+02  0.00000000000E+00 0. -1.
         21    1    1    2  505  506  0.40992134243E+02  0.37901299972E+02  0.25975459071E+02  0.61575872575E+02  0.00000000000E+00 0. -1.
         21    1    1    2  506  503  0.83891994480E+02 -0.34414939736E+02  0.71125411044E+02  0.11524356343E+03  0.00000000000E+00 0. -1.
<scales pt_clust_3="61.94363" pt_clust_4="51.21819" pt_clust_5="55.82888" pt_clust_6="14000.00000"></scales>
<clustering>
<clus scale="   55.829">  1  5  2 -1</clus>
<clus scale="   51.218">  1  4  2 -1</clus>
<clus scale="   61.944">  2  3  1 -1</clus>
<clus scale="   55.829">  1  3  2 -1</clus>
</clustering>
</event>
<event>
 6    0  0.4582113E+002  0.9928994E+02  0.7546771E-02  0.1281796E+00
         21   -1    0    0  504  501  0.00000000000E+00  0.00000000000E+00  0.57874788098E+02  0.57874788098E+02  0.00000000000E+00 0. -1.
         21   -1    0    0  506  502 -0.00000000000E+00 -0.00000000000E+00 -0.98759131125E+03  0.98759131125E+03  0.00000000000E+00 0. -1.
         21    1    1    2  503  501  0.28869498575E+02 -0.23944088795E+02 -0.25654809579E+02  0.45441573374E+02  0.00000000000E+00 0. -1.
         21    1    1    2  504  505 -0.52131667105E+02 -0.62278549368E+01  0.12532498280E+02  0.53977406435E+02  0.00000000000E+00 0. -1.
         21    1    1    2  505  502  0.15880513347E+02 -0.91395599073E+02 -0.59453514783E+03  0.60172866662E+03  0.00000000000E+00 0. -1.
         21    1    1    2  506  503  0.73816551837E+01  0.12156754280E+03 -0.32205906402E+03  0.34431845291E+03  0.00000000000E+00 0. -1.
<scales pt_clust_3="37.50690" pt_clust_4="39.40513" pt_clust_5="99.28994" pt_clust_6="14000.00000"></scales>
<clustering>
<clus scale="   37.507">  1  3  2 -1</clus>
<clus scale="   39.405">  1  4  2 -1</clus>
<clus scale="   99.290">  2  5  1 -1</clus>
<clus scale="   37.507">  1  3  2 -1</clus>
</clustering>
</event>
<event>
 6    0  0.4582113E+002  0.1042522E+03  0.7546771E-02  0.1271600E+00
         21   -1    0    0  504  501  0.00000000000E+00  0.00000000000E+00  0.54969442279E+03  0.54969442279E+03  0.00000000000E+00 0.  1.
         21   -1    0    0  503  502 -0.00000000000E+00 -0.00000000000E+00 -0.16763638951E+03  0.16763638951E+03  0.00000000000E+00 0.  1.
         21    1    1    2  503  505  0.14732442812E+03 -0.22963574132E+02  0.59119656778E+02  0.16039621777E+03  0.00000000000E+00 0.  1.
         21    1    1    2  504  506  0.18083104841E+02  0.75433925098E+02  0.22322041716E+03  0.23631468506E+03  0.00000000000E+00 0.  1.
         21    1    1    2  505  501 -0.97795512472E+02 -0.64988713263E+02  0.18000207426E+03  0.21491449893E+03  0.00000000000E+00 0.  1.
         21    1    1    2  506  502 -0.67612020486E+02  0.12518362297E+02 -0.80284114927E+02  0.10570541054E+03  0.00000000000E+00 0.  1.
<scales pt_clust_3="104.25215" pt_clust_4="77.49081" pt_clust_5="14000.00000" pt_clust_6="68.76114"></scales>
<clustering>
<clus scale="   68.761">  2  6  1 -1</clus>
<clus scale="   77.491">  1  4  2 -1</clus>
<clus scale="  104.252">  2  3  1 -1</clus>
<clus scale="   77.491">  1  3  2 -1</clus>
</clustering>
</event>
<event>
 6    0  0.4582113E+002  0.1270797E+03  0.7546771E-02  0.1231854E+00
         21   -1    0    0  503  501  0.00000000000E+00  0.00000000000E+00  0.52044845862E+03  0.52044845862E+03  0.00000000000E+00 0. -1.
         21   -1    0    0  501  502 -0.00000000000E+00 -0.00000000000E+00 -0.13993608477E+03  0.13993608477E+03  0.00000000000E+00 0. -1.
         21    1    1    2  503  504 -0.97811190860E+02 -0.81130955175E+02  0.34922545708E+03  0.37162841767E+03  0.00000000000E+00 0. -1.
         21    1    1    2  504  505  0.38837578129E+00  0.65781253336E+02  0.31553418640E+02  0.72958497477E+02  0.00000000000E+00 0. -1.
         21    1    1    2  505  506 -0.37948489482E+02  0.48813258469E+02  0.36220396593E+02  0.71657094455E+02  0.00000000000E+00 0. -1.
         21    1    1    2  506  502  0.13537130456E+03 -0.33463556631E+02 -0.36486898464E+02  0.14414053379E+03  0.00000000000E+00 0. -1.
<scales pt_clust_3="127.07974" pt_clust_4="40.87636" pt_clust_5="40.87636" pt_clust_6="119.12677"></scales>
<clustering>
<clus scale="   40.876">  4  5 -1 -1</clus>
<clus scale="  127.080">  1  3  2 -1</clus>
<clus scale="  119.127">  2  6  1 -1</clus>
<clus scale="  127.080">  1  3  2 -1</clus>
</clustering>
</event>
<event>
 6    0  0.4582113E+002  0.1347519E+03  0.7546771E-02  0.1220570E+00
         21   -1    0    0  503  501  0.00000000000E+00  0.00000000000E+00  0.38519889816E+02  0.38519889816E+02  0.00000000000E+00 0.  1.
         21   -1    0    0  505  502 -0.00000000000E+00 -0.00000000000E+00 -0.10003341164E+04  0.10003341164E+04  0.00000000000E+00 0. -1.
         21    1    1    2  503  506 -0.41405677712E+01  0.73035080671E+02 -0.35484183367E+03  0.36230373201E+03  0.00000000000E+00 0. -1.
         21    1    1    2  504  501 -0.45267467847E+00 -0.99232442440E+02 -0.72254061786E+02  0.12275150505E+03  0.00000000000E+00 0.  1.
         21    1    1    2  505  504  0.28591494704E+02 -0.20859791933E+02 -0.30208881173E+02  0.46531505355E+02  0.00000000000E+00 0.  1.
         21    1    1    2  506  502 -0.23998252254E+02  0.47057153702E+02 -0.50450944999E+03  0.50726726384E+03  0.00000000000E+00 0. -1.
<scales pt_clust_3="132.92512" pt_clust_4="32.40440" pt_clust_5="32.40440" pt_clust_6="42.10535"></scales>
<clustering>
<clus scale="   32.404">  4  5 -1 -1</clus>
<clus scale="   42.105">  3  6 -1 -1</clus>
<clus scale="  132.925">  2  3  1 -1</clus>
<clus scale="  134.752">  1  3  2 -1</clus>
</clustering>
</event>
<event>
 6    0  0.4582113E+002  0.9087020E+02  0.7546771E-02  0.1300758E+00
         21   -1    0    0  505  501  0.00000000000E+00  0.00000000000E+00  0.17540284738E+03  0.17540284738E+03  0.00000000000E+00 0.  1.
         21   -1    0    0  503  502 -0.00000000000E+00 -0.00000000000E+00 -0.14519294497E+04  0.14519294497E+04  0.00000000000E+00 0.  1.
         21    1    1    2  503  506 -0.57674797489E+02  0.13910082336E+03 -0.11634168165E+04  0.11731215241E+04  0.00000000000E+00 0.  1.
         21    1    1    2  504  502 -0.61756285282E+01 -0.72929936749E+02 -0.24524817436E+03  0.25593667399E+03  0.00000000000E+00 0.  1.
         21    1    1    2  505  504  0.49464342762E+02 -0.14566637371E+02 -0.42521999245E+01  0.51739630201E+02  0.00000000000E+00 0.  1.
         21    1    1    2  506  501  0.14386083256E+02 -0.51604249238E+02  0.13639058847E+03  0.14653446882E+03  0.00000000000E+00 0.  1.
<scales pt_clust_3="90.87020" pt_clust_4="73.57688" pt_clust_5="51.56460" pt_clust_6="14000.00000"></scales>
<clustering>
<clus scale="   51.565">  1  5  2 -1</clus>
<clus scale="   73.577">  2  4  1 -1</clus>
<clus scale="   90.870">  2  3  1 -1</clus>
<clus scale="   51.565">  1  3  2 -1</clus>
</clustering>
</event>
<event>
 6    0  0.4582113E+002  0.1662891E+03  0.7546771E-02  0.1181774E+00
         21   -1    0    0  504  501  0.00000000000E+00  0.00000000000E+00  0.13952365301E+04  0.13952365301E+04  0.00000000000E+00 0. -1.
         21   -1    0    0  505  502 -0.00000000000E+00 -0.00000000000E+00 -0.10475763783E+03  0.10475763783E+03  0.00000000000E+00 0. -1.
         21    1    1    2  503  501 -0.13052094797E+03  0.35645842784E+02  0.95768692257E+03  0.96719728371E+03  0.00000000000E+00 0. -1.
         21    1    1    2  504  506 -0.91489193323E+01  0.60503933470E+02  0.27690650482E+03  0.28358709615E+03  0.00000000000E+00 0. -1.
         21    1    1    2  505  503 -0.36205519693E+02 -0.21977903224E+02  0.39023005519E+02  0.57590475307E+02  0.00000000000E+00 0.  1.
         21    1    1    2  506  502  0.17587538699E+03 -0.74171873030E+02  0.16862459408E+02  0.19161931280E+03  0.00000000000E+00 0. -1.
<scales pt_clust_3="166.28910" pt_clust_4="60.63626" pt_clust_5="42.35408" pt_clust_6="14000.00000"></scales>
<clustering>
<clus scale="   42.354">  2  5  1 -1</clus>
<clus scale="   60.636">  1  4  2 -1</clus>
<clus scale="  166.289">  1  3  2 -1</clus>
<clus scale="   60.636">  1  3  2 -1</clus>
</clustering>
</event>
<event>
 6    0  0.4582113E+002  0.1378529E+03  0.7546771E-02  0.1216248E+00
         21   -1    0    0  505  501  0.00000000000E+00  0.00000000000E+00  0.41495299324E+03  0.41495299324E+03  0.00000000000E+00 0. -1.
         21   -1    0    0  504  502 -0.00000000000E+00 -0.00000000000E+00 -0.86965317114E+02  0.86965317114E+02  0.00000000000E+00 0. -1.
         21    1    1    2  503  502  0.68966136023E+02 -0.75109685206E+01  0.17746485426E+03  0.19054269093E+03  0.00000000000E+00 0. -1.
         21    1    1    2  504  506  0.20407472735E+02  0.25175576373E+02  0.10046736838E+02  0.33929507957E+02  0.00000000000E+00 0. -1.
         21    1    1    2  505  503  0.44909300535E+02  0.42772521880E+02  0.11117335201E+03  0.12730219205E+03  0.00000000000E+00 0. -1.
         21    1    1    2  506  501 -0.13428290929E+03 -0.60437129733E+02  0.29302733015E+02  0.15014391943E+03  0.00000000000E+00 0. -1.
<scales pt_clust_3="56.85388" pt_clust_4="32.40794" pt_clust_5="56.85388" pt_clust_6="124.50330"></scales>
<clustering>
<clus scale="   32.408">  2  4  1 -1</clus>
<clus scale="   56.854">  3  5 -1 -1</clus>
<clus scale="  124.503">  2  6  1 -1</clus>
<clus scale="  137.853">  1  3  2 -1</clus>
</clustering>
</event>
<event>
 6    0  0.4582113E+002  0.1388658E+03  0.7546771E-02  0.1214863E+00
         21   -1    0    0  503  501  0.00000000000E+00  0.00000000000E+00  0.48918569313E+02  0.48918569313E+02  0.00000000000E+00 0. -1.
         21   -1    0    0  505  502 -0.00000000000E+00 -0.00000000000E+00 -0.73380970359E+03  0.73380970359E+03  0.00000000000E+00 0. -1.
         21    1    1    2  503  502 -0.84603483470E+01 -0.87387831539E+02 -0.42493826002E+03  0.43391328099E+03  0.00000000000E+00 0. -1.
         21    1    1    2  504  501 -0.41147249122E+02  0.63616843568E+02 -0.56356762071E+02  0.94426074402E+02  0.00000000000E+00 0. -1.
         21    1    1    2  505  506  0.37289738641E+02 -0.52827248932E+02 -0.13948657928E+03  0.15374572722E+03  0.00000000000E+00 0.  1.
         21    1    1    2  506  504  0.12317858828E+02  0.76598236904E+02 -0.64109532911E+02  0.10064319030E+03  0.00000000000E+00 0. -1.
<scales pt_clust_3="127.41751" pt_clust_4="54.56228" pt_clust_5="64.66253" pt_clust_6="54.56228"></scales>
<clustering>
<clus scale="   54.562">  4  6 -1 -1</clus>
<clus scale="   64.663">  2  5  1 -1</clus>
<clus scale="  127.418">  2  3  1 -1</clus>
<clus scale="  138.866">  1  3  2 -1</clus>
</clustering>
</event>
<event>
 6    0  0.4582113E+002  0.1321483E+03  0.7546771E-02  0.1224302E+00
         21   -1    0    0  504  501  0.00000000000E+00  0.00000000000E+00  0.87636139812E+03  0.87636139812E+03  0.00000000000E+00 0.  1.
         21   -1    0    0  503  502 -0.00000000000E+00 -0.00000000000E+00 -0.29498256863E+03  0.29498256863E+03  0.00000000000E+00 0. -1.
         21    1    1    2  503  506  0.11907740729E+03 -0.88878389648E+01 -0.53944483146E+02  0.13102835521E+03  0.00000000000E+00 0.  1.
         21    1    1    2  504  505  0.24079283502E+02  0.42573363065E+02  0.12667583103E+03  0.13579053466E+03  0.00000000000E+00 0.  1.
         21    1    1    2  505  502  0.62921229646E+01 -0.37267654838E+02 -0.18813129821E+03  0.19189021412E+03  0.00000000000E+00 0. -1.
         21    1    1    2  506  501 -0.14944881375E+03  0.35821307379E+01  0.69677877982E+03  0.71263486275E+03  0.00000000000E+00 0.  1.
<scales pt_clust_3="132.14831" pt_clust_4="47.64857" pt_clust_5="37.79509" pt_clust_6="14000.00000"></scales>
<clustering>
<clus scale="   37.795">  2  5  1 -1</clus>
<clus scale="   47.649">  1  4  2 -1</clus>
<clus scale="  132.148">  2  3  1 -1</clus>
<clus scale="   47.649">  1  3  2 -1</clus>
</clustering>
</event>
<event>
 6    0  0.4582113E+002  0.2304306E+03  0.7546771E-02  0.1126337E+00
         21   -1    0    0  506  501  0.00000000000E+00  0.00000000000E+00  0.26798760654E+04  0.26798760654E+04  0.00000000000E+00 0.  1.
         21   -1    0    0  505  502 -0.00000000000E+00 -0.00000000000E+00 -0.19591895991E+03  0.19591895991E+03  0.00000000000E+00 0.  1.
         21    1    1    2  503  502 -0.98639389245E+02 -0.19728365820E+03 -0.74610657467E+02  0.23284613183E+03  0.00000000000E+00 0.  1.
         21    1    1    2  504  501 -0.65335159646E+02 -0.59173449118E+02  0.17537364154E+04  0.17559503395E+04  0.00000000000E+00 0.  1.
         21    1    1    2  505  504  0.13236728491E+03  0.27030134713E+03  0.52583569873E+03  0.60587713147E+03  0.00000000000E+00 0.  1.
         21    1    1    2  506  503  0.31607263976E+02 -0.13844239818E+02  0.27899564881E+03  0.28112142246E+03  0.00000000000E+00 0. -1.
<scales pt_clust_3="230.43055" pt_clust_4="81.14687" pt_clust_5="14000.00000" pt_clust_6="34.50626"></scales>
<clustering>
<clus scale="   34.506">  1  6  2 -1</clus>
<clus scale="   81.147">  1  4  2 -1</clus>
<clus scale="  230.431">  2  3  1 -1</clus>
<clus scale="   34.506">  1  3  2 -1</clus>
</clustering>
</event>
<event>
 6    0  0.4582113E+002  0.9868981E+02  0.7546771E-02  0.1283075E+00
         21   -1    0    0  503  501  0.00000000000E+00  0.00000000000E+00  0.39770407482E+02  0.39770407482E+02  0.00000000000E+00 0. -1.
         21   -1    0    0  504  502 -0.00000000000E+00 -0.00000000000E+00 -0.69200134553E+03  0.69200134553E+03  0.00000000000E+00 0. -1.
         21    1    1    2  503  505 -0.11226245008E+02  0.63575888455E+02 -0.31881921695E+02  0.72002632596E+02  0.00000000000E+00 0. -1.
         21    1    1    2  504  506  0.39508434814E+02 -0.77501006021E+02 -0.19807422701E+03  0.21633474470E+03  0.00000000000E+00 0. -1.
         21    1    1    2  505  502 -0.63323667478E+01  0.58865948266E+02 -0.35334634881E+03  0.35827216045E+03  0.00000000000E+00 0. -1.
         21    1    1    2  506  501 -0.21949823058E+02 -0.44940830701E+02 -0.68928440525E+02  0.85162215270E+02  0.00000000000E+00 0. -1.
<scales pt_clust_3="73.68850" pt_clust_4="49.77785" pt_clust_5="59.20556" pt_clust_6="49.77785"></scales>
<clustering>
<clus scale="   49.778">  4  6 -1 -1</clus>
<clus scale="   59.206">  2  5  1 -1</clus>
<clus scale="   73.689">  1  3  2 -1</clus>
<clus scale="   73.689">  1  3  2 -1</clus>
</clustering>
</event>
<event>
 6    0  0.4582113E+002  0.1527236E+03  0.7546771E-02  0.1197166E+00
         21   -1    0    0  503  501  0.00000000000E+00  0.00000000000E+00  0.34231897503E+03  0.34231897503E+03  0.00000000000E+00 0.  1.
         21   -1    0    0  505  502 -0.00000000000E+00 -0.00000000000E+00 -0.16149866723E+03  0.16149866723E+03  0.00000000000E+00 0.  1.
         21    1    1    2  503  504 -0.11398056327E+01 -0.59759545856E+02  0.15986180234E+03  0.17067014479E+03  0.00000000000E+00 0.  1.
         21    1    1    2  504  502 -0.38998219954E+02 -0.72545275042E+02  0.12403775222E+03  0.14889271999E+03  0.00000000000E+00 0. -1.
         21    1    1    2  505  506  0.47639473833E+02  0.51293436542E+02 -0.35500642978E+02  0.78490966048E+02  0.00000000000E+00 0.  1.
         21    1    1    2  506  501 -0.75014482463E+01  0.81011384356E+02 -0.67578603768E+02  0.10576381143E+03  0.00000000000E+00 0.  1.
<scales pt_clust_3="41.78402" pt_clust_4="146.70197" pt_clust_5="60.17878" pt_clust_6="60.17878"></scales>
<clustering>
<clus scale="   41.784">  3  4 -1 -1</clus>
<clus scale="   60.179">  5  6 -1 -1</clus>
<clus scale="  146.702">  1  3  2 -1</clus>
<clus scale="  146.702">  1  3  2 -1</clus>
</clustering>
</event>
<event>
 6    0  0.4582113E+002  0.1796181E+03  0.7546771E-02  0.1168173E+00
         21   -1    0    0  506  501  0.00000000000E+00  0.00000000000E+00  0.75407535122E+03  0.75407535122E+03  0.00000000000E+00 0.  1.
         21   -1    0    0  505  502 -0.00000000000E+00 -0.00000000000E+00 -0.77981486369E+02  0.77981486369E+02  0.00000000000E+00 0.  1.
         21    1    1    2  503  501 -0.86901813793E+02  0.47615821453E+02  0.34807614367E+03  0.36190633248E+03  0.00000000000E+00 0.  1.
         21    1    1    2  504  503 -0.71417651754E+02 -0.37498470629E+02  0.22026619468E+03  0.23457155155E+03  0.00000000000E+00 0.  1.
         21    1    1    2  505  504  0.12121015778E+02  0.44088486521E+02  0.53752411969E+02  0.70569366298E+02  0.00000000000E+00 0. -1.
         21    1    1    2  506  502  0.14619844977E+03 -0.54205837345E+02  0.53999114533E+02  0.16500958726E+03  0.00000000000E+00 0.  1.
<scales pt_clust_3="76.69685" pt_clust_4="76.69685" pt_clust_5="45.72432" pt_clust_6="157.02622"></scales>
<clustering>
<clus scale="   45.724">  2  5  1 -1</clus>
<clus scale="   76.697">  3  4 -1 -1</clus>
<clus scale="  157.026">  2  6  1 -1</clus>
<clus scale="  179.618">  1  3  2 -1</clus>
</clustering>
</event>
<event>
 6    0  0.4582113E+002  0.1385641E+03  0.7546771E-02  0.1215274E+00
         21   -1    0    0  504  501  0.00000000000E+00  0.00000000000E+00  0.10219302715E+04  0.10219302715E+04  0.00000000000E+00 0.  1.
         21   -1    0    0  506  502 -0.00000000000E+00 -0.00000000000E+00 -0.27725604111E+03  0.27725604111E+03  0.00000000000E+00 0. -1.
         21    1    1    2  503  501  0.54248602868E+02  0.15771290620E+03  0.80418939571E+03  0.82130192735E+03  0.00000000000E+00 0.  1.
         21    1    1    2  504  505 -0.58773320782E+02 -0.18055893947E+02  0.15958480765E+03  0.17101938304E+03  0.00000000000E+00 0.  1.
         21    1    1    2  505  502 -0.73708972769E+01 -0.42141480458E+02  0.20844259874E+02  0.47589049913E+02  0.00000000000E+00 0. -1.
         21    1    1    2  506  503  0.11895615191E+02 -0.97515531798E+02 -0.23994423281E+03  0.25927595234E+03  0.00000000000E+00 0. -1.
<scales pt_clust_3="138.56412" pt_clust_4="61.91059" pt_clust_5="42.78124" pt_clust_6="14000.00000"></scales>
<clustering>
<clus scale="   42.781">  2  5  1 -1</clus>
<clus scale="   61.911">  1  4  2 -1</clus>
<clus scale="  138.564">  1  3  2 -1</clus>
<clus scale="   61.911">  1  3  2 -1</clus>
</clustering>
</event>
<event>
 6    0  0.4582113E+002  0.9240726E+02  0.7546771E-02  0.1297125E+00
         21   -1    0    0  505  501  0.00000000000E+00  0.00000000000E+00  0.16673517181E+03  0.16673517181E+03  0.00000000000E+00 0. -1.
         21   -1    0    0  504  502 -0.00000000000E+00 -0.00000000000E+00 -0.15343186717E+04  0.15343186717E+04  0.00000000000E+00 0. -1.
         21    1    1    2  503  501  0.11482568671E+02 -0.37434978375E+02 -0.25977998852E+02  0.46990248069E+02  0.00000000000E+00 0.  1.
         21    1    1    2  504  503 -0.83083198549E+01  0.57246558471E+02 -0.13849267532E+04  0.13861343038E+04  0.00000000000E+00 0. -1.
         21    1    1    2  505  506 -0.65228546538E+02 -0.57439595572E+02  0.12906199903E+03  0.15559906818E+03  0.00000000000E+00 0. -1.
         21    1    1    2  506  502  0.62054297722E+02  0.37628015477E+02 -0.85740746898E+02  0.11233022342E+03  0.00000000000E+00 0. -1.
<scales pt_clust_3="39.15644" pt_clust_4="57.69678" pt_clust_5="92.40726" pt_clust_6="14000.00000"></scales>
<clustering>
<clus scale="   39.156">  1  3  2 -1</clus>
<clus scale="   57.697">  2  4  1 -1</clus>
<clus scale="   92.407">  1  5  2 -1</clus>
<clus scale="   39.156">  1  3  2 -1</clus>
</clustering>
</event>
<event>
 6    0  0.4582113E+002  0.8164448E+02  0.7546771E-02  0.1324448E+00
         21   -1    0    0  503  501  0.00000000000E+00  0.00000000000E+00  0.55794813339E+03  0.55794813339E+03  0.00000000000E+00 0. -1.
         21   -1    0    0  505  502 -0.00000000000E+00 -0.00000000000E+00 -0.11905220061E+03  0.11905220061E+03  0.00000000000E+00 0. -1.
         21    1    1    2  503  506  0.73065419527E+02  0.53426851888E+02  0.33269275925E+03  0.34478610194E+03  0.00000000000E+00 0. -1.
         21    1    1    2  504  502 -0.66744551784E+02 -0.74834262591E+01 -0.21985021520E+02  0.70669498602E+02  0.00000000000E+00 0. -1.
         21    1    1    2  505  501  0.20460022277E+02  0.27338454643E+02 -0.53695163275E+02  0.63633121666E+02  0.00000000000E+00 0. -1.
         21    1    1    2  506  504 -0.26780890019E+02 -0.73281880271E+02  0.18188335832E+03  0.19791161179E+03  0.00000000000E+00 0. -1.
<scales pt_clust_3="14000.00000" pt_clust_4="52.80068" pt_clust_5="34.14680" pt_clust_6="81.64448"></scales>
<clustering>
<clus scale="   34.147">  2  5  1 -1</clus>
<clus scale="   52.801">  2  4  1 -1</clus>
<clus scale="   81.644">  2  6  1 -1</clus>
<clus scale="   81.644">  1  3  2 -1</clus>
</clustering>
</event>
<event>
 6    0  0.4582113E+002  0.1628308E+03  0.7546771E-02  0.1185537E+00
         21   -1    0    0  506  501  0.00000000000E+00  0.00000000000E+00  0.86545519409E+03  0.86545519409E+03  0.00000000000E+00 0.  1.
         21   -1    0    0  505  502 -0.00000000000E+00 -0.00000000000E+00 -0.51987303870E+03  0.51987303870E+03  0.00000000000E+00 0.  1.
         21    1    1    2  503  501 -0.73701873978E+01  0.38633520431E+02  0.23633544143E+02  0.45884779306E+02  0.00000000000E+00 0.  1.
         21    1    1    2  504  503 -0.13419800405E+03  0.10402709894E+03  0.77383069830E+03  0.79224029892E+03  0.00000000000E+00 0.  1.
         21    1    1    2  505  504  0.12022786854E+03 -0.10964889072E+03 -0.47465662993E+03  0.50177339103E+03  0.00000000000E+00 0.  1.
         21    1    1    2  506  502  0.21340322909E+02 -0.33011728656E+02  0.22774542883E+02  0.45429763528E+02  0.00000000000E+00 0. -1.
<scales pt_clust_3="37.81232" pt_clust_4="162.83082" pt_clust_5="14000.00000" pt_clust_6="39.30882"></scales>
<clustering>
<clus scale="   39.309">  1  6  2 -1</clus>
<clus scale="   37.812">  1  3  2 -1</clus>
<clus scale="  162.831">  1  4  2 -1</clus>
<clus scale="   39.309">  1  3  2 -1</clus>
</clustering>
</event>
<event>
 6    0  0.4582113E+002  0.1078698E+03  0.7546771E-02  0.1264566E+00
         21   -1    0    0  505  501  0.00000000000E+00  0.00000000000E+00  0.14645643191E+04  0.14645643191E+04  0.00000000000E+00 0.  1.
         21   -1    0    0  503  502 -0.00000000000E+00 -0.00000000000E+00 -0.31428846164E+03  0.31428846164E+03  0.00000000000E+00 0.  1.
         21    1    1    2  503  504  0.25797524114E+02 -0.26069202036E+02 -0.21386937799E+02  0.42456055559E+02  0.00000000000E+00 0. -1.
         21    1    1    2  504  501 -0.30770097631E+02 -0.47012436006E+02  0.11945829730E+04  0.11959036112E+04  0.00000000000E+00 0.  1.
         21    1    1    2  505  506 -0.46167495986E+02 -0.35037959638E+02  0.24252101120E+03  0.24935022995E+03  0.00000000000E+00 0. -1.
         21    1    1    2  506  502  0.51140069504E+02  0.10811959768E+03 -0.26544118893E+03  0.29114288398E+03  0.00000000000E+00 0.  1.
<scales pt_clust_3="36.67582" pt_clust_4="56.20494" pt_clust_5="14000.00000" pt_clust_6="107.86976"></scales>
<clustering>
<clus scale="   36.676">  2  3  1 -1</clus>
<clus scale="   56.205">  1  4  2 -1</clus>
<clus scale="  107.870">  2  6  1 -1</clus>
<clus scale="   56.205">  1  3  2 -1</clus>
</clustering>
</event>
<event>
 6    0  0.4582113E+002  0.7988362E+02  0.7546771E-02  0.1329382E+00
         21   -1    0    0  506  501  0.00000000000E+00  0.00000000000E+00  0.74170415691E+02  0.74170415691E+02  0.00000000000E+00 0. -1.
         21   -1    0    0  503  502 -0.00000000000E+00 -0.00000000000E+00 -0.24645255192E+04  0.24645255192E+04  0.00000000000E+00 0.  1.
         21    1    1    2  503  501  0.54198035456E+02 -0.60481506745E+02  0.63225830751E+01  0.81458055232E+02  0.00000000000E+00 0. -1.
         21    1    1    2  504  505  0.47454567828E+02  0.56293987719E+02 -0.26650652999E+03  0.27648992674E+03  0.00000000000E+00 0.  1.
         21    1    1    2  505  502 -0.71172422875E+02  0.36424737049E+02 -0.21346594647E+04  0.21361561988E+04  0.00000000000E+00 0.  1.
         21    1    1    2  506  504 -0.30480180409E+02 -0.32237218023E+02  0.44883081683E+01  0.44591754101E+02  0.00000000000E+00 0. -1.
<scales pt_clust_3="14000.00000" pt_clust_4="69.17266" pt_clust_5="79.88362" pt_clust_6="44.36530"></scales>
<clustering>
<clus scale="   44.365">  1  6  2 -1</clus>
<clus scale="   69.173">  1  4  2 -1</clus>
<clus scale="   79.884">  2  5  1 -1</clus>
<clus scale="   44.365">  1  3  2 -1</clus>
</clustering>
</event>
<event>
 6    0  0.4582113E+002  0.7102139E+02  0.7546771E-02  0.1356654E+00
         21   -1    0    0  503  501  0.00000000000E+00  0.00000000000E+00  0.13944858968E+04  0.13944858968E+04  0.00000000000E+00 0.  1.
         21   -1    0    0  506  502 -0.00000000000E+00 -0.00000000000E+00 -0.49202237542E+02  0.49202237542E+02  0.00000000000E+00 0.  1.
         21    1    1    2  503  505 -0.27223746464E+02 -0.70098110954E+02  0.97807502582E+03  0.98096158623E+03  0.00000000000E+00 0.  1.
         21    1    1    2  504  501 -0.22117483594E+02  0.21137162542E+02  0.23431106996E+03  0.23629989469E+03  0.00000000000E+00 0.  1.
         21    1    1    2  505  502  0.99222890410E+02  0.41172445582E+02  0.29564691324E+02  0.11142003065E+03  0.00000000000E+00 0.  1.
         21    1    1    2  506  504 -0.49881660352E+02  0.77885028296E+01  0.10333287216E+03  0.11500662278E+03  0.00000000000E+00 0.  1.
<scales pt_clust_3="71.02139" pt_clust_4="30.59351" pt_clust_5="14000.00000" pt_clust_6="52.87681"></scales>
<clustering>
<clus scale="   30.594">  1  4  2 -1</clus>
<clus scale="   52.877">  2  6  1 -1</clus>
<clus scale="   71.021">  1  3  2 -1</clus>
<clus scale="   30.594">  1  3  2 -1</clus>
</clustering>
</event>
<event>
 6    0  0.4582113E+002  0.1197578E+03  0.7546771E-02  0.1243497E+00
         21   -1    0    0  503  501  0.00000000000E+00  0.00000000000E+00  0.23976496398E+04  0.23976496398E+04  0.00000000000E+00 0.  1.
         21   -1    0    0  505  502 -0.00000000000E+00 -0.00000000000E+00 -0.32599249358E+02  0.32599249358E+02  0.00000000000E+00 0. -1.
         21    1    1    2  503  502  0.14229087168E+02  0.31678451209E+02 -0.10850369566E+02  0.36382986578E+02  0.00000000000E+00 0. -1.
         21    1    1    2  504  501  0.95719386727E+02 -0.53538978565E+02  0.18765873380E+04  0.18797895256E+04  0.00000000000E+00 0.  1.
         21    1    1    2  505  506 -0.70343642590E+02  0.23820090575E+02  0.22571092504E+03  0.23761533294E+03  0.00000000000E+00 0. -1.
         21    1    1    2  506  504 -0.39604831304E+02 -0.19595632182E+01  0.27360249695E+03  0.27646104407E+03  0.00000000000E+00 0. -1.
<scales pt_clust_3="34.72738" pt_clust_4="109.30627" pt_clust_5="34.44080" pt_clust_6="34.44080"></scales>
<clustering>
<clus scale="   34.727">  2  3  1 -1</clus>
<clus scale="   34.441">  5  6 -1 -1</clus>
<clus scale="  109.306">  1  4  2 -1</clus>
<clus scale="  109.306">  1  3  2 -1</clus>
</clustering>
</event>
<event>
 6    0  0.4582113E+002  0.1301777E+03  0.7546771E-02  0.1227192E+00
         21   -1    0    0  503  501  0.00000000000E+00  0.00000000000E+00  0.94918342446E+02  0.94918342446E+02  0.00000000000E+00 0. -1.
         21   -1    0    0  505  502 -0.00000000000E+00 -0.00000000000E+00 -0.60110346253E+03  0.60110346253E+03  0.00000000000E+00 0. -1.
         21    1    1    2  503  502 -0.14304578674E+03 -0.65252178458E+02 -0.20185190049E+03  0.25585959749E+03  0.00000000000E+00 0. -1.
         21    1    1    2  504  501  0.11247280582E+03  0.48089559381E+02 -0.10333797782E+02  0.12275799423E+03  0.00000000000E+00 0. -1.
         21    1    1    2  505  506 -0.36883584748E+02  0.82525297216E+01 -0.18567338651E+03  0.18948115877E+03  0.00000000000E+00 0. -1.
         21    1    1    2  506  504  0.67456565672E+02  0.89100893557E+01 -0.10832603529E+03  0.12792305448E+03  0.00000000000E+00 0.  1.
<scales pt_clust_3="14000.00000" pt_clust_4="130.17769" pt_clust_5="37.79554" pt_clust_6="58.02518"></scales>
<clustering>
<clus scale="   37.796">  2  5  1 -1</clus>
<clus scale="   58.025">  2  6  1 -1</clus>
<clus scale="  130.178">  1  4  2 -1</clus>
<clus scale="  130.178">  1  3  2 -1</clus>
</clustering>
</event>
<event>
 6    0  0.4582113E+002  0.7092470E+02  0.7546771E-02  0.1356976E+00
         21   -1    0    0  503  501  0.00000000000E+00  0.00000000000E+00  0.21599777723E+04  0.21599777723E+04  0.00000000000E+00 0. -1.
         21   -1    0    0  504  502 -0.00000000000E+00 -0.00000000000E+00 -0.18967802774E+03  0.18967802774E+03  0.00000000000E+00 0. -1.
         21    1    1    2  503  502 -0.79534105539E+02 -0.69742911515E+02 -0.12451731781E+03  0.16338393460E+03  0.00000000000E+00 0. -1.
         21    1    1    2  504  505  0.20607359389E+02  0.28725719746E+02 -0.35429945126E+02  0.50051086377E+02  0.00000000000E+00 0.  1.
         21    1    1    2  505  506  0.58058976507E+02 -0.12657101432E+02  0.33893538481E+03  0.34410498695E+03  0.00000000000E+00 0. -1.
         21    1    1    2  506  501  0.86776964293E+00  0.53674293200E+02  0.17913116227E+04  0.17921157921E+04  0.00000000000E+00 0. -1.
<scales pt_clust_3="14000.00000" pt_clust_4="35.35294" pt_clust_5="70.92470" pt_clust_6="53.76084"></scales>
<clustering>
<clus scale="   35.353">  2  4  1 -1</clus>
<clus scale="   53.761">  1  6  2 -1</clus>
<clus scale="   70.925">  1  5  2 -1</clus>
<clus scale="   53.761">  1  3  2 -1</clus>
</clustering>
</event>
<event>
 6    0  0.4582113E+002  0.2003048E+03  0.7546771E-02  0.1149482E+00
         21   -1    0    0  505  501  0.00000000000E+00  0.00000000000E+00  0.40571089324E+03  0.40571089324E+03  0.00000000000E+00 0.  1.
         21   -1    0    0  506  502 -0.00000000000E+00 -0.00000000000E+00 -0.84797215085E+02  0.84797215085E+02  0.00000000000E+00 0.  1.
         21    1    1    2  503  504 -0.47517085179E+02 -0.40581190443E+01  0.36860161708E+02  0.60274482455E+02  0.00000000000E+00 0.  1.
         21    1    1    2  504  501 -0.88855072773E+02  0.41766997288E+01  0.17351618011E+03  0.19498854720E+03  0.00000000000E+00 0.  1.
         21    1    1    2  505  502  0.16552913459E+03 -0.19839600130E+02  0.11056437195E+03  0.20004495614E+03  0.00000000000E+00 0.  1.
         21    1    1    2  506  503 -0.29156976641E+02  0.19721019445E+02 -0.27035621933E-01  0.35200122524E+02  0.00000000000E+00 0.  1.
<scales pt_clust_3="87.65763" pt_clust_4="87.65763" pt_clust_5="166.71384" pt_clust_6="34.73348"></scales>
<clustering>
<clus scale="   34.733">  3  6 -1 -1</clus>
<clus scale="   87.658">  3  4 -1 -1</clus>
<clus scale="  166.714">  2  5  1 -1</clus>
<clus scale="  200.305">  1  3  2 -1</clus>
</clustering>
</event>
<event>
 6    0  0.4582113E+002  0.1133872E+03  0.7546771E-02  0.1254423E+00
         21   -1    0    0  502  501  0.00000000000E+00  0.00000000000E+00  0.12712670416E+03  0.12712670416E+03  0.00000000000E+00 0. -1.
         21   -1    0    0  506  502 -0.00000000000E+00 -0.00000000000E+00 -0.58568177714E+03  0.58568177714E+03  0.00000000000E+00 0. -1.
         21    1    1    2  503  505  0.55943514993E+02  0.26797745611E+02  0.38688998998E+02  0.73107008440E+02  0.00000000000E+00 0. -1.
         21    1    1    2  504  503 -0.50665636150E+02 -0.93428144296E+02 -0.29127231418E+03  0.31005706868E+03  0.00000000000E+00 0. -1.
         21    1    1    2  505  501  0.21674786008E+02  0.45729743147E+02  0.50159094713E+02  0.71252652857E+02  0.00000000000E+00 0. -1.
         21    1    1    2  506  504 -0.26952664850E+02  0.20900655538E+02 -0.25613085251E+03  0.25839175133E+03  0.00000000000E+00 0. -1.
<scales pt_clust_3="37.13424" pt_clust_4="105.81003" pt_clust_5="37.13424" pt_clust_6="34.10694"></scales>
<clustering>
<clus scale="   34.107">  2  6  1 -1</clus>
<clus scale="   37.134">  3  5 -1 -1</clus>
<clus scale="  105.810">  2  4  1 -1</clus>
<clus scale="  113.387">  1  3  2 -1</clus>
</clustering>
</event>
<event>
 6    0  0.4582113E+002  0.9599614E+02  0.7546771E-02  0.1288948E+00
         21   -1    0    0  506  501  0.00000000000E+00  0.00000000000E+00  0.84113920033E+03  0.84113920033E+03  0.00000000000E+00 0. -1.
         21   -1    0    0  503  502 -0.00000000000E+00 -0.00000000000E+00 -0.16279330834E+03  0.16279330834E+03  0.00000000000E+00 0. -1.
         21    1    1    2  503  505 -0.42315446018E+02 -0.28279628879E+02 -0.52296207128E+02  0.72974157489E+02  0.00000000000E+00 0. -1.
         21    1    1    2  504  502  0.97911767023E+02 -0.52389380382E+02 -0.63635594689E+02  0.12798769554E+03  0.00000000000E+00 0. -1.
         21    1    1    2  505  501 -0.15450659835E+02  0.33471420525E+02  0.11256935486E+03  0.11845217826E+03  0.00000000000E+00 0. -1.
         21    1    1    2  506  504 -0.40145661170E+02  0.47197588736E+02  0.68170833894E+03  0.68451847738E+03  0.00000000000E+00 0. -1.
<scales pt_clust_3="50.81602" pt_clust_4="14000.00000" pt_clust_5="36.86542" pt_clust_6="95.99614"></scales>
<clustering>
<clus scale="   36.865">  1  5  2 -1</clus>
<clus scale="   50.816">  2  3  1 -1</clus>
<clus scale="   95.996">  1  6  2 -1</clus>
<clus scale="   36.865">  1  3  2 -1</clus>
</clustering>
</event>
<event>
 6    0  0.4582113E+002  0.1606596E+03  0.7546771E-02  0.1187954E+00
         21   -1    0    0  505  501  0.00000000000E+00  0.00000000000E+00  0.65419308070E+03  0.65419308070E+03  0.00000000000E+00 0. -1.
         21   -1    0    0  503  502 -0.00000000000E+00 -0.00000000000E+00 -0.15924965846E+03  0.15924965846E+03  0.00000000000E+00 0. -1.
         21    1    1    2  503  504 -0.67642390849E+01 -0.67420410104E+02  0.34275686219E+02  0.75934769999E+02  0.00000000000E+00 0. -1.
         21    1    1    2  504  501 -0.15617852705E+03  0.17267657641E+03  0.16997959058E+03  0.28827416389E+03  0.00000000000E+00 0. -1.
         21    1    1    2  505  506  0.44542602624E+02 -0.70064746338E+02  0.31290494917E+03  0.32373232669E+03  0.00000000000E+00 0. -1.
         21    1    1    2  506  502  0.11840016351E+03 -0.35191419969E+02 -0.22216803729E+02  0.12550147859E+03  0.00000000000E+00 0. -1.
<scales pt_clust_3="67.75889" pt_clust_4="14000.00000" pt_clust_5="85.12384" pt_clust_6="160.65956"></scales>
<clustering>
<clus scale="   67.759">  2  3  1 -1</clus>
<clus scale="   85.124">  1  5  2 -1</clus>
<clus scale="  160.660">  2  6  1 -1</clus>
<clus scale="   85.124">  1  3  2 -1</clus>
</clustering>
</event>
<event>
 6    0  0.4582113E+002  0.1221785E+03  0.7546771E-02  0.1239546E+00
         21   -1    0    0  503  501  0.00000000000E+00  0.00000000000E+00  0.28595144804E+03  0.28595144804E+03  0.00000000000E+00 0.  1.
         21   -1    0    0  506  502 -0.00000000000E+00 -0.00000000000E+00 -0.79431694274E+03  0.79431694274E+03  0.00000000000E+00 0. -1.
         21    1    1    2  503  504  0.41657266887E+02 -0.61903234812E+02  0.72202100224E+02  0.10382909824E+03  0.00000000000E+00 0.  1.
         21    1    1    2  504  502  0.11641619879E+02 -0.37562628473E+02  0.10837915345E+03  0.11529318832E+03  0.00000000000E+00 0.  1.
         21    1    1    2  505  501 -0.11393716160E+03  0.49713649151E+02  0.37993060898E+02  0.12998690850E+03  0.00000000000E+00 0. -1.
         21    1    1    2  506  505  0.60638274831E+02  0.49752214134E+02 -0.72693980927E+03  0.73115919572E+03  0.00000000000E+00 0. -1.
<scales pt_clust_3="37.51814" pt_clust_4="37.51814" pt_clust_5="110.71058" pt_clust_6="78.43649"></scales>
<clustering>
<clus scale="   37.518">  3  4 -1 -1</clus>
<clus scale="   78.436">  2  6  1 -1</clus>
<clus scale="  110.711">  2  5  1 -1</clus>
<clus scale="  122.179">  1  3  2 -1</clus>
</clustering>
</event>
<event>
 6    0  0.4582113E+002  0.1181904E+03  0.7546771E-02  0.1246113E+00
         21   -1    0    0  504  501  0.00000000000E+00  0.00000000000E+00  0.31618902792E+04  0.31618902792E+04  0.00000000000E+00 0. -1.
         21   -1    0    0  506  502 -0.00000000000E+00 -0.00000000000E+00 -0.29356001481E+03  0.29356001481E+03  0.00000000000E+00 0. -1.
         21    1    1    2  503  502 -0.79027923216E+02 -0.14539279848E+02 -0.12598443056E+01  0.80364112102E+02  0.00000000000E+00 0. -1.
         21    1    1    2  504  503  0.32700705375E+01  0.11092270134E+03 -0.23367591483E+03  0.25868701592E+03  0.00000000000E+00 0. -1.
         21    1    1    2  505  501 -0.11849646561E+02 -0.43550920939E+02  0.26993869732E+04  0.26997642726E+04  0.00000000000E+00 0. -1.
         21    1    1    2  506  505  0.87607499239E+02 -0.52832500549E+02  0.40387905033E+03  0.41663489332E+03  0.00000000000E+00 0. -1.
<scales pt_clust_3="82.09926" pt_clust_4="118.19035" pt_clust_5="45.13421" pt_clust_6="14000.00000"></scales>
<clustering>
<clus scale="   45.134">  1  5  2 -1</clus>
<clus scale="   82.099">  2  3  1 -1</clus>
<clus scale="  118.190">  2  4  1 -1</clus>
<clus scale="   45.134">  1  3  2 -1</clus>
</clustering>
</event>
<event>
 6    0  0.4582113E+002  0.8297709E+02  0.7546771E-02  0.1320809E+00
         21   -1    0    0  506  501  0.00000000000E+00  0.00000000000E+00  0.96692788705E+02  0.96692788705E+02  0.00000000000E+00 0. -1.
         21   -1    0    0  503  502 -0.00000000000E+00 -0.00000000000E+00 -0.54634379394E+03  0.54634379394E+03  0.00000000000E+00 0.  1.
         21    1    1    2  503  504 -0.28812624609E+02 -0.21048403873E+02 -0.14392733480E+03  0.14828445753E+03  0.00000000000E+00 0.  1.
         21    1    1    2  504  501  0.81081903650E+02  0.98469330979E+01 -0.15262424407E+01  0.81691900498E+02  0.00000000000E+00 0. -1.
         21    1    1    2  505  502 -0.40154992094E+02  0.79444655322E+02 -0.32793204089E+03  0.33979891126E+03  0.00000000000E+00 0.  1.
         21    1    1    2  506  505 -0.12114286947E+02 -0.68243184548E+02  0.23734612898E+02  0.73261313357E+02  0.00000000000E+00 0. -1.
<scales pt_clust_3="35.68197" pt_clust_4="82.97709" pt_clust_5="14000.00000" pt_clust_6="70.92038"></scales>
<clustering>
<clus scale="   35.682">  2  3  1 -1</clus>
<clus scale="   70.920">  1  6  2 -1</clus>
<clus scale="   82.977">  1  4  2 -1</clus>
<clus scale="   70.920">  1  3  2 -1</clus>
</clustering>
</event>
<event>
 6    0  0.4582113E+002  0.1151790E+03  0.7546771E-02  0.1251269E+00
         21   -1    0    0  503  501  0.00000000000E+00  0.00000000000E+00  0.48773736205E+03  0.48773736205E+03  0.00000000000E+00 0. -1.
         21   -1    0    0  504  502 -0.00000000000E+00 -0.00000000000E+00 -0.48846548820E+03  0.48846548820E+03  0.00000000000E+00 0.  1.
         21    1    1    2  503  502  0.52917331760E+02  0.74939459044E+02  0.19596088841E+02  0.93809238460E+02  0.00000000000E+00 0.  1.
         21    1    1    2  504  505  0.76037250932E+02 -0.23764164289E+02 -0.60319709943E+02  0.99924303556E+02  0.00000000000E+00 0. -1.
         21    1    1    2  505  506 -0.89228937172E+02  0.63911355100E+02 -0.35372101914E+03  0.37035796727E+03  0.00000000000E+00 0.  1.
         21    1    1    2  506  501 -0.39725645520E+02 -0.11508664986E+03  0.39371651409E+03  0.41211134097E+03  0.00000000000E+00 0. -1.
<scales pt_clust_3="14000.00000" pt_clust_4="79.66429" pt_clust_5="48.07574" pt_clust_6="115.17896"></scales>
<clustering>
<clus scale="   79.664">  2  4  1 -1</clus>
<clus scale="   48.076">  2  5  1 -1</clus>
<clus scale="  115.179">  1  6  2 -1</clus>
<clus scale="  115.179">  1  3  2 -1</clus>
</clustering>
</event>
<event>
 6    0  0.4582113E+002  0.6442341E+02  0.7546771E-02  0.1380154E+00
         21   -1    0    0  504  501  0.00000000000E+00  0.00000000000E+00  0.58886824241E+02  0.58886824241E+02  0.00000000000E+00 0. -1.
         21   -1    0    0  505  502 -0.00000000000E+00 -0.00000000000E+00 -0.98698705248E+03  0.98698705248E+03  0.00000000000E+00 0.  1.
         21    1    1    2  503  502  0.37109408355E+02  0.60385195909E+02 -0.43573841742E+03  0.44146511582E+03  0.00000000000E+00 0.  1.
         21    1    1    2  504  503 -0.80665706436E+02 -0.42326245213E+02 -0.64939483207E+02  0.11187315901E+03  0.00000000000E+00 0.  1.
         21    1    1    2  505  506  0.24897267453E+01 -0.64281251467E+02 -0.42585420452E+03  0.43068559477E+03  0.00000000000E+00 0.  1.
         21    1    1    2  506  501  0.41066571336E+02  0.46222300771E+02 -0.15681230851E+01  0.61850007113E+02  0.00000000000E+00 0. -1.
<scales pt_clust_3="64.42341" pt_clust_4="47.36398" pt_clust_5="14000.00000" pt_clust_6="61.83013"></scales>
<clustering>
<clus scale="   61.830">  1  6  2 -1</clus>
<clus scale="   47.364">  1  4  2 -1</clus>
<clus scale="   64.423">  1  3  2 -1</clus>
<clus scale="   61.830">  1  3  2 -1</clus>
</clustering>
</event>
<event>
 6    0  0.4582113E+002  0.9880745E+02  0.7546771E-02  0.1282824E+00
         21   -1    0    0  504  501  0.00000000000E+00  0.00000000000E+00  0.12376052418E+04  0.12376052418E+04  0.00000000000E+00 0.  1.
         21   -1    0    0  505  502 -0.00000000000E+00 -0.00000000000E+00 -0.82658260987E+03  0.82658260987E+03  0.00000000000E+00 0. -1.
         21    1    1    2  503  506 -0.81720180884E+02  0.88368165591E+02 -0.32174883124E+03  0.34352500791E+03  0.00000000000E+00 0. -1.
         21    1    1    2  504  503 -0.14898716430E+02 -0.51528994712E+02  0.11127419209E+04  0.11140340172E+04  0.00000000000E+00 0.  1.
         21    1    1    2  505  501 -0.16191545715E+01 -0.54203299024E+02  0.10142159034E+03  0.11500851392E+03  0.00000000000E+00 0. -1.
         21    1    1    2  506  502  0.98238051885E+02  0.17364128144E+02 -0.48139204808E+03  0.49162031258E+03  0.00000000000E+00 0. -1.
<scales pt_clust_3="98.06590" pt_clust_4="53.63962" pt_clust_5="14000.00000" pt_clust_6="98.80745"></scales>
<clustering>
<clus scale="   53.640">  1  4  2 -1</clus>
<clus scale="   98.807">  2  6  1 -1</clus>
<clus scale="   98.066">  2  3  1 -1</clus>
<clus scale="   53.640">  1  3  2 -1</clus>
</clustering>
</event>
<event>
 6    0  0.4582113E+002  0.1258402E+03  0.7546771E-02  0.1233762E+00
         21   -1    0    0  505  501  0.00000000000E+00  0.00000000000E+00  0.50078398314E+03  0.50078398314E+03  0.00000000000E+00 0.  1.
         21   -1    0    0  504  502 -0.00000000000E+00 -0.00000000000E+00 -0.10300543011E+04  0.10300543011E+04  0.00000000000E+00 0.  1.
         21    1    1    2  503  501  0.42089304016E+02  0.38909901710E+02  0.10109246625E+03  0.11621177520E+03  0.00000000000E+00 0.  1.
         21    1    1    2  504  506 -0.85576252857E+02  0.15270983803E+02 -0.54742070162E+03  0.55427964293E+03  0.00000000000E+00 0.  1.
         21    1    1    2  505  502  0.66620588379E+02  0.31516414486E+02  0.38096279368E+03  0.38802607817E+03  0.00000000000E+00 0.  1.
         21    1    1    2  506  503 -0.23133639538E+02 -0.85697299999E+02 -0.46390487622E+03  0.47232078790E+03  0.00000000000E+00 0.  1.
<scales pt_clust_3="57.31919" pt_clust_4="86.62645" pt_clust_5="14000.00000" pt_clust_6="125.84020"></scales>
<clustering>
<clus scale="   57.319">  1  3  2 -1</clus>
<clus scale="   86.626">  2  4  1 -1</clus>
<clus scale="  125.840">  2  6  1 -1</clus>
<clus scale="   57.319">  1  3  2 -1</clus>
</clustering>
</event>
<event>
 6    0  0.4582113E+002  0.1010108E+03  0.7546771E-02  0.1278185E+00
         21   -1    0    0  505  501  0.00000000000E+00  0.00000000000E+00  0.16605162362E+04  0.16605162362E+04  0.00000000000E+00 0.  1.
         21   -1    0    0  503  502 -0.00000000000E+00 -0.00000000000E+00 -0.25039707948E+03  0.25039707948E+03  0.00000000000E+00 0. -1.
         21    1    1    2  503  506  0.12328950164E+03  0.60741566899E+02  0.32851280749E+03  0.35610462487E+03  0.00000000000E+00 0.  1.
         21    1    1    2  504  502 -0.16513683492E+02 -0.35324195531E+02 -0.22798369958E+03  0.23129433155E+03  0.00000000000E+00 0. -1.
         21    1    1    2  505  504 -0.41929753204E+02  0.46314773016E+02  0.19559579865E+03  0.20533114439E+03  0.00000000000E+00 0.  1.
         21    1    1    2  506  501 -0.64846064941E+02 -0.71732144384E+02  0.11139942501E+04  0.11181832148E+04  0.00000000000E+00 0.  1.
<scales pt_clust_3="101.01081" pt_clust_4="38.99360" pt_clust_5="59.53338" pt_clust_6="14000.00000"></scales>
<clustering>
<clus scale="   38.994">  2  4  1 -1</clus>
<clus scale="   59.533">  2  5  1 -1</clus>
<clus scale="  101.011">  2  3  1 -1</clus>
<clus scale="  101.011">  1  3  2 -1</clus>
</clustering>
</event>
<event>
 6    0  0.4582113E+002  0.8943623E+02  0.7546771E-02  0.1304223E+00
         21   -1    0    0  503  501  0.00000000000E+00  0.00000000000E+00  0.25742419855E+03  0.25742419855E+03  0.00000000000E+00 0.  1.
         21   -1    0    0  505  502 -0.00000000000E+00 -0.00000000000E+00 -0.10978888101E+03  0.10978888101E+03  0.00000000000E+00 0.  1.
         21    1    1    2  503  506 -0.80634600343E+02 -0.24830843601E+02  0.47165314662E+02  0.96659590696E+02  0.00000000000E+00 0.  1.
         21    1    1    2  504  501  0.91920873416E+02  0.11036410376E+02  0.15164591980E+03  0.17767311084E+03  0.00000000000E+00 0.  1.
         21    1    1    2  505  504  0.82070194974E+00  0.43397773580E+02 -0.18583560060E+02  0.47216406130E+02  0.00000000000E+00 0.  1.
         21    1    1    2  506  502 -0.12106975023E+02 -0.29603340355E+02 -0.32592356852E+02  0.45663971898E+02  0.00000000000E+00 0.  1.
<scales pt_clust_3="14000.00000" pt_clust_4="89.43623" pt_clust_5="30.00341" pt_clust_6="31.98338"></scales>
<clustering>
<clus scale="   31.983">  2  6  1 -1</clus>
<clus scale="   30.003">  2  5  1 -1</clus>
<clus scale="   89.436">  1  4  2 -1</clus>
<clus scale="   89.436">  1  3  2 -1</clus>
</clustering>
</event>
<event>
 6    0  0.4582113E+002  0.1032778E+03  0.7546771E-02  0.1273550E+00
         21   -1    0    0  506  501  0.00000000000E+00  0.00000000000E+00  0.30170207822E+03  0.30170207822E+03  0.00000000000E+00 0. -1.
         21   -1    0    0  503  502 -0.00000000000E+00 -0.00000000000E+00 -0.10148364934E+03  0.10148364934E+03  0.00000000000E+00 0. -1.
         21    1    1    2  503  505  0.46782863411E+02 -0.22396416285E+01  0.35796614971E+01  0.46973037798E+02  0.00000000000E+00 0.  1.
         21    1    1    2  504  502  0.46273199472E+02 -0.10411780741E+03  0.24654417426E+02  0.11657429866E+03  0.00000000000E+00 0. -1.
         21    1    1    2  505  501 -0.72621147505E+02  0.20218978158E+02  0.10175304774E+03  0.12663459586E+03  0.00000000000E+00 0. -1.
         21    1    1    2  506  504 -0.20434915378E+02  0.86138470876E+02  0.70231302208E+02  0.11300379525E+03  0.00000000000E+00 0. -1.
<scales pt_clust_3="46.83644" pt_clust_4="14000.00000" pt_clust_5="68.28150" pt_clust_6="103.27776"></scales>
<clustering>
<clus scale="   46.836">  2  3  1 -1</clus>
<clus scale="   68.282">  1  5  2 -1</clus>
<clus scale="  103.278">  1  6  2 -1</clus>
<clus scale="   68.282">  1  3  2 -1</clus>
</clustering>
</event>
<event>
 6    0  0.4582113E+002  0.8409722E+02  0.7546771E-02  0.1317810E+00
         21   -1    0    0  506  501  0.00000000000E+00  0.00000000000E+00  0.16642762208E+03  0.16642762208E+03  0.00000000000E+00 0.  1.
         21   -1    0    0  503  502 -0.00000000000E+00 -0.00000000000E+00 -0.10461216444E+04  0.10461216444E+04  0.00000000000E+00 0. -1.
         21    1    1    2  503  505 -0.38769296235E+02  0.49497795259E+02 -0.37110277272E+03  0.37639122996E+03  0.00000000000E+00 0. -1.
         21    1    1    2  504  501 -0.76453899108E+02  0.33821687141E+02  0.14016341230E+03  0.16320198331E+03  0.00000000000E+00 0.  1.
         21    1    1    2  505  504  0.98086323461E+02 -0.51664635091E+02 -0.61028286189E+03  0.62027037080E+03  0.00000000000E+00 0. -1.
         21    1    1    2  506  502  0.17136871882E+02 -0.31654847309E+02 -0.38471799994E+02  0.52685682408E+02  0.00000000000E+00 0. -1.
<scales pt_clust_3="49.66850" pt_clust_4="84.09722" pt_clust_5="14000.00000" pt_clust_6="35.99586"></scales>
<clustering>
<clus scale="   35.996">  2  6  1 -1</clus>
<clus scale="   49.669">  2  3  1 -1</clus>
<clus scale="   84.097">  1  4  2 -1</clus>
<clus scale="   84.097">  1  3  2 -1</clus>
</clustering>
</event>
<event>
 6    0  0.4582113E+002  0.1203637E+03  0.7546771E-02  0.1242498E+00
         21   -1    0    0  504  501  0.00000000000E+00  0.00000000000E+00  0.80892887123E+03  0.80892887123E+03  0.00000000000E+00 0. -1.
         21   -1    0    0  506  502 -0.00000000000E+00 -0.00000000000E+00 -0.16329216216E+03  0.16329216216E+03  0.00000000000E+00 0. -1.
         21    1    1    2  503  505 -0.70593691433E+02 -0.72100059955E+02 -0.29010526402E+02  0.10499285003E+03  0.00000000000E+00 0. -1.
         21    1    1    2  504  503  0.38821828812E+02  0.33991562473E+02  0.68821830769E+02  0.86017469749E+02  0.00000000000E+00 0. -1.
         21    1    1    2  505  502 -0.60948775889E+02  0.53200375908E+02 -0.65037632937E+02  0.10380234572E+03  0.00000000000E+00 0. -1.
         21    1    1    2  506  501  0.92720638509E+02 -0.15091878426E+02  0.67086303765E+03  0.67740836789E+03  0.00000000000E+00 0. -1.
<scales pt_clust_3="14000.00000" pt_clust_4="51.60001" pt_clust_5="80.73007" pt_clust_6="120.36373"></scales>
<clustering>
<clus scale="   51.600">  1  4  2 -1</clus>
<clus scale="   80.730">  2  5  1 -1</clus>
<clus scale="  120.364">  1  6  2 -1</clus>
<clus scale="   51.600">  1  3  2 -1</clus>
</clustering>
</event>
<event>
 6    0  0.4582113E+002  0.8230864E+02  0.7546771E-02  0.1322625E+00
         21   -1    0    0  506  501  0.00000000000E+00  0.00000000000E+00  0.82325561852E+03  0.82325561852E+03  0.00000000000E+00 0. -1.
         21   -1    0    0  505  502 -0.00000000000E+00 -0.00000000000E+00 -0.18492281555E+03  0.18492281555E+03  0.00000000000E+00 0. -1.
         21    1    1    2  503  502  0.69815762580E+00 -0.11719321580E+03 -0.89568869449E+02  0.14750362581E+03  0.00000000000E+00 0. -1.
         21    1    1    2  504  501 -0.10625697691E+02  0.10670971291E+03  0.55685736035E+03  0.56708904773E+03  0.00000000000E+00 0. -1.
         21    1    1    2  505  504  0.25784146301E+02  0.42258405787E+02 -0.49614881047E+02  0.70087313270E+02  0.00000000000E+00 0. -1.
         21    1    1    2  506  503 -0.15856606236E+02 -0.31774902900E+02  0.22065919312E+03  0.22349844725E+03  0.00000000000E+00 0.  1.
<scales pt_clust_3="14000.00000" pt_clust_4="82.30864" pt_clust_5="48.90104" pt_clust_6="35.51164"></scales>
<clustering>
<clus scale="   35.512">  1  6  2 -1</clus>
<clus scale="   48.901">  2  5  1 -1</clus>
<clus scale="   82.309">  1  4  2 -1</clus>
<clus scale="   35.512">  1  3  2 -1</clus>
</clustering>
</event>
<event>
 6    0  0.4582113E+002  0.1262015E+03  0.7546771E-02  0.1233203E+00
         21   -1    0    0  504  501  0.00000000000E+00  0.00000000000E+00  0.12916354735E+03  0.12916354735E+03  0.00000000000E+00 0.  1.
         21   -1    0    0  506  502 -0.00000000000E+00 -0.00000000000E+00 -0.93994098869E+03  0.93994098869E+03  0.00000000000E+00 0.  1.
         21    1    1    2  503  501 -0.75835832888E+02  0.16662382550E+02 -0.27098080940E+03  0.28188527384E+03  0.00000000000E+00 0.  1.
         21    1    1    2  504  505  0.11438830942E+03 -0.68689578242E+02  0.78376657114E+02  0.15474444698E+03  0.00000000000E+00 0.  1.
         21    1    1    2  505  502 -0.41940769087E+01  0.71913009872E+02 -0.20289084073E+03  0.21529924413E+03  0.00000000000E+00 0. -1.
         21    1    1    2  506  503 -0.34358399622E+02 -0.19885814180E+02 -0.41528244832E+03  0.41717557109E+03  0.00000000000E+00 0.  1.
<scales pt_clust_3="14000.00000" pt_clust_4="126.20146" pt_clust_5="66.43374" pt_clust_6="39.69818"></scales>
<clustering>
<clus scale="   39.698">  2  6  1 -1</clus>
<clus scale="   66.434">  2  5  1 -1</clus>
<clus scale="  126.201">  1  4  2 -1</clus>
<clus scale="  126.201">  1  3  2 -1</clus>
</clustering>
</event>
<event>
 6    0  0.4582113E+002  0.1205065E+03  0.7546771E-02  0.1242264E+00
         21   -1    0    0  506  501  0.00000000000E+00  0.00000000000E+00  0.36974469530E+03  0.36974469530E+03  0.00000000000E+00 0. -1.
         21   -1    0    0  504  502 -0.00000000000E+00 -0.00000000000E+00 -0.58835734200E+03  0.58835734200E+03  0.00000000000E+00 0. -1.
         21    1    1    2  503  502  0.16284215002E+02  0.74469657064E+02 -0.36993778929E+03  0.37771003882E+03  0.00000000000E+00 0. -1.
         21    1    1    2  504  505  0.67861468964E+02  0.19534411869E+02 -0.16956744364E+03  0.18368421315E+03  0.00000000000E+00 0. -1.
         21    1    1    2  505  501 -0.12391448055E+03 -0.50196157059E+02  0.30854638783E+03  0.33626674845E+03  0.00000000000E+00 0. -1.
         21    1    1    2  506  503  0.39768796586E+02 -0.43807911874E+02  0.12346198398E+02  0.60441036883E+02  0.00000000000E+00 0. -1.
<scales pt_clust_3="120.50646" pt_clust_4="71.17857" pt_clust_5="14000.00000" pt_clust_6="59.16663"></scales>
<clustering>
<clus scale="   59.167">  1  6  2 -1</clus>
<clus scale="   71.179">  2  4  1 -1</clus>
<clus scale="  120.506">  2  3  1 -1</clus>
<clus scale="   59.167">  1  3  2 -1</clus>
</clustering>
</event>
<event>
 6    0  0.4582113E+002  0.1359106E+03  0.7546771E-02  0.1218940E+00
         21   -1    0    0  503  501  0.00000000000E+00  0.00000000000E+00  0.23944126077E+04  0.23944126077E+04  0.00000000000E+00 0.  1.
         21   -1    0    0  504  502 -0.00000000000E+00 -0.00000000000E+00 -0.30420984865E+03  0.30420984865E+03  0.00000000000E+00 0. -1.
         21    1    1    2  503  502  0.42072951373E+02  0.46971042283E+02  0.10197987534E+02  0.63878094838E+02  0.00000000000E+00 0.  1.
         21    1    1    2  504  506 -0.15580205737E+03 -0.97918520888E+02 -0.24465632527E+03  0.30613564854E+03  0.00000000000E+00 0. -1.
         21    1    1    2  505  501  0.91441315682E+02  0.20808053794E+02  0.18936378027E+04  0.18959584956E+04  0.00000000000E+00 0.  1.
         21    1    1    2  506  505  0.22287790313E+02  0.30139424811E+02  0.43102329409E+03  0.43265021735E+03  0.00000000000E+00 0.  1.
<scales pt_clust_3="63.05880" pt_clust_4="125.02926" pt_clust_5="33.68894" pt_clust_6="33.68894"></scales>
<clustering>
<clus scale="   33.689">  5  6 -1 -1</clus>
<clus scale="   63.059">  2  3  1 -1</clus>
<clus scale="  125.029">  2  4  1 -1</clus>
<clus scale="  135.911">  1  3  2 -1</clus>
</clustering>
</event>
<event>
 6    0  0.4582113E+002  0.1000255E+03  0.7546771E-02  0.1280242E+00
         21   -1    0    0  504  501  0.00000000000E+00  0.00000000000E+00  0.14143480523E+03  0.14143480523E+03  0.00000000000E+00 0. -1.
         21   -1    0    0  505  502 -0.00000000000E+00 -0.00000000000E+00 -0.13714728427E+04  0.13714728427E+04  0.00000000000E+00 0. -1.
         21    1    1    2  503  506 -0.10210141464E+03 -0.34410535952E+02 -0.14564291675E+03  0.18116468490E+03  0.00000000000E+00 0.  1.
         21    1    1    2  504  502  0.36937293110E+02 -0.35282429109E+02 -0.88468666960E+03  0.88616009660E+03  0.00000000000E+00 0. -1.
         21    1    1    2  505  503  0.42406968893E+02 -0.33384490788E+02 -0.29709764862E+03  0.30196007692E+03  0.00000000000E+00 0.  1.
         21    1    1    2  506  501  0.22757152633E+02  0.10307745585E+03  0.97389197456E+02  0.14362278956E+03  0.00000000000E+00 0. -1.
<scales pt_clust_3="100.02548" pt_clust_4="51.08046" pt_clust_5="85.35870" pt_clust_6="14000.00000"></scales>
<clustering>
<clus scale="   51.080">  2  4  1 -1</clus>
<clus scale="   85.359">  2  5  1 -1</clus>
<clus scale="  100.025">  2  3  1 -1</clus>
<clus scale="  100.025">  1  3  2 -1</clus>
</clustering>
</event>
<event>
 6    0  0.4582113E+002  0.1352508E+03  0.7546771E-02  0.1219866E+00
         21   -1    0    0  506  501  0.00000000000E+00  0.00000000000E+00  0.14445293367E+04  0.14445293367E+04  0.00000000000E+00 0. -1.
         21   -1    0    0  503  502 -0.00000000000E+00 -0.00000000000E+00 -0.63053227320E+02  0.63053227320E+02  0.00000000000E+00 0. -1.
         21    1    1    2  503  504 -0.36144219894E+02  0.15543648487E+02  0.86795701608E+01  0.40290750530E+02  0.00000000000E+00 0. -1.
         21    1    1    2  504  501 -0.13077193060E+03 -0.71271406633E+02  0.99079305476E+03  0.10019240433E+04  0.00000000000E+00 0. -1.
         21    1    1    2  505  502  0.13576842019E+03  0.69286372467E+02  0.10221699560E+03  0.18352650904E+03  0.00000000000E+00 0. -1.
         21    1    1    2  506  505  0.31147730301E+02 -0.13558614321E+02  0.27978648884E+03  0.28184126111E+03  0.00000000000E+00 0. -1.
<scales pt_clust_3="38.63000" pt_clust_4="135.25082" pt_clust_5="14000.00000" pt_clust_6="33.97083"></scales>
<clustering>
<clus scale="   33.971">  1  6  2 -1</clus>
<clus scale="   38.630">  2  3  1 -1</clus>
<clus scale="  135.251">  1  4  2 -1</clus>
<clus scale="   33.971">  1  3  2 -1</clus>
</clustering>
</event>
<event>
 6    0  0.4582113E+002  0.1548443E+03  0.7546771E-02  0.1194644E+00
         21   -1    0    0  503  501  0.00000000000E+00  0.00000000000E+00  0.33405016801E+03  0.33405016801E+03  0.00000000000E+00 0. -1.
         21   -1    0    0  506  502 -0.00000000000E+00 -0.00000000000E+00 -0.56778491650E+03  0.56778491650E+03  0.00000000000E+00 0.  1.
         21    1    1    2  503  502  0.15281095660E+03 -0.19483918112E+02 -0.50506067678E+03  0.52803134259E+03  0.00000000000E+00 0.  1.
         21    1    1    2  504  501 -0.35289071972E+02 -0.17230996596E+02  0.14107579630E+03  0.14643976969E+03  0.00000000000E+00 0. -1.
         21    1    1    2  505  504 -0.10524446161E+03  0.80637081519E+01  0.15502420370E+03  0.18754712426E+03  0.00000000000E+00 0. -1.
         21    1    1    2  506  505 -0.12277423026E+02  0.28651206556E+02 -0.24774071702E+02  0.39816847966E+02  0.00000000000E+00 0.  1.
<scales pt_clust_3="141.20347" pt_clust_4="38.67720" pt_clust_5="38.67720" pt_clust_6="31.17093"></scales>
<clustering>
<clus scale="   31.171">  2  6  1 -1</clus>
<clus scale="   38.677">  4  5 -1 -1</clus>
<clus scale="  141.203">  2  3  1 -1</clus>
<clus scale="  154.844">  1  3  2 -1</clus>
</clustering>
</event>
<event>
 6    0  0.4582113E+002  0.1621473E+03  0.7546771E-02  0.1186294E+00
         21   -1    0    0  505  501  0.00000000000E+00  0.00000000000E+00  0.99944399022E+03  0.99944399022E+03  0.00000000000E+00 0.  1.
         21   -1    0    0  506  502 -0.00000000000E+00 -0.00000000000E+00 -0.89290133267E+03  0.89290133267E+03  0.00000000000E+00 0. -1.
         21    1    1    2  503  504 -0.55368632478E+02 -0.58667921362E+02  0.19794737348E+03  0.21375400143E+03  0.00000000000E+00 0. -1.
         21    1    1    2  504  502  0.23655991977E+02  0.23856923617E+02 -0.86729456396E+03  0.86794505554E+03  0.00000000000E+00 0. -1.
         21    1    1    2  505  503 -0.81903853385E+02 -0.43914498088E+02  0.38427045368E+03  0.39534858785E+03  0.00000000000E+00 0.  1.
         21    1    1    2  506  501  0.11361649389E+03  0.78725495833E+02  0.39161939435E+03  0.41529767807E+03  0.00000000000E+00 0.  1.
<scales pt_clust_3="46.62119" pt_clust_4="33.59701" pt_clust_5="46.62119" pt_clust_6="153.72137"></scales>
<clustering>
<clus scale="   33.597">  2  4  1 -1</clus>
<clus scale="   46.621">  3  5 -1 -1</clus>
<clus scale="  153.721">  1  6  2 -1</clus>
<clus scale="  153.721">  1  3  2 -1</clus>
</clustering>
</event>
<event>
 6    0  0.4582113E+002  0.8229874E+02  0.7546771E-02  0.1322652E+00
         21   -1    0    0  503  501  0.00000000000E+00  0.00000000000E+00  0.10906717066E+03  0.10906717066E+03  0.00000000000E+00 0.  1.
         21   -1    0    0  506  502 -0.00000000000E+00 -0.00000000000E+00 -0.17792203424E+04  0.17792203424E+04  0.00000000000E+00 0.  1.
         21    1    1    2  503  504 -0.21917857787E+02 -0.55394196253E+02  0.50618072267E+02  0.78173516670E+02  0.00000000000E+00 0.  1.
         21    1    1    2  504  502  0.73197160536E+02  0.12274833848E+02 -0.87195131736E+02  0.11450540099E+03  0.00000000000E+00 0.  1.
         21    1    1    2  505  501  0.30727402965E+02  0.28955760228E+02  0.15095136151E+02  0.44838292549E+02  0.00000000000E+00 0.  1.
         21    1    1    2  506  505 -0.82006705713E+02  0.14163602177E+02 -0.16486712485E+04  0.16507703029E+04  0.00000000000E+00 0.  1.
<scales pt_clust_3="31.97166" pt_clust_4="14000.00000" pt_clust_5="42.22096" pt_clust_6="82.29874"></scales>
<clustering>
<clus scale="   42.221">  1  5  2 -1</clus>
<clus scale="   31.972">  1  3  2 -1</clus>
<clus scale="   82.299">  2  6  1 -1</clus>
<clus scale="   42.221">  1  3  2 -1</clus>
</clustering>
</event>
<event>
 6    0  0.4582113E+002  0.7581250E+02  0.7546771E-02  0.1341373E+00
         21   -1    0    0  503  501  0.00000000000E+00  0.00000000000E+00  0.19688755917E+04  0.19688755917E+04  0.00000000000E+00 0.  1.
         21   -1    0    0  504  502 -0.00000000000E+00 -0.00000000000E+00 -0.57318525578E+02  0.57318525578E+02  0.00000000000E+00 0.  1.
         21    1    1    2  503  502  0.10368542851E+02 -0.28726042720E+02  0.24412086458E+03  0.24602375644E+03  0.00000000000E+00 0. -1.
         21    1    1    2  504  505  0.63912531221E+02 -0.31225219335E+02 -0.91218762396E+01  0.71714953781E+02  0.00000000000E+00 0.  1.
         21    1    1    2  505  506 -0.11572419741E+03  0.76427364210E+01  0.20615251300E+03  0.23653617039E+03  0.00000000000E+00 0.  1.
         21    1    1    2  506  501  0.41443123336E+02  0.52308525634E+02  0.14704055648E+04  0.14719192366E+04  0.00000000000E+00 0.  1.
<scales pt_clust_3="30.54001" pt_clust_4="75.81250" pt_clust_5="14000.00000" pt_clust_6="57.46058"></scales>
<clustering>
<clus scale="   30.540">  1  3  2 -1</clus>
<clus scale="   57.461">  1  6  2 -1</clus>
<clus scale="   75.813">  2  4  1 -1</clus>
<clus scale="   30.540">  1  3  2 -1</clus>
</clustering>
</event>
<event>
 6    0  0.4582113E+002  0.1790996E+03  0.7546771E-02  0.1168677E+00
         21   -1    0    0  504  501  0.00000000000E+00  0.00000000000E+00  0.32460429862E+03  0.32460429862E+03  0.00000000000E+00 0. -1.
         21   -1    0    0  505  502 -0.00000000000E+00 -0.00000000000E+00 -0.72906408526E+03  0.72906408526E+03  0.00000000000E+00 0.  1.
         21    1    1    2  503  502  0.16264663660E+03 -0.16368586135E+03 -0.55380764836E+03  0.59995824937E+03  0.00000000000E+00 0.  1.
         21    1    1    2  504  506 -0.50862531290E+02  0.69129806381E+02  0.13627319423E+03  0.16104754169E+03  0.00000000000E+00 0. -1.
         21    1    1    2  505  501 -0.26831044050E+02  0.63101724428E+02 -0.11613114581E+03  0.13486354429E+03  0.00000000000E+00 0.  1.
         21    1    1    2  506  503 -0.84953061259E+02  0.31454330543E+02  0.12920581330E+03  0.15779904853E+03  0.00000000000E+00 0. -1.
<scales pt_clust_3="171.62649" pt_clust_4="49.83131" pt_clust_5="68.56918" pt_clust_6="49.83131"></scales>
<clustering>
<clus scale="   49.831">  4  6 -1 -1</clus>
<clus scale="   68.569">  2  5  1 -1</clus>
<clus scale="  171.626">  2  3  1 -1</clus>
<clus scale="  179.100">  1  3  2 -1</clus>
</clustering>
</event>
<event>
 6    0  0.4582113E+002  0.1108211E+03  0.7546771E-02  0.1259057E+00
         21   -1    0    0  503  501  0.00000000000E+00  0.00000000000E+00  0.61458799772E+03  0.61458799772E+03  0.00000000000E+00 0. -1.
         21   -1    0    0  505  502 -0.00000000000E+00 -0.00000000000E+00 -0.32344637234E+02  0.32344637234E+02  0.00000000000E+00 0. -1.
         21    1    1    2  503  506 -0.16492751834E+02 -0.37517278564E+02  0.84955607406E+02  0.94323975126E+02  0.00000000000E+00 0.  1.
         21    1    1    2  504  501  0.47542050362E+02  0.18573571952E+02  0.20239212646E+03  0.20872900369E+03  0.00000000000E+00 0. -1.
         21    1    1    2  505  504 -0.57488428673E+02  0.86595581064E+02  0.18356859575E+03  0.21095294128E+03  0.00000000000E+00 0. -1.
         21    1    1    2  506  502  0.26439130145E+02 -0.67651874452E+02  0.11132703087E+03  0.13292671486E+03  0.00000000000E+00 0. -1.
<scales pt_clust_3="33.22529" pt_clust_4="51.04140" pt_clust_5="101.61103" pt_clust_6="33.22529"></scales>
<clustering>
<clus scale="   33.225">  3  6 -1 -1</clus>
<clus scale="   51.041">  1  4  2 -1</clus>
<clus scale="  101.611">  1  5  2 -1</clus>
<clus scale="   51.041">  1  3  2 -1</clus>
</clustering>
</event>
<event>
 6    0  0.4582113E+002  0.1189375E+03  0.7546771E-02  0.1244860E+00
         21   -1    0    0  506  501  0.00000000000E+00  0.00000000000E+00  0.22174511276E+04  0.22174511276E+04  0.00000000000E+00 0.  1.
         21   -1    0    0  504  502 -0.00000000000E+00 -0.00000000000E+00 -0.26977629770E+03  0.26977629770E+03  0.00000000000E+00 0. -1.
         21    1    1    2  503  502 -0.29282331103E+02  0.82692843113E+02  0.36828401405E+03  0.37858773913E+03  0.00000000000E+00 0. -1.
         21    1    1    2  504  505 -0.78328342326E+01  0.56746694187E+02 -0.25601320033E+03  0.26234385706E+03  0.00000000000E+00 0. -1.
         21    1    1    2  505  501  0.79837617495E+02 -0.12368978099E+03  0.15818526714E+04  0.15886884783E+04  0.00000000000E+00 0.  1.
         21    1    1    2  506  503 -0.42722452159E+02 -0.15749756307E+02  0.25355134476E+03  0.25760735077E+03  0.00000000000E+00 0. -1.
<scales pt_clust_3="118.93749" pt_clust_4="57.26903" pt_clust_5="14000.00000" pt_clust_6="45.53310"></scales>
<clustering>
<clus scale="   45.533">  1  6  2 -1</clus>
<clus scale="   57.269">  2  4  1 -1</clus>
<clus scale="  118.937">  2  3  1 -1</clus>
<clus scale="   45.533">  1  3  2 -1</clus>
</clustering>
</event>
<event>
 6    0  0.4582113E+002  0.2941684E+03  0.7546771E-02  0.1088193E+00
         21   -1    0    0  504  501  0.00000000000E+00  0.00000000000E+00  0.20470334360E+03  0.20470334360E+03  0.00000000000E+00 0. -1.
         21   -1    0    0  506  502 -0.00000000000E+00 -0.00000000000E+00 -0.89791896256E+03  0.89791896256E+03  0.00000000000E+00 0. -1.
         21    1    1    2  503  505  0.12525288961E+03 -0.92005407704E+02 -0.78897025142E+01  0.15561339534E+03  0.00000000000E+00 0. -1.
         21    1    1    2  504  502 -0.18457169715E+03  0.23284088363E+03 -0.45440986296E+03  0.54292717010E+03  0.00000000000E+00 0. -1.
         21    1    1    2  505  501  0.10546468636E+03 -0.87949566182E+02  0.24240831073E+02  0.13944728091E+03  0.00000000000E+00 0. -1.
         21    1    1    2  506  503 -0.46145878820E+02 -0.52885909744E+02 -0.25515688456E+03  0.26463445981E+03  0.00000000000E+00 0. -1.
<scales pt_clust_3="32.27719" pt_clust_4="292.15744" pt_clust_5="32.27719" pt_clust_6="70.18804"></scales>
<clustering>
<clus scale="   32.277">  3  5 -1 -1</clus>
<clus scale="   70.188">  2  6  1 -1</clus>
<clus scale="  292.157">  2  4  1 -1</clus>
<clus scale="  294.168">  1  3  2 -1</clus>
</clustering>
</event>
<event>
 6    0  0.4582113E+002  0.1846416E+03  0.7546771E-02  0.1163385E+00
         21   -1    0    0  503  501  0.00000000000E+00  0.00000000000E+00  0.36495388209E+02  0.36495388209E+02  0.00000000000E+00 0.  1.
         21   -1    0    0  506  502 -0.00000000000E+00 -0.00000000000E+00 -0.30391099936E+04  0.30391099936E+04  0.00000000000E+00 0.  1.
         21    1    1    2  503  502  0.10975253550E+02  0.20196194201E+03 -0.16089991262E+04  0.16216618853E+04  0.00000000000E+00 0.  1.
         21    1    1    2  504  505 -0.36369130384E+01 -0.15198680795E+03 -0.62039808142E+03  0.63875425350E+03  0.00000000000E+00 0.  1.
         21    1    1    2  505  501  0.46078061312E+01 -0.78915290226E+02 -0.55025947017E+02  0.96315677613E+02  0.00000000000E+00 0.  1.
         21    1    1    2  506  504 -0.11946146643E+02  0.28940156170E+02 -0.71819145075E+03  0.71887356538E+03  0.00000000000E+00 0. -1.
<scales pt_clust_3="14000.00000" pt_clust_4="184.64159" pt_clust_5="78.08561" pt_clust_6="31.30883"></scales>
<clustering>
<clus scale="   31.309">  2  6  1 -1</clus>
<clus scale="   78.086">  1  5  2 -1</clus>
<clus scale="  184.642">  1  4  2 -1</clus>
<clus scale="   78.086">  1  3  2 -1</clus>
</clustering>
</event>
<event>
 6    0  0.4582113E+002  0.2102701E+03  0.7546771E-02  0.1141352E+00
         21   -1    0    0  503  501  0.00000000000E+00  0.00000000000E+00  0.17410019298E+04  0.17410019298E+04  0.00000000000E+00 0. -1.
         21   -1    0    0  504  502 -0.00000000000E+00 -0.00000000000E+00 -0.92905339635E+02  0.92905339635E+02  0.00000000000E+00 0. -1.
         21    1    1    2  503  502  0.69456864915E+01  0.29938395698E+02 -0.21734974994E+02  0.37642518988E+02  0.00000000000E+00 0. -1.
         21    1    1    2  504  506  0.33945520401E+02  0.16716542252E+03  0.73537826681E+02  0.18575357007E+03  0.00000000000E+00 0. -1.
         21    1    1    2  505  501 -0.32590242490E+02 -0.55734338331E+02  0.71536574899E+03  0.71827334295E+03  0.00000000000E+00 0. -1.
         21    1    1    2  506  505 -0.83009644025E+01 -0.14136947989E+03  0.88092798947E+03  0.89223783740E+03  0.00000000000E+00 0. -1.
<scales pt_clust_3="30.73353" pt_clust_4="197.84575" pt_clust_5="48.29288" pt_clust_6="48.29288"></scales>
<clustering>
<clus scale="   30.734">  2  3  1 -1</clus>
<clus scale="   48.293">  5  6 -1 -1</clus>
<clus scale="  197.846">  2  4  1 -1</clus>
<clus scale="  210.270">  1  3  2 -1</clus>
</clustering>
</event>
<event>
 6    0  0.4582113E+002  0.9183407E+02  0.7546771E-02  0.1298470E+00
         21   -1    0    0  502  501  0.00000000000E+00  0.00000000000E+00  0.10860469712E+03  0.10860469712E+03  0.00000000000E+00 0. -1.
         21   -1    0    0  506  502 -0.00000000000E+00 -0.00000000000E+00 -0.31241456691E+03  0.31241456691E+03  0.00000000000E+00 0. -1.
         21    1    1    2  503  505  0.31135927090E+02  0.85478213609E+02  0.40341976332E+02  0.99516059065E+02  0.00000000000E+00 0. -1.
         21    1    1    2  504  503 -0.73746816222E+02 -0.40650018792E+02 -0.80461072731E+02  0.11646888493E+03  0.00000000000E+00 0. -1.
         21    1    1    2  505  501  0.36200231887E+02 -0.30260568853E+01 -0.37152795222E+00  0.36328388926E+02  0.00000000000E+00 0. -1.
         21    1    1    2  506  504  0.64106572450E+01 -0.41802137931E+02 -0.16331924544E+03  0.16870593111E+03  0.00000000000E+00 0. -1.
<scales pt_clust_3="14000.00000" pt_clust_4="91.83407" pt_clust_5="36.32649" pt_clust_6="42.55577"></scales>
<clustering>
<clus scale="   36.326">  1  5  2 -1</clus>
<clus scale="   42.556">  2  6  1 -1</clus>
<clus scale="   91.834">  2  4  1 -1</clus>
<clus scale="   36.326">  1  3  2 -1</clus>
</clustering>
</event>
<event>
 6    0  0.4582113E+002  0.8908705E+02  0.7546771E-02  0.1305078E+00
         21   -1    0    0  506  501  0.00000000000E+00  0.00000000000E+00  0.10557207671E+03  0.10557207671E+03  0.00000000000E+00 0.  1.
         21   -1    0    0  505  502 -0.00000000000E+00 -0.00000000000E+00 -0.27771581292E+03  0.27771581292E+03  0.00000000000E+00 0.  1.
         21    1    1    2  503  501 -0.23919279719E+02  0.26721773006E+02 -0.70965037705E+01  0.36558794573E+02  0.00000000000E+00 0.  1.
         21    1    1    2  504  502  0.63906069902E+02  0.77553643441E+02 -0.44368307929E+01  0.10058945695E+03  0.00000000000E+00 0.  1.
         21    1    1    2  505  503  0.18397590347E+02 -0.49482492981E+02 -0.15738817796E+03  0.16600610532E+03  0.00000000000E+00 0.  1.
         21    1    1    2  506  504 -0.58384380530E+02 -0.54792923465E+02 -0.32222236907E+01  0.80133532789E+02  0.00000000000E+00 0.  1.
<scales pt_clust_3="35.86342" pt_clust_4="89.08705" pt_clust_5="51.21225" pt_clust_6="14000.00000"></scales>
<clustering>
<clus scale="   35.863">  1  3  2 -1</clus>
<clus scale="   51.212">  2  5  1 -1</clus>
<clus scale="   89.087">  2  4  1 -1</clus>
<clus scale="   35.863">  1  3  2 -1</clus>
</clustering>
</event>
<event>
 6    0  0.4582113E+002  0.7637748E+02  0.7546771E-02  0.1339658E+00
         21   -1    0    0  504  501  0.00000000000E+00  0.00000000000E+00  0.12130182623E+04  0.12130182623E+04  0.00000000000E+00 0.  1.
         21   -1    0    0  506  502 -0.00000000000E+00 -0.00000000000E+00 -0.11347762466E+03  0.11347762466E+03  0.00000000000E+00 0.  1.
         21    1    1    2  503  505 -0.14973221355E+02  0.99863786827E+02  0.53359946128E+02  0.11421145795E+03  0.00000000000E+00 0.  1.
         21    1    1    2  504  502  0.19243039651E+02 -0.44087830291E+02  0.12693905881E+03  0.13574813445E+03  0.00000000000E+00 0. -1.
         21    1    1    2  505  501 -0.43674319942E+02 -0.62747650193E+02  0.99122977099E+03  0.99417361297E+03  0.00000000000E+00 0.  1.
         21    1    1    2  506  503  0.39404501647E+02  0.69716936567E+01 -0.71988138291E+02  0.82362681580E+02  0.00000000000E+00 0.  1.
<scales pt_clust_3="76.37748" pt_clust_4="49.46735" pt_clust_5="14000.00000" pt_clust_6="40.01649"></scales>
<clustering>
<clus scale="   40.016">  2  6  1 -1</clus>
<clus scale="   49.467">  2  4  1 -1</clus>
<clus scale="   76.377">  2  3  1 -1</clus>
<clus scale="   76.377">  1  3  2 -1</clus>
</clustering>
</event>
<event>
 6    0  0.4582113E+002  0.8233978E+02  0.7546771E-02  0.1322540E+00
         21   -1    0    0  504  501  0.00000000000E+00  0.00000000000E+00  0.13093825094E+03  0.13093825094E+03  0.00000000000E+00 0. -1.
         21   -1    0    0  503  502 -0.00000000000E+00 -0.00000000000E+00 -0.33948239117E+03  0.33948239117E+03  0.00000000000E+00 0.  1.
         21    1    1    2  503  501  0.93752585558E+02  0.33185347220E+02  0.18580124225E+02  0.10117329482E+03  0.00000000000E+00 0.  1.
         21    1    1    2  504  506 -0.22506360096E+02  0.49801765026E+02  0.36821343451E+02  0.65898128790E+02  0.00000000000E+00 0. -1.
         21    1    1    2  505  502 -0.20413059970E+02 -0.48651120294E+02 -0.22403978456E+03  0.23016830709E+03  0.00000000000E+00 0.  1.
         21    1    1    2  506  505 -0.50833165492E+02 -0.34335991953E+02 -0.39905823346E+02  0.73180911406E+02  0.00000000000E+00 0. -1.
<scales pt_clust_3="82.33978" pt_clust_4="50.25244" pt_clust_5="52.76007" pt_clust_6="14000.00000"></scales>
<clustering>
<clus scale="   52.760">  2  5  1 -1</clus>
<clus scale="   50.252">  1  4  2 -1</clus>
<clus scale="   82.340">  1  3  2 -1</clus>
<clus scale="   50.252">  1  3  2 -1</clus>
</clustering>
</event>
<event>
 6    0  0.4582113E+002  0.1715936E+03  0.7546771E-02  0.1176196E+00
         21   -1    0    0  503  501  0.00000000000E+00  0.00000000000E+00  0.21642487069E+03  0.21642487069E+03  0.00000000000E+00 0.  1.
         21   -1    0    0  504  502 -0.00000000000E+00 -0.00000000000E+00 -0.70319890153E+03  0.70319890153E+03  0.00000000000E+00 0.  1.
         21    1    1    2  503  505 -0.29456199871E+02  0.22360173961E+02  0.42172975983E+02  0.56091042009E+02  0.00000000000E+00 0.  1.
         21    1    1    2  504  506  0.57820509227E+01  0.11900959795E+03 -0.10142925767E+03  0.15647559180E+03  0.00000000000E+00 0.  1.
         21    1    1    2  505  502  0.29691845712E+02 -0.28318190875E+03 -0.47802374955E+03  0.55639941075E+03  0.00000000000E+00 0.  1.
         21    1    1    2  506  501 -0.60176967633E+01  0.14181213684E+03  0.50506000396E+02  0.15065772767E+03  0.00000000000E+00 0.  1.
<scales pt_clust_3="36.98169" pt_clust_4="122.69188" pt_clust_5="14000.00000" pt_clust_6="171.59360"></scales>
<clustering>
<clus scale="   36.982">  1  3  2 -1</clus>
<clus scale="  122.692">  2  4  1 -1</clus>
<clus scale="  171.594">  1  6  2 -1</clus>
<clus scale="   36.982">  1  3  2 -1</clus>
</clustering>
</event>
<event>
 6    0  0.4582113E+002  0.1383309E+03  0.7546771E-02  0.1215593E+00
         21   -1    0    0  504  501  0.00000000000E+00  0.00000000000E+00  0.26018606301E+03  0.26018606301E+03  0.00000000000E+00 0. -1.
         21   -1    0    0  506  502 -0.00000000000E+00 -0.00000000000E+00 -0.23569578344E+03  0.23569578344E+03  0.00000000000E+00 0. -1.
         21    1    1    2  503  501  0.72065787365E+02 -0.69012710030E+02  0.52384169228E+02  0.11269575431E+03  0.00000000000E+00 0.  1.
         21    1    1    2  504  502  0.62082961852E+02 -0.18613968387E+02 -0.15616938423E+03  0.16908474367E+03  0.00000000000E+00 0. -1.
         21    1    1    2  505  503 -0.10486551811E+03  0.55840482175E+02  0.12224057322E+03  0.17046317514E+03  0.00000000000E+00 0. -1.
         21    1    1    2  506  505 -0.29283231110E+02  0.31786196241E+02  0.60349213411E+01  0.43638173327E+02  0.00000000000E+00 0. -1.
<scales pt_clust_3="124.19733" pt_clust_4="64.81338" pt_clust_5="36.73931" pt_clust_6="36.73931"></scales>
<clustering>
<clus scale="   36.739">  5  6 -1 -1</clus>
<clus scale="   64.813">  2  4  1 -1</clus>
<clus scale="  124.197">  1  3  2 -1</clus>
<clus scale="  124.197">  1  3  2 -1</clus>
</clustering>
</event>
<event>
 6    0  0.4582113E+002  0.2064640E+03  0.7546771E-02  0.1144397E+00
         21   -1    0    0  504  501  0.00000000000E+00  0.00000000000E+00  0.21511449137E+04  0.21511449137E+04  0.00000000000E+00 0. -1.
         21   -1    0    0  503  502 -0.00000000000E+00 -0.00000000000E+00 -0.59180798013E+02  0.59180798013E+02  0.00000000000E+00 0. -1.
         21    1    1    2  503  501  0.12557703997E+03 -0.18152720450E+03  0.18136946938E+04  0.18270769445E+04  0.00000000000E+00 0. -1.
         21    1    1    2  504  506 -0.33826763677E+02  0.16566529178E+02  0.11904665873E+03  0.12486315223E+03  0.00000000000E+00 0. -1.
         21    1    1    2  505  502 -0.83261577662E+01  0.52662954117E+02  0.10751478811E+02  0.54390311050E+02  0.00000000000E+00 0. -1.
         21    1    1    2  506  505 -0.83424118525E+02  0.11229772120E+03  0.14847128437E+03  0.20399530392E+03  0.00000000000E+00 0. -1.
<scales pt_clust_3="191.95391" pt_clust_4="37.66563" pt_clust_5="46.61015" pt_clust_6="46.61015"></scales>
<clustering>
<clus scale="   37.666">  1  4  2 -1</clus>
<clus scale="   46.610">  5  6 -1 -1</clus>
<clus scale="  191.954">  1  3  2 -1</clus>
<clus scale="   37.666">  1  3  2 -1</clus>
</clustering>
</event>
<event>
 6    0  0.4582113E+002  0.1343420E+03  0.7546771E-02  0.1221152E+00
         21   -1    0    0  503  501  0.00000000000E+00  0.00000000000E+00  0.94625265682E+03  0.94625265682E+03  0.00000000000E+00 0. -1.
         21   -1    0    0  505  502 -0.00000000000E+00 -0.00000000000E+00 -0.17938173379E+03  0.17938173379E+03  0.00000000000E+00 0.  1.
         21    1    1    2  503  504  0.41230438098E+02 -0.77242184296E+02  0.73404816616E+03  0.73925165830E+03  0.00000000000E+00 0. -1.
         21    1    1    2  504  506  0.29236451654E+02 -0.28527347782E+02  0.17107708027E+03  0.17588617646E+03  0.00000000000E+00 0. -1.
         21    1    1    2  505  501 -0.43200260644E+02 -0.59961820852E+01 -0.35245494057E+02  0.56075498844E+02  0.00000000000E+00 0.  1.
         21    1    1    2  506  502 -0.27266629108E+02  0.11176571416E+03 -0.10300882933E+03  0.15442105700E+03  0.00000000000E+00 0.  1.
<scales pt_clust_3="31.09679" pt_clust_4="31.09679" pt_clust_5="43.61441" pt_clust_6="126.39222"></scales>
<clustering>
<clus scale="   31.097">  3  4 -1 -1</clus>
<clus scale="   43.614">  2  5  1 -1</clus>
<clus scale="  126.392">  2  6  1 -1</clus>
<clus scale="  134.342">  1  3  2 -1</clus>
</clustering>
</event>
<event>
 6    0  0.4582113E+002  0.2444044E+03  0.7546771E-02  0.1116893E+00
         21   -1    0    0  503  501  0.00000000000E+00  0.00000000000E+00  0.31002591603E+03  0.31002591603E+03  0.00000000000E+00 0.  1.
         21   -1    0    0  506  502 -0.00000000000E+00 -0.00000000000E+00 -0.19188015941E+03  0.19188015941E+03  0.00000000000E+00 0.  1.
         21    1    1    2  503  505  0.63268730034E+02 -0.63399103350E+02  0.63628480659E+02  0.10986793006E+03  0.00000000000E+00 0.  1.
         21    1    1    2  504  501 -0.72370167946E+02 -0.12446075695E+02  0.18618878929E+02  0.75756245032E+02  0.00000000000E+00 0.  1.
         21    1    1    2  505  502  0.13011495736E+03 -0.39670599749E+02  0.57334686586E+02  0.14761749524E+03  0.00000000000E+00 0.  1.
         21    1    1    2  506  504 -0.12101351945E+03  0.11551577879E+03 -0.21436289554E+02  0.16866440511E+03  0.00000000000E+00 0.  1.
<scales pt_clust_3="48.99731" pt_clust_4="71.70230" pt_clust_5="227.30301" pt_clust_6="71.70230"></scales>
<clustering>
<clus scale="   48.997">  3  5 -1 -1</clus>
<clus scale="   71.702">  4  6 -1 -1</clus>
<clus scale="  227.303">  1  3  2 -1</clus>
<clus scale="  227.303">  1  3  2 -1</clus>
</clustering>
</event>
<event>
 6    0  0.4582113E+002  0.9750490E+02  0.7546771E-02  0.1285632E+00
         21   -1    0    0  504  501  0.00000000000E+00  0.00000000000E+00  0.78144098159E+03  0.78144098159E+03  0.00000000000E+00 0.  1.
         21   -1    0    0  503  502 -0.00000000000E+00 -0.00000000000E+00 -0.37160423142E+03  0.37160423142E+03  0.00000000000E+00 0.  1.
         21    1    1    2  503  506 -0.48432720081E+02 -0.52277256563E+02 -0.39879586334E+02  0.81664076156E+02  0.00000000000E+00 0.  1.
         21    1    1    2  504  505  0.13348235551E+03 -0.48573356963E+02  0.62885979384E+03  0.64470268384E+03  0.00000000000E+00 0.  1.
         21    1    1    2  505  502 -0.46694462383E+02  0.70710085399E+02 -0.29183180154E+03  0.30388499368E+03  0.00000000000E+00 0.  1.
         21    1    1    2  506  501 -0.38355173043E+02  0.30140528127E+02  0.11268834421E+03  0.12279345933E+03  0.00000000000E+00 0.  1.
<scales pt_clust_3="71.40554" pt_clust_4="97.50490" pt_clust_5="14000.00000" pt_clust_6="48.78084"></scales>
<clustering>
<clus scale="   48.781">  1  6  2 -1</clus>
<clus scale="   71.406">  2  3  1 -1</clus>
<clus scale="   97.505">  1  4  2 -1</clus>
<clus scale="   48.781">  1  3  2 -1</clus>
</clustering>
</event>
<event>
 6    0  0.4582113E+002  0.9439971E+02  0.7546771E-02  0.1292534E+00
         21   -1    0    0  503  501  0.00000000000E+00  0.00000000000E+00  0.12101836629E+03  0.12101836629E+03  0.00000000000E+00 0.  1.
         21   -1    0    0  506  502 -0.00000000000E+00 -0.00000000000E+00 -0.21824933804E+04  0.21824933804E+04  0.00000000000E+00 0.  1.
         21    1    1    2  503  502  0.68519023453E+02  0.74503706960E+02 -0.18150532188E+04  0.18178734406E+04  0.00000000000E+00 0.  1.
         21    1    1    2  504  505 -0.91319456000E+02  0.41543195394E+02  0.29208839759E+02  0.10449036533E+03  0.00000000000E+00 0.  1.
         21    1    1    2  505  501  0.66790483854E+00 -0.72339897443E+02  0.25008158989E+02  0.76543548879E+02  0.00000000000E+00 0.  1.
         21    1    1    2  506  504  0.22132527708E+02 -0.43707004911E+02 -0.30063879407E+03  0.30460439190E+03  0.00000000000E+00 0. -1.
<scales pt_clust_3="94.39971" pt_clust_4="14000.00000" pt_clust_5="72.94546" pt_clust_6="48.99134"></scales>
<clustering>
<clus scale="   48.991">  2  6  1 -1</clus>
<clus scale="   72.945">  1  5  2 -1</clus>
<clus scale="   94.400">  2  3  1 -1</clus>
<clus scale="   72.945">  1  3  2 -1</clus>
</clustering>
</event>
<event>
 6    0  0.4582113E+002  0.7312956E+02  0.7546771E-02  0.1349763E+00
         21   -1    0    0  503  501  0.00000000000E+00  0.00000000000E+00  0.94152190983E+03  0.94152190983E+03  0.00000000000E+00 0. -1.
         21   -1    0    0  505  502 -0.00000000000E+00 -0.00000000000E+00 -0.31953438707E+02  0.31953438707E+02  0.00000000000E+00 0. -1.
         21    1    1    2  503  506  0.10593384895E+03 -0.30392278348E+02  0.40535328491E+03  0.42006779991E+03  0.00000000000E+00 0. -1.
         21    1    1    2  504  501 -0.33910185832E+02 -0.29554504624E+01  0.34091206562E+03  0.34260716845E+03  0.00000000000E+00 0.  1.
         21    1    1    2  505  504 -0.37348545388E+02 -0.29068818822E+02  0.11564493387E+03  0.12495463497E+03  0.00000000000E+00 0. -1.
         21    1    1    2  506  502 -0.34675117735E+02  0.62416547632E+02  0.47658186734E+02  0.85845745213E+02  0.00000000000E+00 0. -1.
<scales pt_clust_3="73.12956" pt_clust_4="34.03873" pt_clust_5="53.18885" pt_clust_6="14000.00000"></scales>
<clustering>
<clus scale="   34.039">  1  4  2 -1</clus>
<clus scale="   53.189">  1  5  2 -1</clus>
<clus scale="   73.130">  1  3  2 -1</clus>
<clus scale="   34.039">  1  3  2 -1</clus>
</clustering>
</event>
<event>
 6    0  0.4582113E+002  0.2953388E+03  0.7546771E-02  0.1087594E+00
         21   -1    0    0  504  501  0.00000000000E+00  0.00000000000E+00  0.18290624739E+03  0.18290624739E+03  0.00000000000E+00 0.  1.
         21   -1    0    0  505  502 -0.00000000000E+00 -0.00000000000E+00 -0.63291998240E+03  0.63291998240E+03  0.00000000000E+00 0.  1.
         21    1    1    2  503  501  0.15226483328E+02 -0.47430756233E+02 -0.17126456435E+02  0.52676730550E+02  0.00000000000E+00 0. -1.
         21    1    1    2  504  506  0.12681676684E+03  0.14784955119E+03 -0.29427769263E+02  0.19699740034E+03  0.00000000000E+00 0.  1.
         21    1    1    2  505  503 -0.17100291038E+03 -0.21215050268E+03 -0.33547124843E+03  0.43219300048E+03  0.00000000000E+00 0.  1.
         21    1    1    2  506  502  0.28959660211E+02  0.11173170773E+03 -0.67988260885E+02  0.13395909842E+03  0.00000000000E+00 0.  1.
<scales pt_clust_3="49.81488" pt_clust_4="70.13752" pt_clust_5="280.76934" pt_clust_6="70.13752"></scales>
<clustering>
<clus scale="   49.815">  1  3  2 -1</clus>
<clus scale="   70.138">  4  6 -1 -1</clus>
<clus scale="  280.769">  2  5  1 -1</clus>
<clus scale="   49.815">  1  3  2 -1</clus>
</clustering>
</event>
<event>
 6    0  0.4582113E+002  0.1257257E+03  0.7546771E-02  0.1233939E+00
         21   -1    0    0  505  501  0.00000000000E+00  0.00000000000E+00  0.89112024249E+03  0.89112024249E+03  0.00000000000E+00 0.  1.
         21   -1    0    0  503  502 -0.00000000000E+00 -0.00000000000E+00 -0.32894564216E+03  0.32894564216E+03  0.00000000000E+00 0.  1.
         21    1    1    2  503  501  0.29600153806E+02  0.21143344992E+02  0.19070026598E+02  0.41071596722E+02  0.00000000000E+00 0. -1.
         21    1    1    2  504  502  0.36151149715E+02 -0.11396080478E+02 -0.56096070775E+02  0.67701886476E+02  0.00000000000E+00 0.  1.
         21    1    1    2  505  506  0.79716149182E+02 -0.79920404681E+02  0.82554878745E+03  0.83323030189E+03  0.00000000000E+00 0.  1.
         21    1    1    2  506  504 -0.14546745270E+03  0.70173140167E+02 -0.22634814294E+03  0.27806209956E+03  0.00000000000E+00 0.  1.
<scales pt_clust_3="36.37596" pt_clust_4="38.05275" pt_clust_5="14000.00000" pt_clust_6="125.72574"></scales>
<clustering>
<clus scale="   36.376">  1  3  2 -1</clus>
<clus scale="   38.053">  2  4  1 -1</clus>
<clus scale="  125.726">  2  6  1 -1</clus>
<clus scale="   36.376">  1  3  2 -1</clus>
</clustering>
</event>
<event>
 6    0  0.4582113E+002  0.1196592E+03  0.7546771E-02  0.1243660E+00
         21   -1    0    0  505  501  0.00000000000E+00  0.00000000000E+00  0.52341078651E+02  0.52341078651E+02  0.00000000000E+00 0.  1.
         21   -1    0    0  506  502 -0.00000000000E+00 -0.00000000000E+00 -0.12678251981E+04  0.12678251981E+04  0.00000000000E+00 0. -1.
         21    1    1    2  503  502 -0.27994426071E+02  0.13152724760E+03 -0.72166591476E+03  0.73408773132E+03  0.00000000000E+00 0. -1.
         21    1    1    2  504  501 -0.60629390465E+02 -0.59965374290E+02 -0.41427118537E+02  0.94804932637E+02  0.00000000000E+00 0.  1.
         21    1    1    2  505  503  0.57514042882E+02 -0.73983705344E+02 -0.98298803418E+02  0.13580908857E+03  0.00000000000E+00 0.  1.
         21    1    1    2  506  504  0.31109773655E+02  0.24218320321E+01 -0.35409228275E+03  0.35546452424E+03  0.00000000000E+00 0. -1.
<scales pt_clust_3="14000.00000" pt_clust_4="83.51103" pt_clust_5="119.65923" pt_clust_6="31.20390"></scales>
<clustering>
<clus scale="   31.204">  2  6  1 -1</clus>
<clus scale="   83.511">  1  4  2 -1</clus>
<clus scale="  119.659">  1  5  2 -1</clus>
<clus scale="   83.511">  1  3  2 -1</clus>
</clustering>
</event>
<event>
 6    0  0.4582113E+002  0.6663589E+02  0.7546771E-02  0.1371922E+00
         21   -1    0    0  503  501  0.00000000000E+00  0.00000000000E+00  0.11380689482E+04  0.11380689482E+04  0.00000000000E+00 0.  1.
         21   -1    0    0  505  502 -0.00000000000E+00 -0.00000000000E+00 -0.40213816456E+03  0.40213816456E+03  0.00000000000E+00 0.  1.
         21    1    1    2  503  504 -0.92346678469E+02  0.15043233955E+02  0.10503012268E+04  0.10544604662E+04  0.00000000000E+00 0.  1.
         21    1    1    2  504  506  0.11599488000E+03  0.24195360716E+02 -0.49513299893E+02  0.12842038208E+03  0.00000000000E+00 0. -1.
         21    1    1    2  505  501  0.33173400995E+02 -0.12941263654E+02  0.35637231893E+02  0.50378200995E+02  0.00000000000E+00 0. -1.
         21    1    1    2  506  502 -0.56821602524E+02 -0.26297331017E+02 -0.30049437516E+03  0.30694806341E+03  0.00000000000E+00 0.  1.
<scales pt_clust_3="60.52237" pt_clust_4="14000.00000" pt_clust_5="35.60830" pt_clust_6="66.63589"></scales>
<clustering>
<clus scale="   35.608">  1  5  2 -1</clus>
<clus scale="   60.522">  1  3  2 -1</clus>
<clus scale="   66.636">  2  6  1 -1</clus>
<clus scale="   35.608">  1  3  2 -1</clus>
</clustering>
</event>
<event>
 6    0  0.4582113E+002  0.2023600E+03  0.7546771E-02  0.1147763E+00
         21   -1    0    0  503  501  0.00000000000E+00  0.00000000000E+00  0.34812009748E+03  0.34812009748E+03  0.00000000000E+00 0. -1.
         21   -1    0    0  501  502 -0.00000000000E+00 -0.00000000000E+00 -0.20223590287E+03  0.20223590287E+03  0.00000000000E+00 0. -1.
         21    1    1    2  503  505  0.41483524288E+02  0.13065116708E+03  0.15846780940E+03  0.20952960855E+03  0.00000000000E+00 0. -1.
         21    1    1    2  504  502 -0.51078682439E+02 -0.84257290798E+01 -0.56059317086E+02  0.76306433165E+02  0.00000000000E+00 0. -1.
         21    1    1    2  505  506  0.71222048635E+02  0.22326879009E+02  0.73255507287E+02  0.10458221209E+03  0.00000000000E+00 0. -1.
         21    1    1    2  506  504 -0.61626890483E+02 -0.14455231701E+03 -0.29779804983E+02  0.15993774654E+03  0.00000000000E+00 0. -1.
<scales pt_clust_3="67.70522" pt_clust_4="51.76896" pt_clust_5="67.70522" pt_clust_6="179.11967"></scales>
<clustering>
<clus scale="   51.769">  2  4  1 -1</clus>
<clus scale="   67.705">  3  5 -1 -1</clus>
<clus scale="  179.120">  2  6  1 -1</clus>
<clus scale="  202.360">  1  3  2 -1</clus>
</clustering>
</event>
<event>
 6    0  0.4582113E+002  0.1257803E+03  0.7546771E-02  0.1233855E+00
         21   -1    0    0  505  501  0.00000000000E+00  0.00000000000E+00  0.11023204061E+04  0.11023204061E+04  0.00000000000E+00 0.  1.
         21   -1    0    0  503  502 -0.00000000000E+00 -0.00000000000E+00 -0.59181483252E+02  0.59181483252E+02  0.00000000000E+00 0.  1.
         21    1    1    2  503  501 -0.64737484487E+02  0.32894235174E+02  0.33121032925E+01  0.72690732790E+02  0.00000000000E+00 0.  1.
         21    1    1    2  504  502  0.28614345324E+02 -0.97407370884E+01  0.17817905766E+02  0.35087611535E+02  0.00000000000E+00 0. -1.
         21    1    1    2  505  506  0.13696795076E+03 -0.45383988630E+02  0.72651735815E+03  0.74070736303E+03  0.00000000000E+00 0.  1.
         21    1    1    2  506  504 -0.10084481160E+03  0.22230490545E+02  0.29549155565E+03  0.31301618201E+03  0.00000000000E+00 0.  1.
<scales pt_clust_3="52.16256" pt_clust_4="30.22685" pt_clust_5="14000.00000" pt_clust_6="125.78025"></scales>
<clustering>
<clus scale="   30.227">  2  4  1 -1</clus>
<clus scale="   52.163">  2  3  1 -1</clus>
<clus scale="  125.780">  2  6  1 -1</clus>
<clus scale="  125.780">  1  3  2 -1</clus>
</clustering>
</event>
<event>
 6    0  0.4582113E+002  0.1233231E+03  0.7546771E-02  0.1237713E+00
         21   -1    0    0  504  501  0.00000000000E+00  0.00000000000E+00  0.24065122799E+04  0.24065122799E+04  0.00000000000E+00 0.  1.
         21   -1    0    0  503  502 -0.00000000000E+00 -0.00000000000E+00 -0.45367587616E+03  0.45367587616E+03  0.00000000000E+00 0. -1.
         21    1    1    2  503  506  0.13715948193E+02  0.49554009083E+02 -0.49614800406E+01  0.51656009672E+02  0.00000000000E+00 0. -1.
         21    1    1    2  504  505  0.40913745344E+02  0.66452573500E+02  0.76424648353E+03  0.76822038939E+03  0.00000000000E+00 0.  1.
         21    1    1    2  505  502 -0.48987484708E+02 -0.16960152723E+03 -0.40450403491E+03  0.44134789674E+03  0.00000000000E+00 0. -1.
         21    1    1    2  506  501 -0.56422088292E+01  0.53594944648E+02  0.15980554352E+04  0.15989638603E+04  0.00000000000E+00 0.  1.
<scales pt_clust_3="51.41719" pt_clust_4="123.32314" pt_clust_5="14000.00000" pt_clust_6="53.94221"></scales>
<clustering>
<clus scale="   51.417">  2  3  1 -1</clus>
<clus scale="   53.942">  1  6  2 -1</clus>
<clus scale="  123.323">  1  4  2 -1</clus>
<clus scale="   53.942">  1  3  2 -1</clus>
</clustering>
</event>
<event>
 6    0  0.4582113E+002  0.5395727E+02  0.7546771E-02  0.1425095E+00
         21   -1    0    0  505  501  0.00000000000E+00  0.00000000000E+00  0.54835615635E+03  0.54835615635E+03  0.00000000000E+00 0. -1.
         21   -1    0    0  506  502 -0.00000000000E+00 -0.00000000000E+00 -0.17044699524E+03  0.17044699524E+03  0.00000000000E+00 0.  1.
         21    1    1    2  503  504 -0.42636323754E+01 -0.79427472824E+02 -0.29381622811E+02  0.84794939467E+02  0.00000000000E+00 0.  1.
         21    1    1    2  504  502  0.15235123870E+02  0.33806093981E+02 -0.96941136507E+02  0.10379087116E+03  0.00000000000E+00 0.  1.
         21    1    1    2  505  503 -0.45982378455E+02  0.79755539071E+02  0.43980140816E+03  0.44933351062E+03  0.00000000000E+00 0. -1.
         21    1    1    2  506  501  0.35010886960E+02 -0.34134160228E+02  0.64430512270E+02  0.80883830347E+02  0.00000000000E+00 0.  1.
<scales pt_clust_3="53.95727" pt_clust_4="37.08047" pt_clust_5="14000.00000" pt_clust_6="47.58320"></scales>
<clustering>
<clus scale="   37.080">  2  4  1 -1</clus>
<clus scale="   47.583">  1  6  2 -1</clus>
<clus scale="   53.957">  2  3  1 -1</clus>
<clus scale="   47.583">  1  3  2 -1</clus>
</clustering>
</event>
<event>
 6    0  0.4582113E+002  0.1245896E+03  0.7546771E-02  0.1235712E+00
         21   -1    0    0  505  501  0.00000000000E+00  0.00000000000E+00  0.21137982421E+03  0.21137982421E+03  0.00000000000E+00 0. -1.
         21   -1    0    0  504  502 -0.00000000000E+00 -0.00000000000E+00 -0.39581906110E+03  0.39581906110E+03  0.00000000000E+00 0. -1.
         21    1    1    2  503  502  0.40218735470E+02  0.78519243308E+02 -0.42803959189E+02  0.98056091982E+02  0.00000000000E+00 0.  1.
         21    1    1    2  504  501 -0.10923533268E+03  0.21041471251E+02 -0.29179581241E+03  0.31228175989E+03  0.00000000000E+00 0. -1.
         21    1    1    2  505  506  0.37362803582E+02 -0.58545259619E+02  0.11466605492E+03  0.13405905663E+03  0.00000000000E+00 0. -1.
         21    1    1    2  506  503  0.31653793627E+02 -0.41015454940E+02  0.35494479800E+02  0.62801976810E+02  0.00000000000E+00 0. -1.
<scales pt_clust_3="88.22028" pt_clust_4="118.28827" pt_clust_5="33.78889" pt_clust_6="33.78889"></scales>
<clustering>
<clus scale="   33.789">  5  6 -1 -1</clus>
<clus scale="   88.220">  2  3  1 -1</clus>
<clus scale="  118.288">  2  4  1 -1</clus>
<clus scale="  124.590">  1  3  2 -1</clus>
</clustering>
</event>
<event>
 6    0  0.4582113E+002  0.8407286E+02  0.7546771E-02  0.1317875E+00
         21   -1    0    0  506  501  0.00000000000E+00  0.00000000000E+00  0.85839522044E+03  0.85839522044E+03  0.00000000000E+00 0. -1.
         21   -1    0    0  504  502 -0.00000000000E+00 -0.00000000000E+00 -0.49165836211E+02  0.49165836211E+02  0.00000000000E+00 0. -1.
         21    1    1    2  503  501 -0.22676132013E+02 -0.23691521432E+02  0.13808663041E+03  0.14192749082E+03  0.00000000000E+00 0. -1.
         21    1    1    2  504  503  0.61578296739E+02  0.11665669038E+03  0.92148952351E+02  0.16091022174E+03  0.00000000000E+00 0. -1.
         21    1    1    2  505  502 -0.50684419223E+02 -0.30954279210E+02  0.69862775858E+02  0.91694521123E+02  0.00000000000E+00 0. -1.
         21    1    1    2  506  505  0.11782254497E+02 -0.62010889738E+02  0.50913102560E+03  0.51302882297E+03  0.00000000000E+00 0. -1.
<scales pt_clust_3="32.79474" pt_clust_4="84.07286" pt_clust_5="62.96086" pt_clust_6="14000.00000"></scales>
<clustering>
<clus scale="   32.795">  1  3  2 -1</clus>
<clus scale="   62.961">  2  5  1 -1</clus>
<clus scale="   84.073">  2  4  1 -1</clus>
<clus scale="   32.795">  1  3  2 -1</clus>
</clustering>
</event>
<event>
 6    0  0.4582113E+002  0.9564904E+02  0.7546771E-02  0.1289721E+00
         21   -1    0    0  504  501  0.00000000000E+00  0.00000000000E+00  0.13823095166E+03  0.13823095166E+03  0.00000000000E+00 0. -1.
         21   -1    0    0  506  502 -0.00000000000E+00 -0.00000000000E+00 -0.20312129474E+03  0.20312129474E+03  0.00000000000E+00 0. -1.
         21    1    1    2  503  502  0.11859782950E+01  0.40715962280E+02 -0.62776700346E+02  0.74833884272E+02  0.00000000000E+00 0. -1.
         21    1    1    2  504  505 -0.11626714806E+03  0.51539268132E+01 -0.35971554463E+02  0.12181365035E+03  0.00000000000E+00 0. -1.
         21    1    1    2  505  503  0.27230169023E+02 -0.40657512345E+02 -0.35853203039E+01  0.49064956301E+02  0.00000000000E+00 0. -1.
         21    1    1    2  506  501  0.87851000746E+02 -0.52123767474E+01  0.37443232029E+02  0.95639755480E+02  0.00000000000E+00 0. -1.
<scales pt_clust_3="40.73323" pt_clust_4="95.64904" pt_clust_5="42.68500" pt_clust_6="14000.00000"></scales>
<clustering>
<clus scale="   40.733">  2  3  1 -1</clus>
<clus scale="   42.685">  2  5  1 -1</clus>
<clus scale="   95.649">  2  4  1 -1</clus>
<clus scale="   95.649">  1  3  2 -1</clus>
</clustering>
</event>
<event>
 6    0  0.4582113E+002  0.9764687E+02  0.7546771E-02  0.1285324E+00
         21   -1    0    0  505  501  0.00000000000E+00  0.00000000000E+00  0.65266709120E+03  0.65266709120E+03  0.00000000000E+00 0. -1.
         21   -1    0    0  504  502 -0.00000000000E+00 -0.00000000000E+00 -0.13857485474E+04  0.13857485474E+04  0.00000000000E+00 0. -1.
         21    1    1    2  503  502 -0.87079399252E+02 -0.10070207084E+03 -0.45691445249E+03  0.47591443111E+03  0.00000000000E+00 0. -1.
         21    1    1    2  504  506  0.32439677607E+01  0.50666143328E+02 -0.90972544334E+03  0.91114102293E+03  0.00000000000E+00 0. -1.
         21    1    1    2  505  503  0.40095400875E+02  0.16455617784E+02  0.54267866093E+02  0.69450916612E+02  0.00000000000E+00 0.  1.
         21    1    1    2  506  501  0.43740030616E+02  0.33580309732E+02  0.57929057356E+03  0.58190926793E+03  0.00000000000E+00 0. -1.
<scales pt_clust_3="97.64687" pt_clust_4="50.79265" pt_clust_5="43.34084" pt_clust_6="14000.00000"></scales>
<clustering>
<clus scale="   43.341">  1  5  2 -1</clus>
<clus scale="   50.793">  2  4  1 -1</clus>
<clus scale="   97.647">  2  3  1 -1</clus>
<clus scale="   43.341">  1  3  2 -1</clus>
</clustering>
</event>
<event>
 6    0  0.4582113E+002  0.2195912E+03  0.7546771E-02  0.1134188E+00
         21   -1    0    0  504  501  0.00000000000E+00  0.00000000000E+00  0.17526008034E+04  0.17526008034E+04  0.00000000000E+00 0. -1.
         21   -1    0    0  503  502 -0.00000000000E+00 -0.00000000000E+00 -0.88230445438E+03  0.88230445438E+03  0.00000000000E+00 0. -1.
         21    1    1    2  503  505 -0.18245128094E+03  0.13815978243E+03 -0.83472009878E+03  0.86552541193E+03  0.00000000000E+00 0. -1.
         21    1    1    2  504  506  0.52311011226E+02 -0.50750677723E+02  0.24187113608E+03  0.25261377566E+03  0.00000000000E+00 0.  1.
         21    1    1    2  505  501  0.78280596009E+02  0.34492614167E+02  0.13159836570E+04  0.13187610009E+04  0.00000000000E+00 0. -1.
         21    1    1    2  506  502  0.51859673708E+02 -0.12190171887E+03  0.14716165474E+03  0.19800506925E+03  0.00000000000E+00 0. -1.
<scales pt_clust_3="219.59122" pt_clust_4="72.88397" pt_clust_5="124.45513" pt_clust_6="14000.00000"></scales>
<clustering>
<clus scale="   72.884">  1  4  2 -1</clus>
<clus scale="  124.455">  1  5  2 -1</clus>
<clus scale="  219.591">  2  3  1 -1</clus>
<clus scale="   72.884">  1  3  2 -1</clus>
</clustering>
</event>
<event>
 6    0  0.4582113E+002  0.9590592E+02  0.7546771E-02  0.1289149E+00
         21   -1    0    0  503  501  0.00000000000E+00  0.00000000000E+00  0.54480677216E+03  0.54480677216E+03  0.00000000000E+00 0.  1.
         21   -1    0    0  504  502 -0.00000000000E+00 -0.00000000000E+00 -0.24090902261E+03  0.24090902261E+03  0.00000000000E+00 0.  1.
         21    1    1    2  503  505 -0.49666916573E+02 -0.53464774279E+02 -0.55117517562E+02  0.91450672129E+02  0.00000000000E+00 0. -1.
         21    1    1    2  504  506  0.25451875706E+02 -0.21354485182E+02  0.11207550403E+02  0.35063103119E+02  0.00000000000E+00 0.  1.
         21    1    1    2  505  502 -0.70430553920E+02  0.48869483563E+02 -0.13861338061E+03  0.16297962643E+03  0.00000000000E+00 0.  1.
         21    1    1    2  506  501  0.94645594787E+02  0.25949775899E+02  0.48642109732E+03  0.49622239308E+03  0.00000000000E+00 0.  1.
<scales pt_clust_3="95.90592" pt_clust_4="33.22367" pt_clust_5="63.96765" pt_clust_6="14000.00000"></scales>
<clustering>
<clus scale="   33.224">  2  4  1 -1</clus>
<clus scale="   63.968">  2  5  1 -1</clus>
<clus scale="   95.906">  2  3  1 -1</clus>
<clus scale="   95.906">  1  3  2 -1</clus>
</clustering>
</event>
<event>
 6    0  0.4582113E+002  0.9819503E+02  0.7546771E-02  0.1284138E+00
         21   -1    0    0  505  501  0.00000000000E+00  0.00000000000E+00  0.13776795088E+03  0.13776795088E+03  0.00000000000E+00 0.  1.
         21   -1    0    0  504  502 -0.00000000000E+00 -0.00000000000E+00 -0.24628754652E+03  0.24628754652E+03  0.00000000000E+00 0.  1.
         21    1    1    2  503  501  0.79925561680E+02 -0.54847003035E+02  0.75437602572E+02  0.12282964232E+03  0.00000000000E+00 0.  1.
         21    1    1    2  504  503 -0.34024123191E+02 -0.19597432653E+02 -0.50148875439E+02  0.63691522460E+02  0.00000000000E+00 0.  1.
         21    1    1    2  505  506 -0.17781785726E+02 -0.24669284444E+02 -0.23300883182E+01  0.30499095235E+02  0.00000000000E+00 0. -1.
         21    1    1    2  506  502 -0.28119652763E+02  0.99113720131E+02 -0.13147823446E+03  0.16703523738E+03  0.00000000000E+00 0.  1.
<scales pt_clust_3="98.19503" pt_clust_4="40.78790" pt_clust_5="30.40996" pt_clust_6="14000.00000"></scales>
<clustering>
<clus scale="   30.410">  1  5  2 -1</clus>
<clus scale="   40.788">  2  4  1 -1</clus>
<clus scale="   98.195">  1  3  2 -1</clus>
<clus scale="   30.410">  1  3  2 -1</clus>
</clustering>
</event>
<event>
 6    0  0.4582113E+002  0.8209851E+02  0.7546771E-02  0.1323199E+00
         21   -1    0    0  504  501  0.00000000000E+00  0.00000000000E+00  0.54017847540E+02  0.54017847540E+02  0.00000000000E+00 0. -1.
         21   -1    0    0  503  502 -0.00000000000E+00 -0.00000000000E+00 -0.67913862984E+03  0.67913862984E+03  0.00000000000E+00 0.  1.
         21    1    1    2  503  506 -0.34492085069E+02 -0.15939859468E+02 -0.30898441662E+03  0.31131198622E+03  0.00000000000E+00 0.  1.
         21    1    1    2  504  505  0.54549993952E+02 -0.98905365313E+01 -0.48487702689E+02  0.73651760774E+02  0.00000000000E+00 0. -1.
         21    1    1    2  505  502 -0.66643509131E+02 -0.61799798449E+02 -0.38936860655E+02  0.98876951385E+02  0.00000000000E+00 0. -1.
         21    1    1    2  506  501  0.46585600248E+02  0.87630194448E+02 -0.22871180234E+03  0.24931577900E+03  0.00000000000E+00 0.  1.
<scales pt_clust_3="37.99715" pt_clust_4="50.42269" pt_clust_5="82.09851" pt_clust_6="14000.00000"></scales>
<clustering>
<clus scale="   37.997">  2  3  1 -1</clus>
<clus scale="   50.423">  1  4  2 -1</clus>
<clus scale="   82.099">  1  5  2 -1</clus>
<clus scale="   50.423">  1  3  2 -1</clus>
</clustering>
</event>
<event>
 6    0  0.4582113E+002  0.1514689E+03  0.7546771E-02  0.1198680E+00
         21   -1    0    0  505  501  0.00000000000E+00  0.00000000000E+00  0.18859945184E+04  0.18859945184E+04  0.00000000000E+00 0. -1.
         21   -1    0    0  506  502 -0.00000000000E+00 -0.00000000000E+00 -0.59502926320E+03  0.59502926320E+03  0.00000000000E+00 0. -1.
         21    1    1    2  503  501 -0.18775065403E+01 -0.32829999231E+02  0.65470871559E+03  0.65553400838E+03  0.00000000000E+00 0. -1.
         21    1    1    2  504  502  0.15164311999E+03  0.11003596308E+03 -0.55030011215E+03  0.58132070532E+03  0.00000000000E+00 0. -1.
         21    1    1    2  505  504 -0.11667524528E+03 -0.61726085021E+02  0.11984902657E+04  0.12057371768E+04  0.00000000000E+00 0. -1.
         21    1    1    2  506  503 -0.33090368171E+02 -0.15479878825E+02 -0.11933613950E+02  0.38431891132E+02  0.00000000000E+00 0. -1.
<scales pt_clust_3="32.88364" pt_clust_4="14000.00000" pt_clust_5="151.46894" pt_clust_6="36.70153"></scales>
<clustering>
<clus scale="   32.884">  1  3  2 -1</clus>
<clus scale="   36.702">  2  6  1 -1</clus>
<clus scale="  151.469">  1  5  2 -1</clus>
<clus scale="   32.884">  1  3  2 -1</clus>
</clustering>
</event>
<event>
 6    0  0.4582113E+002  0.1538382E+03  0.7546771E-02  0.1195834E+00
         21   -1    0    0  505  501  0.00000000000E+00  0.00000000000E+00  0.27559739594E+03  0.27559739594E+03  0.00000000000E+00 0.  1.
         21   -1    0    0  503  502 -0.00000000000E+00 -0.00000000000E+00 -0.17202044153E+04  0.17202044153E+04  0.00000000000E+00 0. -1.
         21    1    1    2  503  506 -0.22965153980E+02 -0.56685096901E+02 -0.85849750999E+02  0.10540767645E+03  0.00000000000E+00 0. -1.
         21    1    1    2  504  502  0.35912074203E+02  0.45013746054E+02 -0.67798452845E+03  0.68042555451E+03  0.00000000000E+00 0. -1.
         21    1    1    2  505  504 -0.27324257449E+01  0.16490766140E+03 -0.91507526334E+03  0.92981973550E+03  0.00000000000E+00 0. -1.
         21    1    1    2  506  501 -0.10214494478E+02 -0.15323631055E+03  0.23430252341E+03  0.28014884480E+03  0.00000000000E+00 0.  1.
<scales pt_clust_3="56.10939" pt_clust_4="57.58398" pt_clust_5="14000.00000" pt_clust_6="153.83823"></scales>
<clustering>
<clus scale="   57.584">  2  4  1 -1</clus>
<clus scale="   56.109">  2  3  1 -1</clus>
<clus scale="  153.838">  1  6  2 -1</clus>
<clus scale="  153.838">  1  3  2 -1</clus>
</clustering>
</event>
<event>
 6    0  0.4582113E+002  0.1192146E+03  0.7546771E-02  0.1244398E+00
         21   -1    0    0  504  501  0.00000000000E+00  0.00000000000E+00  0.46464358572E+02  0.46464358572E+02  0.00000000000E+00 0.  1.
         21   -1    0    0  505  502 -0.00000000000E+00 -0.00000000000E+00 -0.22786812104E+04  0.22786812104E+04  0.00000000000E+00 0.  1.
         21    1    1    2  503  506 -0.37575395600E+02 -0.17506818906E+02 -0.56551104349E+03  0.56702834089E+03  0.00000000000E+00 0. -1.
         21    1    1    2  504  502  0.91566337530E+02  0.91246114395E+02 -0.63474857860E+02  0.14401147573E+03  0.00000000000E+00 0.  1.
         21    1    1    2  505  503 -0.14807626293E+02 -0.73451934667E+02 -0.15227522615E+04  0.15245946682E+04  0.00000000000E+00 0.  1.
         21    1    1    2  506  501 -0.39183315637E+02 -0.28736082227E+00 -0.80478688949E+02  0.89511084093E+02  0.00000000000E+00 0. -1.
<scales pt_clust_3="41.18123" pt_clust_4="105.76589" pt_clust_5="41.18123" pt_clust_6="39.18437"></scales>
<clustering>
<clus scale="   39.184">  1  6  2 -1</clus>
<clus scale="   41.181">  3  5 -1 -1</clus>
<clus scale="  105.766">  1  4  2 -1</clus>
<clus scale="   39.184">  1  3  2 -1</clus>
</clustering>
</event>
<event>
 6    0  0.4582113E+002  0.1199924E+03  0.7546771E-02  0.1243110E+00
         21   -1    0    0  503  501  0.00000000000E+00  0.00000000000E+00  0.17383341836E+03  0.17383341836E+03  0.00000000000E+00 0.  1.
         21   -1    0    0  504  502 -0.00000000000E+00 -0.00000000000E+00 -0.12288958346E+03  0.12288958346E+03  0.00000000000E+00 0.  1.
         21    1    1    2  503  506 -0.46506136634E+02 -0.29676822156E+02  0.15675761057E+02  0.57352105477E+02  0.00000000000E+00 0. -1.
         21    1    1    2  504  505  0.55571971637E+02 -0.65849584109E+02  0.31160583407E+01  0.86221352219E+02  0.00000000000E+00 0.  1.
         21    1    1    2  505  501  0.36073774824E+02 -0.55971059558E+01  0.20316292246E+02  0.41777943412E+02  0.00000000000E+00 0.  1.
         21    1    1    2  506  502 -0.45139609827E+02  0.10112351222E+03  0.11835723256E+02  0.11137160071E+03  0.00000000000E+00 0.  1.
<scales pt_clust_3="55.16824" pt_clust_4="31.42681" pt_clust_5="31.42681" pt_clust_6="109.84988"></scales>
<clustering>
<clus scale="   31.427">  4  5 -1 -1</clus>
<clus scale="   55.168">  1  3  2 -1</clus>
<clus scale="  109.850">  2  6  1 -1</clus>
<clus scale="   55.168">  1  3  2 -1</clus>
</clustering>
</event>
<event>
 6    0  0.4582113E+002  0.6523212E+02  0.7546771E-02  0.1377100E+00
         21   -1    0    0  503  501  0.00000000000E+00  0.00000000000E+00  0.61381595071E+03  0.61381595071E+03  0.00000000000E+00 0. -1.
         21   -1    0    0  505  502 -0.00000000000E+00 -0.00000000000E+00 -0.10061548150E+03  0.10061548150E+03  0.00000000000E+00 0. -1.
         21    1    1    2  503  504  0.27133487051E+02 -0.21796760492E+02  0.39095671749E+03  0.39250284055E+03  0.00000000000E+00 0. -1.
         21    1    1    2  504  502  0.40821879389E+02 -0.90955849179E+02 -0.23633114234E+02  0.10245934035E+03  0.00000000000E+00 0. -1.
         21    1    1    2  505  506 -0.38477625721E+02  0.37178534086E+02  0.11010460881E+01  0.53516197364E+02  0.00000000000E+00 0. -1.
         21    1    1    2  506  501 -0.29477740720E+02  0.75574075585E+02  0.14477581986E+03  0.16595305395E+03  0.00000000000E+00 0. -1.
<scales pt_clust_3="34.80409" pt_clust_4="14000.00000" pt_clust_5="49.24466" pt_clust_6="65.23212"></scales>
<clustering>
<clus scale="   34.804">  1  3  2 -1</clus>
<clus scale="   49.245">  2  5  1 -1</clus>
<clus scale="   65.232">  1  6  2 -1</clus>
<clus scale="   34.804">  1  3  2 -1</clus>
</clustering>
</event>
<event>
 6    0  0.4582113E+002  0.9809989E+02  0.7546771E-02  0.1284343E+00
         21   -1    0    0  506  501  0.00000000000E+00  0.00000000000E+00  0.99268477868E+02  0.99268477868E+02  0.00000000000E+00 0. -1.
         21   -1    0    0  505  502 -0.00000000000E+00 -0.00000000000E+00 -0.18050814462E+03  0.18050814462E+03  0.00000000000E+00 0. -1.
         21    1    1    2  503  501 -0.54924026728E+02  0.71501869143E+01 -0.59462032121E+01  0.55705755695E+02  0.00000000000E+00 0. -1.
         21    1    1    2  504  502  0.34052784802E+02  0.56035149803E+02 -0.37004711043E+02  0.75291957111E+02  0.00000000000E+00 0. -1.
         21    1    1    2  505  503 -0.53021921702E+02 -0.31220105320E+02 -0.52545902310E+01  0.61754593964E+02  0.00000000000E+00 0. -1.
         21    1    1    2  506  504  0.73893163629E+02 -0.31965231398E+02 -0.33034162264E+02  0.87024315716E+02  0.00000000000E+00 0. -1.
<scales pt_clust_3="36.00056" pt_clust_4="65.57080" pt_clust_5="36.00056" pt_clust_6="90.46436"></scales>
<clustering>
<clus scale="   36.001">  3  5 -1 -1</clus>
<clus scale="   65.571">  2  4  1 -1</clus>
<clus scale="   90.464">  2  6  1 -1</clus>
<clus scale="   98.100">  1  3  2 -1</clus>
</clustering>
</event>
<event>
 6    0  0.4582113E+002  0.1804899E+03  0.7546771E-02  0.1167330E+00
         21   -1    0    0  503  501  0.00000000000E+00  0.00000000000E+00  0.16596117084E+04  0.16596117084E+04  0.00000000000E+00 0. -1.
         21   -1    0    0  506  502 -0.00000000000E+00 -0.00000000000E+00 -0.59825659180E+03  0.59825659180E+03  0.00000000000E+00 0. -1.
         21    1    1    2  503  505  0.76121200860E+02  0.37909969792E+02  0.33314594286E+03  0.34382818714E+03  0.00000000000E+00 0. -1.
         21    1    1    2  504  501  0.10418594330E+03 -0.19130635612E+02  0.12890035626E+04  0.12933487064E+04  0.00000000000E+00 0. -1.
         21    1    1    2  505  502  0.37889724577E+02  0.21825319744E+02 -0.80939536376E+02  0.91995567063E+02  0.00000000000E+00 0. -1.
         21    1    1    2  506  504 -0.21819686874E+03 -0.40604653925E+02 -0.47985485243E+03  0.52869583964E+03  0.00000000000E+00 0. -1.
<scales pt_clust_3="85.49433" pt_clust_4="180.48995" pt_clust_5="43.72615" pt_clust_6="14000.00000"></scales>
<clustering>
<clus scale="   43.726">  2  5  1 -1</clus>
<clus scale="   85.494">  1  3  2 -1</clus>
<clus scale="  180.490">  1  4  2 -1</clus>
<clus scale="   85.494">  1  3  2 -1</clus>
</clustering>
</event>
<event>
 6    0  0.4582113E+002  0.9111206E+02  0.7546771E-02  0.1300181E+00
         21   -1    0    0  506  501  0.00000000000E+00  0.00000000000E+00  0.22279186159E+02  0.22279186159E+02  0.00000000000E+00 0.  1.
         21   -1    0    0  503  502 -0.00000000000E+00 -0.00000000000E+00 -0.22875122147E+04  0.22875122147E+04  0.00000000000E+00 0.  1.
         21    1    1    2  503  505 -0.87054333166E+02  0.51051507443E+02 -0.59984584569E+03  0.60827604911E+03  0.00000000000E+00 0.  1.
         21    1    1    2  504  502  0.53969486874E+02 -0.38817758343E+02 -0.84560658170E+03  0.84821578322E+03  0.00000000000E+00 0.  1.
         21    1    1    2  505  501  0.88058903552E+02  0.37634893173E+02 -0.14083689116E+03  0.17031084989E+03  0.00000000000E+00 0.  1.
         21    1    1    2  506  504 -0.54974057261E+02 -0.49868642274E+02 -0.67894370995E+03  0.68298871860E+03  0.00000000000E+00 0.  1.
<scales pt_clust_3="73.21048" pt_clust_4="66.47950" pt_clust_5="91.11206" pt_clust_6="14000.00000"></scales>
<clustering>
<clus scale="   66.479">  2  4  1 -1</clus>
<clus scale="   73.210">  2  3  1 -1</clus>
<clus scale="   91.112">  1  5  2 -1</clus>
<clus scale="   91.112">  1  3  2 -1</clus>
</clustering>
</event>
<event>
 6    0  0.4582113E+002  0.1290422E+03  0.7546771E-02  0.1228884E+00
         21   -1    0    0  504  501  0.00000000000E+00  0.00000000000E+00  0.13042194257E+03  0.13042194257E+03  0.00000000000E+00 0. -1.
         21   -1    0    0  503  502 -0.00000000000E+00 -0.00000000000E+00 -0.17786023424E+03  0.17786023424E+03  0.00000000000E+00 0.  1.
         21    1    1    2  503  506  0.15215000966E+02  0.31352744054E+02 -0.43562334578E+02  0.55786806756E+02  0.00000000000E+00 0.  1.
         21    1    1    2  504  502 -0.54338893357E+02 -0.12261136192E+03  0.10653863006E+01  0.13411709977E+03  0.00000000000E+00 0. -1.
         21    1    1    2  505  501 -0.13810320250E+02  0.32012445559E+02  0.12499901648E+02  0.37037402141E+02  0.00000000000E+00 0.  1.
         21    1    1    2  506  505  0.52934212641E+02  0.59246172305E+02 -0.17441245046E+02  0.81340868139E+02  0.00000000000E+00 0.  1.
<scales pt_clust_3="31.27627" pt_clust_4="120.09081" pt_clust_5="34.86433" pt_clust_6="31.27627"></scales>
<clustering>
<clus scale="   31.276">  3  6 -1 -1</clus>
<clus scale="   34.864">  1  5  2 -1</clus>
<clus scale="  120.091">  1  4  2 -1</clus>
<clus scale="   34.864">  1  3  2 -1</clus>
</clustering>
</event>
<event>
 6    0  0.4582113E+002  0.1694791E+03  0.7546771E-02  0.1178392E+00
         21   -1    0    0  504  501  0.00000000000E+00  0.00000000000E+00  0.70582637354E+03  0.70582637354E+03  0.00000000000E+00 0. -1.
         21   -1    0    0  503  502 -0.00000000000E+00 -0.00000000000E+00 -0.18290953244E+03  0.18290953244E+03  0.00000000000E+00 0. -1.
         21    1    1    2  503  506  0.14115054839E+03 -0.96585647065E+02 -0.11616271686E+03  0.20675115797E+03  0.00000000000E+00 0. -1.
         21    1    1    2  504  502 -0.23989380839E+02 -0.24410017012E+02  0.33653603048E+02  0.47999003341E+02  0.00000000000E+00 0.  1.
         21    1    1    2  505  501  0.82004409351E+01  0.35075963572E+02  0.10663122896E+03  0.11255127472E+03  0.00000000000E+00 0. -1.
         21    1    1    2  506  505 -0.12536160849E+03  0.85919700505E+02  0.49879472595E+03  0.52143446995E+03  0.00000000000E+00 0. -1.
<scales pt_clust_3="169.47909" pt_clust_4="34.22483" pt_clust_5="31.34230" pt_clust_6="14000.00000"></scales>
<clustering>
<clus scale="   34.225">  1  4  2 -1</clus>
<clus scale="   31.342">  1  5  2 -1</clus>
<clus scale="  169.479">  2  3  1 -1</clus>
<clus scale="   34.225">  1  3  2 -1</clus>
</clustering>
</event>
<event>
 6    0  0.4582113E+002  0.2399763E+03  0.7546771E-02  0.1119809E+00
         21   -1    0    0  505  501  0.00000000000E+00  0.00000000000E+00  0.70139213618E+03  0.70139213618E+03  0.00000000000E+00 0. -1.
         21   -1    0    0  506  502 -0.00000000000E+00 -0.00000000000E+00 -0.16234671252E+03  0.16234671252E+03  0.00000000000E+00 0. -1.
         21    1    1    2  503  501 -0.26941959997E+02  0.24255709875E+02  0.15110677492E+03  0.15539454977E+03  0.00000000000E+00 0. -1.
         21    1    1    2  504  502  0.25708521559E+03 -0.53289276014E+02  0.68848787581E+02  0.27142717359E+03  0.00000000000E+00 0. -1.
         21    1    1    2  505  504 -0.21544391520E+03 -0.35568218841E+02  0.18049712991E+03  0.28330265211E+03  0.00000000000E+00 0. -1.
         21    1    1    2  506  503 -0.14699340395E+02  0.64601784980E+02  0.13859273125E+03  0.15361447323E+03  0.00000000000E+00 0. -1.
<scales pt_clust_3="32.50633" pt_clust_4="239.97627" pt_clust_5="14000.00000" pt_clust_6="107.52103"></scales>
<clustering>
<clus scale="   32.506">  3  6 -1 -1</clus>
<clus scale="  107.521">  1  3  2 -1</clus>
<clus scale="  239.976">  2  4  1 -1</clus>
<clus scale="  107.521">  1  3  2 -1</clus>
</clustering>
</event>
<event>
 6    0  0.4582113E+002  0.1285468E+03  0.7546771E-02  0.1229628E+00
         21   -1    0    0  505  501  0.00000000000E+00  0.00000000000E+00  0.18277770469E+04  0.18277770469E+04  0.00000000000E+00 0. -1.
         21   -1    0    0  503  502 -0.00000000000E+00 -0.00000000000E+00 -0.18693696894E+02  0.18693696894E+02  0.00000000000E+00 0. -1.
         21    1    1    2  503  506 -0.66530359275E+02  0.64731951080E+02  0.45207337053E+03  0.46150497997E+03  0.00000000000E+00 0. -1.
         21    1    1    2  504  502  0.31979047612E+02  0.65335770879E+01  0.12786549762E+03  0.13196564931E+03  0.00000000000E+00 0. -1.
         21    1    1    2  505  504  0.50062129187E+02  0.71952089370E+02  0.66507376622E+03  0.67082518919E+03  0.00000000000E+00 0. -1.
         21    1    1    2  506  501 -0.15510817524E+02 -0.14321761754E+03  0.56407071564E+03  0.58217492533E+03  0.00000000000E+00 0. -1.
<scales pt_clust_3="92.82518" pt_clust_4="32.46054" pt_clust_5="32.46054" pt_clust_6="117.02390"></scales>
<clustering>
<clus scale="   32.461">  4  5 -1 -1</clus>
<clus scale="   92.825">  2  3  1 -1</clus>
<clus scale="  117.024">  2  6  1 -1</clus>
<clus scale="  128.547">  1  3  2 -1</clus>
</clustering>
</event>
<event>
 6    0  0.4582113E+002  0.1323361E+03  0.7546771E-02  0.1224030E+00
         21   -1    0    0  503  501  0.00000000000E+00  0.00000000000E+00  0.72206528947E+03  0.72206528947E+03  0.00000000000E+00 0.  1.
         21   -1    0    0  506  502 -0.00000000000E+00 -0.00000000000E+00 -0.64736683829E+03  0.64736683829E+03  0.00000000000E+00 0.  1.
         21    1    1    2  503  502  0.76973570604E+02 -0.14674050049E+03  0.48982903781E+03  0.51709785471E+03  0.00000000000E+00 0.  1.
         21    1    1    2  504  505 -0.11337437808E+03  0.76176088893E+01 -0.42306376765E+01  0.11370873258E+03  0.00000000000E+00 0.  1.
         21    1    1    2  505  501  0.14756585847E+02  0.10357307654E+03  0.14630856985E+03  0.17986477315E+03  0.00000000000E+00 0.  1.
         21    1    1    2  506  504  0.21644221626E+02  0.35549815060E+02 -0.55720851880E+03  0.55876076733E+03  0.00000000000E+00 0.  1.
<scales pt_clust_3="132.33614" pt_clust_4="103.85177" pt_clust_5="14000.00000" pt_clust_6="41.62045"></scales>
<clustering>
<clus scale="   41.620">  2  6  1 -1</clus>
<clus scale="  103.852">  2  4  1 -1</clus>
<clus scale="  132.336">  1  3  2 -1</clus>
<clus scale="  132.336">  1  3  2 -1</clus>
</clustering>
</event>
<event>
 6    0  0.4582113E+002  0.1573417E+03  0.7546771E-02  0.1191731E+00
         21   -1    0    0  506  501  0.00000000000E+00  0.00000000000E+00  0.14566566542E+02  0.14566566542E+02  0.00000000000E+00 0.  1.
         21   -1    0    0  503  502 -0.00000000000E+00 -0.00000000000E+00 -0.43290154055E+04  0.43290154055E+04  0.00000000000E+00 0. -1.
         21    1    1    2  503  505  0.13779562901E+03  0.10284881168E+03 -0.27256523064E+04  0.27310704877E+04  0.00000000000E+00 0. -1.
         21    1    1    2  504  501 -0.66838161549E+02 -0.96357636097E+02 -0.37852510361E+03  0.39627438466E+03  0.00000000000E+00 0.  1.
         21    1    1    2  505  504 -0.35789491637E+02 -0.11784954900E+01 -0.11630774640E+03  0.12169539201E+03  0.00000000000E+00 0.  1.
         21    1    1    2  506  502 -0.35167975828E+02 -0.53126800952E+01 -0.10939636825E+04  0.10945417076E+04  0.00000000000E+00 0. -1.
<scales pt_clust_3="146.18145" pt_clust_4="32.16153" pt_clust_5="32.16153" pt_clust_6="35.56699"></scales>
<clustering>
<clus scale="   32.162">  4  5 -1 -1</clus>
<clus scale="   35.567">  2  6  1 -1</clus>
<clus scale="  146.181">  2  3  1 -1</clus>
<clus scale="  157.342">  1  3  2 -1</clus>
</clustering>
</event>
<event>
 6    0  0.4582113E+002  0.1395716E+03  0.7546771E-02  0.1213907E+00
         21   -1    0    0  502  501  0.00000000000E+00  0.00000000000E+00  0.66456863972E+03  0.66456863972E+03  0.00000000000E+00 0. -1.
         21   -1    0    0  506  502 -0.00000000000E+00 -0.00000000000E+00 -0.28659534874E+03  0.28659534874E+03  0.00000000000E+00 0. -1.
         21    1    1    2  503  505  0.77319261287E+01  0.56923913121E+02 -0.16556328450E+03  0.17524644287E+03  0.00000000000E+00 0. -1.
         21    1    1    2  504  501 -0.84460999506E+01 -0.59092916931E+02  0.23828057286E+03  0.24564393100E+03  0.00000000000E+00 0. -1.
         21    1    1    2  505  504 -0.53967516061E+02 -0.47884804279E+02  0.40198308640E+03  0.40840647525E+03  0.00000000000E+00 0.  1.
         21    1    1    2  506  503  0.54681689883E+02  0.50053808089E+02 -0.96727083781E+02  0.12186713933E+03  0.00000000000E+00 0.  1.
<scales pt_clust_3="56.64481" pt_clust_4="45.52246" pt_clust_5="133.58286" pt_clust_6="56.64481"></scales>
<clustering>
<clus scale="   45.522">  4  5 -1 -1</clus>
<clus scale="   56.645">  3  6 -1 -1</clus>
<clus scale="  133.583">  1  4  2 -1</clus>
<clus scale="  133.583">  1  3  2 -1</clus>
</clustering>
</event>
<event>
 6    0  0.4582113E+002  0.8626939E+02  0.7546771E-02  0.1312146E+00
         21   -1    0    0  503  501  0.00000000000E+00  0.00000000000E+00  0.12251694301E+02  0.12251694301E+02  0.00000000000E+00 0. -1.
         21   -1    0    0  505  502 -0.00000000000E+00 -0.00000000000E+00 -0.19310839772E+04  0.19310839772E+04  0.00000000000E+00 0.  1.
         21    1    1    2  503  504 -0.10655862141E+03 -0.18702530634E+02 -0.70707500813E+03  0.71530384563E+03  0.00000000000E+00 0.  1.
         21    1    1    2  504  502  0.67057032494E+02  0.24551828323E+02 -0.57011112261E+03  0.57456603624E+03  0.00000000000E+00 0. -1.
         21    1    1    2  505  506 -0.73552856187E+00  0.32039882546E+02 -0.50569852329E+03  0.50671302680E+03  0.00000000000E+00 0. -1.
         21    1    1    2  506  501  0.40237117480E+02 -0.37889180236E+02 -0.13594762890E+03  0.14675276286E+03  0.00000000000E+00 0. -1.
<scales pt_clust_3="86.26939" pt_clust_4="14000.00000" pt_clust_5="32.04832" pt_clust_6="53.08481"></scales>
<clustering>
<clus scale="   32.048">  2  5  1 -1</clus>
<clus scale="   53.085">  1  6  2 -1</clus>
<clus scale="   86.269">  1  3  2 -1</clus>
<clus scale="   53.085">  1  3  2 -1</clus>
</clustering>
</event>
<event>
 6    0  0.4582113E+002  0.1124033E+03  0.7546771E-02  0.1256183E+00
         21   -1    0    0  506  501  0.00000000000E+00  0.00000000000E+00  0.17834339417E+03  0.17834339417E+03  0.00000000000E+00 0. -1.
         21   -1    0    0  503  502 -0.00000000000E+00 -0.00000000000E+00 -0.39100920190E+03  0.39100920190E+03  0.00000000000E+00 0. -1.
         21    1    1    2  503  504  0.74218340043E+01 -0.10974752529E+03 -0.26827989974E+03  0.28995466461E+03  0.00000000000E+00 0. -1.
         21    1    1    2  504  501  0.23968970946E+02  0.14155713050E+03  0.83010368414E+02  0.16584225646E+03  0.00000000000E+00 0. -1.
         21    1    1    2  505  502 -0.67840018764E+02 -0.27423216021E+02 -0.14162245236E+02  0.74531001019E+02  0.00000000000E+00 0. -1.
         21    1    1    2  506  505  0.36449213814E+02 -0.43863891901E+01 -0.13234031176E+02  0.39024673976E+02  0.00000000000E+00 0.  1.
<scales pt_clust_3="112.40327" pt_clust_4="14000.00000" pt_clust_5="67.38551" pt_clust_6="36.71220"></scales>
<clustering>
<clus scale="   36.712">  1  6  2 -1</clus>
<clus scale="   67.386">  1  5  2 -1</clus>
<clus scale="  112.403">  2  3  1 -1</clus>
<clus scale="   36.712">  1  3  2 -1</clus>
</clustering>
</event>
<event>
 6    0  0.4582113E+002  0.1073562E+03  0.7546771E-02  0.1265546E+00
         21   -1    0    0  505  501  0.00000000000E+00  0.00000000000E+00  0.72116349921E+03  0.72116349921E+03  0.00000000000E+00 0.  1.
         21   -1    0    0  503  502 -0.00000000000E+00 -0.00000000000E+00 -0.21986141797E+03  0.21986141797E+03  0.00000000000E+00 0. -1.
         21    1    1    2  503  504 -0.11952712289E+03 -0.77563707925E+02  0.30401926129E+02  0.14569536371E+03  0.00000000000E+00 0. -1.
         21    1    1    2  504  501  0.34427995379E+02  0.55610812882E+02  0.52520898256E+03  0.52926583561E+03  0.00000000000E+00 0.  1.
         21    1    1    2  505  506  0.43126853090E+02  0.20595338670E+02  0.97484025263E+02  0.10856900393E+03  0.00000000000E+00 0. -1.
         21    1    1    2  506  502  0.41972274426E+02  0.13575563720E+01 -0.15179285272E+03  0.15749471393E+03  0.00000000000E+00 0. -1.
<scales pt_clust_3="107.35621" pt_clust_4="14000.00000" pt_clust_5="51.08081" pt_clust_6="41.99422"></scales>
<clustering>
<clus scale="   41.994">  2  6  1 -1</clus>
<clus scale="   51.081">  1  5  2 -1</clus>
<clus scale="  107.356">  2  3  1 -1</clus>
<clus scale="   51.081">  1  3  2 -1</clus>
</clustering>
</event>
<event>
 6    0  0.4582113E+002  0.9803908E+02  0.7546771E-02  0.1284474E+00
         21   -1    0    0  504  501  0.00000000000E+00  0.00000000000E+00  0.10675103459E+03  0.10675103459E+03  0.00000000000E+00 0. -1.
         21   -1    0    0  505  502 -0.00000000000E+00 -0.00000000000E+00 -0.42876659648E+03  0.42876659648E+03  0.00000000000E+00 0. -1.
         21    1    1    2  503  506  0.43165713554E+02  0.46833641892E+02 -0.69963524895E+01  0.64075094909E+02  0.00000000000E+00 0. -1.
         21    1    1    2  504  502  0.19897859890E+02 -0.26325940150E+02 -0.12979578116E+02  0.35460533006E+02  0.00000000000E+00 0.  1.
         21    1    1    2  505  503 -0.46357895964E+02 -0.99046573541E+02 -0.33256164184E+03  0.35008073907E+03  0.00000000000E+00 0. -1.
         21    1    1    2  506  501 -0.16705677480E+02  0.78538871799E+02  0.30522010544E+02  0.85901264084E+02  0.00000000000E+00 0. -1.
<scales pt_clust_3="14000.00000" pt_clust_4="32.99970" pt_clust_5="98.03908" pt_clust_6="62.66126"></scales>
<clustering>
<clus scale="   33.000">  1  4  2 -1</clus>
<clus scale="   62.661">  1  6  2 -1</clus>
<clus scale="   98.039">  2  5  1 -1</clus>
<clus scale="   33.000">  1  3  2 -1</clus>
</clustering>
</event>
<event>
 6    0  0.4582113E+002  0.8932260E+02  0.7546771E-02  0.1304500E+00
         21   -1    0    0  506  501  0.00000000000E+00  0.00000000000E+00  0.28257639242E+03  0.28257639242E+03  0.00000000000E+00 0. -1.
         21   -1    0    0  503  502 -0.00000000000E+00 -0.00000000000E+00 -0.94860964614E+03  0.94860964614E+03  0.00000000000E+00 0.  1.
         21    1    1    2  503  505  0.47842042015E+02  0.65513198421E+02  0.18008649541E+03  0.19751452094E+03  0.00000000000E+00 0. -1.
         21    1    1    2  504  502  0.32141516284E+01  0.37261231924E+02 -0.52053057437E+03  0.52187240685E+03  0.00000000000E+00 0.  1.
         21    1    1    2  505  501 -0.39378064523E+02  0.22709309239E+02  0.77291127093E+02  0.89667513733E+02  0.00000000000E+00 0. -1.
         21    1    1    2  506  504 -0.11678129121E+02 -0.12548373958E+03 -0.40288030185E+03  0.42213159704E+03  0.00000000000E+00 0. -1.
<scales pt_clust_3="14000.00000" pt_clust_4="37.39960" pt_clust_5="45.68890" pt_clust_6="89.32260"></scales>
<clustering>
<clus scale="   37.400">  2  4  1 -1</clus>
<clus scale="   45.689">  1  5  2 -1</clus>
<clus scale="   89.323">  2  6  1 -1</clus>
<clus scale="   45.689">  1  3  2 -1</clus>
</clustering>
</event>
<event>
 6    0  0.4582113E+002  0.1460311E+03  0.7546771E-02  0.1205436E+00
         21   -1    0    0  505  501  0.00000000000E+00  0.00000000000E+00  0.24614814380E+04  0.24614814380E+04  0.00000000000E+00 0.  1.
         21   -1    0    0  504  502 -0.00000000000E+00 -0.00000000000E+00 -0.29625394244E+02  0.29625394244E+02  0.00000000000E+00 0.  1.
         21    1    1    2  503  501 -0.44890797140E+02  0.90855988908E+01  0.29583043269E+03  0.29935493429E+03  0.00000000000E+00 0.  1.
         21    1    1    2  504  503  0.11341040932E+03 -0.46370397959E+02  0.15719630192E+03  0.19930582552E+03  0.00000000000E+00 0.  1.
         21    1    1    2  505  506 -0.83694913536E+02  0.84616785433E+02  0.18577898917E+04  0.18615982704E+04  0.00000000000E+00 0.  1.
         21    1    1    2  506  502  0.15175301352E+02 -0.47331986365E+02  0.12103941753E+03  0.13084780204E+03  0.00000000000E+00 0.  1.
<scales pt_clust_3="45.80100" pt_clust_4="14000.00000" pt_clust_5="146.03112" pt_clust_6="48.45983"></scales>
<clustering>
<clus scale="   45.801">  1  3  2 -1</clus>
<clus scale="   48.460">  2  6  1 -1</clus>
<clus scale="  146.031">  1  5  2 -1</clus>
<clus scale="   45.801">  1  3  2 -1</clus>
</clustering>
</event>
<event>
 6    0  0.4582113E+002  0.1184327E+03  0.7546771E-02  0.1245705E+00
         21   -1    0    0  503  501  0.00000000000E+00  0.00000000000E+00  0.88359102784E+02  0.88359102784E+02  0.00000000000E+00 0. -1.
         21   -1    0    0  505  502 -0.00000000000E+00 -0.00000000000E+00 -0.42295609319E+03  0.42295609319E+03  0.00000000000E+00 0.  1.
         21    1    1    2  503  506 -0.33104941491E+02 -0.74619245948E+01  0.14206641359E+01  0.33965213916E+02  0.00000000000E+00 0. -1.
         21    1    1    2  504  502  0.43494458553E+02 -0.68171573837E+02 -0.20833261893E+03  0.22347619899E+03  0.00000000000E+00 0.  1.
         21    1    1    2  505  501  0.60736854428E+02  0.16540916186E+02 -0.14655043398E+03  0.15949795325E+03  0.00000000000E+00 0.  1.
         21    1    1    2  506  504 -0.71126371491E+02  0.59092582246E+02  0.18865398363E+02  0.94375829815E+02  0.00000000000E+00 0. -1.
<scales pt_clust_3="30.47089" pt_clust_4="107.22081" pt_clust_5="62.94893" pt_clust_6="30.47089"></scales>
<clustering>
<clus scale="   30.471">  3  6 -1 -1</clus>
<clus scale="   62.949">  2  5  1 -1</clus>
<clus scale="  107.221">  2  4  1 -1</clus>
<clus scale="  118.433">  1  3  2 -1</clus>
</clustering>
</event>
<event>
 6    0  0.4582113E+002  0.1342353E+03  0.7546771E-02  0.1221303E+00
         21   -1    0    0  503  501  0.00000000000E+00  0.00000000000E+00  0.12695496784E+04  0.12695496784E+04  0.00000000000E+00 0.  1.
         21   -1    0    0  504  502 -0.00000000000E+00 -0.00000000000E+00 -0.27628510194E+02  0.27628510194E+02  0.00000000000E+00 0.  1.
         21    1    1    2  503  506 -0.19823326563E+02  0.14290871122E+03  0.51172409899E+03  0.53167416479E+03  0.00000000000E+00 0.  1.
         21    1    1    2  504  505 -0.19627665565E+02 -0.23765362009E+02  0.34813796222E+02  0.46497721388E+02  0.00000000000E+00 0.  1.
         21    1    1    2  505  501  0.33028571080E+01 -0.12810522423E+03  0.63695487267E+03  0.64971791353E+03  0.00000000000E+00 0.  1.
         21    1    1    2  506  502  0.36148135020E+02  0.89618750243E+01  0.58428400273E+02  0.69288388839E+02  0.00000000000E+00 0.  1.
<scales pt_clust_3="134.23525" pt_clust_4="30.82268" pt_clust_5="14000.00000" pt_clust_6="31.40357"></scales>
<clustering>
<clus scale="   30.823">  2  4  1 -1</clus>
<clus scale="   31.404">  2  6  1 -1</clus>
<clus scale="  134.235">  2  3  1 -1</clus>
<clus scale="  134.235">  1  3  2 -1</clus>
</clustering>
</event>
<event>
 6    0  0.4582113E+002  0.2603907E+03  0.7546771E-02  0.1106909E+00
         21   -1    0    0  506  501  0.00000000000E+00  0.00000000000E+00  0.27549070559E+03  0.27549070559E+03  0.00000000000E+00 0. -1.
         21   -1    0    0  503  502 -0.00000000000E+00 -0.00000000000E+00 -0.90783393731E+03  0.90783393731E+03  0.00000000000E+00 0. -1.
         21    1    1    2  503  505  0.24137102495E+03 -0.11633966845E+03 -0.76950361557E+03  0.81481943061E+03  0.00000000000E+00 0. -1.
         21    1    1    2  504  502 -0.17598557680E+02  0.33949133572E+02 -0.25177964651E+02  0.45784089012E+02  0.00000000000E+00 0.  1.
         21    1    1    2  505  501 -0.89145988747E+02  0.24938737069E+02  0.14943156679E+03  0.17578037737E+03  0.00000000000E+00 0. -1.
         21    1    1    2  506  504 -0.13462647852E+03  0.57451797805E+02  0.12906781707E+02  0.14694074589E+03  0.00000000000E+00 0.  1.
<scales pt_clust_3="249.67506" pt_clust_4="37.78747" pt_clust_5="92.56861" pt_clust_6="37.78747"></scales>
<clustering>
<clus scale="   37.787">  4  6 -1 -1</clus>
<clus scale="   92.569">  1  5  2 -1</clus>
<clus scale="  249.675">  2  3  1 -1</clus>
<clus scale="   92.569">  1  3  2 -1</clus>
</clustering>
</event>
<event>
 6    0  0.4582113E+002  0.1293082E+03  0.7546771E-02  0.1228486E+00
         21   -1    0    0  505  501  0.00000000000E+00  0.00000000000E+00  0.38176071589E+03  0.38176071589E+03  0.00000000000E+00 0.  1.
         21   -1    0    0  503  502 -0.00000000000E+00 -0.00000000000E+00 -0.54393404196E+03  0.54393404196E+03  0.00000000000E+00 0.  1.
         21    1    1    2  503  504 -0.11745796520E+03 -0.94804299962E+02 -0.42103251479E+03  0.44727240848E+03  0.00000000000E+00 0.  1.
         21    1    1    2  504  501  0.26973823166E+02  0.26194872702E+02  0.23613742534E+02  0.44400082529E+02  0.00000000000E+00 0.  1.
         21    1    1    2  505  506  0.59875483641E+02  0.70521717312E+02  0.32566148302E+03  0.33854658125E+03  0.00000000000E+00 0.  1.
         21    1    1    2  506  502  0.30608658390E+02 -0.19122900522E+01 -0.90416036839E+02  0.95475685593E+02  0.00000000000E+00 0.  1.
<scales pt_clust_3="129.30817" pt_clust_4="38.07891" pt_clust_5="14000.00000" pt_clust_6="30.66834"></scales>
<clustering>
<clus scale="   30.668">  2  6  1 -1</clus>
<clus scale="   38.079">  1  4  2 -1</clus>
<clus scale="  129.308">  2  3  1 -1</clus>
<clus scale="   38.079">  1  3  2 -1</clus>
</clustering>
</event>
<event>
 6    0  0.4582113E+002  0.1335613E+03  0.7546771E-02  0.1222265E+00
         21   -1    0    0  506  501  0.00000000000E+00  0.00000000000E+00  0.18647086872E+04  0.18647086872E+04  0.00000000000E+00 0. -1.
         21   -1    0    0  504  502 -0.00000000000E+00 -0.00000000000E+00 -0.31771742174E+03  0.31771742174E+03  0.00000000000E+00 0. -1.
         21    1    1    2  503  505  0.68588974265E+02  0.74297741259E+02 -0.61389689323E+02  0.11829326144E+03  0.00000000000E+00 0.  1.
         21    1    1    2  504  503 -0.32147372822E+01  0.55961237416E+02 -0.22018732529E+03  0.22721015129E+03  0.00000000000E+00 0. -1.
         21    1    1    2  505  501 -0.26768156976E+02 -0.66478438950E+02  0.14061913289E+04  0.14080163247E+04  0.00000000000E+00 0. -1.
         21    1    1    2  506  502 -0.38606080008E+02 -0.63780539724E+02  0.42237695122E+03  0.42890637159E+03  0.00000000000E+00 0. -1.
<scales pt_clust_3="133.56125" pt_clust_4="56.05350" pt_clust_5="71.17352" pt_clust_6="14000.00000"></scales>
<clustering>
<clus scale="   56.053">  2  4  1 -1</clus>
<clus scale="   71.174">  1  5  2 -1</clus>
<clus scale="  133.561">  2  3  1 -1</clus>
<clus scale="   71.174">  1  3  2 -1</clus>
</clustering>
</event>
<event>
 6    0  0.4582113E+002  0.1600665E+03  0.7546771E-02  0.1188622E+00
         21   -1    0    0  503  501  0.00000000000E+00  0.00000000000E+00  0.69048010147E+03  0.69048010147E+03  0.00000000000E+00 0.  1.
         21   -1    0    0  505  502 -0.00000000000E+00 -0.00000000000E+00 -0.48134050747E+03  0.48134050747E+03  0.00000000000E+00 0.  1.
         21    1    1    2  503  504 -0.79278467673E+02 -0.69399300829E+02  0.48558836095E+03  0.49688770832E+03  0.00000000000E+00 0.  1.
         21    1    1    2  504  502  0.54728606035E+01 -0.54163801238E+02  0.17921209305E+03  0.18729827512E+03  0.00000000000E+00 0. -1.
         21    1    1    2  505  506  0.22921531702E+02  0.30861812704E+02 -0.27979583635E+03  0.28242442907E+03  0.00000000000E+00 0.  1.
         21    1    1    2  506  501  0.50884075368E+02  0.92701289363E+02 -0.17586502365E+03  0.20521019643E+03  0.00000000000E+00 0.  1.
<scales pt_clust_3="52.98438" pt_clust_4="52.98438" pt_clust_5="38.44279" pt_clust_6="142.07599"></scales>
<clustering>
<clus scale="   38.443">  2  5  1 -1</clus>
<clus scale="   52.984">  3  4 -1 -1</clus>
<clus scale="  142.076">  2  6  1 -1</clus>
<clus scale="  160.067">  1  3  2 -1</clus>
</clustering>
</event>
<event>
 6    0  0.4582113E+002  0.7634136E+02  0.7546771E-02  0.1339767E+00
         21   -1    0    0  503  501  0.00000000000E+00  0.00000000000E+00  0.95489321421E+02  0.95489321421E+02  0.00000000000E+00 0.  1.
         21   -1    0    0  504  502 -0.00000000000E+00 -0.00000000000E+00 -0.41899981293E+03  0.41899981293E+03  0.00000000000E+00 0.  1.
         21    1    1    2  503  505  0.29788644351E+02  0.45456899952E+01  0.72640032586E+01  0.30996650999E+02  0.00000000000E+00 0.  1.
         21    1    1    2  504  506 -0.96613644418E+02 -0.66450156612E+02 -0.56221622732E+02  0.13004111067E+03  0.00000000000E+00 0.  1.
         21    1    1    2  505  502  0.50180010645E+02  0.69567035606E+01 -0.28968166086E+03  0.29407804038E+03  0.00000000000E+00 0.  1.
         21    1    1    2  506  501  0.16644989422E+02  0.54947763056E+02  0.15128788827E+02  0.59373332305E+02  0.00000000000E+00 0.  1.
<scales pt_clust_3="30.13348" pt_clust_4="14000.00000" pt_clust_5="51.52733" pt_clust_6="76.34136"></scales>
<clustering>
<clus scale="   30.133">  1  3  2 -1</clus>
<clus scale="   51.527">  2  5  1 -1</clus>
<clus scale="   76.341">  1  6  2 -1</clus>
<clus scale="   30.133">  1  3  2 -1</clus>
</clustering>
</event>
<event>
 6    0  0.4582113E+002  0.1013559E+03  0.7546771E-02  0.1277470E+00
         21   -1    0    0  503  501  0.00000000000E+00  0.00000000000E+00  0.76943898439E+03  0.76943898439E+03  0.00000000000E+00 0. -1.
         21   -1    0    0  506  502 -0.00000000000E+00 -0.00000000000E+00 -0.21548019085E+03  0.21548019085E+03  0.00000000000E+00 0.  1.
         21    1    1    2  503  504 -0.86008153185E+02 -0.75714407682E+02  0.71433049894E+03  0.72346260142E+03  0.00000000000E+00 0. -1.
         21    1    1    2  504  505  0.57950432528E+02  0.64334543255E+01 -0.13510756536E+03  0.14715194930E+03  0.00000000000E+00 0.  1.
         21    1    1    2  505  502  0.36161405509E+02  0.39700811823E+02 -0.51155898939E+02  0.74166890889E+02  0.00000000000E+00 0. -1.
         21    1    1    2  506  501 -0.81036848522E+01  0.29580141534E+02  0.25891758908E+02  0.40137733627E+02  0.00000000000E+00 0.  1.
<scales pt_clust_3="14000.00000" pt_clust_4="101.35594" pt_clust_5="53.95896" pt_clust_6="30.67009"></scales>
<clustering>
<clus scale="   30.670">  1  6  2 -1</clus>
<clus scale="   53.959">  2  5  1 -1</clus>
<clus scale="  101.356">  2  4  1 -1</clus>
<clus scale="   30.670">  1  3  2 -1</clus>
</clustering>
</event>
<event>
 6    0  0.4582113E+002  0.8310638E+02  0.7546771E-02  0.1320460E+00
         21   -1    0    0  506  501  0.00000000000E+00  0.00000000000E+00  0.27238814659E+03  0.27238814659E+03  0.00000000000E+00 0.  1.
         21   -1    0    0  503  502 -0.00000000000E+00 -0.00000000000E+00 -0.12745742120E+03  0.12745742120E+03  0.00000000000E+00 0. -1.
         21    1    1    2  503  505 -0.66653478202E+02 -0.61393653328E+02 -0.14412586165E+02  0.91758320960E+02  0.00000000000E+00 0. -1.
         21    1    1    2  504  502 -0.10749222586E+02  0.55891630884E+02 -0.39268674588E+02  0.69148022336E+02  0.00000000000E+00 0. -1.
         21    1    1    2  505  501 -0.21289719706E+02 -0.21483958215E+02  0.51982761588E+02  0.60141667154E+02  0.00000000000E+00 0. -1.
         21    1    1    2  506  504  0.98692420494E+02  0.26985980658E+02  0.14662922456E+03  0.17879755734E+03  0.00000000000E+00 0.  1.
<scales pt_clust_3="83.10638" pt_clust_4="55.76324" pt_clust_5="30.24587" pt_clust_6="14000.00000"></scales>
<clustering>
<clus scale="   30.246">  1  5  2 -1</clus>
<clus scale="   55.763">  2  4  1 -1</clus>
<clus scale="   83.106">  2  3  1 -1</clus>
<clus scale="   30.246">  1  3  2 -1</clus>
</clustering>
</event>
<event>
 6    0  0.4582113E+002  0.1400018E+03  0.7546771E-02  0.1213327E+00
         21   -1    0    0  503  501  0.00000000000E+00  0.00000000000E+00  0.27762778466E+03  0.27762778466E+03  0.00000000000E+00 0.  1.
         21   -1    0    0  506  502 -0.00000000000E+00 -0.00000000000E+00 -0.28164424904E+03  0.28164424904E+03  0.00000000000E+00 0.  1.
         21    1    1    2  503  502  0.38370690219E+02  0.50719323072E+02 -0.18949836447E+03  0.19988594182E+03  0.00000000000E+00 0.  1.
         21    1    1    2  504  501 -0.94170583756E+02 -0.38448535584E+02  0.17508433448E+03  0.20248682158E+03  0.00000000000E+00 0.  1.
         21    1    1    2  505  504 -0.42968796802E+02 -0.16568378625E+02  0.31519458353E+02  0.55805957780E+02  0.00000000000E+00 0.  1.
         21    1    1    2  506  505  0.98768690340E+02  0.42975911365E+01 -0.21121892741E+02  0.10109331251E+03  0.00000000000E+00 0.  1.
<scales pt_clust_3="63.59842" pt_clust_4="31.53128" pt_clust_5="31.53128" pt_clust_6="131.92623"></scales>
<clustering>
<clus scale="   31.531">  4  5 -1 -1</clus>
<clus scale="   63.598">  2  3  1 -1</clus>
<clus scale="  131.926">  2  6  1 -1</clus>
<clus scale="  140.002">  1  3  2 -1</clus>
</clustering>
</event>
<event>
 6    0  0.4582113E+002  0.1557801E+03  0.7546771E-02  0.1193545E+00
         21   -1    0    0  503  501  0.00000000000E+00  0.00000000000E+00  0.10481463484E+04  0.10481463484E+04  0.00000000000E+00 0.  1.
         21   -1    0    0  506  502 -0.00000000000E+00 -0.00000000000E+00 -0.85355951553E+02  0.85355951553E+02  0.00000000000E+00 0. -1.
         21    1    1    2  503  505  0.13803602713E+03 -0.73658967886E+02  0.39840111303E+03  0.42802223681E+03  0.00000000000E+00 0.  1.
         21    1    1    2  504  502 -0.20622999644E+02  0.29326670849E+02 -0.34768208926E+01  0.36020133550E+02  0.00000000000E+00 0.  1.
         21    1    1    2  505  504  0.52518277432E+02  0.77536691666E+02  0.21185612169E+02  0.96015301811E+02  0.00000000000E+00 0. -1.
         21    1    1    2  506  501 -0.16993130492E+03 -0.33204394630E+02  0.54668049257E+03  0.57344462782E+03  0.00000000000E+00 0.  1.
<scales pt_clust_3="14000.00000" pt_clust_4="35.85194" pt_clust_5="102.69534" pt_clust_6="155.78005"></scales>
<clustering>
<clus scale="   35.852">  2  4  1 -1</clus>
<clus scale="  102.695">  2  5  1 -1</clus>
<clus scale="  155.780">  1  6  2 -1</clus>
<clus scale="  155.780">  1  3  2 -1</clus>
</clustering>
</event>
<event>
 6    0  0.4582113E+002  0.1279793E+03  0.7546771E-02  0.1230485E+00
         21   -1    0    0  504  501  0.00000000000E+00  0.00000000000E+00  0.35081071502E+04  0.35081071502E+04  0.00000000000E+00 0. -1.
         21   -1    0    0  505  502 -0.00000000000E+00 -0.00000000000E+00 -0.28620374785E+02  0.28620374785E+02  0.00000000000E+00 0. -1.
         21    1    1    2  503  506  0.74952203866E+01 -0.41588294353E+02  0.79514906065E+03  0.79627118069E+03  0.00000000000E+00 0. -1.
         21    1    1    2  504  503  0.67559450382E+02 -0.48295097847E+02  0.24828329745E+04  0.24842214625E+04  0.00000000000E+00 0. -1.
         21    1    1    2  505  501 -0.99117525344E+02  0.62012950701E+02  0.17655081460E+03  0.21175476387E+03  0.00000000000E+00 0. -1.
         21    1    1    2  506  502  0.24062854575E+02  0.27870441500E+02  0.24953925702E+02  0.44480117892E+02  0.00000000000E+00 0. -1.
<scales pt_clust_3="37.09913" pt_clust_4="37.09913" pt_clust_5="116.72688" pt_clust_6="36.82095"></scales>
<clustering>
<clus scale="   36.821">  2  6  1 -1</clus>
<clus scale="   37.099">  3  4 -1 -1</clus>
<clus scale="  116.727">  2  5  1 -1</clus>
<clus scale="  127.979">  1  3  2 -1</clus>
</clustering>
</event>
<event>
 6    0  0.4582113E+002  0.1398524E+03  0.7546771E-02  0.1213528E+00
         21   -1    0    0  504  501  0.00000000000E+00  0.00000000000E+00  0.48777305946E+03  0.48777305946E+03  0.00000000000E+00 0. -1.
         21   -1    0    0  506  502 -0.00000000000E+00 -0.00000000000E+00 -0.18003572021E+04  0.18003572021E+04  0.00000000000E+00 0.  1.
         21    1    1    2  503  501  0.13404980378E+03  0.64671673783E+02  0.40427412428E+03  0.43080081574E+03  0.00000000000E+00 0. -1.
         21    1    1    2  504  502  0.29268452581E+02  0.31866443912E+02 -0.14969339820E+04  0.14975591671E+04  0.00000000000E+00 0.  1.
         21    1    1    2  505  503 -0.77737195043E+02 -0.79999813154E+02  0.11822767044E+02  0.11217316711E+03  0.00000000000E+00 0. -1.
         21    1    1    2  506  505 -0.85581061315E+02 -0.16538304541E+02 -0.23174705200E+03  0.24759711163E+03  0.00000000000E+00 0.  1.
<scales pt_clust_3="139.85242" pt_clust_4="43.26792" pt_clust_5="14000.00000" pt_clust_6="63.03578"></scales>
<clustering>
<clus scale="   43.268">  2  4  1 -1</clus>
<clus scale="   63.036">  2  6  1 -1</clus>
<clus scale="  139.852">  1  3  2 -1</clus>
<clus scale="  139.852">  1  3  2 -1</clus>
</clustering>
</event>
<event>
 6    0  0.4582113E+002  0.9058226E+02  0.7546771E-02  0.1301448E+00
         21   -1    0    0  505  501  0.00000000000E+00  0.00000000000E+00  0.21816894895E+03  0.21816894895E+03  0.00000000000E+00 0.  1.
         21   -1    0    0  503  502 -0.00000000000E+00 -0.00000000000E+00 -0.18247333082E+03  0.18247333082E+03  0.00000000000E+00 0.  1.
         21    1    1    2  503  506 -0.18992640236E+02  0.10813497735E+03 -0.37810680212E+02  0.11611865159E+03  0.00000000000E+00 0.  1.
         21    1    1    2  504  502 -0.12796975290E+01 -0.77101562899E+02 -0.22488550734E+02  0.80324489052E+02  0.00000000000E+00 0.  1.
         21    1    1    2  505  504  0.76769456673E+02 -0.75923694092E+02  0.54257028587E+02  0.12083783329E+03  0.00000000000E+00 0.  1.
         21    1    1    2  506  501 -0.56497118908E+02  0.44890279640E+02  0.41737820496E+02  0.83361305837E+02  0.00000000000E+00 0.  1.
<scales pt_clust_3="90.58226" pt_clust_4="14000.00000" pt_clust_5="67.75777" pt_clust_6="72.15997"></scales>
<clustering>
<clus scale="   72.160">  1  6  2 -1</clus>
<clus scale="   67.758">  1  5  2 -1</clus>
<clus scale="   90.582">  1  3  2 -1</clus>
<clus scale="   72.160">  1  3  2 -1</clus>
</clustering>
</event>
<event>
 6    0  0.4582113E+002  0.1712888E+03  0.7546771E-02  0.1176511E+00
         21   -1    0    0  503  501  0.00000000000E+00  0.00000000000E+00  0.88837427935E+03  0.88837427935E+03  0.00000000000E+00 0. -1.
         21   -1    0    0  504  502 -0.00000000000E+00 -0.00000000000E+00 -0.55137279896E+03  0.55137279896E+03  0.00000000000E+00 0.  1.
         21    1    1    2  503  505 -0.27449683132E+02  0.11003586858E+03  0.71651678606E+03  0.72543620132E+03  0.00000000000E+00 0. -1.
         21    1    1    2  504  506  0.49788746917E+02 -0.22637239150E+02 -0.18617593172E+01  0.54725040554E+02  0.00000000000E+00 0.  1.
         21    1    1    2  505  502 -0.13518883175E+02 -0.14898626921E+03 -0.50023181649E+03  0.52212214935E+03  0.00000000000E+00 0.  1.
         21    1    1    2  506  501 -0.88201806098E+01  0.61587639780E+02  0.12257827013E+03  0.13746368709E+03  0.00000000000E+00 0.  1.
<scales pt_clust_3="171.28876" pt_clust_4="54.69336" pt_clust_5="14000.00000" pt_clust_6="61.80022"></scales>
<clustering>
<clus scale="   54.693">  2  4  1 -1</clus>
<clus scale="   61.800">  1  6  2 -1</clus>
<clus scale="  171.289">  1  3  2 -1</clus>
<clus scale="   61.800">  1  3  2 -1</clus>
</clustering>
</event>
<event>
 6    0  0.4582113E+002  0.8434053E+02  0.7546771E-02  0.1317166E+00
         21   -1    0    0  506  501  0.00000000000E+00  0.00000000000E+00  0.54297850555E+02  0.54297850555E+02  0.00000000000E+00 0. -1.
         21   -1    0    0  503  502 -0.00000000000E+00 -0.00000000000E+00 -0.16649084812E+04  0.16649084812E+04  0.00000000000E+00 0.  1.
         21    1    1    2  503  504 -0.89922721218E+02  0.20844797829E+02 -0.10105042637E+04  0.10147115197E+04  0.00000000000E+00 0.  1.
         21    1    1    2  504  501  0.68660941867E+02  0.57234612767E+02 -0.78694380852E+02  0.11909211315E+03  0.00000000000E+00 0.  1.
         21    1    1    2  505  502  0.50939139685E+01 -0.29687588542E+02 -0.53236711409E+03  0.53321857155E+03  0.00000000000E+00 0.  1.
         21    1    1    2  506  505  0.16167865382E+02 -0.48391822054E+02  0.10955127994E+02  0.52184127300E+02  0.00000000000E+00 0. -1.
<scales pt_clust_3="84.34053" pt_clust_4="14000.00000" pt_clust_5="30.12144" pt_clust_6="51.56343"></scales>
<clustering>
<clus scale="   30.121">  2  5  1 -1</clus>
<clus scale="   51.563">  1  6  2 -1</clus>
<clus scale="   84.341">  2  3  1 -1</clus>
<clus scale="   51.563">  1  3  2 -1</clus>
</clustering>
</event>
<event>
 6    0  0.4582113E+002  0.1052121E+03  0.7546771E-02  0.1269702E+00
         21   -1    0    0  506  501  0.00000000000E+00  0.00000000000E+00  0.33806143610E+03  0.33806143610E+03  0.00000000000E+00 0.  1.
         21   -1    0    0  503  502 -0.00000000000E+00 -0.00000000000E+00 -0.24173084008E+03  0.24173084008E+03  0.00000000000E+00 0.  1.
         21    1    1    2  503  505  0.20187607451E+02  0.32502225257E+02 -0.16392484158E+03  0.16833088792E+03  0.00000000000E+00 0.  1.
         21    1    1    2  504  502  0.25371023229E+02 -0.17535209572E+02 -0.25806594471E+02  0.40213837328E+02  0.00000000000E+00 0. -1.
         21    1    1    2  505  501  0.68538212372E+02  0.19342440320E+02  0.11749527304E+02  0.72178029514E+02  0.00000000000E+00 0.  1.
         21    1    1    2  506  504 -0.11409684305E+03 -0.34309456005E+02  0.27431250477E+03  0.29906952141E+03  0.00000000000E+00 0.  1.
<scales pt_clust_3="44.43621" pt_clust_4="30.84108" pt_clust_5="105.21212" pt_clust_6="14000.00000"></scales>
<clustering>
<clus scale="   30.841">  2  4  1 -1</clus>
<clus scale="   44.436">  2  3  1 -1</clus>
<clus scale="  105.212">  2  5  1 -1</clus>
<clus scale="  105.212">  1  3  2 -1</clus>
</clustering>
</event>
<event>
 6    0  0.4582113E+002  0.1040705E+03  0.7546771E-02  0.1271962E+00
         21   -1    0    0  505  501  0.00000000000E+00  0.00000000000E+00  0.72915818522E+03  0.72915818522E+03  0.00000000000E+00 0. -1.
         21   -1    0    0  506  502 -0.00000000000E+00 -0.00000000000E+00 -0.25031516843E+03  0.25031516843E+03  0.00000000000E+00 0. -1.
         21    1    1    2  503  501 -0.24915553720E+02  0.38571145354E+02  0.13866746465E+03  0.14607252933E+03  0.00000000000E+00 0. -1.
         21    1    1    2  504  502  0.11707081087E+03 -0.70208401938E+01 -0.12593055704E+03  0.17208536297E+03  0.00000000000E+00 0. -1.
         21    1    1    2  505  504 -0.72307738096E+02 -0.76615823522E+02  0.55218619573E+03  0.56214587801E+03  0.00000000000E+00 0. -1.
         21    1    1    2  506  503 -0.19847519052E+02  0.45065518362E+02 -0.86080086556E+02  0.99169583337E+02  0.00000000000E+00 0. -1.
<scales pt_clust_3="45.91860" pt_clust_4="14000.00000" pt_clust_5="104.07048" pt_clust_6="49.74830"></scales>
<clustering>
<clus scale="   45.919">  1  3  2 -1</clus>
<clus scale="   49.748">  2  6  1 -1</clus>
<clus scale="  104.070">  1  5  2 -1</clus>
<clus scale="   45.919">  1  3  2 -1</clus>
</clustering>
</event>
<event>
 6    0  0.4582113E+002  0.1671807E+03  0.7546771E-02  0.1180820E+00
         21   -1    0    0  505  501  0.00000000000E+00  0.00000000000E+00  0.39744430908E+02  0.39744430908E+02  0.00000000000E+00 0. -1.
         21   -1    0    0  501  502 -0.00000000000E+00 -0.00000000000E+00 -0.10998477394E+04  0.10998477394E+04  0.00000000000E+00 0.  1.
         21    1    1    2  503  506 -0.53770230261E+02  0.17231070734E+02 -0.81242211230E+02  0.98936567286E+02  0.00000000000E+00 0. -1.
         21    1    1    2  504  502  0.43502260924E+02 -0.26866360093E+02 -0.36032242131E+03  0.36393199270E+03  0.00000000000E+00 0.  1.
         21    1    1    2  505  503 -0.10100024661E+03 -0.11099622635E+02 -0.88534157467E+02  0.13476849957E+03  0.00000000000E+00 0. -1.
         21    1    1    2  506  504  0.11126821595E+03  0.20734911994E+02 -0.53000451849E+03  0.54195511075E+03  0.00000000000E+00 0.  1.
<scales pt_clust_3="31.64924" pt_clust_4="42.28405" pt_clust_5="160.60524" pt_clust_6="42.28405"></scales>
<clustering>
<clus scale="   31.649">  3  5 -1 -1</clus>
<clus scale="   42.284">  4  6 -1 -1</clus>
<clus scale="  160.605">  1  3  2 -1</clus>
<clus scale="  160.605">  1  3  2 -1</clus>
</clustering>
</event>
<event>
 6    0  0.4582113E+002  0.1221840E+03  0.7546771E-02  0.1239537E+00
         21   -1    0    0  505  501  0.00000000000E+00  0.00000000000E+00  0.52762070825E+03  0.52762070825E+03  0.00000000000E+00 0.  1.
         21   -1    0    0  504  502 -0.00000000000E+00 -0.00000000000E+00 -0.17447205018E+03  0.17447205018E+03  0.00000000000E+00 0. -1.
         21    1    1    2  503  501 -0.24875502956E+02  0.39252031695E+02  0.11552333544E+03  0.12451969190E+03  0.00000000000E+00 0.  1.
         21    1    1    2  504  506 -0.24780472189E+02  0.24624657528E+02  0.19724861787E+02  0.40118770330E+02  0.00000000000E+00 0.  1.
         21    1    1    2  505  502  0.10525847088E+03 -0.10280612565E+03 -0.12181976969E+03  0.19101963629E+03  0.00000000000E+00 0. -1.
         21    1    1    2  506  503 -0.55602495734E+02  0.38929436423E+02  0.33972023054E+03  0.34643465992E+03  0.00000000000E+00 0.  1.
<scales pt_clust_3="36.82868" pt_clust_4="34.93488" pt_clust_5="113.87137" pt_clust_6="36.82868"></scales>
<clustering>
<clus scale="   34.935">  2  4  1 -1</clus>
<clus scale="   36.829">  3  6 -1 -1</clus>
<clus scale="  113.871">  2  5  1 -1</clus>
<clus scale="  122.184">  1  3  2 -1</clus>
</clustering>
</event>
<event>
 6    0  0.4582113E+002  0.8157765E+02  0.7546771E-02  0.1324633E+00
         21   -1    0    0  503  501  0.00000000000E+00  0.00000000000E+00  0.63994739347E+03  0.63994739347E+03  0.00000000000E+00 0.  1.
         21   -1    0    0  506  502 -0.00000000000E+00 -0.00000000000E+00 -0.14312858428E+04  0.14312858428E+04  0.00000000000E+00 0.  1.
         21    1    1    2  503  505  0.24322451104E+02 -0.22009442825E+02  0.35740825887E+03  0.35891037977E+03  0.00000000000E+00 0.  1.
         21    1    1    2  504  502 -0.26144327764E+02 -0.27670201143E+02 -0.71958312741E+02  0.81407399406E+02  0.00000000000E+00 0.  1.
         21    1    1    2  505  504 -0.10456374996E+03  0.31465700492E+02  0.26405111653E+03  0.28573879725E+03  0.00000000000E+00 0.  1.
         21    1    1    2  506  501  0.10638562662E+03  0.18213943476E+02 -0.13408395120E+04  0.13451766598E+04  0.00000000000E+00 0.  1.
<scales pt_clust_3="32.80240" pt_clust_4="38.06004" pt_clust_5="81.57765" pt_clust_6="14000.00000"></scales>
<clustering>
<clus scale="   32.802">  1  3  2 -1</clus>
<clus scale="   38.060">  2  4  1 -1</clus>
<clus scale="   81.578">  1  5  2 -1</clus>
<clus scale="   32.802">  1  3  2 -1</clus>
</clustering>
</event>
<event>
 6    0  0.4582113E+002  0.1439921E+03  0.7546771E-02  0.1208056E+00
         21   -1    0    0  503  501  0.00000000000E+00  0.00000000000E+00  0.11032313657E+03  0.11032313657E+03  0.00000000000E+00 0.  1.
         21   -1    0    0  505  502 -0.00000000000E+00 -0.00000000000E+00 -0.78465141164E+03  0.78465141164E+03  0.00000000000E+00 0. -1.
         21    1    1    2  503  506 -0.89020096845E+02 -0.63807892429E+02  0.50993204087E+02  0.12081527901E+03  0.00000000000E+00 0.  1.
         21    1    1    2  504  501 -0.28127713685E+02 -0.35730831774E+02 -0.25656706028E+02  0.52212327860E+02  0.00000000000E+00 0.  1.
         21    1    1    2  505  504  0.11713473258E+03  0.50859461854E+02 -0.54703164517E+03  0.56173913096E+03  0.00000000000E+00 0. -1.
         21    1    1    2  506  502  0.13077952913E-01  0.48679262349E+02 -0.15263312797E+03  0.16020781038E+03  0.00000000000E+00 0.  1.
<scales pt_clust_3="143.99215" pt_clust_4="45.47374" pt_clust_5="14000.00000" pt_clust_6="47.29725"></scales>
<clustering>
<clus scale="   45.474">  1  4  2 -1</clus>
<clus scale="   47.297">  2  6  1 -1</clus>
<clus scale="  143.992">  1  3  2 -1</clus>
<clus scale="   45.474">  1  3  2 -1</clus>
</clustering>
</event>
<event>
 6    0  0.4582113E+002  0.9447838E+02  0.7546771E-02  0.1292355E+00
         21   -1    0    0  504  501  0.00000000000E+00  0.00000000000E+00  0.25286165031E+04  0.25286165031E+04  0.00000000000E+00 0. -1.
         21   -1    0    0  505  502 -0.00000000000E+00 -0.00000000000E+00 -0.13526052638E+04  0.13526052638E+04  0.00000000000E+00 0. -1.
         21    1    1    2  503  501 -0.11323219748E+03 -0.33732175581E+02 -0.27885183960E+02  0.12139593774E+03  0.00000000000E+00 0. -1.
         21    1    1    2  504  506  0.16223424928E+02  0.27260136110E+02  0.32694650026E+03  0.32848185425E+03  0.00000000000E+00 0. -1.
         21    1    1    2  505  503  0.56915239486E+02 -0.42985417029E+02 -0.12757302549E+04  0.12777224948E+04  0.00000000000E+00 0. -1.
         21    1    1    2  506  502  0.40093533062E+02  0.49457456500E+02  0.21526801779E+04  0.21536214801E+04  0.00000000000E+00 0. -1.
<scales pt_clust_3="14000.00000" pt_clust_4="31.72246" pt_clust_5="71.32227" pt_clust_6="94.47838"></scales>
<clustering>
<clus scale="   31.722">  1  4  2 -1</clus>
<clus scale="   71.322">  2  5  1 -1</clus>
<clus scale="   94.478">  1  6  2 -1</clus>
<clus scale="   31.722">  1  3  2 -1</clus>
</clustering>
</event>
<event>
 6    0  0.4582113E+002  0.1170787E+03  0.7546771E-02  0.1247996E+00
         21   -1    0    0  505  501  0.00000000000E+00  0.00000000000E+00  0.33924214276E+03  0.33924214276E+03  0.00000000000E+00 0. -1.
         21   -1    0    0  503  502 -0.00000000000E+00 -0.00000000000E+00 -0.39891938272E+03  0.39891938272E+03  0.00000000000E+00 0.  1.
         21    1    1    2  503  504 -0.13518704441E+03 -0.59704707774E+02 -0.30064824296E+03  0.33500679859E+03  0.00000000000E+00 0.  1.
         21    1    1    2  504  501  0.40368300417E+02  0.22275536833E+02  0.23520998943E+03  0.23968633325E+03  0.00000000000E+00 0. -1.
         21    1    1    2  505  506  0.82325018388E+02 -0.16474445219E+01  0.55269616828E+02  0.99170828726E+02  0.00000000000E+00 0. -1.
         21    1    1    2  506  502  0.12493725609E+02  0.39076615463E+02 -0.49508603260E+02  0.64297564902E+02  0.00000000000E+00 0. -1.
<scales pt_clust_3="117.07866" pt_clust_4="46.30189" pt_clust_5="14000.00000" pt_clust_6="41.02530"></scales>
<clustering>
<clus scale="   41.025">  2  6  1 -1</clus>
<clus scale="   46.302">  1  4  2 -1</clus>
<clus scale="  117.079">  2  3  1 -1</clus>
<clus scale="   46.302">  1  3  2 -1</clus>
</clustering>
</event>
<event>
 6    0  0.4582113E+002  0.1150741E+03  0.7546771E-02  0.1251452E+00
         21   -1    0    0  505  501  0.00000000000E+00  0.00000000000E+00  0.14233463891E+03  0.14233463891E+03  0.00000000000E+00 0. -1.
         21   -1    0    0  504  502 -0.00000000000E+00 -0.00000000000E+00 -0.20705157586E+04  0.20705157586E+04  0.00000000000E+00 0. -1.
         21    1    1    2  503  501  0.19458364359E+02  0.75295408124E+02 -0.68684492958E+02  0.10375734191E+03  0.00000000000E+00 0. -1.
         21    1    1    2  504  503  0.71011930099E+02 -0.36484318339E+02 -0.15089282632E+04  0.15110388159E+04  0.00000000000E+00 0. -1.
         21    1    1    2  505  506 -0.10478657209E+03  0.76088259738E+01  0.99898755122E+02  0.14497545033E+03  0.00000000000E+00 0. -1.
         21    1    1    2  506  502  0.14316277636E+02 -0.46419915759E+02 -0.45046711860E+03  0.45307878931E+03  0.00000000000E+00 0. -1.
<scales pt_clust_3="75.57816" pt_clust_4="115.07405" pt_clust_5="14000.00000" pt_clust_6="48.57741"></scales>
<clustering>
<clus scale="   48.577">  2  6  1 -1</clus>
<clus scale="   75.578">  1  3  2 -1</clus>
<clus scale="  115.074">  2  4  1 -1</clus>
<clus scale="   75.578">  1  3  2 -1</clus>
</clustering>
</event>
<event>
 6    0  0.4582113E+002  0.1224215E+03  0.7546771E-02  0.1239155E+00
         21   -1    0    0  506  501  0.00000000000E+00  0.00000000000E+00  0.79517597866E+03  0.79517597866E+03  0.00000000000E+00 0. -1.
         21   -1    0    0  503  502 -0.00000000000E+00 -0.00000000000E+00 -0.62349057289E+02  0.62349057289E+02  0.00000000000E+00 0. -1.
         21    1    1    2  503  501 -0.29383028416E+02  0.12968330451E+02  0.23417854928E+02  0.39748407301E+02  0.00000000000E+00 0. -1.
         21    1    1    2  504  505 -0.49297440232E+02  0.42294256435E+02  0.36978106511E+03  0.37544250939E+03  0.00000000000E+00 0. -1.
         21    1    1    2  505  502  0.13237188932E+03 -0.62789849373E+02  0.61369516822E+02  0.15884300381E+03  0.00000000000E+00 0. -1.
         21    1    1    2  506  504 -0.53691420670E+02  0.75272624866E+01  0.27825848450E+03  0.28349111544E+03  0.00000000000E+00 0. -1.
<scales pt_clust_3="32.11760" pt_clust_4="30.97370" pt_clust_5="117.63352" pt_clust_6="30.97370"></scales>
<clustering>
<clus scale="   30.974">  4  6 -1 -1</clus>
<clus scale="   32.118">  2  3  1 -1</clus>
<clus scale="  117.634">  2  5  1 -1</clus>
<clus scale="  122.421">  1  3  2 -1</clus>
</clustering>
</event>
<event>
 6    0  0.4582113E+002  0.6831748E+02  0.7546771E-02  0.1365910E+00
         21   -1    0    0  505  501  0.00000000000E+00  0.00000000000E+00  0.45739378053E+03  0.45739378053E+03  0.00000000000E+00 0.  1.
         21   -1    0    0  506  502 -0.00000000000E+00 -0.00000000000E+00 -0.22834113066E+03  0.22834113066E+03  0.00000000000E+00 0.  1.
         21    1    1    2  503  501  0.35474031971E+01  0.40420211166E+02  0.82098979885E+02  0.91578491133E+02  0.00000000000E+00 0.  1.
         21    1    1    2  504  503  0.53238445310E+02 -0.23095009607E+01  0.33988738056E+03  0.34403938338E+03  0.00000000000E+00 0.  1.
         21    1    1    2  505  502 -0.10521965863E+03 -0.25487954529E+02 -0.14360988958E+03  0.17984608079E+03  0.00000000000E+00 0.  1.
         21    1    1    2  506  504  0.48433810127E+02 -0.12622755676E+02 -0.49323820987E+02  0.70270955886E+02  0.00000000000E+00 0.  1.
<scales pt_clust_3="40.57558" pt_clust_4="68.31748" pt_clust_5="14000.00000" pt_clust_6="49.87338"></scales>
<clustering>
<clus scale="   40.576">  1  3  2 -1</clus>
<clus scale="   49.873">  2  6  1 -1</clus>
<clus scale="   68.317">  1  4  2 -1</clus>
<clus scale="   40.576">  1  3  2 -1</clus>
</clustering>
</event>
<event>
 6    0  0.4582113E+002  0.1597612E+03  0.7546771E-02  0.1188967E+00
         21   -1    0    0  504  501  0.00000000000E+00  0.00000000000E+00  0.35541170080E+03  0.35541170080E+03  0.00000000000E+00 0. -1.
         21   -1    0    0  506  502 -0.00000000000E+00 -0.00000000000E+00 -0.79971381590E+03  0.79971381590E+03  0.00000000000E+00 0. -1.
         21    1    1    2  503  502  0.69781107212E+02  0.38838688408E+02 -0.52402031244E+02  0.95518686755E+02  0.00000000000E+00 0. -1.
         21    1    1    2  504  503  0.14198806178E+03 -0.15296841513E+02 -0.39151690652E+03  0.41674943448E+03  0.00000000000E+00 0. -1.
         21    1    1    2  505  501 -0.15249478285E+03  0.50965776151E+02  0.29310657472E+03  0.33431068376E+03  0.00000000000E+00 0. -1.
         21    1    1    2  506  505 -0.59274386141E+02 -0.74507623046E+02 -0.29348975206E+03  0.30854671171E+03  0.00000000000E+00 0.  1.
<scales pt_clust_3="79.86142" pt_clust_4="159.76117" pt_clust_5="14000.00000" pt_clust_6="65.80579"></scales>
<clustering>
<clus scale="   79.861">  2  3  1 -1</clus>
<clus scale="   65.806">  2  6  1 -1</clus>
<clus scale="  159.761">  2  4  1 -1</clus>
<clus scale="  159.761">  1  3  2 -1</clus>
</clustering>
</event>
<event>
 6    0  0.4582113E+002  0.9512599E+02  0.7546771E-02  0.1290893E+00
         21   -1    0    0  504  501  0.00000000000E+00  0.00000000000E+00  0.88185250836E+03  0.88185250836E+03  0.00000000000E+00 0. -1.
         21   -1    0    0  503  502 -0.00000000000E+00 -0.00000000000E+00 -0.10919506542E+03  0.10919506542E+03  0.00000000000E+00 0. -1.
         21    1    1    2  503  506 -0.28160077289E+02 -0.23865140598E+02 -0.87504293607E+02  0.94971239269E+02  0.00000000000E+00 0. -1.
         21    1    1    2  504  505 -0.34294710279E+02  0.83004358497E+02  0.60156693726E+03  0.60823402625E+03  0.00000000000E+00 0. -1.
         21    1    1    2  505  502  0.38271562433E+02 -0.83222618042E+02  0.20112212932E+03  0.22099960983E+03  0.00000000000E+00 0. -1.
         21    1    1    2  506  501  0.24183225135E+02  0.24083400143E+02  0.57472669960E+02  0.66842698425E+02  0.00000000000E+00 0. -1.
<scales pt_clust_3="36.75758" pt_clust_4="95.12599" pt_clust_5="14000.00000" pt_clust_6="34.12973"></scales>
<clustering>
<clus scale="   34.130">  1  6  2 -1</clus>
<clus scale="   36.758">  2  3  1 -1</clus>
<clus scale="   95.126">  1  4  2 -1</clus>
<clus scale="   34.130">  1  3  2 -1</clus>
</clustering>
</event>
<event>
 6    0  0.4582113E+002  0.1061884E+03  0.7546771E-02  0.1267796E+00
         21   -1    0    0  506  501  0.00000000000E+00  0.00000000000E+00  0.27911023745E+03  0.27911023745E+03  0.00000000000E+00 0. -1.
         21   -1    0    0  504  502 -0.00000000000E+00 -0.00000000000E+00 -0.12547808393E+03  0.12547808393E+03  0.00000000000E+00 0. -1.
         21    1    1    2  503  501 -0.26294152167E+02 -0.40747643788E+02  0.11577294823E+03  0.12551943457E+03  0.00000000000E+00 0. -1.
         21    1    1    2  504  505  0.51777368132E+02  0.11287941533E+03 -0.47590988082E+01  0.12427915061E+03  0.00000000000E+00 0. -1.
         21    1    1    2  505  503  0.51163182813E+02 -0.16080654389E+02  0.19456375550E+02  0.57050935756E+02  0.00000000000E+00 0. -1.
         21    1    1    2  506  502 -0.76646398778E+02 -0.56051117152E+02  0.23161928545E+02  0.97738800450E+02  0.00000000000E+00 0. -1.
<scales pt_clust_3="48.49488" pt_clust_4="106.18839" pt_clust_5="51.77017" pt_clust_6="14000.00000"></scales>
<clustering>
<clus scale="   48.495">  1  3  2 -1</clus>
<clus scale="   51.770">  1  5  2 -1</clus>
<clus scale="  106.188">  2  4  1 -1</clus>
<clus scale="   48.495">  1  3  2 -1</clus>
</clustering>
</event>
<event>
 6    0  0.4582113E+002  0.1104071E+03  0.7546771E-02  0.1259818E+00
         21   -1    0    0  505  501  0.00000000000E+00  0.00000000000E+00  0.15991993510E+03  0.15991993510E+03  0.00000000000E+00 0.  1.
         21   -1    0    0  504  502 -0.00000000000E+00 -0.00000000000E+00 -0.18279348675E+03  0.18279348675E+03  0.00000000000E+00 0.  1.
         21    1    1    2  503  502 -0.39796903613E+02 -0.20839255579E+02 -0.30915391679E+02  0.54532830047E+02  0.00000000000E+00 0.  1.
         21    1    1    2  504  501  0.23877296416E+01  0.12666492152E+03  0.31311369206E+02  0.13049944612E+03  0.00000000000E+00 0.  1.
         21    1    1    2  505  506  0.59925308405E+02 -0.46151341835E+02  0.22803563971E+02  0.78999946015E+02  0.00000000000E+00 0.  1.
         21    1    1    2  506  503 -0.22516134434E+02 -0.59674324108E+02 -0.46073093153E+02  0.78681199662E+02  0.00000000000E+00 0.  1.
<scales pt_clust_3="31.99493" pt_clust_4="103.61631" pt_clust_5="75.63722" pt_clust_6="31.99493"></scales>
<clustering>
<clus scale="   31.995">  3  6 -1 -1</clus>
<clus scale="   75.637">  1  5  2 -1</clus>
<clus scale="  103.616">  1  4  2 -1</clus>
<clus scale="   75.637">  1  3  2 -1</clus>
</clustering>
</event>
<event>
 6    0  0.4582113E+002  0.2793958E+03  0.7546771E-02  0.1096019E+00
         21   -1    0    0  504  501  0.00000000000E+00  0.00000000000E+00  0.38220195393E+03  0.38220195393E+03  0.00000000000E+00 0. -1.
         21   -1    0    0  503  502 -0.00000000000E+00 -0.00000000000E+00 -0.11476401505E+04  0.11476401505E+04  0.00000000000E+00 0. -1.
         21    1    1    2  503  501  0.32271380382E+03  0.64938787989E+02 -0.87255342152E+03  0.93258282140E+03  0.00000000000E+00 0. -1.
         21    1    1    2  504  506 -0.10973215740E+03  0.22678065345E+02  0.90306041140E+02  0.14391185525E+03  0.00000000000E+00 0. -1.
         21    1    1    2  505  502 -0.57784393566E+02 -0.45223292991E+02 -0.18279823961E+03  0.19697557913E+03  0.00000000000E+00 0.  1.
         21    1    1    2  506  505 -0.15519725286E+03 -0.42393560343E+02  0.19960742347E+03  0.25637184860E+03  0.00000000000E+00 0. -1.
<scales pt_clust_3="269.18596" pt_clust_4="62.45725" pt_clust_5="73.37699" pt_clust_6="62.45725"></scales>
<clustering>
<clus scale="   62.457">  4  6 -1 -1</clus>
<clus scale="   73.377">  2  5  1 -1</clus>
<clus scale="  269.186">  2  3  1 -1</clus>
<clus scale="  279.396">  1  3  2 -1</clus>
</clustering>
</event>
<event>
 6    0  0.4582113E+002  0.8714294E+02  0.7546771E-02  0.1309922E+00
         21   -1    0    0  506  501  0.00000000000E+00  0.00000000000E+00  0.47929038220E+03  0.47929038220E+03  0.00000000000E+00 0.  1.
         21   -1    0    0  504  502 -0.00000000000E+00 -0.00000000000E+00 -0.47089779255E+03  0.47089779255E+03  0.00000000000E+00 0.  1.
         21    1    1    2  503  505 -0.41894512690E+02 -0.47010066797E+02 -0.26301456194E+02  0.68241213146E+02  0.00000000000E+00 0. -1.
         21    1    1    2  504  503  0.93760032322E+02  0.22286201256E+02 -0.40117400489E+03  0.41258720367E+03  0.00000000000E+00 0.  1.
         21    1    1    2  505  501 -0.56432978064E+00  0.39972043533E+02  0.11453996784E+02  0.41584573758E+02  0.00000000000E+00 0. -1.
         21    1    1    2  506  502 -0.51301189852E+02 -0.15248177992E+02  0.42441405395E+03  0.42777518418E+03  0.00000000000E+00 0.  1.
<scales pt_clust_3="87.14294" pt_clust_4="14000.00000" pt_clust_5="39.97603" pt_clust_6="56.45305"></scales>
<clustering>
<clus scale="   39.976">  1  5  2 -1</clus>
<clus scale="   56.453">  1  6  2 -1</clus>
<clus scale="   87.143">  1  3  2 -1</clus>
<clus scale="   39.976">  1  3  2 -1</clus>
</clustering>
</event>
<event>
 6    0  0.4582113E+002  0.8609911E+02  0.7546771E-02  0.1312583E+00
         21   -1    0    0  504  501  0.00000000000E+00  0.00000000000E+00  0.93214808782E+03  0.93214808782E+03  0.00000000000E+00 0. -1.
         21   -1    0    0  506  502 -0.00000000000E+00 -0.00000000000E+00 -0.58377221416E+02  0.58377221416E+02  0.00000000000E+00 0. -1.
         21    1    1    2  503  502  0.52775195731E+02 -0.56783109498E+02  0.66258476072E+02  0.10197905893E+03  0.00000000000E+00 0. -1.
         21    1    1    2  504  503 -0.72242308715E+02 -0.63854628311E+01  0.56272202045E+03  0.56737623990E+03  0.00000000000E+00 0. -1.
         21    1    1    2  505  501 -0.15353682144E+02  0.78414967133E+02  0.26592993107E+03  0.27767493741E+03  0.00000000000E+00 0. -1.
         21    1    1    2  506  505  0.34820795128E+02 -0.15246394804E+02 -0.21139561188E+02  0.43495072998E+02  0.00000000000E+00 0. -1.
<scales pt_clust_3="14000.00000" pt_clust_4="69.56557" pt_clust_5="86.09911" pt_clust_6="38.01237"></scales>
<clustering>
<clus scale="   38.012">  2  6  1 -1</clus>
<clus scale="   69.566">  1  4  2 -1</clus>
<clus scale="   86.099">  1  5  2 -1</clus>
<clus scale="   69.566">  1  3  2 -1</clus>
</clustering>
</event>
<event>
 6    0  0.4582113E+002  0.2076723E+03  0.7546771E-02  0.1143423E+00
         21   -1    0    0  506  501  0.00000000000E+00  0.00000000000E+00  0.84358892786E+03  0.84358892786E+03  0.00000000000E+00 0.  1.
         21   -1    0    0  505  502 -0.00000000000E+00 -0.00000000000E+00 -0.24153313052E+03  0.24153313052E+03  0.00000000000E+00 0.  1.
         21    1    1    2  503  501 -0.48702403853E+02 -0.49459782479E+02  0.32198779520E+03  0.32938478180E+03  0.00000000000E+00 0.  1.
         21    1    1    2  504  503 -0.11763110907E+03 -0.62399523275E+02  0.42759582670E+03  0.44784927078E+03  0.00000000000E+00 0.  1.
         21    1    1    2  505  504 -0.21463690391E+02 -0.27672912506E+02 -0.29770010286E+02  0.45964481986E+02  0.00000000000E+00 0.  1.
         21    1    1    2  506  502  0.18779720331E+03  0.13953221826E+03 -0.11775781428E+03  0.26192352382E+03  0.00000000000E+00 0.  1.
<scales pt_clust_3="32.59286" pt_clust_4="32.59286" pt_clust_5="35.02114" pt_clust_6="202.70654"></scales>
<clustering>
<clus scale="   32.593">  3  4 -1 -1</clus>
<clus scale="   35.021">  2  5  1 -1</clus>
<clus scale="  202.707">  2  6  1 -1</clus>
<clus scale="  207.672">  1  3  2 -1</clus>
</clustering>
</event>
<event>
 6    0  0.4582113E+002  0.5003393E+03  0.7546771E-02  0.1013690E+00
         21   -1    0    0  505  501  0.00000000000E+00  0.00000000000E+00  0.12261008053E+04  0.12261008053E+04  0.00000000000E+00 0. -1.
         21   -1    0    0  503  502 -0.00000000000E+00 -0.00000000000E+00 -0.39047736094E+03  0.39047736094E+03  0.00000000000E+00 0. -1.
         21    1    1    2  503  504 -0.15772756896E+02 -0.39525294162E+02 -0.57052629135E+02  0.71176057982E+02  0.00000000000E+00 0. -1.
         21    1    1    2  504  501 -0.41908598412E+03  0.21164426259E+03  0.15655801762E+03  0.49491086960E+03  0.00000000000E+00 0. -1.
         21    1    1    2  505  506 -0.10395938878E+03 -0.34214823363E+02  0.36698496535E+03  0.38295714309E+03  0.00000000000E+00 0.  1.
         21    1    1    2  506  502  0.53881812979E+03 -0.13790414506E+03  0.36913309054E+03  0.66753409557E+03  0.00000000000E+00 0. -1.
<scales pt_clust_3="42.55618" pt_clust_4="14000.00000" pt_clust_5="110.11687" pt_clust_6="500.33933"></scales>
<clustering>
<clus scale="   42.556">  2  3  1 -1</clus>
<clus scale="  110.117">  1  5  2 -1</clus>
<clus scale="  500.339">  1  6  2 -1</clus>
<clus scale="  110.117">  1  3  2 -1</clus>
</clustering>
</event>
<event>
 6    0  0.4582113E+002  0.1436254E+03  0.7546771E-02  0.1208532E+00
         21   -1    0    0  504  501  0.00000000000E+00  0.00000000000E+00  0.30817655787E+03  0.30817655787E+03  0.00000000000E+00 0.  1.
         21   -1    0    0  506  502 -0.00000000000E+00 -0.00000000000E+00 -0.33502328087E+03  0.33502328087E+03  0.00000000000E+00 0.  1.
         21    1    1    2  503  502 -0.40057909136E+02  0.28875491276E+02 -0.16060657727E+03  0.16802649417E+03  0.00000000000E+00 0.  1.
         21    1    1    2  504  503  0.92748541755E+02  0.11434613045E+03  0.17463542081E+03  0.22841816860E+03  0.00000000000E+00 0.  1.
         21    1    1    2  505  501  0.23070866901E+02 -0.25586686251E+02  0.63465303638E+02  0.72213490282E+02  0.00000000000E+00 0.  1.
         21    1    1    2  506  505 -0.75761499520E+02 -0.11763493548E+03 -0.10434087018E+03  0.17454168569E+03  0.00000000000E+00 0.  1.
<scales pt_clust_3="48.86073" pt_clust_4="14000.00000" pt_clust_5="34.45205" pt_clust_6="143.62541"></scales>
<clustering>
<clus scale="   34.452">  1  5  2 -1</clus>
<clus scale="   48.861">  2  3  1 -1</clus>
<clus scale="  143.625">  2  6  1 -1</clus>
<clus scale="   34.452">  1  3  2 -1</clus>
</clustering>
</event>
<event>
 6    0  0.4582113E+002  0.1258530E+03  0.7546771E-02  0.1233742E+00
         21   -1    0    0  506  501  0.00000000000E+00  0.00000000000E+00  0.99283247689E+02  0.99283247689E+02  0.00000000000E+00 0.  1.
         21   -1    0    0  503  502 -0.00000000000E+00 -0.00000000000E+00 -0.59349390525E+03  0.59349390525E+03  0.00000000000E+00 0.  1.
         21    1    1    2  503  501  0.70561502189E+02 -0.14627511743E+01 -0.11136516159E+01  0.70585447877E+02  0.00000000000E+00 0.  1.
         21    1    1    2  504  502  0.82168731489E+02 -0.69144912439E+02 -0.41517383677E+03  0.42883800449E+03  0.00000000000E+00 0.  1.
         21    1    1    2  505  504 -0.89894528044E+02  0.37008724665E+02 -0.73664741391E+02  0.12197198858E+03  0.00000000000E+00 0.  1.
         21    1    1    2  506  505 -0.62835705633E+02  0.33598938948E+02 -0.42584277837E+01  0.71381712000E+02  0.00000000000E+00 0.  1.
<scales pt_clust_3="70.57666" pt_clust_4="113.30188" pt_clust_5="46.90530" pt_clust_6="46.90530"></scales>
<clustering>
<clus scale="   46.905">  5  6 -1 -1</clus>
<clus scale="   70.577">  1  3  2 -1</clus>
<clus scale="  113.302">  2  4  1 -1</clus>
<clus scale="   70.577">  1  3  2 -1</clus>
</clustering>
</event>
<event>
 6    0  0.4582113E+002  0.1828615E+03  0.7546771E-02  0.1165062E+00
         21   -1    0    0  504  501  0.00000000000E+00  0.00000000000E+00  0.33676511534E+03  0.33676511534E+03  0.00000000000E+00 0. -1.
         21   -1    0    0  503  502 -0.00000000000E+00 -0.00000000000E+00 -0.56757468000E+03  0.56757468000E+03  0.00000000000E+00 0.  1.
         21    1    1    2  503  501  0.74763727136E+02 -0.15539795915E+02  0.46367158109E+02  0.89336518308E+02  0.00000000000E+00 0. -1.
         21    1    1    2  504  506 -0.32193999845E+02  0.37836847714E+01  0.63054230095E+02  0.70898560136E+02  0.00000000000E+00 0. -1.
         21    1    1    2  505  502  0.17710897481E+02 -0.18063576532E+03 -0.47034519865E+03  0.50415033621E+03  0.00000000000E+00 0.  1.
         21    1    1    2  506  505 -0.60280624771E+02  0.19239187647E+03  0.13011424579E+03  0.23995438068E+03  0.00000000000E+00 0. -1.
<scales pt_clust_3="68.24439" pt_clust_4="32.41558" pt_clust_5="182.86151" pt_clust_6="14000.00000"></scales>
<clustering>
<clus scale="   32.416">  1  4  2 -1</clus>
<clus scale="   68.244">  1  3  2 -1</clus>
<clus scale="  182.862">  2  5  1 -1</clus>
<clus scale="   32.416">  1  3  2 -1</clus>
</clustering>
</event>
<event>
 6    0  0.4582113E+002  0.2547249E+03  0.7546771E-02  0.1110355E+00
         21   -1    0    0  503  501  0.00000000000E+00  0.00000000000E+00  0.86129184167E+03  0.86129184167E+03  0.00000000000E+00 0.  1.
         21   -1    0    0  506  502 -0.00000000000E+00 -0.00000000000E+00 -0.38480589698E+03  0.38480589698E+03  0.00000000000E+00 0.  1.
         21    1    1    2  503  502 -0.75956765331E+02  0.24044435835E+03 -0.19125478013E+03  0.31648271767E+03  0.00000000000E+00 0.  1.
         21    1    1    2  504  505  0.12894552410E+03 -0.16010134596E+03  0.63562729211E+03  0.66804299536E+03  0.00000000000E+00 0.  1.
         21    1    1    2  505  501 -0.20735651594E+02 -0.78466215401E+02  0.13290659802E+03  0.15572757625E+03  0.00000000000E+00 0.  1.
         21    1    1    2  506  504 -0.32253107178E+02 -0.18767969858E+01 -0.10079316531E+03  0.10584444937E+03  0.00000000000E+00 0.  1.
<scales pt_clust_3="14000.00000" pt_clust_4="254.72490" pt_clust_5="81.57689" pt_clust_6="32.30767"></scales>
<clustering>
<clus scale="   32.308">  2  6  1 -1</clus>
<clus scale="   81.577">  1  5  2 -1</clus>
<clus scale="  254.725">  1  4  2 -1</clus>
<clus scale="   81.577">  1  3  2 -1</clus>
</clustering>
</event>
<event>
 6    0  0.4582113E+002  0.2091053E+03  0.7546771E-02  0.1142276E+00
         21   -1    0    0  504  501  0.00000000000E+00  0.00000000000E+00  0.43760680337E+03  0.43760680337E+03  0.00000000000E+00 0. -1.
         21   -1    0    0  505  502 -0.00000000000E+00 -0.00000000000E+00 -0.54296990361E+03  0.54296990361E+03  0.00000000000E+00 0. -1.
         21    1    1    2  503  502 -0.28183885924E+02  0.43085587428E+02 -0.12404248161E+03  0.13430277925E+03  0.00000000000E+00 0. -1.
         21    1    1    2  504  506 -0.21148566633E+03  0.38136388649E+02  0.29804019711E+03  0.36743506950E+03  0.00000000000E+00 0. -1.
         21    1    1    2  505  501  0.53561387997E+02 -0.27712375661E+02 -0.27874090780E+03  0.28518992221E+03  0.00000000000E+00 0. -1.
         21    1    1    2  506  503  0.18610816425E+03 -0.53509600416E+02 -0.61990793919E+00  0.19364893603E+03  0.00000000000E+00 0. -1.
<scales pt_clust_3="51.48494" pt_clust_4="14000.00000" pt_clust_5="34.39605" pt_clust_6="209.10535"></scales>
<clustering>
<clus scale="   51.485">  2  3  1 -1</clus>
<clus scale="   34.396">  2  5  1 -1</clus>
<clus scale="  209.105">  2  6  1 -1</clus>
<clus scale="  209.105">  1  3  2 -1</clus>
</clustering>
</event>
<event>
 6    0  0.4582113E+002  0.1036827E+03  0.7546771E-02  0.1272737E+00
         21   -1    0    0  506  501  0.00000000000E+00  0.00000000000E+00  0.60983309169E+03  0.60983309169E+03  0.00000000000E+00 0. -1.
         21   -1    0    0  503  502 -0.00000000000E+00 -0.00000000000E+00 -0.21145221524E+03  0.21145221524E+03  0.00000000000E+00 0. -1.
         21    1    1    2  503  505  0.15368149917E+02  0.69101900456E+02  0.70621374958E+02  0.99993156163E+02  0.00000000000E+00 0.  1.
         21    1    1    2  504  502 -0.22774018108E+02  0.60703796724E+02 -0.17233488013E+03  0.18412744974E+03  0.00000000000E+00 0. -1.
         21    1    1    2  505  501  0.38141390105E+02 -0.13851636641E+03  0.47583424985E+03  0.49705108664E+03  0.00000000000E+00 0. -1.
         21    1    1    2  506  504 -0.30735521915E+02  0.87106692287E+01  0.24260131771E+02  0.40113614389E+02  0.00000000000E+00 0. -1.
<scales pt_clust_3="103.68271" pt_clust_4="65.02921" pt_clust_5="14000.00000" pt_clust_6="31.94602"></scales>
<clustering>
<clus scale="   31.946">  1  6  2 -1</clus>
<clus scale="   65.029">  2  4  1 -1</clus>
<clus scale="  103.683">  2  3  1 -1</clus>
<clus scale="   31.946">  1  3  2 -1</clus>
</clustering>
</event>
<event>
 6    0  0.4582113E+002  0.1151272E+03  0.7546771E-02  0.1251359E+00
         21   -1    0    0  503  501  0.00000000000E+00  0.00000000000E+00  0.72833962868E+03  0.72833962868E+03  0.00000000000E+00 0.  1.
         21   -1    0    0  506  502 -0.00000000000E+00 -0.00000000000E+00 -0.34731107335E+03  0.34731107335E+03  0.00000000000E+00 0.  1.
         21    1    1    2  503  502 -0.68891958230E+02  0.76472189578E+02  0.59845243715E+03  0.60723917629E+03  0.00000000000E+00 0.  1.
         21    1    1    2  504  501 -0.39336772199E+02 -0.28465104990E+02  0.10171945742E+03  0.11271420437E+03  0.00000000000E+00 0.  1.
         21    1    1    2  505  504  0.91993255375E+02 -0.87448255369E+01 -0.11676342157E+03  0.14890576760E+03  0.00000000000E+00 0.  1.
         21    1    1    2  506  505  0.16235475055E+02 -0.39262259051E+02 -0.20237991767E+03  0.20679155378E+03  0.00000000000E+00 0.  1.
<scales pt_clust_3="14000.00000" pt_clust_4="48.96139" pt_clust_5="115.12721" pt_clust_6="42.48665"></scales>
<clustering>
<clus scale="   42.487">  2  6  1 -1</clus>
<clus scale="   48.961">  1  4  2 -1</clus>
<clus scale="  115.127">  2  5  1 -1</clus>
<clus scale="   48.961">  1  3  2 -1</clus>
</clustering>
</event>
<event>
 6    0  0.4582113E+002  0.9843049E+02  0.7546771E-02  0.1283631E+00
         21   -1    0    0  505  501  0.00000000000E+00  0.00000000000E+00  0.61789597560E+03  0.61789597560E+03  0.00000000000E+00 0. -1.
         21   -1    0    0  506  502 -0.00000000000E+00 -0.00000000000E+00 -0.20610632754E+03  0.20610632754E+03  0.00000000000E+00 0. -1.
         21    1    1    2  503  501 -0.40594735129E+02  0.11276198158E+03  0.42134468279E+03  0.43805768881E+03  0.00000000000E+00 0. -1.
         21    1    1    2  504  502  0.87888592448E+02 -0.53044430517E+02  0.48004064720E+02  0.11332478335E+03  0.00000000000E+00 0. -1.
         21    1    1    2  505  504  0.38704077919E+02 -0.10157109580E+02  0.87867281537E+02  0.96549633284E+02  0.00000000000E+00 0. -1.
         21    1    1    2  506  503 -0.85997935238E+02 -0.49560441483E+02 -0.14542638099E+03  0.17607019769E+03  0.00000000000E+00 0. -1.
<scales pt_clust_3="97.59218" pt_clust_4="14000.00000" pt_clust_5="40.01465" pt_clust_6="98.43049"></scales>
<clustering>
<clus scale="   40.015">  1  5  2 -1</clus>
<clus scale="   98.430">  2  6  1 -1</clus>
<clus scale="   97.592">  1  3  2 -1</clus>
<clus scale="   40.015">  1  3  2 -1</clus>
</clustering>
</event>
<event>
 6    0  0.4582113E+002  0.6092154E+02  0.7546771E-02  0.1394005E+00
         21   -1    0    0  505  501  0.00000000000E+00  0.00000000000E+00  0.28743075260E+03  0.28743075260E+03  0.00000000000E+00 0. -1.
         21   -1    0    0  503  502 -0.00000000000E+00 -0.00000000000E+00 -0.28320544442E+03  0.28320544442E+03  0.00000000000E+00 0.  1.
         21    1    1    2  503  506 -0.39866063527E+02 -0.20986613481E+02 -0.12732377882E+03  0.13505956322E+03  0.00000000000E+00 0.  1.
         21    1    1    2  504  502 -0.35153432708E+01 -0.87622258458E+02 -0.11018577678E+03  0.14082231080E+03  0.00000000000E+00 0. -1.
         21    1    1    2  505  504  0.14597667830E+02  0.58343325820E+02  0.22721353109E+03  0.23503834641E+03  0.00000000000E+00 0. -1.
         21    1    1    2  506  501  0.28783738968E+02  0.50265546119E+02  0.14521332683E+02  0.59715976577E+02  0.00000000000E+00 0.  1.
<scales pt_clust_3="45.05265" pt_clust_4="60.92154" pt_clust_5="14000.00000" pt_clust_6="52.39461"></scales>
<clustering>
<clus scale="   45.053">  2  3  1 -1</clus>
<clus scale="   52.395">  2  6  1 -1</clus>
<clus scale="   60.922">  2  4  1 -1</clus>
<clus scale="   60.922">  1  3  2 -1</clus>
</clustering>
</event>
<event>
 6    0  0.4582113E+002  0.9747859E+02  0.7546771E-02  0.1285689E+00
         21   -1    0    0  505  501  0.00000000000E+00  0.00000000000E+00  0.14667200902E+04  0.14667200902E+04  0.00000000000E+00 0. -1.
         21   -1    0    0  504  502 -0.00000000000E+00 -0.00000000000E+00 -0.92439003095E+02  0.92439003095E+02  0.00000000000E+00 0. -1.
         21    1    1    2  503  501  0.41635544770E+02  0.78013955855E+02  0.88373033139E+03  0.88814356638E+03  0.00000000000E+00 0. -1.
         21    1    1    2  504  503  0.51290851519E+02  0.18774300841E+02 -0.43744833975E+02  0.69977398645E+02  0.00000000000E+00 0. -1.
         21    1    1    2  505  506 -0.77376221653E+02 -0.17719701964E+03  0.37860745190E+03  0.42512288351E+03  0.00000000000E+00 0. -1.
         21    1    1    2  506  502 -0.15550174636E+02  0.80408762940E+02  0.15568813776E+03  0.17591524473E+03  0.00000000000E+00 0. -1.
<scales pt_clust_3="97.47859" pt_clust_4="54.61891" pt_clust_5="14000.00000" pt_clust_6="85.75113"></scales>
<clustering>
<clus scale="   54.619">  2  4  1 -1</clus>
<clus scale="   85.751">  2  6  1 -1</clus>
<clus scale="   97.479">  1  3  2 -1</clus>
<clus scale="   97.479">  1  3  2 -1</clus>
</clustering>
</event>
<event>
 6    0  0.4582113E+002  0.7454251E+02  0.7546771E-02  0.1345294E+00
         21   -1    0    0  505  501  0.00000000000E+00  0.00000000000E+00  0.59500790687E+03  0.59500790687E+03  0.00000000000E+00 0.  1.
         21   -1    0    0  506  502 -0.00000000000E+00 -0.00000000000E+00 -0.40967094807E+02  0.40967094807E+02  0.00000000000E+00 0.  1.
         21    1    1    2  503  502  0.16413578471E+01  0.96245502678E+02  0.24220143534E+03  0.26062890500E+03  0.00000000000E+00 0.  1.
         21    1    1    2  504  501  0.64647620576E+02 -0.19482774697E+02  0.43033674879E+02  0.80067412407E+02  0.00000000000E+00 0.  1.
         21    1    1    2  505  503 -0.20329700846E+02 -0.61026158646E+02  0.20642029674E+03  0.21621014704E+03  0.00000000000E+00 0.  1.
         21    1    1    2  506  504 -0.45959277577E+02 -0.15736569334E+02  0.62385405105E+02  0.79068537232E+02  0.00000000000E+00 0.  1.
<scales pt_clust_3="74.54251" pt_clust_4="47.90070" pt_clust_5="14000.00000" pt_clust_6="48.57875"></scales>
<clustering>
<clus scale="   48.579">  2  6  1 -1</clus>
<clus scale="   47.901">  2  4  1 -1</clus>
<clus scale="   74.543">  2  3  1 -1</clus>
<clus scale="   74.543">  1  3  2 -1</clus>
</clustering>
</event>
<event>
 6    0  0.4582113E+002  0.8416413E+02  0.7546771E-02  0.1317633E+00
         21   -1    0    0  504  501  0.00000000000E+00  0.00000000000E+00  0.17079957994E+03  0.17079957994E+03  0.00000000000E+00 0.  1.
         21   -1    0    0  506  502 -0.00000000000E+00 -0.00000000000E+00 -0.25599979103E+04  0.25599979103E+04  0.00000000000E+00 0.  1.
         21    1    1    2  503  502  0.61325914444E+02 -0.32368226842E+02 -0.63340016090E+02  0.93917663565E+02  0.00000000000E+00 0. -1.
         21    1    1    2  504  503 -0.27227672298E+01 -0.66938272717E+02 -0.13500334662E+01  0.67007226521E+02  0.00000000000E+00 0.  1.
         21    1    1    2  505  501 -0.27954011848E+02  0.19265831236E+02  0.11956777437E+03  0.12429421426E+03  0.00000000000E+00 0.  1.
         21    1    1    2  506  505 -0.30649135367E+02  0.80040668323E+02 -0.24440760551E+04  0.24455783859E+04  0.00000000000E+00 0.  1.
<scales pt_clust_3="14000.00000" pt_clust_4="58.11957" pt_clust_5="33.94995" pt_clust_6="84.16413"></scales>
<clustering>
<clus scale="   33.950">  1  5  2 -1</clus>
<clus scale="   58.120">  1  4  2 -1</clus>
<clus scale="   84.164">  2  6  1 -1</clus>
<clus scale="   33.950">  1  3  2 -1</clus>
</clustering>
</event>
<event>
 6    0  0.4582113E+002  0.1356378E+03  0.7546771E-02  0.1219322E+00
         21   -1    0    0  504  501  0.00000000000E+00  0.00000000000E+00  0.13941684761E+03  0.13941684761E+03  0.00000000000E+00 0.  1.
         21   -1    0    0  503  502 -0.00000000000E+00 -0.00000000000E+00 -0.80578608782E+03  0.80578608782E+03  0.00000000000E+00 0.  1.
         21    1    1    2  503  501  0.13500475476E+03  0.39016440119E+02 -0.66941293369E+02  0.15565893217E+03  0.00000000000E+00 0.  1.
         21    1    1    2  504  505 -0.44547774478E+02  0.61688947904E+01  0.86311522739E+01  0.45793626886E+02  0.00000000000E+00 0. -1.
         21    1    1    2  505  506 -0.70079833940E+02  0.74984579034E+02  0.19494703139E+02  0.10446967822E+03  0.00000000000E+00 0.  1.
         21    1    1    2  506  502 -0.20377146339E+02 -0.12016991394E+03 -0.62755380225E+03  0.63928069815E+03  0.00000000000E+00 0.  1.
<scales pt_clust_3="127.80842" pt_clust_4="30.06341" pt_clust_5="30.06341" pt_clust_6="121.88534"></scales>
<clustering>
<clus scale="   30.063">  4  5 -1 -1</clus>
<clus scale="  121.885">  2  6  1 -1</clus>
<clus scale="  127.808">  2  3  1 -1</clus>
<clus scale="  135.638">  1  3  2 -1</clus>
</clustering>
</event>
<event>
 6    0  0.4582113E+002  0.3746362E+03  0.7546771E-02  0.1052934E+00
         21   -1    0    0  505  501  0.00000000000E+00  0.00000000000E+00  0.30696968470E+04  0.30696968470E+04  0.00000000000E+00 0. -1.
         21   -1    0    0  501  502 -0.00000000000E+00 -0.00000000000E+00 -0.53005760241E+02  0.53005760241E+02  0.00000000000E+00 0. -1.
         21    1    1    2  503  502 -0.35259377693E+02 -0.17091903429E+02  0.90498966060E+02  0.98617542739E+02  0.00000000000E+00 0. -1.
         21    1    1    2  504  503 -0.22902639000E+03  0.26392158025E+03  0.95979448968E+03  0.10214270166E+04  0.00000000000E+00 0. -1.
         21    1    1    2  505  506  0.85035351235E+02 -0.99013506233E+02  0.10122971744E+04  0.10206763712E+04  0.00000000000E+00 0. -1.
         21    1    1    2  506  504  0.17925041645E+03 -0.14781617059E+03  0.95410045656E+03  0.98198167666E+03  0.00000000000E+00 0. -1.
<scales pt_clust_3="39.18363" pt_clust_4="356.65742" pt_clust_5="86.49960" pt_clust_6="86.49960"></scales>
<clustering>
<clus scale="   39.184">  2  3  1 -1</clus>
<clus scale="   86.500">  5  6 -1 -1</clus>
<clus scale="  356.657">  2  4  1 -1</clus>
<clus scale="  374.636">  1  3  2 -1</clus>
</clustering>
</event>
<event>
 6    0  0.4582113E+002  0.7338272E+02  0.7546771E-02  0.1348954E+00
         21   -1    0    0  505  501  0.00000000000E+00  0.00000000000E+00  0.49311946068E+02  0.49311946068E+02  0.00000000000E+00 0. -1.
         21   -1    0    0  503  502 -0.00000000000E+00 -0.00000000000E+00 -0.77417482239E+03  0.77417482239E+03  0.00000000000E+00 0. -1.
         21    1    1    2  503  506  0.28649241730E+02 -0.60639976387E+02 -0.24894885206E+03  0.25782458520E+03  0.00000000000E+00 0. -1.
         21    1    1    2  504  502 -0.10814953431E+02  0.79361540758E+02 -0.43628455886E+03  0.44357573611E+03  0.00000000000E+00 0. -1.
         21    1    1    2  505  504  0.40444003883E+02  0.41054748557E+01 -0.43296275297E+02  0.59389728308E+02  0.00000000000E+00 0. -1.
         21    1    1    2  506  501 -0.58278292182E+02 -0.22827039227E+02  0.36668098908E+01  0.62696718848E+02  0.00000000000E+00 0. -1.
<scales pt_clust_3="14000.00000" pt_clust_4="73.38272" pt_clust_5="40.65184" pt_clust_6="32.32140"></scales>
<clustering>
<clus scale="   40.652">  1  5  2 -1</clus>
<clus scale="   32.321">  1  6  2 -1</clus>
<clus scale="   73.383">  2  4  1 -1</clus>
<clus scale="   40.652">  1  3  2 -1</clus>
</clustering>
</event>
<event>
 6    0  0.4582113E+002  0.7066937E+02  0.7546771E-02  0.1357832E+00
         21   -1    0    0  504  501  0.00000000000E+00  0.00000000000E+00  0.18350646008E+03  0.18350646008E+03  0.00000000000E+00 0.  1.
         21   -1    0    0  505  502 -0.00000000000E+00 -0.00000000000E+00 -0.39071417083E+03  0.39071417083E+03  0.00000000000E+00 0. -1.
         21    1    1    2  503  501  0.53129629645E+02  0.52406605848E+02  0.14194424824E+03  0.16036639140E+03  0.00000000000E+00 0.  1.
         21    1    1    2  504  502 -0.67673187830E+02  0.44955301274E+01 -0.31927614472E+02  0.74961608227E+02  0.00000000000E+00 0. -1.
         21    1    1    2  505  506 -0.41538860924E+02 -0.40232543493E+01 -0.98170839662E+02  0.10667322674E+03  0.00000000000E+00 0. -1.
         21    1    1    2  506  503  0.56082419109E+02 -0.52878881626E+02 -0.21905350485E+03  0.23221940454E+03  0.00000000000E+00 0. -1.
<scales pt_clust_3="14000.00000" pt_clust_4="70.66937" pt_clust_5="41.73324" pt_clust_6="60.78419"></scales>
<clustering>
<clus scale="   41.733">  2  5  1 -1</clus>
<clus scale="   60.784">  2  6  1 -1</clus>
<clus scale="   70.669">  2  4  1 -1</clus>
<clus scale="   70.669">  1  3  2 -1</clus>
</clustering>
</event>
<event>
 6    0  0.4582113E+002  0.1632913E+03  0.7546771E-02  0.1185030E+00
         21   -1    0    0  503  501  0.00000000000E+00  0.00000000000E+00  0.37872068480E+02  0.37872068480E+02  0.00000000000E+00 0.  1.
         21   -1    0    0  505  502 -0.00000000000E+00 -0.00000000000E+00 -0.25578089156E+04  0.25578089156E+04  0.00000000000E+00 0. -1.
         21    1    1    2  503  502  0.80371511287E+01 -0.30632954151E+02 -0.13364002623E+04  0.13367754617E+04  0.00000000000E+00 0. -1.
         21    1    1    2  504  506  0.12534046528E+02 -0.69700660215E+02 -0.95956546061E+02  0.11925998109E+03  0.00000000000E+00 0.  1.
         21    1    1    2  505  504  0.24050314951E+02  0.17467843678E+03 -0.10034741790E+04  0.10188480759E+04  0.00000000000E+00 0. -1.
         21    1    1    2  506  501 -0.44621512607E+02 -0.74344822417E+02 -0.84105859693E+02  0.12079746538E+03  0.00000000000E+00 0.  1.
<scales pt_clust_3="31.66976" pt_clust_4="53.35581" pt_clust_5="152.43900" pt_clust_6="53.35581"></scales>
<clustering>
<clus scale="   31.670">  2  3  1 -1</clus>
<clus scale="   53.356">  4  6 -1 -1</clus>
<clus scale="  152.439">  2  5  1 -1</clus>
<clus scale="  163.291">  1  3  2 -1</clus>
</clustering>
</event>
<event>
 6    0  0.4582113E+002  0.3791455E+03  0.7546771E-02  0.1051250E+00
         21   -1    0    0  504  501  0.00000000000E+00  0.00000000000E+00  0.17235731721E+03  0.17235731721E+03  0.00000000000E+00 0.  1.
         21   -1    0    0  505  502 -0.00000000000E+00 -0.00000000000E+00 -0.14466632017E+04  0.14466632017E+04  0.00000000000E+00 0.  1.
         21    1    1    2  503  501 -0.32356441721E+03 -0.18045853277E+03 -0.17938108666E+03  0.41162700153E+03  0.00000000000E+00 0.  1.
         21    1    1    2  504  506  0.16267638462E+03  0.16085461687E+03 -0.43719340931E+03  0.49343276242E+03  0.00000000000E+00 0.  1.
         21    1    1    2  505  503  0.22396337578E+02 -0.72128938311E+02 -0.40185652527E+03  0.40889221878E+03  0.00000000000E+00 0.  1.
         21    1    1    2  506  502  0.13849169501E+03  0.91732854214E+02 -0.25587486321E+03  0.30506853616E+03  0.00000000000E+00 0.  1.
<scales pt_clust_3="375.49073" pt_clust_4="44.75116" pt_clust_5="75.52602" pt_clust_6="44.75116"></scales>
<clustering>
<clus scale="   44.751">  4  6 -1 -1</clus>
<clus scale="   75.526">  2  5  1 -1</clus>
<clus scale="  375.491">  1  3  2 -1</clus>
<clus scale="  375.491">  1  3  2 -1</clus>
</clustering>
</event>
<event>
 6    0  0.4582113E+002  0.6640198E+02  0.7546771E-02  0.1372774E+00
         21   -1    0    0  504  501  0.00000000000E+00  0.00000000000E+00  0.76286456026E+02  0.76286456026E+02  0.00000000000E+00 0.  1.
         21   -1    0    0  506  502 -0.00000000000E+00 -0.00000000000E+00 -0.87725552252E+03  0.87725552252E+03  0.00000000000E+00 0.  1.
         21    1    1    2  503  505 -0.34969939672E+01 -0.65345873845E+02  0.32238631928E+01  0.65518741511E+02  0.00000000000E+00 0.  1.
         21    1    1    2  504  502  0.15730181392E+02  0.81752351441E+02 -0.46928642401E+03  0.47661371501E+03  0.00000000000E+00 0.  1.
         21    1    1    2  505  501 -0.38685498962E+02  0.38065344408E+02  0.14995450615E+02  0.56306321261E+02  0.00000000000E+00 0.  1.
         21    1    1    2  506  503  0.26452311537E+02 -0.54471822004E+02 -0.34990195629E+03  0.35510320076E+03  0.00000000000E+00 0.  1.
<scales pt_clust_3="49.09820" pt_clust_4="14000.00000" pt_clust_5="54.27281" pt_clust_6="66.40198"></scales>
<clustering>
<clus scale="   54.273">  1  5  2 -1</clus>
<clus scale="   49.098">  1  3  2 -1</clus>
<clus scale="   66.402">  2  6  1 -1</clus>
<clus scale="   54.273">  1  3  2 -1</clus>
</clustering>
</event>
<event>
 6    0  0.4582113E+002  0.1031238E+03  0.7546771E-02  0.1273861E+00
         21   -1    0    0  506  501  0.00000000000E+00  0.00000000000E+00  0.78994441077E+02  0.78994441077E+02  0.00000000000E+00 0.  1.
         21   -1    0    0  505  502 -0.00000000000E+00 -0.00000000000E+00 -0.36712043972E+03  0.36712043972E+03  0.00000000000E+00 0.  1.
         21    1    1    2  503  502  0.19473540665E+02 -0.24511654862E+02 -0.12028495004E+03  0.12429203199E+03  0.00000000000E+00 0.  1.
         21    1    1    2  504  503 -0.18880864268E+02 -0.33024116136E+02 -0.80825788045E+02  0.89330214906E+02  0.00000000000E+00 0.  1.
         21    1    1    2  505  501 -0.13847460083E+02  0.13448396510E+03 -0.38514638767E+02  0.14057406026E+03  0.00000000000E+00 0.  1.
         21    1    1    2  506  504  0.13254783686E+02 -0.76948194097E+02 -0.48500621783E+02  0.91918573633E+02  0.00000000000E+00 0.  1.
<scales pt_clust_3="31.30559" pt_clust_4="43.27202" pt_clust_5="103.12383" pt_clust_6="14000.00000"></scales>
<clustering>
<clus scale="   31.306">  2  3  1 -1</clus>
<clus scale="   43.272">  2  4  1 -1</clus>
<clus scale="  103.124">  2  5  1 -1</clus>
<clus scale="  103.124">  1  3  2 -1</clus>
</clustering>
</event>
<event>
 6    0  0.4582113E+002  0.9484139E+02  0.7546771E-02  0.1291534E+00
         21   -1    0    0  502  501  0.00000000000E+00  0.00000000000E+00  0.33969851140E+03  0.33969851140E+03  0.00000000000E+00 0. -1.
         21   -1    0    0  504  502 -0.00000000000E+00 -0.00000000000E+00 -0.34749655592E+03  0.34749655592E+03  0.00000000000E+00 0.  1.
         21    1    1    2  503  501  0.25981509252E+02  0.95626416252E+02  0.26882261363E+03  0.28650488287E+03  0.00000000000E+00 0. -1.
         21    1    1    2  504  505 -0.48212140907E+01 -0.41482874101E+02 -0.13240915427E+03  0.13883896097E+03  0.00000000000E+00 0.  1.
         21    1    1    2  505  506 -0.59249335464E+02  0.30483602001E+02 -0.15471680456E+03  0.16845481103E+03  0.00000000000E+00 0.  1.
         21    1    1    2  506  503  0.38089040302E+02 -0.84627144152E+02  0.10505300684E+02  0.93396412463E+02  0.00000000000E+00 0.  1.
<scales pt_clust_3="94.84139" pt_clust_4="41.76210" pt_clust_5="62.93684" pt_clust_6="14000.00000"></scales>
<clustering>
<clus scale="   41.762">  2  4  1 -1</clus>
<clus scale="   62.937">  2  5  1 -1</clus>
<clus scale="   94.841">  1  3  2 -1</clus>
<clus scale="   94.841">  1  3  2 -1</clus>
</clustering>
</event>
<event>
 6    0  0.8605976E+002  0.1092500E+03  0.7546771E-02  0.1261965E+00
         21   -1    0    0  506  501  0.00000000000E+00  0.00000000000E+00  0.41438077983E+03  0.41438077983E+03  0.00000000000E+00 0. -1.
         21   -1    0    0  503  502 -0.00000000000E+00 -0.00000000000E+00 -0.22793819641E+04  0.22793819641E+04  0.00000000000E+00 0.  1.
         21    1    1    2  503  501  0.87698945481E+01  0.56052976840E+02 -0.40654083970E+02  0.69796861007E+02  0.00000000000E+00 0.  1.
         21    1    1    2  504  505  0.52718812593E+02 -0.53103758243E+02 -0.18098886467E+03  0.19584752099E+03  0.00000000000E+00 0. -1.
         21    1    1    2  505  502 -0.10504548253E+03  0.53595033778E+02 -0.20307676309E+04  0.20341888191E+04  0.00000000000E+00 0.  1.
         21    1    1    2  506  504  0.43556775389E+02 -0.56544252375E+02  0.38740939529E+03  0.39392954283E+03  0.00000000000E+00 0. -1.
<scales pt_clust_3="56.73489" pt_clust_4="14000.00000" pt_clust_5="109.25001" pt_clust_6="52.15632"></scales>
<clustering>
<clus scale="   56.735">  1  3  2 -1</clus>
<clus scale="   52.156">  1  6  2 -1</clus>
<clus scale="  109.250">  2  5  1 -1</clus>
<clus scale="   56.735">  1  3  2 -1</clus>
</clustering>
</event>
<event>
 6    0  0.4582113E+002  0.1139217E+03  0.7546771E-02  0.1253475E+00
         21   -1    0    0  503  501  0.00000000000E+00  0.00000000000E+00  0.15300132452E+03  0.15300132452E+03  0.00000000000E+00 0. -1.
         21   -1    0    0  506  502 -0.00000000000E+00 -0.00000000000E+00 -0.10037480285E+04  0.10037480285E+04  0.00000000000E+00 0.  1.
         21    1    1    2  503  504  0.37386081545E+02  0.62187444009E+02  0.33698131210E+02  0.80003508252E+02  0.00000000000E+00 0.  1.
         21    1    1    2  504  502  0.15451239541E+02  0.82826983946E+02 -0.32655800540E+03  0.33725239949E+03  0.00000000000E+00 0.  1.
         21    1    1    2  505  501  0.77390628111E+02 -0.30604383400E+02  0.56848249024E+02  0.10078522223E+03  0.00000000000E+00 0. -1.
         21    1    1    2  506  505 -0.13022794920E+03 -0.11441004455E+03 -0.61473507879E+03  0.63870822301E+03  0.00000000000E+00 0.  1.
<scales pt_clust_3="72.56030" pt_clust_4="88.04820" pt_clust_5="113.92172" pt_clust_6="14000.00000"></scales>
<clustering>
<clus scale="   72.560">  1  3  2 -1</clus>
<clus scale="   88.048">  2  4  1 -1</clus>
<clus scale="  113.922">  1  5  2 -1</clus>
<clus scale="   72.560">  1  3  2 -1</clus>
</clustering>
</event>
<event>
 6    0  0.4582113E+002  0.1408318E+03  0.7546771E-02  0.1212214E+00
         21   -1    0    0  503  501  0.00000000000E+00  0.00000000000E+00  0.21177829231E+04  0.21177829231E+04  0.00000000000E+00 0.  1.
         21   -1    0    0  505  502 -0.00000000000E+00 -0.00000000000E+00 -0.91739146267E+02  0.91739146267E+02  0.00000000000E+00 0. -1.
         21    1    1    2  503  502 -0.11803786351E+03 -0.75094690477E+02 -0.12630617672E+02  0.14046950652E+03  0.00000000000E+00 0. -1.
         21    1    1    2  504  506  0.12046184140E+03  0.60578802969E+02  0.13369194086E+04  0.13437017346E+04  0.00000000000E+00 0.  1.
         21    1    1    2  505  504 -0.21652437698E+02  0.47421583264E+02  0.49193321975E+02  0.71677175896E+02  0.00000000000E+00 0. -1.
         21    1    1    2  506  501  0.19228459808E+02 -0.32905695756E+02  0.65256166394E+03  0.65367365231E+03  0.00000000000E+00 0. -1.
<scales pt_clust_3="14000.00000" pt_clust_4="140.83181" pt_clust_5="50.56654" pt_clust_6="38.11192"></scales>
<clustering>
<clus scale="   38.112">  1  6  2 -1</clus>
<clus scale="   50.567">  2  5  1 -1</clus>
<clus scale="  140.832">  1  4  2 -1</clus>
<clus scale="   38.112">  1  3  2 -1</clus>
</clustering>
</event>
<event>
 6    0  0.4582113E+002  0.3035125E+03  0.7546771E-02  0.1083498E+00
         21   -1    0    0  505  501  0.00000000000E+00  0.00000000000E+00  0.39034693162E+03  0.39034693162E+03  0.00000000000E+00 0.  1.
         21   -1    0    0  503  502 -0.00000000000E+00 -0.00000000000E+00 -0.63902869116E+03  0.63902869116E+03  0.00000000000E+00 0.  1.
         21    1    1    2  503  501  0.27071128677E+03  0.14575330012E+03 -0.10985678198E+03  0.32649217116E+03  0.00000000000E+00 0.  1.
         21    1    1    2  504  502 -0.89785865417E+00 -0.54808210262E+02 -0.33904113459E+03  0.34344379017E+03  0.00000000000E+00 0.  1.
         21    1    1    2  505  506 -0.13580815749E+03 -0.80953734582E+02  0.72075632515E+02  0.17375920000E+03  0.00000000000E+00 0.  1.
         21    1    1    2  506  504 -0.13400527063E+03 -0.99913552769E+01  0.12814052452E+03  0.18568046144E+03  0.00000000000E+00 0.  1.
<scales pt_clust_3="289.96512" pt_clust_4="54.81556" pt_clust_5="81.53479" pt_clust_6="81.53479"></scales>
<clustering>
<clus scale="   54.816">  2  4  1 -1</clus>
<clus scale="   81.535">  5  6 -1 -1</clus>
<clus scale="  289.965">  2  3  1 -1</clus>
<clus scale="  303.512">  1  3  2 -1</clus>
</clustering>
</event>
<event>
 6    0  0.4582113E+002  0.1587037E+03  0.7546771E-02  0.1190168E+00
         21   -1    0    0  506  501  0.00000000000E+00  0.00000000000E+00  0.18800482710E+03  0.18800482710E+03  0.00000000000E+00 0. -1.
         21   -1    0    0  505  502 -0.00000000000E+00 -0.00000000000E+00 -0.14390034861E+04  0.14390034861E+04  0.00000000000E+00 0. -1.
         21    1    1    2  503  501 -0.12715994918E+03  0.11057376856E+03  0.12025126425E+03  0.20701830239E+03  0.00000000000E+00 0. -1.
         21    1    1    2  504  502 -0.52516068250E+01 -0.11830488508E+03 -0.10326725073E+04  0.10394402977E+04  0.00000000000E+00 0. -1.
         21    1    1    2  505  503  0.10651420868E+03 -0.86551478244E+01 -0.33257326698E+03  0.34932100731E+03  0.00000000000E+00 0.  1.
         21    1    1    2  506  504  0.25897347327E+02  0.16386264338E+02 -0.60041489262E+01  0.31228705735E+02  0.00000000000E+00 0.  1.
<scales pt_clust_3="14000.00000" pt_clust_4="158.70373" pt_clust_5="108.03787" pt_clust_6="30.64608"></scales>
<clustering>
<clus scale="   30.646">  1  6  2 -1</clus>
<clus scale="  108.038">  2  5  1 -1</clus>
<clus scale="  158.704">  2  4  1 -1</clus>
<clus scale="   30.646">  1  3  2 -1</clus>
</clustering>
</event>
<event>
 6    0  0.4582113E+002  0.1248954E+03  0.7546771E-02  0.1235233E+00
         21   -1    0    0  506  501  0.00000000000E+00  0.00000000000E+00  0.58584215477E+03  0.58584215477E+03  0.00000000000E+00 0. -1.
         21   -1    0    0  503  502 -0.00000000000E+00 -0.00000000000E+00 -0.70195465559E+02  0.70195465559E+02  0.00000000000E+00 0. -1.
         21    1    1    2  503  504  0.94903954202E+02  0.13498656622E+03  0.22162309281E+03  0.27630586105E+03  0.00000000000E+00 0. -1.
         21    1    1    2  504  505 -0.31941503166E+01 -0.41629319233E+02  0.82537972937E+02  0.92497133970E+02  0.00000000000E+00 0. -1.
         21    1    1    2  505  501 -0.39142272516E+02 -0.52338089065E+02  0.21064573988E+03  0.22055162841E+03  0.00000000000E+00 0. -1.
         21    1    1    2  506  502 -0.52567531370E+02 -0.41019157925E+02  0.83988358514E+00  0.66682996900E+02  0.00000000000E+00 0. -1.
<scales pt_clust_3="119.07249" pt_clust_4="30.12515" pt_clust_5="30.12515" pt_clust_6="66.67771"></scales>
<clustering>
<clus scale="   30.125">  4  5 -1 -1</clus>
<clus scale="   66.678">  2  6  1 -1</clus>
<clus scale="  119.072">  2  3  1 -1</clus>
<clus scale="  124.895">  1  3  2 -1</clus>
</clustering>
</event>
<event>
 6    0  0.4582113E+002  0.2108940E+03  0.7546771E-02  0.1140860E+00
         21   -1    0    0  503  501  0.00000000000E+00  0.00000000000E+00  0.11058935735E+03  0.11058935735E+03  0.00000000000E+00 0.  1.
         21   -1    0    0  501  502 -0.00000000000E+00 -0.00000000000E+00 -0.13055073789E+04  0.13055073789E+04  0.00000000000E+00 0.  1.
         21    1    1    2  503  505  0.10913993454E+03 -0.84417071654E+02 -0.15672103979E+01  0.13798631616E+03  0.00000000000E+00 0.  1.
         21    1    1    2  504  506 -0.86324778850E+02  0.13024589110E+03 -0.59039786791E+03  0.61072547190E+03  0.00000000000E+00 0.  1.
         21    1    1    2  505  504  0.35013456812E+02 -0.72711132924E+02 -0.22971323525E+02  0.83907882309E+02  0.00000000000E+00 0.  1.
         21    1    1    2  506  502 -0.57828612505E+02  0.26882313482E+02 -0.57998161976E+03  0.58347706593E+03  0.00000000000E+00 0.  1.
<scales pt_clust_3="43.02835" pt_clust_4="203.25068" pt_clust_5="43.02835" pt_clust_6="63.77152"></scales>
<clustering>
<clus scale="   43.028">  3  5 -1 -1</clus>
<clus scale="   63.772">  2  6  1 -1</clus>
<clus scale="  203.251">  2  4  1 -1</clus>
<clus scale="  210.894">  1  3  2 -1</clus>
</clustering>
</event>
<event>
 6    0  0.4582113E+002  0.2313318E+03  0.7546771E-02  0.1125706E+00
         21   -1    0    0  506  501  0.00000000000E+00  0.00000000000E+00  0.31512163535E+03  0.31512163535E+03  0.00000000000E+00 0.  1.
         21   -1    0    0  505  502 -0.00000000000E+00 -0.00000000000E+00 -0.51889299968E+03  0.51889299968E+03  0.00000000000E+00 0.  1.
         21    1    1    2  503  502  0.37815479982E+02 -0.41858043370E+01 -0.27363245862E+02  0.46864471706E+02  0.00000000000E+00 0.  1.
         21    1    1    2  504  503 -0.55363138665E+02  0.93197518952E+02  0.60097084739E+02  0.12394561007E+03  0.00000000000E+00 0.  1.
         21    1    1    2  505  501  0.11126925211E+03 -0.14916673154E+03 -0.41386501215E+03  0.45377947127E+03  0.00000000000E+00 0.  1.
         21    1    1    2  506  504 -0.93721593426E+02  0.60155016930E+02  0.17735980894E+03  0.20942508198E+03  0.00000000000E+00 0.  1.
<scales pt_clust_3="38.04644" pt_clust_4="93.46024" pt_clust_5="210.96786" pt_clust_6="93.46024"></scales>
<clustering>
<clus scale="   38.046">  2  3  1 -1</clus>
<clus scale="   93.460">  4  6 -1 -1</clus>
<clus scale="  210.968">  2  5  1 -1</clus>
<clus scale="  231.332">  1  3  2 -1</clus>
</clustering>
</event>
<event>
 6    0  0.4582113E+002  0.1301928E+03  0.7546771E-02  0.1227170E+00
         21   -1    0    0  503  501  0.00000000000E+00  0.00000000000E+00  0.28623860241E+03  0.28623860241E+03  0.00000000000E+00 0. -1.
         21   -1    0    0  504  502 -0.00000000000E+00 -0.00000000000E+00 -0.10772390641E+04  0.10772390641E+04  0.00000000000E+00 0.  1.
         21    1    1    2  503  505  0.67587825631E+02 -0.72907857130E+02  0.20694990943E+03  0.22959079863E+03  0.00000000000E+00 0. -1.
         21    1    1    2  504  506 -0.52188415477E+02  0.91238039283E+02 -0.30799821671E+03  0.32543956738E+03  0.00000000000E+00 0.  1.
         21    1    1    2  505  502 -0.30750714178E+01  0.31635736480E+02 -0.73761705328E+03  0.73830155978E+03  0.00000000000E+00 0.  1.
         21    1    1    2  506  501 -0.12324338737E+02 -0.49965918633E+02  0.47664898893E+02  0.70145740688E+02  0.00000000000E+00 0. -1.
<scales pt_clust_3="130.19283" pt_clust_4="14000.00000" pt_clust_5="31.78484" pt_clust_6="50.47142"></scales>
<clustering>
<clus scale="   31.785">  2  5  1 -1</clus>
<clus scale="   50.471">  1  6  2 -1</clus>
<clus scale="  130.193">  1  3  2 -1</clus>
<clus scale="   50.471">  1  3  2 -1</clus>
</clustering>
</event>
<event>
 6    0  0.4582113E+002  0.1324158E+03  0.7546771E-02  0.1223915E+00
         21   -1    0    0  503  501  0.00000000000E+00  0.00000000000E+00  0.50645240002E+03  0.50645240002E+03  0.00000000000E+00 0. -1.
         21   -1    0    0  506  502 -0.00000000000E+00 -0.00000000000E+00 -0.14913471243E+03  0.14913471243E+03  0.00000000000E+00 0. -1.
         21    1    1    2  503  502  0.80928896398E+01  0.29229999835E+02 -0.48513687759E+02  0.57214208489E+02  0.00000000000E+00 0.  1.
         21    1    1    2  504  501  0.47517057425E+02 -0.22938719799E+02  0.26850579544E+03  0.27364103822E+03  0.00000000000E+00 0. -1.
         21    1    1    2  505  504  0.33423346309E+02 -0.66391122350E+02  0.19077920515E+03  0.20474766500E+03  0.00000000000E+00 0. -1.
         21    1    1    2  506  505 -0.89033293374E+02  0.60099842314E+02 -0.53453625247E+02  0.11998420074E+03  0.00000000000E+00 0. -1.
<scales pt_clust_3="30.32965" pt_clust_4="49.47277" pt_clust_5="49.47277" pt_clust_6="118.96247"></scales>
<clustering>
<clus scale="   30.330">  2  3  1 -1</clus>
<clus scale="   49.473">  4  5 -1 -1</clus>
<clus scale="  118.962">  2  6  1 -1</clus>
<clus scale="  132.416">  1  3  2 -1</clus>
</clustering>
</event>
<event>
 6    0  0.4582113E+002  0.8280857E+02  0.7546771E-02  0.1321265E+00
         21   -1    0    0  506  501  0.00000000000E+00  0.00000000000E+00  0.36164688023E+02  0.36164688023E+02  0.00000000000E+00 0. -1.
         21   -1    0    0  505  502 -0.00000000000E+00 -0.00000000000E+00 -0.24688684847E+04  0.24688684847E+04  0.00000000000E+00 0.  1.
         21    1    1    2  503  504 -0.67891097467E+02  0.69390903265E+02 -0.91319054160E+03  0.91833613881E+03  0.00000000000E+00 0.  1.
         21    1    1    2  504  501 -0.50763829237E+02 -0.57440962991E+02 -0.23797423471E+02  0.80266730044E+02  0.00000000000E+00 0. -1.
         21    1    1    2  505  503  0.68256013472E+02  0.21390328960E+02 -0.12910482825E+04  0.12930282662E+04  0.00000000000E+00 0.  1.
         21    1    1    2  506  502  0.50398913232E+02 -0.33340269234E+02 -0.20466754906E+03  0.21340203758E+03  0.00000000000E+00 0. -1.
<scales pt_clust_3="14000.00000" pt_clust_4="82.80857" pt_clust_5="72.73079" pt_clust_6="60.42867"></scales>
<clustering>
<clus scale="   60.429">  1  6  2 -1</clus>
<clus scale="   72.731">  2  5  1 -1</clus>
<clus scale="   82.809">  1  4  2 -1</clus>
<clus scale="   60.429">  1  3  2 -1</clus>
</clustering>
</event>
<event>
 6    0  0.4582113E+002  0.3075198E+03  0.7546771E-02  0.1081541E+00
         21   -1    0    0  503  501  0.00000000000E+00  0.00000000000E+00  0.11147645526E+04  0.11147645526E+04  0.00000000000E+00 0. -1.
         21   -1    0    0  505  502 -0.00000000000E+00 -0.00000000000E+00 -0.11035648723E+03  0.11035648723E+03  0.00000000000E+00 0. -1.
         21    1    1    2  503  504  0.17839897140E+03 -0.24052260856E+03  0.37033674909E+03  0.47626318979E+03  0.00000000000E+00 0. -1.
         21    1    1    2  504  502  0.33827152646E+02  0.39938607100E+02  0.91062750622E+01  0.53125256129E+02  0.00000000000E+00 0. -1.
         21    1    1    2  505  506 -0.79117779280E+02  0.13036298055E+03  0.26813812123E+03  0.30846747276E+03  0.00000000000E+00 0. -1.
         21    1    1    2  506  501 -0.13310834477E+03  0.70221020902E+02  0.35682692001E+03  0.38726512116E+03  0.00000000000E+00 0. -1.
<scales pt_clust_3="293.90435" pt_clust_4="52.33898" pt_clust_5="88.18706" pt_clust_6="88.18706"></scales>
<clustering>
<clus scale="   52.339">  2  4  1 -1</clus>
<clus scale="   88.187">  5  6 -1 -1</clus>
<clus scale="  293.904">  2  3  1 -1</clus>
<clus scale="  307.520">  1  3  2 -1</clus>
</clustering>
</event>
<event>
 6    0  0.4582113E+002  0.9205850E+02  0.7546771E-02  0.1297942E+00
         21   -1    0    0  506  501  0.00000000000E+00  0.00000000000E+00  0.35345267349E+03  0.35345267349E+03  0.00000000000E+00 0.  1.
         21   -1    0    0  503  502 -0.00000000000E+00 -0.00000000000E+00 -0.15787097885E+03  0.15787097885E+03  0.00000000000E+00 0.  1.
         21    1    1    2  503  505  0.83262163615E+02  0.19810494824E+02  0.13733835042E+03  0.16182356470E+03  0.00000000000E+00 0.  1.
         21    1    1    2  504  502  0.36287752585E+02 -0.77007572421E+01 -0.11899024996E+03  0.12463860653E+03  0.00000000000E+00 0.  1.
         21    1    1    2  505  501 -0.22399829794E+02  0.21572991132E+02  0.19943625693E+02  0.36944478978E+02  0.00000000000E+00 0.  1.
         21    1    1    2  506  504 -0.97150086406E+02 -0.33682728714E+02  0.15728996849E+03  0.18791700213E+03  0.00000000000E+00 0.  1.
<scales pt_clust_3="92.05850" pt_clust_4="36.86682" pt_clust_5="31.09898" pt_clust_6="14000.00000"></scales>
<clustering>
<clus scale="   31.099">  1  5  2 -1</clus>
<clus scale="   36.867">  2  4  1 -1</clus>
<clus scale="   92.058">  1  3  2 -1</clus>
<clus scale="   31.099">  1  3  2 -1</clus>
</clustering>
</event>
<event>
 6    0  0.4582113E+002  0.1705590E+03  0.7546771E-02  0.1177266E+00
         21   -1    0    0  503  501  0.00000000000E+00  0.00000000000E+00  0.45367704626E+03  0.45367704626E+03  0.00000000000E+00 0.  1.
         21   -1    0    0  505  502 -0.00000000000E+00 -0.00000000000E+00 -0.38975209845E+03  0.38975209845E+03  0.00000000000E+00 0. -1.
         21    1    1    2  503  506  0.29903611855E+01 -0.67918636077E+02  0.18696381307E+03  0.19894057098E+03  0.00000000000E+00 0.  1.
         21    1    1    2  504  502 -0.94776963817E+02  0.13834675661E+03 -0.34003068117E+03  0.37913501826E+03  0.00000000000E+00 0. -1.
         21    1    1    2  505  501  0.50295856779E+02  0.10540432300E+00  0.23998574945E+02  0.55728053247E+02  0.00000000000E+00 0. -1.
         21    1    1    2  506  504  0.41490745852E+02 -0.70533524852E+02  0.19299324097E+03  0.20962550221E+03  0.00000000000E+00 0.  1.
<scales pt_clust_3="34.24157" pt_clust_4="166.37026" pt_clust_5="50.29597" pt_clust_6="34.24157"></scales>
<clustering>
<clus scale="   34.242">  3  6 -1 -1</clus>
<clus scale="   50.296">  1  5  2 -1</clus>
<clus scale="  166.370">  2  4  1 -1</clus>
<clus scale="   50.296">  1  3  2 -1</clus>
</clustering>
</event>
<event>
 6    0  0.4582113E+002  0.1324383E+03  0.7546771E-02  0.1223882E+00
         21   -1    0    0  506  501  0.00000000000E+00  0.00000000000E+00  0.19376720124E+03  0.19376720124E+03  0.00000000000E+00 0.  1.
         21   -1    0    0  504  502 -0.00000000000E+00 -0.00000000000E+00 -0.13799781880E+04  0.13799781880E+04  0.00000000000E+00 0. -1.
         21    1    1    2  503  502 -0.12740948586E+01  0.34430047939E+02 -0.73069511033E+03  0.73150693488E+03  0.00000000000E+00 0. -1.
         21    1    1    2  504  501 -0.10732052326E+02 -0.10399853290E+03  0.15181090853E+03  0.18432966050E+03  0.00000000000E+00 0.  1.
         21    1    1    2  505  503 -0.41971008681E+01  0.10099714788E+03 -0.61370869968E+03  0.62197781922E+03  0.00000000000E+00 0. -1.
         21    1    1    2  506  505  0.16203248053E+02 -0.31428662923E+02  0.63819147523E+01  0.35930974611E+02  0.00000000000E+00 0.  1.
<scales pt_clust_3="34.45361" pt_clust_4="132.43832" pt_clust_5="14000.00000" pt_clust_6="34.65118"></scales>
<clustering>
<clus scale="   34.454">  2  3  1 -1</clus>
<clus scale="   34.651">  1  6  2 -1</clus>
<clus scale="  132.438">  1  4  2 -1</clus>
<clus scale="   34.651">  1  3  2 -1</clus>
</clustering>
</event>
<event>
 6    0  0.4582113E+002  0.1030946E+03  0.7546771E-02  0.1273920E+00
         21   -1    0    0  504  501  0.00000000000E+00  0.00000000000E+00  0.70325544465E+03  0.70325544465E+03  0.00000000000E+00 0.  1.
         21   -1    0    0  506  502 -0.00000000000E+00 -0.00000000000E+00 -0.59988584390E+02  0.59988584390E+02  0.00000000000E+00 0.  1.
         21    1    1    2  503  505  0.24887642285E+02 -0.68792688841E+02  0.42119978780E+03  0.42750566081E+03  0.00000000000E+00 0.  1.
         21    1    1    2  504  502 -0.41386479479E+02 -0.23981366441E+02  0.14842934040E+02  0.50082525006E+02  0.00000000000E+00 0.  1.
         21    1    1    2  505  501  0.46915161019E+02 -0.18741412297E+02  0.14675067439E+03  0.15520320004E+03  0.00000000000E+00 0.  1.
         21    1    1    2  506  503 -0.30416323825E+02  0.11151546758E+03  0.60473464034E+02  0.13045264320E+03  0.00000000000E+00 0.  1.
<scales pt_clust_3="103.09458" pt_clust_4="47.83248" pt_clust_5="47.72152" pt_clust_6="14000.00000"></scales>
<clustering>
<clus scale="   47.832">  2  4  1 -1</clus>
<clus scale="   47.722">  1  5  2 -1</clus>
<clus scale="  103.095">  1  3  2 -1</clus>
<clus scale="   47.722">  1  3  2 -1</clus>
</clustering>
</event>
<event>
 6    0  0.4582113E+002  0.9358012E+02  0.7546771E-02  0.1294406E+00
         21   -1    0    0  505  501  0.00000000000E+00  0.00000000000E+00  0.28989983629E+03  0.28989983629E+03  0.00000000000E+00 0.  1.
         21   -1    0    0  503  502 -0.00000000000E+00 -0.00000000000E+00 -0.15487953727E+03  0.15487953727E+03  0.00000000000E+00 0. -1.
         21    1    1    2  503  506  0.14019187983E+02 -0.47885459717E+02  0.66977222907E+01  0.50342967413E+02  0.00000000000E+00 0. -1.
         21    1    1    2  504  502  0.10744729455E+03  0.35411223587E+02  0.14078320661E+03  0.18060671949E+03  0.00000000000E+00 0.  1.
         21    1    1    2  505  504 -0.45983386982E+02  0.40188985506E+02  0.73874039426E+02  0.95848840032E+02  0.00000000000E+00 0.  1.
         21    1    1    2  506  501 -0.75483095549E+02 -0.27714749376E+02 -0.86334669309E+02  0.11798084663E+03  0.00000000000E+00 0. -1.
<scales pt_clust_3="49.89544" pt_clust_4="93.58012" pt_clust_5="57.63943" pt_clust_6="14000.00000"></scales>
<clustering>
<clus scale="   49.895">  2  3  1 -1</clus>
<clus scale="   57.639">  1  5  2 -1</clus>
<clus scale="   93.580">  1  4  2 -1</clus>
<clus scale="   57.639">  1  3  2 -1</clus>
</clustering>
</event>
<event>
 6    0  0.4582113E+002  0.9333750E+02  0.7546771E-02  0.1294965E+00
         21   -1    0    0  504  501  0.00000000000E+00  0.00000000000E+00  0.20062755470E+03  0.20062755470E+03  0.00000000000E+00 0.  1.
         21   -1    0    0  503  502 -0.00000000000E+00 -0.00000000000E+00 -0.45172073939E+03  0.45172073939E+03  0.00000000000E+00 0. -1.
         21    1    1    2  503  501 -0.38701745187E+01 -0.36065140106E+02 -0.81234008440E+01  0.37170717278E+02  0.00000000000E+00 0. -1.
         21    1    1    2  504  505  0.43952397522E+02  0.17235067006E+02  0.14133211552E+03  0.14900881739E+03  0.00000000000E+00 0.  1.
         21    1    1    2  505  506  0.54740470062E+02  0.44909114419E+02 -0.13783592219E+01  0.70818412116E+02  0.00000000000E+00 0.  1.
         21    1    1    2  506  502 -0.94822693066E+02 -0.26079041318E+02 -0.38292354015E+03  0.39535034731E+03  0.00000000000E+00 0. -1.
<scales pt_clust_3="36.27220" pt_clust_4="42.35924" pt_clust_5="93.33750" pt_clust_6="14000.00000"></scales>
<clustering>
<clus scale="   36.272">  1  3  2 -1</clus>
<clus scale="   42.359">  1  4  2 -1</clus>
<clus scale="   93.337">  1  5  2 -1</clus>
<clus scale="   36.272">  1  3  2 -1</clus>
</clustering>
</event>
<event>
 6    0  0.4582113E+002  0.1370246E+03  0.7546771E-02  0.1217390E+00
         21   -1    0    0  503  501  0.00000000000E+00  0.00000000000E+00  0.92878316126E+03  0.92878316126E+03  0.00000000000E+00 0. -1.
         21   -1    0    0  504  502 -0.00000000000E+00 -0.00000000000E+00 -0.57181874326E+02  0.57181874326E+02  0.00000000000E+00 0. -1.
         21    1    1    2  503  505  0.13984854544E+02  0.28515492832E+02  0.27073628898E+03  0.27259282393E+03  0.00000000000E+00 0.  1.
         21    1    1    2  504  501  0.14215124655E+03 -0.81976030376E+02  0.18878018499E+03  0.25012997561E+03  0.00000000000E+00 0. -1.
         21    1    1    2  505  506 -0.30976932293E+02  0.67177465419E+02  0.23198991756E+03  0.24349887893E+03  0.00000000000E+00 0. -1.
         21    1    1    2  506  502 -0.12515916880E+03 -0.13716927874E+02  0.18009489541E+03  0.21974335712E+03  0.00000000000E+00 0. -1.
<scales pt_clust_3="31.76019" pt_clust_4="14000.00000" pt_clust_5="81.71336" pt_clust_6="137.02456"></scales>
<clustering>
<clus scale="   31.760">  1  3  2 -1</clus>
<clus scale="   81.713">  1  5  2 -1</clus>
<clus scale="  137.025">  2  6  1 -1</clus>
<clus scale="   31.760">  1  3  2 -1</clus>
</clustering>
</event>
<event>
 6    0  0.4582113E+002  0.1322336E+03  0.7546771E-02  0.1224179E+00
         21   -1    0    0  502  501  0.00000000000E+00  0.00000000000E+00  0.99997214314E+02  0.99997214314E+02  0.00000000000E+00 0.  1.
         21   -1    0    0  504  502 -0.00000000000E+00 -0.00000000000E+00 -0.79057110676E+03  0.79057110676E+03  0.00000000000E+00 0. -1.
         21    1    1    2  503  501  0.62658930131E+02  0.12034867539E+03  0.19775186823E+02  0.13711675028E+03  0.00000000000E+00 0.  1.
         21    1    1    2  504  506 -0.52396039586E+01  0.39669245749E+02 -0.29951900411E+03  0.30217997341E+03  0.00000000000E+00 0. -1.
         21    1    1    2  505  503 -0.49657877284E+02 -0.10934513894E+03 -0.19158443177E+03  0.22611249121E+03  0.00000000000E+00 0. -1.
         21    1    1    2  506  505 -0.77614488881E+01 -0.50672782202E+02 -0.21924564339E+03  0.22515910617E+03  0.00000000000E+00 0.  1.
<scales pt_clust_3="132.23358" pt_clust_4="40.01378" pt_clust_5="14000.00000" pt_clust_6="34.21050"></scales>
<clustering>
<clus scale="   40.014">  2  4  1 -1</clus>
<clus scale="   34.210">  2  6  1 -1</clus>
<clus scale="  132.234">  1  3  2 -1</clus>
<clus scale="  132.234">  1  3  2 -1</clus>
</clustering>
</event>
<event>
 6    0  0.4582113E+002  0.1448682E+03  0.7546771E-02  0.1206925E+00
         21   -1    0    0  505  501  0.00000000000E+00  0.00000000000E+00  0.58987960800E+02  0.58987960800E+02  0.00000000000E+00 0.  1.
         21   -1    0    0  506  502 -0.00000000000E+00 -0.00000000000E+00 -0.84081882692E+03  0.84081882692E+03  0.00000000000E+00 0. -1.
         21    1    1    2  503  502  0.73146732433E+02  0.13055866689E+03 -0.31186724263E+03  0.34591499966E+03  0.00000000000E+00 0. -1.
         21    1    1    2  504  501 -0.44585106076E+02 -0.66499894381E+01 -0.62765185459E+02  0.77275627134E+02  0.00000000000E+00 0.  1.
         21    1    1    2  505  503 -0.65022149288E+02 -0.12701850598E+03 -0.11814618383E+03  0.18525685281E+03  0.00000000000E+00 0.  1.
         21    1    1    2  506  504  0.36460522930E+02  0.31098285318E+01 -0.28905225420E+03  0.29135930811E+03  0.00000000000E+00 0. -1.
<scales pt_clust_3="144.86819" pt_clust_4="40.43515" pt_clust_5="14000.00000" pt_clust_6="36.59291"></scales>
<clustering>
<clus scale="   36.593">  2  6  1 -1</clus>
<clus scale="   40.435">  2  4  1 -1</clus>
<clus scale="  144.868">  2  3  1 -1</clus>
<clus scale="  144.868">  1  3  2 -1</clus>
</clustering>
</event>
<event>
 6    0  0.4582113E+002  0.8336068E+02  0.7546771E-02  0.1319776E+00
         21   -1    0    0  504  501  0.00000000000E+00  0.00000000000E+00  0.26604987056E+04  0.26604987056E+04  0.00000000000E+00 0.  1.
         21   -1    0    0  506  502 -0.00000000000E+00 -0.00000000000E+00 -0.18466165187E+03  0.18466165187E+03  0.00000000000E+00 0.  1.
         21    1    1    2  503  501 -0.41334869480E+02 -0.71311405276E+02  0.24033962756E+04  0.24048092535E+04  0.00000000000E+00 0.  1.
         21    1    1    2  504  502  0.88309935399E+02 -0.53051717112E+02 -0.11260691633E+03  0.15262190860E+03  0.00000000000E+00 0.  1.
         21    1    1    2  505  503 -0.84971652944E+01  0.12787847474E+03  0.20687164888E+03  0.24335362178E+03  0.00000000000E+00 0.  1.
         21    1    1    2  506  505 -0.38477900624E+02 -0.35153523552E+01 -0.21823954502E+02  0.44375573559E+02  0.00000000000E+00 0.  1.
<scales pt_clust_3="14000.00000" pt_clust_4="78.33322" pt_clust_5="83.36068" pt_clust_6="38.63815"></scales>
<clustering>
<clus scale="   38.638">  2  6  1 -1</clus>
<clus scale="   78.333">  2  4  1 -1</clus>
<clus scale="   83.361">  2  5  1 -1</clus>
<clus scale="   83.361">  1  3  2 -1</clus>
</clustering>
</event>
<event>
 6    0  0.4582113E+002  0.1838628E+03  0.7546771E-02  0.1164116E+00
         21   -1    0    0  505  501  0.00000000000E+00  0.00000000000E+00  0.10288336428E+03  0.10288336428E+03  0.00000000000E+00 0. -1.
         21   -1    0    0  504  502 -0.00000000000E+00 -0.00000000000E+00 -0.65352568324E+03  0.65352568324E+03  0.00000000000E+00 0. -1.
         21    1    1    2  503  502  0.57869611872E+02 -0.19808090811E+02 -0.17866223261E+03  0.18884238348E+03  0.00000000000E+00 0. -1.
         21    1    1    2  504  501 -0.97103088423E+02  0.18364537262E+03 -0.32484991291E+03  0.38559317756E+03  0.00000000000E+00 0. -1.
         21    1    1    2  505  506  0.43069058971E+02 -0.87877344147E+02 -0.13416120705E+02  0.98779369049E+02  0.00000000000E+00 0. -1.
         21    1    1    2  506  503 -0.38355824191E+01 -0.75959937657E+02 -0.33714052745E+02  0.83194117424E+02  0.00000000000E+00 0. -1.
<scales pt_clust_3="61.16578" pt_clust_4="176.90207" pt_clust_5="44.17695" pt_clust_6="44.17695"></scales>
<clustering>
<clus scale="   44.177">  5  6 -1 -1</clus>
<clus scale="   61.166">  2  3  1 -1</clus>
<clus scale="  176.902">  2  4  1 -1</clus>
<clus scale="  183.863">  1  3  2 -1</clus>
</clustering>
</event>
<event>
 6    0  0.4582113E+002  0.9564182E+02  0.7546771E-02  0.1289737E+00
         21   -1    0    0  503  501  0.00000000000E+00  0.00000000000E+00  0.30187798884E+03  0.30187798884E+03  0.00000000000E+00 0. -1.
         21   -1    0    0  504  502 -0.00000000000E+00 -0.00000000000E+00 -0.38539331164E+03  0.38539331164E+03  0.00000000000E+00 0. -1.
         21    1    1    2  503  506  0.21965862998E+02  0.26282097622E+02  0.29698191283E+02  0.45334648538E+02  0.00000000000E+00 0. -1.
         21    1    1    2  504  505  0.11329297654E+02 -0.85660889454E+02 -0.28289577353E+03  0.29579749770E+03  0.00000000000E+00 0. -1.
         21    1    1    2  505  501 -0.75083791796E+02  0.55125152277E+02  0.24377681949E+03  0.26096646513E+03  0.00000000000E+00 0. -1.
         21    1    1    2  506  502  0.41788631145E+02  0.42536395552E+01 -0.74094560039E+02  0.85172689107E+02  0.00000000000E+00 0. -1.
<scales pt_clust_3="34.25270" pt_clust_4="14000.00000" pt_clust_5="95.64182" pt_clust_6="42.52116"></scales>
<clustering>
<clus scale="   34.253">  1  3  2 -1</clus>
<clus scale="   42.521">  2  6  1 -1</clus>
<clus scale="   95.642">  1  5  2 -1</clus>
<clus scale="   34.253">  1  3  2 -1</clus>
</clustering>
</event>
<event>
 6    0  0.4582113E+002  0.2170348E+03  0.7546771E-02  0.1136113E+00
         21   -1    0    0  503  501  0.00000000000E+00  0.00000000000E+00  0.48900062068E+03  0.48900062068E+03  0.00000000000E+00 0. -1.
         21   -1    0    0  506  502 -0.00000000000E+00 -0.00000000000E+00 -0.67036098489E+03  0.67036098489E+03  0.00000000000E+00 0.  1.
         21    1    1    2  503  504 -0.16986144722E+03  0.14749667110E+03  0.24820069347E+03  0.33498024341E+03  0.00000000000E+00 0. -1.
         21    1    1    2  504  502  0.41101799497E+02 -0.90909525557E+01 -0.57590841858E+03  0.57744481115E+03  0.00000000000E+00 0.  1.
         21    1    1    2  505  501  0.71989782804E+02 -0.93321590855E+02  0.12399728551E+03  0.17107534879E+03  0.00000000000E+00 0. -1.
         21    1    1    2  506  505  0.56769864918E+02 -0.45084127685E+02  0.22350075390E+02  0.75861202218E+02  0.00000000000E+00 0. -1.
<scales pt_clust_3="208.03649" pt_clust_4="42.09517" pt_clust_5="50.30456" pt_clust_6="50.30456"></scales>
<clustering>
<clus scale="   42.095">  2  4  1 -1</clus>
<clus scale="   50.305">  5  6 -1 -1</clus>
<clus scale="  208.036">  1  3  2 -1</clus>
<clus scale="  208.036">  1  3  2 -1</clus>
</clustering>
</event>
<event>
 6    0  0.4582113E+002  0.2866657E+03  0.7546771E-02  0.1092103E+00
         21   -1    0    0  503  501  0.00000000000E+00  0.00000000000E+00  0.90724821095E+03  0.90724821095E+03  0.00000000000E+00 0.  1.
         21   -1    0    0  505  502 -0.00000000000E+00 -0.00000000000E+00 -0.48696058940E+03  0.48696058940E+03  0.00000000000E+00 0.  1.
         21    1    1    2  503  502 -0.20023107202E+03 -0.21645136820E+03  0.55003317640E+03  0.62408346568E+03  0.00000000000E+00 0.  1.
         21    1    1    2  504  506 -0.14093147423E+03 -0.10248844782E+02  0.54752319565E+02  0.15154054159E+03  0.00000000000E+00 0.  1.
         21    1    1    2  505  504  0.86735215897E+02  0.10846515447E+03 -0.28784513380E+03  0.31959741623E+03  0.00000000000E+00 0.  1.
         21    1    1    2  506  501  0.25442733035E+03  0.11823505851E+03  0.10334725938E+03  0.29898737685E+03  0.00000000000E+00 0. -1.
<scales pt_clust_3="14000.00000" pt_clust_4="119.44965" pt_clust_5="138.88012" pt_clust_6="286.66569"></scales>
<clustering>
<clus scale="  138.880">  2  5  1 -1</clus>
<clus scale="  119.450">  2  4  1 -1</clus>
<clus scale="  286.666">  2  6  1 -1</clus>
<clus scale="  286.666">  1  3  2 -1</clus>
</clustering>
</event>
<event>
 6    0  0.4582113E+002  0.1152762E+03  0.7546771E-02  0.1251100E+00
         21   -1    0    0  503  501  0.00000000000E+00  0.00000000000E+00  0.16192361543E+04  0.16192361543E+04  0.00000000000E+00 0. -1.
         21   -1    0    0  506  502 -0.00000000000E+00 -0.00000000000E+00 -0.56487701728E+02  0.56487701728E+02  0.00000000000E+00 0. -1.
         21    1    1    2  503  502 -0.26596910141E+02  0.15126831490E+03  0.90185062817E+02  0.17810907972E+03  0.00000000000E+00 0. -1.
         21    1    1    2  504  505  0.27572762886E+02 -0.66690083323E+02  0.12233917125E+04  0.12255183013E+04  0.00000000000E+00 0. -1.
         21    1    1    2  505  501 -0.10385509287E+02 -0.48650301213E+02  0.21801543341E+03  0.22361896121E+03  0.00000000000E+00 0. -1.
         21    1    1    2  506  504  0.94096565423E+01 -0.35927930365E+02  0.31156243787E+02  0.48477513792E+02  0.00000000000E+00 0. -1.
<scales pt_clust_3="115.27617" pt_clust_4="14000.00000" pt_clust_5="51.69897" pt_clust_6="37.13971"></scales>
<clustering>
<clus scale="   37.140">  2  6  1 -1</clus>
<clus scale="   51.699">  1  5  2 -1</clus>
<clus scale="  115.276">  2  3  1 -1</clus>
<clus scale="   51.699">  1  3  2 -1</clus>
</clustering>
</event>
<event>
 6    0  0.4582113E+002  0.1200527E+03  0.7546771E-02  0.1243010E+00
         21   -1    0    0  506  501  0.00000000000E+00  0.00000000000E+00  0.63149260765E+02  0.63149260765E+02  0.00000000000E+00 0.  1.
         21   -1    0    0  503  502 -0.00000000000E+00 -0.00000000000E+00 -0.89256859130E+03  0.89256859130E+03  0.00000000000E+00 0. -1.
         21    1    1    2  503  501  0.22723185575E+02 -0.11857623642E+03 -0.15238196554E+02  0.12169169914E+03  0.00000000000E+00 0.  1.
         21    1    1    2  504  505  0.20273137735E+02  0.39157083559E+02 -0.15739625665E+03  0.16345598463E+03  0.00000000000E+00 0.  1.
         21    1    1    2  505  502 -0.37310984766E+02  0.26851472666E+02 -0.54473986453E+03  0.54667598372E+03  0.00000000000E+00 0. -1.
         21    1    1    2  506  504 -0.56853385433E+01  0.52567680195E+02 -0.11204501280E+03  0.12389418457E+03  0.00000000000E+00 0. -1.
<scales pt_clust_3="114.31263" pt_clust_4="33.49460" pt_clust_5="45.96859" pt_clust_6="33.49460"></scales>
<clustering>
<clus scale="   33.495">  4  6 -1 -1</clus>
<clus scale="   45.969">  2  5  1 -1</clus>
<clus scale="  114.313">  1  3  2 -1</clus>
<clus scale="  114.313">  1  3  2 -1</clus>
</clustering>
</event>
<event>
 6    0  0.4582113E+002  0.1199702E+03  0.7546771E-02  0.1243146E+00
         21   -1    0    0  505  501  0.00000000000E+00  0.00000000000E+00  0.10734422240E+04  0.10734422240E+04  0.00000000000E+00 0. -1.
         21   -1    0    0  506  502 -0.00000000000E+00 -0.00000000000E+00 -0.18058622643E+03  0.18058622643E+03  0.00000000000E+00 0.  1.
         21    1    1    2  503  504 -0.18134954943E+02 -0.10243811819E+03  0.36298867543E+02  0.11018190611E+03  0.00000000000E+00 0. -1.
         21    1    1    2  504  502 -0.10091221597E+02  0.12694543444E+03 -0.10941349659E+03  0.16789368456E+03  0.00000000000E+00 0.  1.
         21    1    1    2  505  503 -0.51521547654E+02  0.97413126179E+01  0.36033357408E+03  0.36412861416E+03  0.00000000000E+00 0. -1.
         21    1    1    2  506  501  0.79747724194E+02 -0.34248628863E+02  0.60563705258E+03  0.61182424564E+03  0.00000000000E+00 0. -1.
<scales pt_clust_3="14000.00000" pt_clust_4="119.97023" pt_clust_5="52.43437" pt_clust_6="44.07160"></scales>
<clustering>
<clus scale="   52.434">  1  5  2 -1</clus>
<clus scale="   44.072">  1  6  2 -1</clus>
<clus scale="  119.970">  2  4  1 -1</clus>
<clus scale="   52.434">  1  3  2 -1</clus>
</clustering>
</event>
<event>
 6    0  0.4582113E+002  0.8161193E+02  0.7546771E-02  0.1324538E+00
         21   -1    0    0  506  501  0.00000000000E+00  0.00000000000E+00  0.49938399178E+03  0.49938399178E+03  0.00000000000E+00 0.  1.
         21   -1    0    0  504  502 -0.00000000000E+00 -0.00000000000E+00 -0.97693134679E+02  0.97693134679E+02  0.00000000000E+00 0.  1.
         21    1    1    2  503  502 -0.81463935500E+01 -0.34056054017E+02 -0.57391647714E+02  0.67230794807E+02  0.00000000000E+00 0.  1.
         21    1    1    2  504  501 -0.98598823237E+02 -0.25996611258E+02  0.31212597198E+03  0.32835982417E+03  0.00000000000E+00 0.  1.
         21    1    1    2  505  503  0.78103776833E+02  0.48786576792E+02  0.61707843036E+02  0.11085209932E+03  0.00000000000E+00 0.  1.
         21    1    1    2  506  505  0.28641439954E+02  0.11266088484E+02  0.85248689795E+02  0.90634408169E+02  0.00000000000E+00 0.  1.
<scales pt_clust_3="34.80746" pt_clust_4="81.61193" pt_clust_5="14000.00000" pt_clust_6="30.77754"></scales>
<clustering>
<clus scale="   30.778">  1  6  2 -1</clus>
<clus scale="   34.807">  2  3  1 -1</clus>
<clus scale="   81.612">  1  4  2 -1</clus>
<clus scale="   30.778">  1  3  2 -1</clus>
</clustering>
</event>
<event>
 6    0  0.4582113E+002  0.6568156E+02  0.7546771E-02  0.1375426E+00
         21   -1    0    0  503  501  0.00000000000E+00  0.00000000000E+00  0.46094211067E+03  0.46094211067E+03  0.00000000000E+00 0. -1.
         21   -1    0    0  504  502 -0.00000000000E+00 -0.00000000000E+00 -0.59555544784E+03  0.59555544784E+03  0.00000000000E+00 0. -1.
         21    1    1    2  503  506  0.24279985882E+02  0.58537460249E+02  0.30646616209E+03  0.31294993285E+03  0.00000000000E+00 0. -1.
         21    1    1    2  504  505 -0.13305436583E+02 -0.61947837425E+02  0.23000040232E+02  0.67406016459E+02  0.00000000000E+00 0. -1.
         21    1    1    2  505  501  0.34459356639E+02 -0.45738059467E+02  0.96158798179E+02  0.11191930938E+03  0.00000000000E+00 0. -1.
         21    1    1    2  506  502 -0.45433905938E+02  0.49148436642E+02 -0.56023833766E+03  0.56422229982E+03  0.00000000000E+00 0. -1.
<scales pt_clust_3="57.36712" pt_clust_4="65.68156" pt_clust_5="57.26620" pt_clust_6="14000.00000"></scales>
<clustering>
<clus scale="   57.266">  1  5  2 -1</clus>
<clus scale="   57.367">  1  3  2 -1</clus>
<clus scale="   65.682">  1  4  2 -1</clus>
<clus scale="   57.266">  1  3  2 -1</clus>
</clustering>
</event>
<event>
 6    0  0.4582113E+002  0.1501117E+03  0.7546771E-02  0.1200336E+00
         21   -1    0    0  504  501  0.00000000000E+00  0.00000000000E+00  0.22576140320E+03  0.22576140320E+03  0.00000000000E+00 0.  1.
         21   -1    0    0  503  502 -0.00000000000E+00 -0.00000000000E+00 -0.11672951959E+04  0.11672951959E+04  0.00000000000E+00 0.  1.
         21    1    1    2  503  501 -0.11631194416E+03  0.88588057967E+02 -0.63118201065E+03  0.64789431463E+03  0.00000000000E+00 0.  1.
         21    1    1    2  504  505  0.45939224911E+02 -0.87111407306E+02  0.16083428558E+03  0.18859076617E+03  0.00000000000E+00 0.  1.
         21    1    1    2  505  506  0.26954055430E+02 -0.36061269053E+02  0.28844648465E+02  0.53469149749E+02  0.00000000000E+00 0.  1.
         21    1    1    2  506  502  0.43418663814E+02  0.34584618392E+02 -0.50003071605E+03  0.50310236850E+03  0.00000000000E+00 0.  1.
<scales pt_clust_3="142.84101" pt_clust_4="31.20447" pt_clust_5="31.20447" pt_clust_6="55.50924"></scales>
<clustering>
<clus scale="   31.204">  4  5 -1 -1</clus>
<clus scale="   55.509">  2  6  1 -1</clus>
<clus scale="  142.841">  2  3  1 -1</clus>
<clus scale="  150.112">  1  3  2 -1</clus>
</clustering>
</event>
<event>
 6    0  0.4582113E+002  0.1447610E+03  0.7546771E-02  0.1207062E+00
         21   -1    0    0  504  501  0.00000000000E+00  0.00000000000E+00  0.47746843293E+03  0.47746843293E+03  0.00000000000E+00 0. -1.
         21   -1    0    0  505  502 -0.00000000000E+00 -0.00000000000E+00 -0.32500319970E+03  0.32500319970E+03  0.00000000000E+00 0. -1.
         21    1    1    2  503  501  0.13406460468E+02 -0.62323995110E+02  0.10803496369E+03  0.12544148806E+03  0.00000000000E+00 0. -1.
         21    1    1    2  504  502  0.51468308451E+00 -0.71910822766E+02  0.33954860362E+03  0.34708022927E+03  0.00000000000E+00 0. -1.
         21    1    1    2  505  506 -0.33707347522E+02  0.81679381136E+02 -0.14661167304E+03  0.17118028289E+03  0.00000000000E+00 0. -1.
         21    1    1    2  506  503  0.19786203970E+02  0.52555436739E+02 -0.14850666105E+03  0.15876963240E+03  0.00000000000E+00 0. -1.
<scales pt_clust_3="63.74962" pt_clust_4="131.89550" pt_clust_5="47.56132" pt_clust_6="47.56132"></scales>
<clustering>
<clus scale="   47.561">  5  6 -1 -1</clus>
<clus scale="   63.750">  1  3  2 -1</clus>
<clus scale="  131.895">  1  4  2 -1</clus>
<clus scale="   63.750">  1  3  2 -1</clus>
</clustering>
</event>
<event>
 6    0  0.4582113E+002  0.1427207E+03  0.7546771E-02  0.1209714E+00
         21   -1    0    0  505  501  0.00000000000E+00  0.00000000000E+00  0.13470935047E+04  0.13470935047E+04  0.00000000000E+00 0.  1.
         21   -1    0    0  503  502 -0.00000000000E+00 -0.00000000000E+00 -0.51210288930E+03  0.51210288930E+03  0.00000000000E+00 0.  1.
         21    1    1    2  503  506 -0.10475569024E+03 -0.63154140215E+02 -0.13812054250E+03  0.18449792499E+03  0.00000000000E+00 0.  1.
         21    1    1    2  504  502  0.14314025119E+03  0.73117416685E+02 -0.29796168795E+03  0.33855052151E+03  0.00000000000E+00 0.  1.
         21    1    1    2  505  504 -0.34174433931E+02  0.11086931991E+03  0.84737608816E+02  0.14366753418E+03  0.00000000000E+00 0.  1.
         21    1    1    2  506  501 -0.42101270199E+01 -0.12083259638E+03  0.11863352371E+04  0.11924804133E+04  0.00000000000E+00 0.  1.
<scales pt_clust_3="14000.00000" pt_clust_4="142.72066" pt_clust_5="116.01680" pt_clust_6="39.68340"></scales>
<clustering>
<clus scale="  116.017">  1  5  2 -1</clus>
<clus scale="   39.683">  1  6  2 -1</clus>
<clus scale="  142.721">  2  4  1 -1</clus>
<clus scale="  116.017">  1  3  2 -1</clus>
</clustering>
</event>
<event>
 6    0  0.4582113E+002  0.7676712E+02  0.7546771E-02  0.1338485E+00
         21   -1    0    0  504  501  0.00000000000E+00  0.00000000000E+00  0.26758489922E+03  0.26758489922E+03  0.00000000000E+00 0.  1.
         21   -1    0    0  501  502 -0.00000000000E+00 -0.00000000000E+00 -0.37414500100E+03  0.37414500100E+03  0.00000000000E+00 0.  1.
         21    1    1    2  503  506 -0.85761821768E+02  0.57279340187E+02 -0.80462222673E+02  0.13080589498E+03  0.00000000000E+00 0.  1.
         21    1    1    2  504  505  0.29413918048E+02 -0.41233927568E+02  0.12076369123E+03  0.13095527663E+03  0.00000000000E+00 0.  1.
         21    1    1    2  505  503  0.51188654724E+02  0.30854408476E+02  0.10656803745E+03  0.12218436684E+03  0.00000000000E+00 0.  1.
         21    1    1    2  506  502  0.51592489957E+01 -0.46899821096E+02 -0.25342960778E+03  0.25778436176E+03  0.00000000000E+00 0.  1.
<scales pt_clust_3="14000.00000" pt_clust_4="52.42943" pt_clust_5="76.76712" pt_clust_6="47.18274"></scales>
<clustering>
<clus scale="   47.183">  2  6  1 -1</clus>
<clus scale="   52.429">  1  4  2 -1</clus>
<clus scale="   76.767">  1  5  2 -1</clus>
<clus scale="   52.429">  1  3  2 -1</clus>
</clustering>
</event>
<event>
 6    0  0.4582113E+002  0.9763286E+02  0.7546771E-02  0.1285354E+00
         21   -1    0    0  506  501  0.00000000000E+00  0.00000000000E+00  0.33246207179E+02  0.33246207179E+02  0.00000000000E+00 0. -1.
         21   -1    0    0  504  502 -0.00000000000E+00 -0.00000000000E+00 -0.13803574817E+04  0.13803574817E+04  0.00000000000E+00 0. -1.
         21    1    1    2  503  502 -0.46100416672E+02 -0.42531699451E+02 -0.19875882116E+03  0.20842087915E+03  0.00000000000E+00 0. -1.
         21    1    1    2  504  505  0.16824446334E+02  0.86311630756E+02 -0.10292986576E+04  0.10330481529E+04  0.00000000000E+00 0. -1.
         21    1    1    2  505  501  0.71220275738E+02 -0.30630712228E+02 -0.57623921257E+02  0.96597538835E+02  0.00000000000E+00 0. -1.
         21    1    1    2  506  503 -0.41944305400E+02 -0.13149219077E+02 -0.61429874451E+02  0.75537117981E+02  0.00000000000E+00 0. -1.
<scales pt_clust_3="38.19573" pt_clust_4="86.31585" pt_clust_5="77.52785" pt_clust_6="38.19573"></scales>
<clustering>
<clus scale="   38.196">  3  6 -1 -1</clus>
<clus scale="   77.528">  1  5  2 -1</clus>
<clus scale="   86.316">  2  4  1 -1</clus>
<clus scale="   77.528">  1  3  2 -1</clus>
</clustering>
</event>
<event>
 6    0  0.4582113E+002  0.2782202E+03  0.7546771E-02  0.1096665E+00
         21   -1    0    0  503  501  0.00000000000E+00  0.00000000000E+00  0.15035995687E+04  0.15035995687E+04  0.00000000000E+00 0.  1.
         21   -1    0    0  506  502 -0.00000000000E+00 -0.00000000000E+00 -0.24040328013E+03  0.24040328013E+03  0.00000000000E+00 0. -1.
         21    1    1    2  503  505 -0.45857965929E+02  0.47458003939E+01  0.13535383793E+03  0.14298998952E+03  0.00000000000E+00 0. -1.
         21    1    1    2  504  502  0.29165011826E+02  0.23046610817E+02 -0.43035795721E+02  0.56866720482E+02  0.00000000000E+00 0.  1.
         21    1    1    2  505  504 -0.29070587450E+03 -0.90772663404E+02 -0.27103365155E+02  0.30575181814E+03  0.00000000000E+00 0. -1.
         21    1    1    2  506  501  0.30739882861E+03  0.62980252194E+02  0.11979816115E+04  0.12383943207E+04  0.00000000000E+00 0.  1.
<scales pt_clust_3="45.57183" pt_clust_4="37.17182" pt_clust_5="278.22025" pt_clust_6="14000.00000"></scales>
<clustering>
<clus scale="   37.172">  2  4  1 -1</clus>
<clus scale="   45.572">  1  3  2 -1</clus>
<clus scale="  278.220">  2  5  1 -1</clus>
<clus scale="   45.572">  1  3  2 -1</clus>
</clustering>
</event>
<event>
 6    0  0.4582113E+002  0.1564341E+03  0.7546771E-02  0.1192782E+00
         21   -1    0    0  504  501  0.00000000000E+00  0.00000000000E+00  0.14940182917E+03  0.14940182917E+03  0.00000000000E+00 0.  1.
         21   -1    0    0  506  502 -0.00000000000E+00 -0.00000000000E+00 -0.35330758147E+03  0.35330758147E+03  0.00000000000E+00 0. -1.
         21    1    1    2  503  501  0.16450308200E+03 -0.86435099206E+02 -0.39861320795E+02  0.19005582143E+03  0.00000000000E+00 0.  1.
         21    1    1    2  504  505 -0.41732309244E+02  0.36881211948E+02  0.69675974182E+01  0.56128039726E+02  0.00000000000E+00 0.  1.
         21    1    1    2  505  502 -0.15242968504E+03  0.29786114071E+02 -0.14408268155E+03  0.21185334691E+03  0.00000000000E+00 0. -1.
         21    1    1    2  506  503  0.29658912283E+02  0.19767773186E+02 -0.26929347371E+02  0.44672202592E+02  0.00000000000E+00 0. -1.
<scales pt_clust_3="14000.00000" pt_clust_4="55.05146" pt_clust_5="156.43411" pt_clust_6="35.64289"></scales>
<clustering>
<clus scale="   35.643">  2  6  1 -1</clus>
<clus scale="   55.051">  1  4  2 -1</clus>
<clus scale="  156.434">  2  5  1 -1</clus>
<clus scale="   55.051">  1  3  2 -1</clus>
</clustering>
</event>
<event>
 6    0  0.4582113E+002  0.2006440E+03  0.7546771E-02  0.1149197E+00
         21   -1    0    0  505  501  0.00000000000E+00  0.00000000000E+00  0.40198740909E+03  0.40198740909E+03  0.00000000000E+00 0.  1.
         21   -1    0    0  506  502 -0.00000000000E+00 -0.00000000000E+00 -0.18230473997E+04  0.18230473997E+04  0.00000000000E+00 0. -1.
         21    1    1    2  503  501 -0.49635147513E+02  0.14654479323E+03  0.34505947189E+03  0.37816010291E+03  0.00000000000E+00 0.  1.
         21    1    1    2  504  503  0.62029229168E+02 -0.21727713258E+03 -0.59210703527E+03  0.63375682942E+03  0.00000000000E+00 0. -1.
         21    1    1    2  505  502 -0.25083327265E+02  0.40233061406E+02 -0.97712585285E+01  0.48408160779E+02  0.00000000000E+00 0. -1.
         21    1    1    2  506  504  0.12689245610E+02  0.30499277945E+02 -0.11642411687E+04  0.11647097157E+04  0.00000000000E+00 0. -1.
<scales pt_clust_3="14000.00000" pt_clust_4="200.64402" pt_clust_5="48.27303" pt_clust_6="33.03366"></scales>
<clustering>
<clus scale="   33.034">  2  6  1 -1</clus>
<clus scale="   48.273">  1  5  2 -1</clus>
<clus scale="  200.644">  2  4  1 -1</clus>
<clus scale="   48.273">  1  3  2 -1</clus>
</clustering>
</event>
<event>
 6    0  0.4582113E+002  0.1016948E+03  0.7546771E-02  0.1276772E+00
         21   -1    0    0  505  501  0.00000000000E+00  0.00000000000E+00  0.18613594249E+03  0.18613594249E+03  0.00000000000E+00 0. -1.
         21   -1    0    0  504  502 -0.00000000000E+00 -0.00000000000E+00 -0.23955466113E+04  0.23955466113E+04  0.00000000000E+00 0.  1.
         21    1    1    2  503  502 -0.22983928173E+02  0.21901467552E+02 -0.13804955191E+04  0.13808605337E+04  0.00000000000E+00 0.  1.
         21    1    1    2  504  501  0.77434935275E+02  0.28808213495E+02 -0.93849108431E+03  0.94212079782E+03  0.00000000000E+00 0. -1.
         21    1    1    2  505  506 -0.88584024437E+02 -0.50577128261E+02  0.16477942364E+03  0.19379740386E+03  0.00000000000E+00 0. -1.
         21    1    1    2  506  503  0.34133017335E+02 -0.13255278573E+00 -0.55203489066E+02  0.64903818437E+02  0.00000000000E+00 0.  1.
<scales pt_clust_3="31.74800" pt_clust_4="101.69482" pt_clust_5="14000.00000" pt_clust_6="32.79362"></scales>
<clustering>
<clus scale="   31.748">  2  3  1 -1</clus>
<clus scale="   32.794">  2  6  1 -1</clus>
<clus scale="  101.695">  2  4  1 -1</clus>
<clus scale="  101.695">  1  3  2 -1</clus>
</clustering>
</event>
<event>
 6    0  0.4582113E+002  0.1212026E+03  0.7546771E-02  0.1241126E+00
         21   -1    0    0  503  501  0.00000000000E+00  0.00000000000E+00  0.18586324148E+04  0.18586324148E+04  0.00000000000E+00 0.  1.
         21   -1    0    0  504  502 -0.00000000000E+00 -0.00000000000E+00 -0.47155893728E+02  0.47155893728E+02  0.00000000000E+00 0.  1.
         21    1    1    2  503  505 -0.39898624126E+02  0.16130553963E+01  0.12625827027E+04  0.12632139895E+04  0.00000000000E+00 0.  1.
         21    1    1    2  504  501 -0.32565396538E+02  0.84065982480E+02  0.50074726992E+03  0.50879801768E+03  0.00000000000E+00 0. -1.
         21    1    1    2  505  506  0.73337873493E+01 -0.40980735187E+02  0.33501167546E+02  0.53437190423E+02  0.00000000000E+00 0.  1.
         21    1    1    2  506  502  0.65130233314E+02 -0.44698302689E+02  0.14645380868E+02  0.80339110871E+02  0.00000000000E+00 0.  1.
<scales pt_clust_3="39.93122" pt_clust_4="108.18500" pt_clust_5="39.67060" pt_clust_6="39.67060"></scales>
<clustering>
<clus scale="   39.671">  5  6 -1 -1</clus>
<clus scale="   39.931">  1  3  2 -1</clus>
<clus scale="  108.185">  1  4  2 -1</clus>
<clus scale="   39.931">  1  3  2 -1</clus>
</clustering>
</event>
<event>
 6    0  0.4582113E+002  0.1957588E+03  0.7546771E-02  0.1153367E+00
         21   -1    0    0  504  501  0.00000000000E+00  0.00000000000E+00  0.46379176226E+03  0.46379176226E+03  0.00000000000E+00 0.  1.
         21   -1    0    0  506  502 -0.00000000000E+00 -0.00000000000E+00 -0.53281421075E+03  0.53281421075E+03  0.00000000000E+00 0.  1.
         21    1    1    2  503  502  0.39992053843E+02  0.14994440422E+02 -0.18176394691E+03  0.18671456828E+03  0.00000000000E+00 0.  1.
         21    1    1    2  504  505 -0.85467498592E+02 -0.26829678174E+03  0.80369464726E+02  0.29282606999E+03  0.00000000000E+00 0.  1.
         21    1    1    2  505  503  0.65217977999E+02  0.14551957493E+03 -0.20258225154E+03  0.25781563176E+03  0.00000000000E+00 0.  1.
         21    1    1    2  506  501 -0.19742533250E+02  0.10778276639E+03  0.23495428523E+03  0.25924970298E+03  0.00000000000E+00 0.  1.
<scales pt_clust_3="42.71063" pt_clust_4="14000.00000" pt_clust_5="195.75876" pt_clust_6="109.84863"></scales>
<clustering>
<clus scale="   42.711">  2  3  1 -1</clus>
<clus scale="  109.849">  1  6  2 -1</clus>
<clus scale="  195.759">  2  5  1 -1</clus>
<clus scale="  109.849">  1  3  2 -1</clus>
</clustering>
</event>
<event>
 6    0  0.4582113E+002  0.1455054E+03  0.7546771E-02  0.1206107E+00
         21   -1    0    0  504  501  0.00000000000E+00  0.00000000000E+00  0.63592458502E+03  0.63592458502E+03  0.00000000000E+00 0. -1.
         21   -1    0    0  501  502 -0.00000000000E+00 -0.00000000000E+00 -0.69186503668E+03  0.69186503668E+03  0.00000000000E+00 0.  1.
         21    1    1    2  503  506  0.97728100669E+02 -0.29417583992E+02  0.40188656836E+02  0.10968730121E+03  0.00000000000E+00 0.  1.
         21    1    1    2  504  505  0.31007646270E+02  0.13799645965E+02  0.43149736929E+03  0.43283008682E+03  0.00000000000E+00 0. -1.
         21    1    1    2  505  503  0.15270284282E+02  0.67325648316E+02  0.10982165695E+03  0.12971785088E+03  0.00000000000E+00 0. -1.
         21    1    1    2  506  502 -0.14400603122E+03 -0.51707710289E+02 -0.63744813472E+03  0.65555438279E+03  0.00000000000E+00 0.  1.
<scales pt_clust_3="14000.00000" pt_clust_4="33.93972" pt_clust_5="82.53942" pt_clust_6="145.50544"></scales>
<clustering>
<clus scale="   33.940">  1  4  2 -1</clus>
<clus scale="   82.539">  1  5  2 -1</clus>
<clus scale="  145.505">  2  6  1 -1</clus>
<clus scale="   33.940">  1  3  2 -1</clus>
</clustering>
</event>
<event>
 6    0  0.4582113E+002  0.9466600E+02  0.7546771E-02  0.1291930E+00
         21   -1    0    0  504  501  0.00000000000E+00  0.00000000000E+00  0.64053169306E+03  0.64053169306E+03  0.00000000000E+00 0. -1.
         21   -1    0    0  503  502 -0.00000000000E+00 -0.00000000000E+00 -0.43543710140E+03  0.43543710140E+03  0.00000000000E+00 0.  1.
         21    1    1    2  503  501  0.94803692586E+01 -0.35423131405E+02  0.43177750221E+03  0.43333184403E+03  0.00000000000E+00 0. -1.
         21    1    1    2  504  505  0.37629861472E+02 -0.48271470213E+02  0.18582187351E+03  0.19564230112E+03  0.00000000000E+00 0. -1.
         21    1    1    2  505  506 -0.78329839773E+02  0.10664424856E+03 -0.29638251206E+03  0.32457842350E+03  0.00000000000E+00 0.  1.
         21    1    1    2  506  502  0.31219609042E+02 -0.22949646942E+02 -0.11612227201E+03  0.12241622581E+03  0.00000000000E+00 0.  1.
<scales pt_clust_3="36.66982" pt_clust_4="14000.00000" pt_clust_5="94.66600" pt_clust_6="39.18185"></scales>
<clustering>
<clus scale="   36.670">  1  3  2 -1</clus>
<clus scale="   39.182">  2  6  1 -1</clus>
<clus scale="   94.666">  2  5  1 -1</clus>
<clus scale="   36.670">  1  3  2 -1</clus>
</clustering>
</event>
<event>
 6    0  0.4582113E+002  0.8260368E+02  0.7546771E-02  0.1321821E+00
         21   -1    0    0  503  501  0.00000000000E+00  0.00000000000E+00  0.70494943258E+03  0.70494943258E+03  0.00000000000E+00 0. -1.
         21   -1    0    0  506  502 -0.00000000000E+00 -0.00000000000E+00 -0.38109692091E+02  0.38109692091E+02  0.00000000000E+00 0. -1.
         21    1    1    2  503  505  0.77225780669E+02  0.36577517170E+02  0.36156974119E+03  0.37152982882E+03  0.00000000000E+00 0. -1.
         21    1    1    2  504  502  0.35283004976E+02  0.20753420016E+02  0.75786779826E+01  0.41629691837E+02  0.00000000000E+00 0. -1.
         21    1    1    2  505  504 -0.32983263351E+02 -0.49859086207E+02  0.15877381665E+03  0.16965538303E+03  0.00000000000E+00 0. -1.
         21    1    1    2  506  501 -0.79525522295E+02 -0.74718509795E+01  0.13891750467E+03  0.16024422098E+03  0.00000000000E+00 0. -1.
<scales pt_clust_3="82.60368" pt_clust_4="40.93403" pt_clust_5="50.50502" pt_clust_6="14000.00000"></scales>
<clustering>
<clus scale="   40.934">  2  4  1 -1</clus>
<clus scale="   50.505">  2  5  1 -1</clus>
<clus scale="   82.604">  1  3  2 -1</clus>
<clus scale="   82.604">  1  3  2 -1</clus>
</clustering>
</event>
<event>
 6    0  0.4582113E+002  0.7190384E+02  0.7546771E-02  0.1353736E+00
         21   -1    0    0  505  501  0.00000000000E+00  0.00000000000E+00  0.25532943820E+03  0.25532943820E+03  0.00000000000E+00 0.  1.
         21   -1    0    0  503  502 -0.00000000000E+00 -0.00000000000E+00 -0.15766232814E+04  0.15766232814E+04  0.00000000000E+00 0. -1.
         21    1    1    2  503  501  0.54208499812E+02  0.40988971741E+02  0.20818490225E+03  0.21899682824E+03  0.00000000000E+00 0.  1.
         21    1    1    2  504  506 -0.10942316437E+03  0.52237819950E+02 -0.20195004501E+03  0.23555474823E+03  0.00000000000E+00 0. -1.
         21    1    1    2  505  504  0.13167915977E+02 -0.45622331430E+02  0.86241657919E+00  0.47492472021E+02  0.00000000000E+00 0. -1.
         21    1    1    2  506  502  0.42046748582E+02 -0.47604460261E+02 -0.13283911170E+04  0.13299086711E+04  0.00000000000E+00 0. -1.
<scales pt_clust_3="14000.00000" pt_clust_4="71.90384" pt_clust_5="47.48464" pt_clust_6="63.65557"></scales>
<clustering>
<clus scale="   47.485">  1  5  2 -1</clus>
<clus scale="   63.656">  2  6  1 -1</clus>
<clus scale="   71.904">  2  4  1 -1</clus>
<clus scale="   47.485">  1  3  2 -1</clus>
</clustering>
</event>
<event>
 6    0  0.4582113E+002  0.1805900E+03  0.7546771E-02  0.1167233E+00
         21   -1    0    0  502  501  0.00000000000E+00  0.00000000000E+00  0.63302697365E+03  0.63302697365E+03  0.00000000000E+00 0.  1.
         21   -1    0    0  505  502 -0.00000000000E+00 -0.00000000000E+00 -0.47823654131E+03  0.47823654131E+03  0.00000000000E+00 0. -1.
         21    1    1    2  503  504  0.10590621200E+03 -0.95023652631E+02 -0.18673179537E+03  0.23476452820E+03  0.00000000000E+00 0.  1.
         21    1    1    2  504  506 -0.11405966621E+03  0.40801768503E+00  0.49092365379E+03  0.50399980931E+03  0.00000000000E+00 0.  1.
         21    1    1    2  505  503  0.93129075521E+02  0.77278859168E+02 -0.22627726663E+03  0.25660562771E+03  0.00000000000E+00 0. -1.
         21    1    1    2  506  501 -0.84975621305E+02  0.17336775778E+02  0.76875840551E+02  0.11589354974E+03  0.00000000000E+00 0.  1.
<scales pt_clust_3="14000.00000" pt_clust_4="180.58995" pt_clust_5="119.49697" pt_clust_6="86.72612"></scales>
<clustering>
<clus scale="   86.726">  1  6  2 -1</clus>
<clus scale="  119.497">  2  5  1 -1</clus>
<clus scale="  180.590">  1  4  2 -1</clus>
<clus scale="   86.726">  1  3  2 -1</clus>
</clustering>
</event>
<event>
 6    0  0.4582113E+002  0.1242926E+03  0.7546771E-02  0.1236179E+00
         21   -1    0    0  503  501  0.00000000000E+00  0.00000000000E+00  0.73740419869E+02  0.73740419869E+02  0.00000000000E+00 0. -1.
         21   -1    0    0  505  502 -0.00000000000E+00 -0.00000000000E+00 -0.29315460682E+04  0.29315460682E+04  0.00000000000E+00 0.  1.
         21    1    1    2  503  502  0.95945732216E+02 -0.13047017050E+03 -0.45159063092E+02  0.16812908702E+03  0.00000000000E+00 0. -1.
         21    1    1    2  504  501 -0.32143835054E+02  0.68768548259E+02 -0.12979565951E+03  0.15036373429E+03  0.00000000000E+00 0. -1.
         21    1    1    2  505  506 -0.38989664452E+02  0.13557752879E+02 -0.22735563644E+04  0.22739310782E+04  0.00000000000E+00 0.  1.
         21    1    1    2  506  504 -0.24812232710E+02  0.48143869364E+02 -0.40929456138E+03  0.41286258855E+03  0.00000000000E+00 0. -1.
<scales pt_clust_3="124.29264" pt_clust_4="14000.00000" pt_clust_5="41.27961" pt_clust_6="74.99263"></scales>
<clustering>
<clus scale="   41.280">  2  5  1 -1</clus>
<clus scale="   74.993">  2  6  1 -1</clus>
<clus scale="  124.293">  1  3  2 -1</clus>
<clus scale="  124.293">  1  3  2 -1</clus>
</clustering>
</event>
<event>
 6    0  0.4582113E+002  0.1182610E+03  0.7546771E-02  0.1245994E+00
         21   -1    0    0  503  501  0.00000000000E+00  0.00000000000E+00  0.43366520162E+03  0.43366520162E+03  0.00000000000E+00 0. -1.
         21   -1    0    0  504  502 -0.00000000000E+00 -0.00000000000E+00 -0.52581348032E+03  0.52581348032E+03  0.00000000000E+00 0.  1.
         21    1    1    2  503  506 -0.10961812920E+03 -0.95310004124E+02 -0.35468446695E+03  0.38327692630E+03  0.00000000000E+00 0.  1.
         21    1    1    2  504  505  0.52257068463E+02  0.10825471209E+03  0.19592973605E+03  0.22986592911E+03  0.00000000000E+00 0. -1.
         21    1    1    2  505  501  0.45903763078E+02 -0.43726953847E+02  0.19955849147E+03  0.20938670797E+03  0.00000000000E+00 0. -1.
         21    1    1    2  506  502  0.11457297658E+02  0.30782245882E+02 -0.13295203927E+03  0.13694911857E+03  0.00000000000E+00 0.  1.
<scales pt_clust_3="14000.00000" pt_clust_4="118.26096" pt_clust_5="63.23568" pt_clust_6="32.84534"></scales>
<clustering>
<clus scale="   32.845">  2  6  1 -1</clus>
<clus scale="   63.236">  1  5  2 -1</clus>
<clus scale="  118.261">  1  4  2 -1</clus>
<clus scale="   63.236">  1  3  2 -1</clus>
</clustering>
</event>
<event>
 6    0  0.4582113E+002  0.8420682E+02  0.7546771E-02  0.1317520E+00
         21   -1    0    0  503  501  0.00000000000E+00  0.00000000000E+00  0.44934242774E+02  0.44934242774E+02  0.00000000000E+00 0. -1.
         21   -1    0    0  505  502 -0.00000000000E+00 -0.00000000000E+00 -0.47389614061E+03  0.47389614061E+03  0.00000000000E+00 0. -1.
         21    1    1    2  503  506  0.26210955580E+02 -0.28624857739E+02 -0.28936732906E+02  0.48412097499E+02  0.00000000000E+00 0. -1.
         21    1    1    2  504  501 -0.27492619534E+02  0.99302069406E+02 -0.11212937220E+03  0.15228178232E+03  0.00000000000E+00 0. -1.
         21    1    1    2  505  504  0.41509561057E+02  0.93167215152E+01 -0.62479504363E+02  0.75587918508E+02  0.00000000000E+00 0.  1.
         21    1    1    2  506  502 -0.40227897102E+02 -0.79993933182E+02 -0.22541628837E+03  0.24254858505E+03  0.00000000000E+00 0. -1.
<scales pt_clust_3="38.81233" pt_clust_4="84.20682" pt_clust_5="46.56145" pt_clust_6="14000.00000"></scales>
<clustering>
<clus scale="   38.812">  1  3  2 -1</clus>
<clus scale="   46.561">  2  5  1 -1</clus>
<clus scale="   84.207">  1  4  2 -1</clus>
<clus scale="   38.812">  1  3  2 -1</clus>
</clustering>
</event>
<event>
 6    0  0.4582113E+002  0.1329139E+03  0.7546771E-02  0.1223195E+00
         21   -1    0    0  503  501  0.00000000000E+00  0.00000000000E+00  0.11365734237E+03  0.11365734237E+03  0.00000000000E+00 0. -1.
         21   -1    0    0  506  502 -0.00000000000E+00 -0.00000000000E+00 -0.13348812762E+04  0.13348812762E+04  0.00000000000E+00 0. -1.
         21    1    1    2  503  504  0.64015721747E+02  0.99578663188E+02  0.74081298622E+02  0.13964942391E+03  0.00000000000E+00 0. -1.
         21    1    1    2  504  502 -0.26944010930E+02 -0.13631150522E+02 -0.49040337596E+02  0.57591168603E+02  0.00000000000E+00 0. -1.
         21    1    1    2  505  501  0.35695736318E+01 -0.66719204055E+02 -0.69622703849E+03  0.69942568095E+03  0.00000000000E+00 0. -1.
         21    1    1    2  506  505 -0.40641284449E+02 -0.19228308611E+02 -0.55003785641E+03  0.55187234515E+03  0.00000000000E+00 0. -1.
<scales pt_clust_3="117.71502" pt_clust_4="30.19583" pt_clust_5="54.25828" pt_clust_6="54.25828"></scales>
<clustering>
<clus scale="   30.196">  2  4  1 -1</clus>
<clus scale="   54.258">  5  6 -1 -1</clus>
<clus scale="  117.715">  1  3  2 -1</clus>
<clus scale="  117.715">  1  3  2 -1</clus>
</clustering>
</event>
<event>
 6    0  0.4582113E+002  0.8519480E+02  0.7546771E-02  0.1314924E+00
         21   -1    0    0  506  501  0.00000000000E+00  0.00000000000E+00  0.61738736352E+02  0.61738736352E+02  0.00000000000E+00 0. -1.
         21   -1    0    0  504  502 -0.00000000000E+00 -0.00000000000E+00 -0.16141556798E+04  0.16141556798E+04  0.00000000000E+00 0. -1.
         21    1    1    2  503  505 -0.18127531645E+02  0.61447471509E+02 -0.53106449426E+02  0.83214747065E+02  0.00000000000E+00 0. -1.
         21    1    1    2  504  501  0.44615910486E+02  0.36564090393E+02 -0.12456587382E+04  0.12469936665E+04  0.00000000000E+00 0. -1.
         21    1    1    2  505  502 -0.36654693338E+02  0.65664297731E+01 -0.23627057705E+03  0.23918710275E+03  0.00000000000E+00 0. -1.
         21    1    1    2  506  503  0.10166314497E+02 -0.10457799168E+03 -0.17381178758E+02  0.10649889985E+03  0.00000000000E+00 0. -1.
<scales pt_clust_3="14000.00000" pt_clust_4="44.01861" pt_clust_5="37.23821" pt_clust_6="85.19480"></scales>
<clustering>
<clus scale="   37.238">  2  5  1 -1</clus>
<clus scale="   44.019">  2  4  1 -1</clus>
<clus scale="   85.195">  1  6  2 -1</clus>
<clus scale="   85.195">  1  3  2 -1</clus>
</clustering>
</event>
<event>
 6    0  0.4582113E+002  0.2164520E+03  0.7546771E-02  0.1136556E+00
         21   -1    0    0  503  501  0.00000000000E+00  0.00000000000E+00  0.72092866438E+03  0.72092866438E+03  0.00000000000E+00 0.  1.
         21   -1    0    0  506  502 -0.00000000000E+00 -0.00000000000E+00 -0.60282615571E+03  0.60282615571E+03  0.00000000000E+00 0. -1.
         21    1    1    2  503  504  0.15048035147E+03 -0.34293466580E+02 -0.28343520355E+02  0.15691951178E+03  0.00000000000E+00 0.  1.
         21    1    1    2  504  505  0.32477729865E+02 -0.39174212414E+02 -0.75607843739E+01  0.51444993107E+02  0.00000000000E+00 0.  1.
         21    1    1    2  505  502 -0.15232523038E+01 -0.33761394760E+02 -0.46256308434E+03  0.46379603175E+03  0.00000000000E+00 0. -1.
         21    1    1    2  506  501 -0.18143482903E+03  0.10722907375E+03  0.61656989773E+03  0.65159428346E+03  0.00000000000E+00 0.  1.
<scales pt_clust_3="32.76209" pt_clust_4="32.76209" pt_clust_5="33.79574" pt_clust_6="208.79649"></scales>
<clustering>
<clus scale="   32.762">  3  4 -1 -1</clus>
<clus scale="   33.796">  2  5  1 -1</clus>
<clus scale="  208.796">  1  6  2 -1</clus>
<clus scale="  208.796">  1  3  2 -1</clus>
</clustering>
</event>
<event>
 6    0  0.4582113E+002  0.9957963E+02  0.7546771E-02  0.1281182E+00
         21   -1    0    0  503  501  0.00000000000E+00  0.00000000000E+00  0.21830528628E+03  0.21830528628E+03  0.00000000000E+00 0.  1.
         21   -1    0    0  505  502 -0.00000000000E+00 -0.00000000000E+00 -0.20373293342E+03  0.20373293342E+03  0.00000000000E+00 0.  1.
         21    1    1    2  503  504  0.84052656934E+02 -0.12221563164E+03 -0.83560509589E+02  0.17024649341E+03  0.00000000000E+00 0.  1.
         21    1    1    2  504  502 -0.21187382298E+02  0.32910586229E+02 -0.45500228646E+02  0.60019019164E+02  0.00000000000E+00 0.  1.
         21    1    1    2  505  506 -0.10538974318E+02  0.63241560462E+02  0.49643179083E+02  0.81086436466E+02  0.00000000000E+00 0.  1.
         21    1    1    2  506  501 -0.52326300318E+02  0.26063484951E+02  0.93989912012E+02  0.11068627066E+03  0.00000000000E+00 0.  1.
<scales pt_clust_3="14000.00000" pt_clust_4="39.14092" pt_clust_5="99.57963" pt_clust_6="60.32827"></scales>
<clustering>
<clus scale="   39.141">  2  4  1 -1</clus>
<clus scale="   60.328">  1  6  2 -1</clus>
<clus scale="   99.580">  1  5  2 -1</clus>
<clus scale="   60.328">  1  3  2 -1</clus>
</clustering>
</event>
<event>
 6    0  0.4582113E+002  0.9038434E+02  0.7546771E-02  0.1301924E+00
         21   -1    0    0  503  501  0.00000000000E+00  0.00000000000E+00  0.14827317379E+04  0.14827317379E+04  0.00000000000E+00 0. -1.
         21   -1    0    0  506  502 -0.00000000000E+00 -0.00000000000E+00 -0.85336153081E+02  0.85336153081E+02  0.00000000000E+00 0.  1.
         21    1    1    2  503  502 -0.69022869969E+02 -0.54390944803E+02  0.41747064601E+02  0.97290024454E+02  0.00000000000E+00 0.  1.
         21    1    1    2  504  505 -0.36299457979E+02  0.12804751561E+02  0.95376778056E+02  0.10285106759E+03  0.00000000000E+00 0.  1.
         21    1    1    2  505  501  0.73631182921E+02  0.52671222251E+02  0.13071415349E+04  0.13102727964E+04  0.00000000000E+00 0. -1.
         21    1    1    2  506  504  0.31691145028E+02 -0.11085029008E+02 -0.46869792714E+02  0.57654002552E+02  0.00000000000E+00 0.  1.
<scales pt_clust_3="90.38434" pt_clust_4="34.69813" pt_clust_5="14000.00000" pt_clust_6="33.57390"></scales>
<clustering>
<clus scale="   33.574">  2  6  1 -1</clus>
<clus scale="   34.698">  2  4  1 -1</clus>
<clus scale="   90.384">  2  3  1 -1</clus>
<clus scale="   90.384">  1  3  2 -1</clus>
</clustering>
</event>
<event>
 6    0  0.4582113E+002  0.1563067E+03  0.7546771E-02  0.1192931E+00
         21   -1    0    0  504  501  0.00000000000E+00  0.00000000000E+00  0.12867612487E+03  0.12867612487E+03  0.00000000000E+00 0.  1.
         21   -1    0    0  506  502 -0.00000000000E+00 -0.00000000000E+00 -0.93416510844E+03  0.93416510844E+03  0.00000000000E+00 0. -1.
         21    1    1    2  503  502 -0.39200195174E+02  0.11571435918E+03 -0.16540406694E+03  0.20563310430E+03  0.00000000000E+00 0. -1.
         21    1    1    2  504  503 -0.17153027910E+02 -0.19977660475E+03 -0.11591953352E+02  0.20084643774E+03  0.00000000000E+00 0.  1.
         21    1    1    2  505  501  0.29179317473E+02  0.32440849476E+02 -0.25468703029E+02  0.50522233886E+02  0.00000000000E+00 0. -1.
         21    1    1    2  506  505  0.27173905611E+02  0.51621396092E+02 -0.60302426025E+03  0.60583945739E+03  0.00000000000E+00 0. -1.
<scales pt_clust_3="14000.00000" pt_clust_4="156.30672" pt_clust_5="43.63303" pt_clust_6="58.84962"></scales>
<clustering>
<clus scale="   43.633">  1  5  2 -1</clus>
<clus scale="   58.850">  2  6  1 -1</clus>
<clus scale="  156.307">  1  4  2 -1</clus>
<clus scale="   43.633">  1  3  2 -1</clus>
</clustering>
</event>
<event>
 6    0  0.4582113E+002  0.6242820E+02  0.7546771E-02  0.1387915E+00
         21   -1    0    0  504  501  0.00000000000E+00  0.00000000000E+00  0.53556502432E+02  0.53556502432E+02  0.00000000000E+00 0. -1.
         21   -1    0    0  505  502 -0.00000000000E+00 -0.00000000000E+00 -0.52021394599E+03  0.52021394599E+03  0.00000000000E+00 0. -1.
         21    1    1    2  503  501 -0.32349689978E+02  0.44179702090E+02 -0.95662448593E+01  0.55586523180E+02  0.00000000000E+00 0. -1.
         21    1    1    2  504  506  0.53152318780E+02 -0.59523268172E+02 -0.50949244647E+02  0.94678476834E+02  0.00000000000E+00 0. -1.
         21    1    1    2  505  503  0.48517783163E+02  0.94607930274E+01 -0.14210433579E+03  0.15045638617E+03  0.00000000000E+00 0. -1.
         21    1    1    2  506  502 -0.69320411965E+02  0.58827730542E+01 -0.26403761826E+03  0.27304906224E+03  0.00000000000E+00 0. -1.
<scales pt_clust_3="14000.00000" pt_clust_4="62.42820" pt_clust_5="49.43159" pt_clust_6="36.73380"></scales>
<clustering>
<clus scale="   49.432">  2  5  1 -1</clus>
<clus scale="   36.734">  2  6  1 -1</clus>
<clus scale="   62.428">  2  4  1 -1</clus>
<clus scale="   62.428">  1  3  2 -1</clus>
</clustering>
</event>
<event>
 6    0  0.4582113E+002  0.2160302E+03  0.7546771E-02  0.1136878E+00
         21   -1    0    0  504  501  0.00000000000E+00  0.00000000000E+00  0.23287846068E+03  0.23287846068E+03  0.00000000000E+00 0. -1.
         21   -1    0    0  505  502 -0.00000000000E+00 -0.00000000000E+00 -0.11172544858E+04  0.11172544858E+04  0.00000000000E+00 0.  1.
         21    1    1    2  503  506 -0.18272904534E+03 -0.10170095888E+03 -0.44478178644E+02  0.21380200519E+03  0.00000000000E+00 0. -1.
         21    1    1    2  504  502  0.24399744671E+03 -0.63309645173E+02 -0.79795047768E+03  0.83682007027E+03  0.00000000000E+00 0.  1.
         21    1    1    2  505  503 -0.25157984927E+02  0.93310996470E+02 -0.14166725771E+03  0.17149191869E+03  0.00000000000E+00 0.  1.
         21    1    1    2  506  501 -0.36110416439E+02  0.71699607582E+02  0.99719888941E+02  0.12801895232E+03  0.00000000000E+00 0. -1.
<scales pt_clust_3="14000.00000" pt_clust_4="216.03023" pt_clust_5="106.51472" pt_clust_6="80.27949"></scales>
<clustering>
<clus scale="   80.279">  1  6  2 -1</clus>
<clus scale="  106.515">  2  5  1 -1</clus>
<clus scale="  216.030">  2  4  1 -1</clus>
<clus scale="   80.279">  1  3  2 -1</clus>
</clustering>
</event>
<event>
 6    0  0.4582113E+002  0.9943963E+02  0.7546771E-02  0.1281479E+00
         21   -1    0    0  506  501  0.00000000000E+00  0.00000000000E+00  0.26466658293E+03  0.26466658293E+03  0.00000000000E+00 0.  1.
         21   -1    0    0  505  502 -0.00000000000E+00 -0.00000000000E+00 -0.31875840891E+03  0.31875840891E+03  0.00000000000E+00 0. -1.
         21    1    1    2  503  501 -0.72883123692E+02  0.32563895318E+02  0.25582163532E+02  0.83826034669E+02  0.00000000000E+00 0.  1.
         21    1    1    2  504  502  0.12141166556E+03 -0.29889587821E+02  0.28736436487E+02  0.12829638645E+03  0.00000000000E+00 0.  1.
         21    1    1    2  505  503 -0.14308651542E+02  0.40773319600E+02 -0.23195412768E+03  0.23594473600E+03  0.00000000000E+00 0. -1.
         21    1    1    2  506  504 -0.34219890322E+02 -0.43447627097E+02  0.12354370168E+03  0.13535783471E+03  0.00000000000E+00 0. -1.
<scales pt_clust_3="99.43963" pt_clust_4="14000.00000" pt_clust_5="43.21112" pt_clust_6="53.75117"></scales>
<clustering>
<clus scale="   43.211">  2  5  1 -1</clus>
<clus scale="   53.751">  1  6  2 -1</clus>
<clus scale="   99.440">  1  3  2 -1</clus>
<clus scale="   53.751">  1  3  2 -1</clus>
</clustering>
</event>
<event>
 6    0  0.4582113E+002  0.3025081E+03  0.7546771E-02  0.1083994E+00
         21   -1    0    0  503  501  0.00000000000E+00  0.00000000000E+00  0.23141107771E+03  0.23141107771E+03  0.00000000000E+00 0.  1.
         21   -1    0    0  505  502 -0.00000000000E+00 -0.00000000000E+00 -0.80303237133E+03  0.80303237133E+03  0.00000000000E+00 0.  1.
         21    1    1    2  503  506 -0.23434421296E+01  0.81836509586E+02 -0.30454433786E+02  0.87350893295E+02  0.00000000000E+00 0. -1.
         21    1    1    2  504  501  0.20652211672E+03 -0.24724572758E+03 -0.17587024181E+03  0.36703157419E+03  0.00000000000E+00 0.  1.
         21    1    1    2  505  504 -0.11801956348E+03 -0.26533636070E+02 -0.34861686717E+03  0.36900727809E+03  0.00000000000E+00 0.  1.
         21    1    1    2  506  502 -0.86159111111E+02  0.19194285407E+03 -0.16679750861E+02  0.21105370346E+03  0.00000000000E+00 0.  1.
<scales pt_clust_3="39.62897" pt_clust_4="295.76230" pt_clust_5="120.96550" pt_clust_6="39.62897"></scales>
<clustering>
<clus scale="   39.629">  3  6 -1 -1</clus>
<clus scale="  120.965">  2  5  1 -1</clus>
<clus scale="  295.762">  2  4  1 -1</clus>
<clus scale="  302.508">  1  3  2 -1</clus>
</clustering>
</event>
<event>
 6    0  0.4582113E+002  0.1735032E+03  0.7546771E-02  0.1174243E+00
         21   -1    0    0  506  501  0.00000000000E+00  0.00000000000E+00  0.18770554116E+03  0.18770554116E+03  0.00000000000E+00 0.  1.
         21   -1    0    0  505  502 -0.00000000000E+00 -0.00000000000E+00 -0.27769333518E+03  0.27769333518E+03  0.00000000000E+00 0.  1.
         21    1    1    2  503  501 -0.53003759637E+02 -0.90252250575E+02  0.72618011143E+02  0.12739012054E+03  0.00000000000E+00 0.  1.
         21    1    1    2  504  503 -0.60657163178E+02 -0.16495260286E+02  0.12457018230E+02  0.64082465308E+02  0.00000000000E+00 0. -1.
         21    1    1    2  505  504 -0.32808854639E+02  0.21783532527E+02 -0.19322357203E+02  0.43866806585E+02  0.00000000000E+00 0. -1.
         21    1    1    2  506  502  0.14646977745E+03  0.84963978335E+02 -0.15574046619E+03  0.23005948390E+03  0.00000000000E+00 0.  1.
<scales pt_clust_3="56.65771" pt_clust_4="56.65771" pt_clust_5="39.38202" pt_clust_6="158.09238"></scales>
<clustering>
<clus scale="   39.382">  2  5  1 -1</clus>
<clus scale="   56.658">  3  4 -1 -1</clus>
<clus scale="  158.092">  2  6  1 -1</clus>
<clus scale="  173.503">  1  3  2 -1</clus>
</clustering>
</event>
<event>
 6    0  0.4582113E+002  0.1441538E+03  0.7546771E-02  0.1207847E+00
         21   -1    0    0  503  501  0.00000000000E+00  0.00000000000E+00  0.27971842951E+03  0.27971842951E+03  0.00000000000E+00 0.  1.
         21   -1    0    0  506  502 -0.00000000000E+00 -0.00000000000E+00 -0.32149949197E+03  0.32149949197E+03  0.00000000000E+00 0.  1.
         21    1    1    2  503  502  0.33966340433E+02  0.30449289568E+02  0.33520519333E+02  0.56608274430E+02  0.00000000000E+00 0. -1.
         21    1    1    2  504  505 -0.11886851414E+03  0.34405987022E+02 -0.51168388990E+02  0.13390929627E+03  0.00000000000E+00 0.  1.
         21    1    1    2  505  501 -0.24118244660E+02  0.72068702216E+02  0.14727170536E+03  0.16572429744E+03  0.00000000000E+00 0.  1.
         21    1    1    2  506  504  0.10902041837E+03 -0.13692397881E+03 -0.17140489816E+03  0.24497605333E+03  0.00000000000E+00 0.  1.
<scales pt_clust_3="45.61657" pt_clust_4="144.15381" pt_clust_5="92.38789" pt_clust_6="14000.00000"></scales>
<clustering>
<clus scale="   45.617">  1  3  2 -1</clus>
<clus scale="   92.388">  1  5  2 -1</clus>
<clus scale="  144.154">  1  4  2 -1</clus>
<clus scale="   45.617">  1  3  2 -1</clus>
</clustering>
</event>
<event>
 6    0  0.4582113E+002  0.1488081E+03  0.7546771E-02  0.1201945E+00
         21   -1    0    0  505  501  0.00000000000E+00  0.00000000000E+00  0.27696732598E+03  0.27696732598E+03  0.00000000000E+00 0.  1.
         21   -1    0    0  504  502 -0.00000000000E+00 -0.00000000000E+00 -0.31108443964E+04  0.31108443964E+04  0.00000000000E+00 0.  1.
         21    1    1    2  503  506 -0.96430786822E+02 -0.77670117804E+02 -0.14076504565E+04  0.14130857551E+04  0.00000000000E+00 0.  1.
         21    1    1    2  504  501  0.15992964418E+02  0.52051339104E+02  0.38348646129E+02  0.66601317355E+02  0.00000000000E+00 0. -1.
         21    1    1    2  505  503  0.11776521235E+03  0.16177318007E+02  0.20560814638E+03  0.23749749623E+03  0.00000000000E+00 0.  1.
         21    1    1    2  506  502 -0.37327389949E+02  0.94414606926E+01 -0.16701834065E+04  0.16706271536E+04  0.00000000000E+00 0.  1.
<scales pt_clust_3="148.80811" pt_clust_4="54.43519" pt_clust_5="14000.00000" pt_clust_6="38.50292"></scales>
<clustering>
<clus scale="   38.503">  2  6  1 -1</clus>
<clus scale="   54.435">  1  4  2 -1</clus>
<clus scale="  148.808">  2  3  1 -1</clus>
<clus scale="   54.435">  1  3  2 -1</clus>
</clustering>
</event>
<event>
 6    0  0.4582113E+002  0.9438829E+02  0.7546771E-02  0.1292560E+00
         21   -1    0    0  505  501  0.00000000000E+00  0.00000000000E+00  0.10139517048E+04  0.10139517048E+04  0.00000000000E+00 0.  1.
         21   -1    0    0  504  502 -0.00000000000E+00 -0.00000000000E+00 -0.15683964938E+03  0.15683964938E+03  0.00000000000E+00 0. -1.
         21    1    1    2  503  502 -0.46094704831E+02 -0.15934480413E+02 -0.54076663120E+02  0.72821116262E+02  0.00000000000E+00 0. -1.
         21    1    1    2  504  501  0.12158813991E+03  0.53544621124E+02 -0.42683276979E+02  0.13954413048E+03  0.00000000000E+00 0. -1.
         21    1    1    2  505  506 -0.55800635698E+02 -0.10768447096E+02  0.71350510558E+03  0.71576477008E+03  0.00000000000E+00 0.  1.
         21    1    1    2  506  503 -0.19692799385E+02 -0.26841693615E+02  0.24036688995E+03  0.24266133735E+03  0.00000000000E+00 0.  1.
<scales pt_clust_3="48.77120" pt_clust_4="85.52258" pt_clust_5="30.56741" pt_clust_6="30.56741"></scales>
<clustering>
<clus scale="   30.567">  5  6 -1 -1</clus>
<clus scale="   48.771">  2  3  1 -1</clus>
<clus scale="   85.523">  2  4  1 -1</clus>
<clus scale="   94.388">  1  3  2 -1</clus>
</clustering>
</event>
<event>
 6    0  0.4582113E+002  0.1257312E+03  0.7546771E-02  0.1233931E+00
         21   -1    0    0  505  501  0.00000000000E+00  0.00000000000E+00  0.31093018664E+03  0.31093018664E+03  0.00000000000E+00 0. -1.
         21   -1    0    0  504  502 -0.00000000000E+00 -0.00000000000E+00 -0.10558821718E+04  0.10558821718E+04  0.00000000000E+00 0. -1.
         21    1    1    2  503  506  0.50305443546E+02 -0.72754726089E+02  0.27456584348E+02  0.92616153249E+02  0.00000000000E+00 0. -1.
         21    1    1    2  504  503  0.65003749514E+02  0.11576919714E+03 -0.80209857277E+03  0.81301298569E+03  0.00000000000E+00 0. -1.
         21    1    1    2  505  502 -0.88556060138E+02  0.23612883574E+02 -0.20028640706E+03  0.22025982138E+03  0.00000000000E+00 0. -1.
         21    1    1    2  506  501 -0.26753132921E+02 -0.66627354628E+02  0.22997641028E+03  0.24092339818E+03  0.00000000000E+00 0. -1.
<scales pt_clust_3="14000.00000" pt_clust_4="125.73122" pt_clust_5="93.27696" pt_clust_6="71.79787"></scales>
<clustering>
<clus scale="   71.798">  1  6  2 -1</clus>
<clus scale="   93.277">  2  5  1 -1</clus>
<clus scale="  125.731">  2  4  1 -1</clus>
<clus scale="   71.798">  1  3  2 -1</clus>
</clustering>
</event>
<event>
 6    0  0.4582113E+002  0.8017951E+02  0.7546771E-02  0.1328543E+00
         21   -1    0    0  504  501  0.00000000000E+00  0.00000000000E+00  0.32331643474E+03  0.32331643474E+03  0.00000000000E+00 0. -1.
         21   -1    0    0  503  502 -0.00000000000E+00 -0.00000000000E+00 -0.41998872504E+03  0.41998872504E+03  0.00000000000E+00 0. -1.
         21    1    1    2  503  501 -0.14144000436E+02 -0.69807782287E+02 -0.14361019511E+03  0.16030304849E+03  0.00000000000E+00 0. -1.
         21    1    1    2  504  506  0.22074921902E+02  0.53057012299E+02  0.82008979527E+02  0.10013901065E+03  0.00000000000E+00 0. -1.
         21    1    1    2  505  502 -0.67352586415E+02  0.48607248733E+02 -0.24693485047E+03  0.26052995202E+03  0.00000000000E+00 0. -1.
         21    1    1    2  506  505  0.59421664948E+02 -0.31856478745E+02  0.21186377574E+03  0.22233314862E+03  0.00000000000E+00 0. -1.
<scales pt_clust_3="69.20105" pt_clust_4="57.46607" pt_clust_5="80.17951" pt_clust_6="14000.00000"></scales>
<clustering>
<clus scale="   57.466">  1  4  2 -1</clus>
<clus scale="   69.201">  2  3  1 -1</clus>
<clus scale="   80.180">  2  5  1 -1</clus>
<clus scale="   57.466">  1  3  2 -1</clus>
</clustering>
</event>
<event>
 6    0  0.4582113E+002  0.1193473E+03  0.7546771E-02  0.1244178E+00
         21   -1    0    0  503  501  0.00000000000E+00  0.00000000000E+00  0.24166035215E+03  0.24166035215E+03  0.00000000000E+00 0.  1.
         21   -1    0    0  505  502 -0.00000000000E+00 -0.00000000000E+00 -0.22699838228E+03  0.22699838228E+03  0.00000000000E+00 0.  1.
         21    1    1    2  503  506  0.56118904537E+02  0.29854797904E+02  0.13913692395E+03  0.15296968330E+03  0.00000000000E+00 0.  1.
         21    1    1    2  504  502 -0.13252608672E+02 -0.64044523750E+02 -0.92035072538E+02  0.11290609920E+03  0.00000000000E+00 0.  1.
         21    1    1    2  505  501 -0.82784371314E+02 -0.55690357042E+01 -0.89881629104E+02  0.12232323386E+03  0.00000000000E+00 0.  1.
         21    1    1    2  506  504  0.39918075449E+02  0.39758761550E+02  0.57441747567E+02  0.80459718065E+02  0.00000000000E+00 0.  1.
<scales pt_clust_3="39.68583" pt_clust_4="65.40132" pt_clust_5="111.65492" pt_clust_6="39.68583"></scales>
<clustering>
<clus scale="   39.686">  3  6 -1 -1</clus>
<clus scale="   65.401">  2  4  1 -1</clus>
<clus scale="  111.655">  2  5  1 -1</clus>
<clus scale="  119.347">  1  3  2 -1</clus>
</clustering>
</event>
<event>
 6    0  0.4582113E+002  0.1760176E+03  0.7546771E-02  0.1171714E+00
         21   -1    0    0  503  501  0.00000000000E+00  0.00000000000E+00  0.31873642367E+03  0.31873642367E+03  0.00000000000E+00 0.  1.
         21   -1    0    0  504  502 -0.00000000000E+00 -0.00000000000E+00 -0.48309459253E+03  0.48309459253E+03  0.00000000000E+00 0. -1.
         21    1    1    2  503  502  0.14077057276E+03  0.10633372601E+03  0.24306570581E+03  0.30034006190E+03  0.00000000000E+00 0.  1.
         21    1    1    2  504  505 -0.23086748419E+02 -0.43838776869E+02 -0.33831900173E+03  0.34192774564E+03  0.00000000000E+00 0. -1.
         21    1    1    2  505  506 -0.85151764921E+02 -0.44740950570E+02 -0.75080603995E+02  0.12202324706E+03  0.00000000000E+00 0. -1.
         21    1    1    2  506  501 -0.32532059417E+02 -0.17753998568E+02  0.59757310518E+01  0.37539961596E+02  0.00000000000E+00 0. -1.
<scales pt_clust_3="167.48839" pt_clust_4="49.54630" pt_clust_5="33.59820" pt_clust_6="33.59820"></scales>
<clustering>
<clus scale="   33.598">  5  6 -1 -1</clus>
<clus scale="   49.546">  2  4  1 -1</clus>
<clus scale="  167.488">  1  3  2 -1</clus>
<clus scale="  167.488">  1  3  2 -1</clus>
</clustering>
</event>
<event>
 6    0  0.4582113E+002  0.2831925E+03  0.7546771E-02  0.1093958E+00
         21   -1    0    0  506  501  0.00000000000E+00  0.00000000000E+00  0.69025688525E+03  0.69025688525E+03  0.00000000000E+00 0.  1.
         21   -1    0    0  504  502 -0.00000000000E+00 -0.00000000000E+00 -0.15290889870E+03  0.15290889870E+03  0.00000000000E+00 0.  1.
         21    1    1    2  503  502 -0.41140026586E+00  0.78287413630E+02  0.33937197984E+02  0.85327731658E+02  0.00000000000E+00 0.  1.
         21    1    1    2  504  505 -0.20340668464E+03  0.43748337071E+02  0.23223653836E+03  0.31180443567E+03  0.00000000000E+00 0.  1.
         21    1    1    2  505  501 -0.58780784301E+02  0.55948280709E+01  0.24959578641E+02  0.64105095508E+02  0.00000000000E+00 0. -1.
         21    1    1    2  506  503  0.26259886921E+03 -0.12763057877E+03  0.24621467156E+03  0.38192852111E+03  0.00000000000E+00 0.  1.
<scales pt_clust_3="78.28849" pt_clust_4="33.61297" pt_clust_5="33.61297" pt_clust_6="276.07400"></scales>
<clustering>
<clus scale="   33.613">  4  5 -1 -1</clus>
<clus scale="   78.288">  2  3  1 -1</clus>
<clus scale="  276.074">  2  6  1 -1</clus>
<clus scale="  283.192">  1  3  2 -1</clus>
</clustering>
</event>
<event>
 6    0  0.4582113E+002  0.1002807E+03  0.7546771E-02  0.1279707E+00
         21   -1    0    0  503  501  0.00000000000E+00  0.00000000000E+00  0.41022152735E+03  0.41022152735E+03  0.00000000000E+00 0.  1.
         21   -1    0    0  505  502 -0.00000000000E+00 -0.00000000000E+00 -0.55795392300E+03  0.55795392300E+03  0.00000000000E+00 0.  1.
         21    1    1    2  503  504 -0.35173546951E+02 -0.89398895720E+01  0.18292595402E+03  0.18649129922E+03  0.00000000000E+00 0.  1.
         21    1    1    2  504  502 -0.64892804820E+02  0.37960421353E+02  0.18042133219E+03  0.19545824827E+03  0.00000000000E+00 0.  1.
         21    1    1    2  505  506 -0.17240328188E+02 -0.30594977707E+02 -0.45471829072E+03  0.45607236870E+03  0.00000000000E+00 0.  1.
         21    1    1    2  506  501  0.11730667996E+03  0.15744459265E+01 -0.56361391146E+02  0.13015353416E+03  0.00000000000E+00 0.  1.
<scales pt_clust_3="36.71597" pt_clust_4="100.28065" pt_clust_5="35.11811" pt_clust_6="14000.00000"></scales>
<clustering>
<clus scale="   35.118">  2  5  1 -1</clus>
<clus scale="   36.716">  1  3  2 -1</clus>
<clus scale="  100.281">  1  4  2 -1</clus>
<clus scale="   36.716">  1  3  2 -1</clus>
</clustering>
</event>
<event>
 6    0  0.4582113E+002  0.8992542E+02  0.7546771E-02  0.1303032E+00
         21   -1    0    0  506  501  0.00000000000E+00  0.00000000000E+00  0.10339696494E+03  0.10339696494E+03  0.00000000000E+00 0.  1.
         21   -1    0    0  504  502 -0.00000000000E+00 -0.00000000000E+00 -0.74294104499E+03  0.74294104499E+03  0.00000000000E+00 0.  1.
         21    1    1    2  503  501 -0.11480807988E+03 -0.55696242894E+02  0.16874340386E+02  0.12871561693E+03  0.00000000000E+00 0.  1.
         21    1    1    2  504  503  0.41801912451E+02  0.31730546665E+02 -0.24064777401E+03  0.24630383394E+03  0.00000000000E+00 0.  1.
         21    1    1    2  505  502  0.52520544489E+02 -0.26380978578E+02 -0.41271390634E+03  0.41687783836E+03  0.00000000000E+00 0.  1.
         21    1    1    2  506  505  0.20485622936E+02  0.50346674807E+02 -0.30567400777E+01  0.54440720707E+02  0.00000000000E+00 0.  1.
<scales pt_clust_3="89.92542" pt_clust_4="52.48073" pt_clust_5="14000.00000" pt_clust_6="56.97418"></scales>
<clustering>
<clus scale="   52.481">  2  4  1 -1</clus>
<clus scale="   56.974">  1  6  2 -1</clus>
<clus scale="   89.925">  1  3  2 -1</clus>
<clus scale="   56.974">  1  3  2 -1</clus>
</clustering>
</event>
<event>
 6    0  0.4582113E+002  0.1082639E+03  0.7546771E-02  0.1263819E+00
         21   -1    0    0  504  501  0.00000000000E+00  0.00000000000E+00  0.18662678708E+04  0.18662678708E+04  0.00000000000E+00 0.  1.
         21   -1    0    0  505  502 -0.00000000000E+00 -0.00000000000E+00 -0.48668893409E+03  0.48668893409E+03  0.00000000000E+00 0.  1.
         21    1    1    2  503  502 -0.40048097980E+02  0.36316683510E+01 -0.42831542854E+03  0.43019896035E+03  0.00000000000E+00 0.  1.
         21    1    1    2  504  506  0.36072698837E+02 -0.79675860077E+02  0.63102074482E+03  0.63705310821E+03  0.00000000000E+00 0.  1.
         21    1    1    2  505  501 -0.39224615769E+02  0.18245879106E+03  0.11535018295E+04  0.11685017123E+04  0.00000000000E+00 0.  1.
         21    1    1    2  506  503  0.43200014911E+02 -0.10641459933E+03  0.23371790920E+02  0.11720302407E+03  0.00000000000E+00 0.  1.
<scales pt_clust_3="40.21243" pt_clust_4="86.43964" pt_clust_5="14000.00000" pt_clust_6="108.26388"></scales>
<clustering>
<clus scale="   40.212">  2  3  1 -1</clus>
<clus scale="   86.440">  1  4  2 -1</clus>
<clus scale="  108.264">  2  6  1 -1</clus>
<clus scale="   86.440">  1  3  2 -1</clus>
</clustering>
</event>
<event>
 6    0  0.4582113E+002  0.2786705E+03  0.7546771E-02  0.1096417E+00
         21   -1    0    0  506  501  0.00000000000E+00  0.00000000000E+00  0.14237053175E+04  0.14237053175E+04  0.00000000000E+00 0. -1.
         21   -1    0    0  505  502 -0.00000000000E+00 -0.00000000000E+00 -0.20865875957E+04  0.20865875957E+04  0.00000000000E+00 0.  1.
         21    1    1    2  503  501  0.53997577756E+02 -0.41477445829E+01  0.69887337322E+03  0.70096856847E+03  0.00000000000E+00 0. -1.
         21    1    1    2  504  503  0.30914314151E+02 -0.25613454754E+02  0.31245097187E+03  0.31501960845E+03  0.00000000000E+00 0. -1.
         21    1    1    2  505  504  0.11811152355E+02 -0.23300314776E+03  0.36651215823E+03  0.43446649159E+03  0.00000000000E+00 0. -1.
         21    1    1    2  506  502 -0.96723044262E+02  0.26276434710E+03 -0.20407187815E+04  0.20598382447E+04  0.00000000000E+00 0.  1.
<scales pt_clust_3="97.23705" pt_clust_4="31.74341" pt_clust_5="278.67054" pt_clust_6="14000.00000"></scales>
<clustering>
<clus scale="   31.743">  3  4 -1 -1</clus>
<clus scale="   97.237">  1  3  2 -1</clus>
<clus scale="  278.671">  1  5  2 -1</clus>
<clus scale="   97.237">  1  3  2 -1</clus>
</clustering>
</event>
<event>
 6    0  0.4582113E+002  0.1096468E+03  0.7546771E-02  0.1261225E+00
         21   -1    0    0  503  501  0.00000000000E+00  0.00000000000E+00  0.12207013171E+04  0.12207013171E+04  0.00000000000E+00 0.  1.
         21   -1    0    0  505  502 -0.00000000000E+00 -0.00000000000E+00 -0.81238535599E+02  0.81238535599E+02  0.00000000000E+00 0.  1.
         21    1    1    2  503  504  0.17268641631E+03  0.36097224441E+02  0.35105801615E+03  0.39289354626E+03  0.00000000000E+00 0.  1.
         21    1    1    2  504  502 -0.81509133992E+02  0.14991955085E+02 -0.22349330370E+02  0.85836997905E+02  0.00000000000E+00 0.  1.
         21    1    1    2  505  506 -0.59769058748E+02 -0.55996977992E+02  0.28608203331E+03  0.29757508583E+03  0.00000000000E+00 0.  1.
         21    1    1    2  506  501 -0.31408223569E+02  0.49077984653E+01  0.52467206243E+03  0.52563422271E+03  0.00000000000E+00 0. -1.
<scales pt_clust_3="109.64681" pt_clust_4="84.32671" pt_clust_5="14000.00000" pt_clust_6="31.78935"></scales>
<clustering>
<clus scale="   31.789">  1  6  2 -1</clus>
<clus scale="   84.327">  2  4  1 -1</clus>
<clus scale="  109.647">  2  3  1 -1</clus>
<clus scale="   31.789">  1  3  2 -1</clus>
</clustering>
</event>
<event>
 6    0  0.4582113E+002  0.1375197E+03  0.7546771E-02  0.1216706E+00
         21   -1    0    0  504  501  0.00000000000E+00  0.00000000000E+00  0.63026041971E+03  0.63026041971E+03  0.00000000000E+00 0.  1.
         21   -1    0    0  506  502 -0.00000000000E+00 -0.00000000000E+00 -0.14322704866E+03  0.14322704866E+03  0.00000000000E+00 0.  1.
         21    1    1    2  503  501  0.11276995578E+03 -0.91282210978E+02  0.45143198812E+03  0.47417332787E+03  0.00000000000E+00 0.  1.
         21    1    1    2  504  505 -0.51368861130E+02 -0.30098262723E+02  0.91014436759E+02  0.10875795608E+03  0.00000000000E+00 0.  1.
         21    1    1    2  505  502  0.32866018686E+02  0.73593585721E+01 -0.16901797212E+02  0.37682968194E+02  0.00000000000E+00 0.  1.
         21    1    1    2  506  503 -0.94267113336E+02  0.11402111513E+03 -0.38511256624E+02  0.15287321622E+03  0.00000000000E+00 0.  1.
<scales pt_clust_3="137.51974" pt_clust_4="57.08781" pt_clust_5="33.67990" pt_clust_6="14000.00000"></scales>
<clustering>
<clus scale="   33.680">  2  5  1 -1</clus>
<clus scale="   57.088">  1  4  2 -1</clus>
<clus scale="  137.520">  1  3  2 -1</clus>
<clus scale="   57.088">  1  3  2 -1</clus>
</clustering>
</event>
<event>
 6    0  0.4582113E+002  0.8784922E+02  0.7546771E-02  0.1308145E+00
         21   -1    0    0  505  501  0.00000000000E+00  0.00000000000E+00  0.13698472301E+04  0.13698472301E+04  0.00000000000E+00 0. -1.
         21   -1    0    0  506  502 -0.00000000000E+00 -0.00000000000E+00 -0.24805412204E+03  0.24805412204E+03  0.00000000000E+00 0. -1.
         21    1    1    2  503  502 -0.49501670960E+02 -0.23043219926E+02 -0.18568472051E+03  0.19354643072E+03  0.00000000000E+00 0. -1.
         21    1    1    2  504  501 -0.24487459098E+02  0.65461071105E+02  0.37012569923E+03  0.37666672366E+03  0.00000000000E+00 0. -1.
         21    1    1    2  505  503  0.46471385063E+02  0.26281783403E+02  0.96662864859E+03  0.96810188825E+03  0.00000000000E+00 0. -1.
         21    1    1    2  506  504  0.27517744996E+02 -0.68699634582E+02 -0.29276519249E+02  0.79586309506E+02  0.00000000000E+00 0.  1.
<scales pt_clust_3="54.08247" pt_clust_4="87.84922" pt_clust_5="53.38840" pt_clust_6="14000.00000"></scales>
<clustering>
<clus scale="   53.388">  1  5  2 -1</clus>
<clus scale="   54.082">  2  3  1 -1</clus>
<clus scale="   87.849">  1  4  2 -1</clus>
<clus scale="   53.388">  1  3  2 -1</clus>
</clustering>
</event>
<event>
 6    0  0.4582113E+002  0.9570192E+02  0.7546771E-02  0.1289603E+00
         21   -1    0    0  505  501  0.00000000000E+00  0.00000000000E+00  0.86435144178E+03  0.86435144178E+03  0.00000000000E+00 0.  1.
         21   -1    0    0  504  502 -0.00000000000E+00 -0.00000000000E+00 -0.17953086292E+03  0.17953086292E+03  0.00000000000E+00 0.  1.
         21    1    1    2  503  501 -0.20602565841E+02 -0.42241554813E+02  0.18976434159E+03  0.19549762150E+03  0.00000000000E+00 0. -1.
         21    1    1    2  504  503 -0.77049565893E+02  0.19516636042E+01  0.44613489325E+02  0.89055084217E+02  0.00000000000E+00 0. -1.
         21    1    1    2  505  506  0.11592636106E+02  0.97405623514E+02  0.58304936148E+03  0.59124343770E+03  0.00000000000E+00 0.  1.
         21    1    1    2  506  502  0.86059495628E+02 -0.57115732305E+02 -0.13260661353E+03  0.16808616129E+03  0.00000000000E+00 0.  1.
<scales pt_clust_3="46.99803" pt_clust_4="95.70192" pt_clust_5="60.82191" pt_clust_6="14000.00000"></scales>
<clustering>
<clus scale="   46.998">  1  3  2 -1</clus>
<clus scale="   60.822">  1  5  2 -1</clus>
<clus scale="   95.702">  1  4  2 -1</clus>
<clus scale="   46.998">  1  3  2 -1</clus>
</clustering>
</event>
<event>
 6    0  0.4582113E+002  0.9865255E+02  0.7546771E-02  0.1283155E+00
         21   -1    0    0  506  501  0.00000000000E+00  0.00000000000E+00  0.29095155744E+03  0.29095155744E+03  0.00000000000E+00 0.  1.
         21   -1    0    0  504  502 -0.00000000000E+00 -0.00000000000E+00 -0.60970352500E+03  0.60970352500E+03  0.00000000000E+00 0.  1.
         21    1    1    2  503  505 -0.10664439402E+03  0.98501656146E+01 -0.14593623266E+02  0.10808804920E+03  0.00000000000E+00 0.  1.
         21    1    1    2  504  503  0.12521590900E+02  0.28534851090E+02 -0.52783227257E+03  0.52875129875E+03  0.00000000000E+00 0.  1.
         21    1    1    2  505  501  0.88098538731E+02  0.74807123344E+01  0.17829934474E+03  0.19901751159E+03  0.00000000000E+00 0.  1.
         21    1    1    2  506  502  0.60242643926E+01 -0.45865729039E+02  0.45374583531E+02  0.64798222910E+02  0.00000000000E+00 0. -1.
<scales pt_clust_3="98.65255" pt_clust_4="31.16132" pt_clust_5="14000.00000" pt_clust_6="43.12214"></scales>
<clustering>
<clus scale="   31.161">  2  4  1 -1</clus>
<clus scale="   43.122">  1  6  2 -1</clus>
<clus scale="   98.653">  2  3  1 -1</clus>
<clus scale="   43.122">  1  3  2 -1</clus>
</clustering>
</event>
<event>
 6    0  0.4582113E+002  0.1314895E+03  0.7546771E-02  0.1225262E+00
         21   -1    0    0  503  501  0.00000000000E+00  0.00000000000E+00  0.57764947577E+03  0.57764947577E+03  0.00000000000E+00 0. -1.
         21   -1    0    0  506  502 -0.00000000000E+00 -0.00000000000E+00 -0.21736741839E+03  0.21736741839E+03  0.00000000000E+00 0. -1.
         21    1    1    2  503  504  0.14092686027E+02 -0.26730685030E+02  0.61434639996E+02  0.68464211914E+02  0.00000000000E+00 0.  1.
         21    1    1    2  504  505 -0.73196288893E+02  0.16818411575E+02  0.41851412637E+03  0.42519951746E+03  0.00000000000E+00 0. -1.
         21    1    1    2  505  502 -0.10782243106E+03  0.18427303298E+02 -0.50026567443E+02  0.12028258227E+03  0.00000000000E+00 0. -1.
         21    1    1    2  506  501  0.16692603393E+03 -0.85150298421E+01 -0.69640141541E+02  0.18107058251E+03  0.00000000000E+00 0. -1.
<scales pt_clust_3="30.21810" pt_clust_4="61.81770" pt_clust_5="14000.00000" pt_clust_6="131.48954"></scales>
<clustering>
<clus scale="   30.218">  1  3  2 -1</clus>
<clus scale="   61.818">  1  4  2 -1</clus>
<clus scale="  131.490">  1  6  2 -1</clus>
<clus scale="   30.218">  1  3  2 -1</clus>
</clustering>
</event>
<event>
 6    0  0.4582113E+002  0.8423947E+02  0.7546771E-02  0.1317433E+00
         21   -1    0    0  503  501  0.00000000000E+00  0.00000000000E+00  0.10823144263E+04  0.10823144263E+04  0.00000000000E+00 0.  1.
         21   -1    0    0  504  502 -0.00000000000E+00 -0.00000000000E+00 -0.23801664556E+04  0.23801664556E+04  0.00000000000E+00 0. -1.
         21    1    1    2  503  502 -0.64628876484E+02  0.79337283477E+02  0.10319414262E+04  0.10370026052E+04  0.00000000000E+00 0.  1.
         21    1    1    2  504  505 -0.52253410669E+02 -0.87829596036E+02 -0.15929945522E+04  0.15962694322E+04  0.00000000000E+00 0. -1.
         21    1    1    2  505  506  0.76008322238E+02  0.17481203733E+02 -0.77113878510E+03  0.77507282459E+03  0.00000000000E+00 0.  1.
         21    1    1    2  506  501  0.40873964915E+02 -0.89888911739E+01  0.34339881747E+02  0.54136019902E+02  0.00000000000E+00 0. -1.
<scales pt_clust_3="74.32595" pt_clust_4="14000.00000" pt_clust_5="84.23947" pt_clust_6="41.85070"></scales>
<clustering>
<clus scale="   41.851">  1  6  2 -1</clus>
<clus scale="   74.326">  1  3  2 -1</clus>
<clus scale="   84.239">  1  5  2 -1</clus>
<clus scale="   41.851">  1  3  2 -1</clus>
</clustering>
</event>
<event>
 6    0  0.4582113E+002  0.1546500E+03  0.7546771E-02  0.1194873E+00
         21   -1    0    0  505  501  0.00000000000E+00  0.00000000000E+00  0.71391921292E+02  0.71391921292E+02  0.00000000000E+00 0.  1.
         21   -1    0    0  506  502 -0.00000000000E+00 -0.00000000000E+00 -0.99907432644E+03  0.99907432644E+03  0.00000000000E+00 0.  1.
         21    1    1    2  503  504 -0.87611749270E+02 -0.33541217085E+02 -0.52983884407E+02  0.10774100362E+03  0.00000000000E+00 0.  1.
         21    1    1    2  504  502  0.14625051249E+03  0.12173630224E+03 -0.75586565144E+03  0.77944969223E+03  0.00000000000E+00 0.  1.
         21    1    1    2  505  503 -0.21208233980E+02 -0.44487206689E+02  0.21221192492E+01  0.49329546294E+02  0.00000000000E+00 0.  1.
         21    1    1    2  506  501 -0.37430529237E+02 -0.43707878469E+02 -0.12095498855E+03  0.13394600559E+03  0.00000000000E+00 0.  1.
<scales pt_clust_3="46.71491" pt_clust_4="140.57957" pt_clust_5="46.71491" pt_clust_6="57.54497"></scales>
<clustering>
<clus scale="   46.715">  3  5 -1 -1</clus>
<clus scale="   57.545">  2  6  1 -1</clus>
<clus scale="  140.580">  2  4  1 -1</clus>
<clus scale="  154.650">  1  3  2 -1</clus>
</clustering>
</event>
<event>
 6    0  0.4582113E+002  0.1196304E+03  0.7546771E-02  0.1243708E+00
         21   -1    0    0  503  501  0.00000000000E+00  0.00000000000E+00  0.16915872629E+03  0.16915872629E+03  0.00000000000E+00 0.  1.
         21   -1    0    0  504  502 -0.00000000000E+00 -0.00000000000E+00 -0.18758225968E+03  0.18758225968E+03  0.00000000000E+00 0.  1.
         21    1    1    2  503  505 -0.15369696830E+02  0.55376644690E+02  0.58835386491E+02  0.82245991156E+02  0.00000000000E+00 0.  1.
         21    1    1    2  504  501  0.38322495398E+02 -0.49359385140E+02 -0.77309343397E+02  0.99406725785E+02  0.00000000000E+00 0.  1.
         21    1    1    2  505  506  0.28661709019E+02  0.66401048071E+02  0.33977746482E+02  0.79906695620E+02  0.00000000000E+00 0.  1.
         21    1    1    2  506  502 -0.51614507587E+02 -0.72418307621E+02 -0.33927322971E+02  0.95181573407E+02  0.00000000000E+00 0.  1.
<scales pt_clust_3="46.08510" pt_clust_4="62.48970" pt_clust_5="46.08510" pt_clust_6="107.88278"></scales>
<clustering>
<clus scale="   46.085">  3  5 -1 -1</clus>
<clus scale="   62.490">  2  4  1 -1</clus>
<clus scale="  107.883">  2  6  1 -1</clus>
<clus scale="  119.630">  1  3  2 -1</clus>
</clustering>
</event>
<event>
 6    0  0.4582113E+002  0.2779964E+03  0.7546771E-02  0.1096788E+00
         21   -1    0    0  506  501  0.00000000000E+00  0.00000000000E+00  0.34648354760E+03  0.34648354760E+03  0.00000000000E+00 0. -1.
         21   -1    0    0  504  502 -0.00000000000E+00 -0.00000000000E+00 -0.58600864463E+03  0.58600864463E+03  0.00000000000E+00 0. -1.
         21    1    1    2  503  501 -0.42772859615E+02 -0.28311725396E+02  0.59589580770E+02  0.78625628461E+02  0.00000000000E+00 0. -1.
         21    1    1    2  504  505 -0.30873268600E+02  0.20985410237E+02 -0.28289389097E+03  0.28534628035E+03  0.00000000000E+00 0. -1.
         21    1    1    2  505  503 -0.23704899365E+03  0.61221286171E+02  0.40412930291E+02  0.24814003346E+03  0.00000000000E+00 0. -1.
         21    1    1    2  506  502  0.31069512187E+03 -0.53894971012E+02 -0.56633717118E+02  0.32038024996E+03  0.00000000000E+00 0. -1.
<scales pt_clust_3="51.75192" pt_clust_4="37.33023" pt_clust_5="277.99635" pt_clust_6="14000.00000"></scales>
<clustering>
<clus scale="   37.330">  2  4  1 -1</clus>
<clus scale="   51.752">  1  3  2 -1</clus>
<clus scale="  277.996">  1  5  2 -1</clus>
<clus scale="   51.752">  1  3  2 -1</clus>
</clustering>
</event>
<event>
 6    0  0.4582113E+002  0.1364599E+03  0.7546771E-02  0.1218173E+00
         21   -1    0    0  503  501  0.00000000000E+00  0.00000000000E+00  0.64673584709E+03  0.64673584709E+03  0.00000000000E+00 0. -1.
         21   -1    0    0  505  502 -0.00000000000E+00 -0.00000000000E+00 -0.17394095191E+03  0.17394095191E+03  0.00000000000E+00 0. -1.
         21    1    1    2  503  502  0.97388968213E+02  0.11050515641E+03  0.53995340646E+03  0.55968355512E+03  0.00000000000E+00 0. -1.
         21    1    1    2  504  506 -0.46583698727E+02 -0.14361412345E+02 -0.71777628084E+02  0.86765886412E+02  0.00000000000E+00 0. -1.
         21    1    1    2  505  504 -0.64059039998E+02 -0.51792773730E+02 -0.54774816795E+02  0.98925894341E+02  0.00000000000E+00 0. -1.
         21    1    1    2  506  501  0.13253770512E+02 -0.44350970331E+02  0.59393933596E+02  0.75301463134E+02  0.00000000000E+00 0.  1.
<scales pt_clust_3="129.51282" pt_clust_4="33.06657" pt_clust_5="33.06657" pt_clust_6="46.28899"></scales>
<clustering>
<clus scale="   33.067">  4  5 -1 -1</clus>
<clus scale="   46.289">  1  6  2 -1</clus>
<clus scale="  129.513">  1  3  2 -1</clus>
<clus scale="   46.289">  1  3  2 -1</clus>
</clustering>
</event>
<event>
 6    0  0.4582113E+002  0.2195917E+03  0.7546771E-02  0.1134188E+00
         21   -1    0    0  505  501  0.00000000000E+00  0.00000000000E+00  0.70833187229E+02  0.70833187229E+02  0.00000000000E+00 0.  1.
         21   -1    0    0  503  502 -0.00000000000E+00 -0.00000000000E+00 -0.10322312774E+04  0.10322312774E+04  0.00000000000E+00 0.  1.
         21    1    1    2  503  501  0.23079498165E+03  0.10447424218E+02 -0.62951855069E+03  0.67057369311E+03  0.00000000000E+00 0.  1.
         21    1    1    2  504  502 -0.31096203945E+02 -0.73378554000E+01 -0.14970760166E+03  0.15307901233E+03  0.00000000000E+00 0. -1.
         21    1    1    2  505  506 -0.85986486658E+02  0.11045909105E+02 -0.36480962320E+02  0.94056092878E+02  0.00000000000E+00 0.  1.
         21    1    1    2  506  504 -0.11371229104E+03 -0.14155477923E+02 -0.14569097548E+03  0.18535566629E+03  0.00000000000E+00 0.  1.
<scales pt_clust_3="207.90733" pt_clust_4="31.95024" pt_clust_5="60.69453" pt_clust_6="60.69453"></scales>
<clustering>
<clus scale="   31.950">  2  4  1 -1</clus>
<clus scale="   60.695">  5  6 -1 -1</clus>
<clus scale="  207.907">  2  3  1 -1</clus>
<clus scale="  219.592">  1  3  2 -1</clus>
</clustering>
</event>
<event>
 6    0  0.4582113E+002  0.8904624E+02  0.7546771E-02  0.1305178E+00
         21   -1    0    0  503  501  0.00000000000E+00  0.00000000000E+00  0.31510340014E+03  0.31510340014E+03  0.00000000000E+00 0.  1.
         21   -1    0    0  506  502 -0.00000000000E+00 -0.00000000000E+00 -0.35593143714E+03  0.35593143714E+03  0.00000000000E+00 0.  1.
         21    1    1    2  503  502 -0.33058832081E+02  0.55572169436E+02  0.58265500792E+02  0.87040341089E+02  0.00000000000E+00 0.  1.
         21    1    1    2  504  501  0.74531919644E+02  0.37858647007E+02  0.20199884541E+03  0.21861339791E+03  0.00000000000E+00 0.  1.
         21    1    1    2  505  504 -0.10028216633E+03 -0.79795736790E+01 -0.11909021648E+03  0.15589312410E+03  0.00000000000E+00 0.  1.
         21    1    1    2  506  505  0.58809078771E+02 -0.85451242764E+02 -0.18200216672E+03  0.20948797418E+03  0.00000000000E+00 0.  1.
<scales pt_clust_3="64.66183" pt_clust_4="97.51727" pt_clust_5="89.04624" pt_clust_6="14000.00000"></scales>
<clustering>
<clus scale="   64.662">  1  3  2 -1</clus>
<clus scale="   97.517">  1  4  2 -1</clus>
<clus scale="   89.046">  1  5  2 -1</clus>
<clus scale="   64.662">  1  3  2 -1</clus>
</clustering>
</event>
<event>
 6    0  0.4582113E+002  0.1003592E+03  0.7546771E-02  0.1279542E+00
         21   -1    0    0  506  501  0.00000000000E+00  0.00000000000E+00  0.18499527173E+03  0.18499527173E+03  0.00000000000E+00 0. -1.
         21   -1    0    0  503  502 -0.00000000000E+00 -0.00000000000E+00 -0.26578151342E+03  0.26578151342E+03  0.00000000000E+00 0. -1.
         21    1    1    2  503  501 -0.52623152238E+02  0.11654432081E+02  0.13057070110E+02  0.55457272007E+02  0.00000000000E+00 0. -1.
         21    1    1    2  504  505  0.14643504456E+02  0.82240905572E+02  0.53018864779E+02  0.98939369285E+02  0.00000000000E+00 0. -1.
         21    1    1    2  505  502  0.18000125704E+01 -0.10330371896E+03 -0.20366881604E+03  0.22837662976E+03  0.00000000000E+00 0. -1.
         21    1    1    2  506  504  0.36179635212E+02  0.94083813045E+01  0.56806639455E+02  0.68003514093E+02  0.00000000000E+00 0. -1.
<scales pt_clust_3="44.84831" pt_clust_4="100.35920" pt_clust_5="14000.00000" pt_clust_6="37.38293"></scales>
<clustering>
<clus scale="   37.383">  1  6  2 -1</clus>
<clus scale="   44.848">  1  3  2 -1</clus>
<clus scale="  100.359">  1  4  2 -1</clus>
<clus scale="   37.383">  1  3  2 -1</clus>
</clustering>
</event>
<event>
 6    0  0.4582113E+002  0.1039320E+03  0.7546771E-02  0.1272238E+00
         21   -1    0    0  504  501  0.00000000000E+00  0.00000000000E+00  0.93176655187E+02  0.93176655187E+02  0.00000000000E+00 0.  1.
         21   -1    0    0  505  502 -0.00000000000E+00 -0.00000000000E+00 -0.34132845672E+03  0.34132845672E+03  0.00000000000E+00 0.  1.
         21    1    1    2  503  502 -0.30081518629E+02  0.13769636521E+02  0.18106152445E+02  0.37713835780E+02  0.00000000000E+00 0.  1.
         21    1    1    2  504  503 -0.57188557100E+02  0.48067453178E+02 -0.26502043292E+02  0.79267707277E+02  0.00000000000E+00 0.  1.
         21    1    1    2  505  506 -0.62492761789E+01 -0.90991006266E+02 -0.18259843489E+03  0.20410929694E+03  0.00000000000E+00 0.  1.
         21    1    1    2  506  501  0.93519351907E+02  0.29153916567E+02 -0.57157475790E+02  0.11341427190E+03  0.00000000000E+00 0.  1.
<scales pt_clust_3="31.03026" pt_clust_4="31.03026" pt_clust_5="91.20535" pt_clust_6="92.88462"></scales>
<clustering>
<clus scale="   31.030">  3  4 -1 -1</clus>
<clus scale="   91.205">  2  5  1 -1</clus>
<clus scale="   92.885">  2  6  1 -1</clus>
<clus scale="  103.932">  1  3  2 -1</clus>
</clustering>
</event>
<event>
 6    0  0.4582113E+002  0.9860754E+02  0.7546771E-02  0.1283252E+00
         21   -1    0    0  506  501  0.00000000000E+00  0.00000000000E+00  0.31780423037E+03  0.31780423037E+03  0.00000000000E+00 0.  1.
         21   -1    0    0  505  502 -0.00000000000E+00 -0.00000000000E+00 -0.15730193634E+04  0.15730193634E+04  0.00000000000E+00 0. -1.
         21    1    1    2  503  504  0.12474018611E+03  0.72091141578E+02 -0.18265971542E+03  0.23264096450E+03  0.00000000000E+00 0. -1.
         21    1    1    2  504  502 -0.52669403816E+02 -0.13735532814E+02 -0.13433250521E+04  0.13444273601E+04  0.00000000000E+00 0. -1.
         21    1    1    2  505  501 -0.67865186013E+02 -0.97681563601E+02  0.20531302219E+03  0.23727791390E+03  0.00000000000E+00 0.  1.
         21    1    1    2  506  503 -0.42055962793E+01  0.39325954837E+02  0.65456612352E+02  0.76477355240E+02  0.00000000000E+00 0. -1.
<scales pt_clust_3="98.60754" pt_clust_4="54.41797" pt_clust_5="14000.00000" pt_clust_6="39.55019"></scales>
<clustering>
<clus scale="   39.550">  1  6  2 -1</clus>
<clus scale="   54.418">  2  4  1 -1</clus>
<clus scale="   98.608">  2  3  1 -1</clus>
<clus scale="   39.550">  1  3  2 -1</clus>
</clustering>
</event>
<event>
 6    0  0.4582113E+002  0.1023031E+03  0.7546771E-02  0.1275526E+00
         21   -1    0    0  504  501  0.00000000000E+00  0.00000000000E+00  0.95780682033E+02  0.95780682033E+02  0.00000000000E+00 0. -1.
         21   -1    0    0  503  502 -0.00000000000E+00 -0.00000000000E+00 -0.19294699768E+03  0.19294699768E+03  0.00000000000E+00 0. -1.
         21    1    1    2  503  501  0.64837543206E+02 -0.98734773481E+02 -0.35796330507E+02  0.12342544220E+03  0.00000000000E+00 0. -1.
         21    1    1    2  504  506  0.10903068925E+02  0.32867080951E+02  0.35816106031E+01  0.34813070200E+02  0.00000000000E+00 0.  1.
         21    1    1    2  505  502 -0.41809892218E+02  0.22285810678E+02 -0.57890636221E+02  0.74806752415E+02  0.00000000000E+00 0. -1.
         21    1    1    2  506  505 -0.33930719912E+02  0.43581881852E+02 -0.70609595185E+01  0.55682414898E+02  0.00000000000E+00 0. -1.
<scales pt_clust_3="93.07690" pt_clust_4="33.61769" pt_clust_5="47.37852" pt_clust_6="33.61769"></scales>
<clustering>
<clus scale="   33.618">  4  6 -1 -1</clus>
<clus scale="   47.379">  2  5  1 -1</clus>
<clus scale="   93.077">  2  3  1 -1</clus>
<clus scale="  102.303">  1  3  2 -1</clus>
</clustering>
</event>
<event>
 6    0  0.4582113E+002  0.1369591E+03  0.7546771E-02  0.1217480E+00
         21   -1    0    0  503  501  0.00000000000E+00  0.00000000000E+00  0.53043328726E+03  0.53043328726E+03  0.00000000000E+00 0. -1.
         21   -1    0    0  505  502 -0.00000000000E+00 -0.00000000000E+00 -0.87118074449E+02  0.87118074449E+02  0.00000000000E+00 0. -1.
         21    1    1    2  503  506  0.14597281324E+02 -0.54867334263E+02  0.12185272443E+03  0.13443061944E+03  0.00000000000E+00 0. -1.
         21    1    1    2  504  501 -0.31054706486E+02 -0.30695611101E+02  0.59590313197E+02  0.73875711589E+02  0.00000000000E+00 0.  1.
         21    1    1    2  505  504 -0.10850848581E+03  0.10171903531E+03  0.39880496377E+02  0.15398476428E+03  0.00000000000E+00 0. -1.
         21    1    1    2  506  502  0.12496591097E+03 -0.16156089948E+02  0.22199167881E+03  0.25526026641E+03  0.00000000000E+00 0. -1.
<scales pt_clust_3="63.63490" pt_clust_4="43.66481" pt_clust_5="14000.00000" pt_clust_6="136.95908"></scales>
<clustering>
<clus scale="   43.665">  1  4  2 -1</clus>
<clus scale="   63.635">  1  3  2 -1</clus>
<clus scale="  136.959">  1  6  2 -1</clus>
<clus scale="   43.665">  1  3  2 -1</clus>
</clustering>
</event>
<event>
 6    0  0.4582113E+002  0.8710217E+02  0.7546771E-02  0.1310025E+00
         21   -1    0    0  503  501  0.00000000000E+00  0.00000000000E+00  0.29277825734E+03  0.29277825734E+03  0.00000000000E+00 0.  1.
         21   -1    0    0  505  502 -0.00000000000E+00 -0.00000000000E+00 -0.13706929117E+03  0.13706929117E+03  0.00000000000E+00 0.  1.
         21    1    1    2  503  504 -0.50901522223E+02 -0.69356255179E+02 -0.40126884037E+02  0.94928509519E+02  0.00000000000E+00 0. -1.
         21    1    1    2  504  502 -0.51587124820E+02  0.19750857741E+02 -0.23368400927E+02  0.59978412705E+02  0.00000000000E+00 0.  1.
         21    1    1    2  505  506  0.15445721420E+02  0.28525684875E+02 -0.56315768088E+01  0.32924150181E+02  0.00000000000E+00 0. -1.
         21    1    1    2  506  501  0.87042925623E+02  0.21079712562E+02  0.22483582794E+03  0.24201647611E+03  0.00000000000E+00 0.  1.
<scales pt_clust_3="14000.00000" pt_clust_4="54.93537" pt_clust_5="32.43894" pt_clust_6="87.10217"></scales>
<clustering>
<clus scale="   32.439">  2  5  1 -1</clus>
<clus scale="   54.935">  2  4  1 -1</clus>
<clus scale="   87.102">  1  6  2 -1</clus>
<clus scale="   87.102">  1  3  2 -1</clus>
</clustering>
</event>
<event>
 6    0  0.4582113E+002  0.7599704E+02  0.7546771E-02  0.1340811E+00
         21   -1    0    0  504  501  0.00000000000E+00  0.00000000000E+00  0.20345727919E+03  0.20345727919E+03  0.00000000000E+00 0. -1.
         21   -1    0    0  506  502 -0.00000000000E+00 -0.00000000000E+00 -0.19374762914E+03  0.19374762914E+03  0.00000000000E+00 0. -1.
         21    1    1    2  503  501 -0.87375111374E+01 -0.59377188845E+02  0.11123743398E+03  0.12639525852E+03  0.00000000000E+00 0. -1.
         21    1    1    2  504  502  0.60728291658E+02  0.16491820096E+02 -0.21597419604E+02  0.66530850523E+02  0.00000000000E+00 0.  1.
         21    1    1    2  505  503 -0.44379080558E+02 -0.43643898534E+02  0.25854944727E+02  0.67400080395E+02  0.00000000000E+00 0.  1.
         21    1    1    2  506  505 -0.76116999628E+01  0.86529267284E+02 -0.10578530905E+03  0.13687871889E+03  0.00000000000E+00 0. -1.
<scales pt_clust_3="60.01662" pt_clust_4="58.41362" pt_clust_5="14000.00000" pt_clust_6="75.99704"></scales>
<clustering>
<clus scale="   60.017">  1  3  2 -1</clus>
<clus scale="   58.414">  1  4  2 -1</clus>
<clus scale="   75.997">  2  6  1 -1</clus>
<clus scale="   60.017">  1  3  2 -1</clus>
</clustering>
</event>
<event>
 6    0  0.4582113E+002  0.1507490E+03  0.7546771E-02  0.1199556E+00
         21   -1    0    0  504  501  0.00000000000E+00  0.00000000000E+00  0.23345237668E+03  0.23345237668E+03  0.00000000000E+00 0.  1.
         21   -1    0    0  503  502 -0.00000000000E+00 -0.00000000000E+00 -0.52612003885E+03  0.52612003885E+03  0.00000000000E+00 0.  1.
         21    1    1    2  503  501 -0.94318077214E+02  0.14944946994E+03  0.10695841631E+03  0.20656995564E+03  0.00000000000E+00 0.  1.
         21    1    1    2  504  505  0.12395407779E+03 -0.37528463666E+02 -0.34341961576E+02  0.13398645197E+03  0.00000000000E+00 0. -1.
         21    1    1    2  505  506  0.22220673633E+02 -0.89151533726E+02 -0.62835982774E+02  0.11131089360E+03  0.00000000000E+00 0.  1.
         21    1    1    2  506  502 -0.51856674212E+02 -0.22769472548E+02 -0.30244813413E+03  0.30770511432E+03  0.00000000000E+00 0.  1.
<scales pt_clust_3="150.74903" pt_clust_4="14000.00000" pt_clust_5="98.13727" pt_clust_6="56.63536"></scales>
<clustering>
<clus scale="   56.635">  2  6  1 -1</clus>
<clus scale="   98.137">  2  5  1 -1</clus>
<clus scale="  150.749">  1  3  2 -1</clus>
<clus scale="  150.749">  1  3  2 -1</clus>
</clustering>
</event>
<event>
 6    0  0.4582113E+002  0.6802281E+02  0.7546771E-02  0.1366949E+00
         21   -1    0    0  506  501  0.00000000000E+00  0.00000000000E+00  0.40998099423E+03  0.40998099423E+03  0.00000000000E+00 0.  1.
         21   -1    0    0  503  502 -0.00000000000E+00 -0.00000000000E+00 -0.67689960390E+03  0.67689960390E+03  0.00000000000E+00 0. -1.
         21    1    1    2  503  505  0.11866142169E+03 -0.17968004394E+02 -0.71007263541E+02  0.13944681300E+03  0.00000000000E+00 0.  1.
         21    1    1    2  504  502 -0.57909217614E+02  0.30471407530E+02 -0.55408868287E+03  0.55793929119E+03  0.00000000000E+00 0. -1.
         21    1    1    2  505  501 -0.86105374203E+02 -0.32510398250E+02  0.34041080598E+03  0.35263377361E+03  0.00000000000E+00 0.  1.
         21    1    1    2  506  504  0.25353170127E+02  0.20006995114E+02  0.17766530769E+02  0.36860720348E+02  0.00000000000E+00 0.  1.
<scales pt_clust_3="14000.00000" pt_clust_4="68.02281" pt_clust_5="64.76651" pt_clust_6="32.29649"></scales>
<clustering>
<clus scale="   32.296">  1  6  2 -1</clus>
<clus scale="   64.767">  1  5  2 -1</clus>
<clus scale="   68.023">  2  4  1 -1</clus>
<clus scale="   32.296">  1  3  2 -1</clus>
</clustering>
</event>
<event>
 6    0  0.4582113E+002  0.4298028E+03  0.7546771E-02  0.1033922E+00
         21   -1    0    0  502  501  0.00000000000E+00  0.00000000000E+00  0.13334855592E+04  0.13334855592E+04  0.00000000000E+00 0.  1.
         21   -1    0    0  504  502 -0.00000000000E+00 -0.00000000000E+00 -0.36871226721E+03  0.36871226721E+03  0.00000000000E+00 0. -1.
         21    1    1    2  503  501  0.21719163846E+03  0.11658382956E+03  0.66022422443E+03  0.70474110399E+03  0.00000000000E+00 0.  1.
         21    1    1    2  504  506 -0.11038065864E+02 -0.96646660551E+02 -0.83912880638E+02  0.12846706750E+03  0.00000000000E+00 0. -1.
         21    1    1    2  505  503  0.14399654704E+03  0.12731430199E+03  0.44520309190E+03  0.48492239595E+03  0.00000000000E+00 0.  1.
         21    1    1    2  506  505 -0.35015011963E+03 -0.14725147101E+03 -0.56741143742E+02  0.38406725893E+03  0.00000000000E+00 0. -1.
<scales pt_clust_3="51.38649" pt_clust_4="97.27495" pt_clust_5="51.38649" pt_clust_6="425.84494"></scales>
<clustering>
<clus scale="   51.386">  3  5 -1 -1</clus>
<clus scale="   97.275">  2  4  1 -1</clus>
<clus scale="  425.845">  2  6  1 -1</clus>
<clus scale="  429.803">  1  3  2 -1</clus>
</clustering>
</event>
<event>
 6    0  0.4582113E+002  0.9694766E+02  0.7546771E-02  0.1286849E+00
         21   -1    0    0  504  501  0.00000000000E+00  0.00000000000E+00  0.33434843570E+03  0.33434843570E+03  0.00000000000E+00 0.  1.
         21   -1    0    0  503  502 -0.00000000000E+00 -0.00000000000E+00 -0.14005038632E+03  0.14005038632E+03  0.00000000000E+00 0.  1.
         21    1    1    2  503  501  0.13013741030E+02 -0.52032906573E+02 -0.20151359017E+02  0.57296231047E+02  0.00000000000E+00 0.  1.
         21    1    1    2  504  506  0.31299011750E+02 -0.50040997127E+02  0.12534558893E+03  0.13854690972E+03  0.00000000000E+00 0.  1.
         21    1    1    2  505  502 -0.11587896838E+03  0.73548144958E+02 -0.26351680542E+02  0.13975577272E+03  0.00000000000E+00 0.  1.
         21    1    1    2  506  505  0.71566215604E+02  0.28525758742E+02  0.11545550001E+03  0.13879990854E+03  0.00000000000E+00 0.  1.
<scales pt_clust_3="53.63563" pt_clust_4="62.35573" pt_clust_5="14000.00000" pt_clust_6="96.94766"></scales>
<clustering>
<clus scale="   53.636">  2  3  1 -1</clus>
<clus scale="   62.356">  1  4  2 -1</clus>
<clus scale="   96.948">  1  6  2 -1</clus>
<clus scale="   62.356">  1  3  2 -1</clus>
</clustering>
</event>
<event>
 6    0  0.4582113E+002  0.7283277E+02  0.7546771E-02  0.1350717E+00
         21   -1    0    0  503  501  0.00000000000E+00  0.00000000000E+00  0.36503932762E+03  0.36503932762E+03  0.00000000000E+00 0.  1.
         21   -1    0    0  504  502 -0.00000000000E+00 -0.00000000000E+00 -0.35275431836E+03  0.35275431836E+03  0.00000000000E+00 0. -1.
         21    1    1    2  503  505 -0.21775950156E+02 -0.26771983112E+02  0.19437709668E+03  0.19741678449E+03  0.00000000000E+00 0.  1.
         21    1    1    2  504  506  0.43033863070E+02 -0.75531867848E+02 -0.13284532958E+03  0.15876037926E+03  0.00000000000E+00 0. -1.
         21    1    1    2  505  502  0.31795631151E+02  0.71063455127E+02 -0.19144093039E+03  0.20666544617E+03  0.00000000000E+00 0. -1.
         21    1    1    2  506  501 -0.53053544065E+02  0.31240395833E+02  0.14219417255E+03  0.15495103606E+03  0.00000000000E+00 0.  1.
<scales pt_clust_3="34.50987" pt_clust_4="72.83277" pt_clust_5="14000.00000" pt_clust_6="72.59339"></scales>
<clustering>
<clus scale="   34.510">  1  3  2 -1</clus>
<clus scale="   72.593">  1  6  2 -1</clus>
<clus scale="   72.833">  1  4  2 -1</clus>
<clus scale="   34.510">  1  3  2 -1</clus>
</clustering>
</event>
<event>
 6    0  0.4582113E+002  0.1586472E+03  0.7546771E-02  0.1190233E+00
         21   -1    0    0  503  501  0.00000000000E+00  0.00000000000E+00  0.19134014824E+03  0.19134014824E+03  0.00000000000E+00 0. -1.
         21   -1    0    0  506  502 -0.00000000000E+00 -0.00000000000E+00 -0.20626693807E+04  0.20626693807E+04  0.00000000000E+00 0. -1.
         21    1    1    2  503  502  0.43560444618E+02 -0.27023230343E+02  0.89713682651E+02  0.10332624143E+03  0.00000000000E+00 0. -1.
         21    1    1    2  504  501  0.39982884502E+02 -0.12067968216E+03  0.27026768410E+02  0.12997177751E+03  0.00000000000E+00 0. -1.
         21    1    1    2  505  504 -0.10434608764E+02  0.16248173877E+03 -0.41384948021E+03  0.44472529584E+03  0.00000000000E+00 0. -1.
         21    1    1    2  506  505 -0.73108720355E+02 -0.14778826269E+02 -0.15742202033E+04  0.15759862142E+04  0.00000000000E+00 0. -1.
<scales pt_clust_3="51.26175" pt_clust_4="158.64717" pt_clust_5="14000.00000" pt_clust_6="74.24050"></scales>
<clustering>
<clus scale="   51.262">  1  3  2 -1</clus>
<clus scale="   74.240">  2  6  1 -1</clus>
<clus scale="  158.647">  1  4  2 -1</clus>
<clus scale="   51.262">  1  3  2 -1</clus>
</clustering>
</event>
<event>
 6    0  0.4582113E+002  0.1023141E+03  0.7546771E-02  0.1275504E+00
         21   -1    0    0  505  501  0.00000000000E+00  0.00000000000E+00  0.75550420640E+02  0.75550420640E+02  0.00000000000E+00 0.  1.
         21   -1    0    0  506  502 -0.00000000000E+00 -0.00000000000E+00 -0.33478027112E+04  0.33478027112E+04  0.00000000000E+00 0.  1.
         21    1    1    2  503  502  0.41392305614E+02  0.31048257932E+02 -0.13593484666E+02  0.53498599140E+02  0.00000000000E+00 0.  1.
         21    1    1    2  504  501 -0.11743554100E+03 -0.13293559137E+03 -0.18366858726E+03  0.25533728221E+03  0.00000000000E+00 0.  1.
         21    1    1    2  505  503  0.29652260531E+00  0.35648477837E+02  0.21667621205E+01  0.35715497419E+02  0.00000000000E+00 0.  1.
         21    1    1    2  506  504  0.75746712782E+02  0.66238855597E+02 -0.30771569808E+04  0.30788017531E+04  0.00000000000E+00 0.  1.
<scales pt_clust_3="88.47929" pt_clust_4="102.31414" pt_clust_5="33.63662" pt_clust_6="14000.00000"></scales>
<clustering>
<clus scale="   33.637">  3  5 -1 -1</clus>
<clus scale="   88.479">  1  3  2 -1</clus>
<clus scale="  102.314">  1  4  2 -1</clus>
<clus scale="   88.479">  1  3  2 -1</clus>
</clustering>
</event>
<event>
 6    0  0.4582113E+002  0.1867172E+03  0.7546771E-02  0.1161456E+00
         21   -1    0    0  503  501  0.00000000000E+00  0.00000000000E+00  0.15234279736E+04  0.15234279736E+04  0.00000000000E+00 0.  1.
         21   -1    0    0  504  502 -0.00000000000E+00 -0.00000000000E+00 -0.19300597905E+03  0.19300597905E+03  0.00000000000E+00 0. -1.
         21    1    1    2  503  502  0.31065739974E+02 -0.67094008868E+01  0.19511566421E+02  0.37293397332E+02  0.00000000000E+00 0. -1.
         21    1    1    2  504  505 -0.19319048383E+03  0.76854250495E+02 -0.11742092567E+03  0.23878193534E+03  0.00000000000E+00 0. -1.
         21    1    1    2  505  506  0.63052058160E+02 -0.41393789647E+02  0.41579926737E+03  0.42258494839E+03  0.00000000000E+00 0.  1.
         21    1    1    2  506  501  0.99072685694E+02 -0.28751059962E+02  0.10125320864E+04  0.10177736715E+04  0.00000000000E+00 0.  1.
<scales pt_clust_3="31.78201" pt_clust_4="177.66700" pt_clust_5="49.17375" pt_clust_6="49.17375"></scales>
<clustering>
<clus scale="   31.782">  2  3  1 -1</clus>
<clus scale="   49.174">  5  6 -1 -1</clus>
<clus scale="  177.667">  2  4  1 -1</clus>
<clus scale="  186.717">  1  3  2 -1</clus>
</clustering>
</event>
<event>
 6    0  0.4582113E+002  0.1230154E+03  0.7546771E-02  0.1238204E+00
         21   -1    0    0  505  501  0.00000000000E+00  0.00000000000E+00  0.10925838004E+04  0.10925838004E+04  0.00000000000E+00 0. -1.
         21   -1    0    0  506  502 -0.00000000000E+00 -0.00000000000E+00 -0.32520929317E+03  0.32520929317E+03  0.00000000000E+00 0.  1.
         21    1    1    2  503  501 -0.54899489362E+02  0.11155067923E+03  0.66348144823E+03  0.67502973277E+03  0.00000000000E+00 0. -1.
         21    1    1    2  504  503  0.91925505775E+02 -0.10561688157E+03  0.84645478793E+01  0.14027427724E+03  0.00000000000E+00 0.  1.
         21    1    1    2  505  502  0.64929468313E+02  0.15475289530E+02  0.33482153874E+03  0.34140999289E+03  0.00000000000E+00 0. -1.
         21    1    1    2  506  504 -0.10195548473E+03 -0.21409087183E+02 -0.23939302765E+03  0.26107909064E+03  0.00000000000E+00 0.  1.
<scales pt_clust_3="123.01539" pt_clust_4="14000.00000" pt_clust_5="66.74819" pt_clust_6="103.22009"></scales>
<clustering>
<clus scale="   66.748">  1  5  2 -1</clus>
<clus scale="  103.220">  2  6  1 -1</clus>
<clus scale="  123.015">  1  3  2 -1</clus>
<clus scale="   66.748">  1  3  2 -1</clus>
</clustering>
</event>
<event>
 6    0  0.4582113E+002  0.1402309E+03  0.7546771E-02  0.1213019E+00
         21   -1    0    0  506  501  0.00000000000E+00  0.00000000000E+00  0.77205534383E+02  0.77205534383E+02  0.00000000000E+00 0. -1.
         21   -1    0    0  505  502 -0.00000000000E+00 -0.00000000000E+00 -0.58168355589E+03  0.58168355589E+03  0.00000000000E+00 0. -1.
         21    1    1    2  503  502  0.37619051474E+02 -0.17253424305E+02 -0.80412076959E+02  0.90437690179E+02  0.00000000000E+00 0.  1.
         21    1    1    2  504  503 -0.14214831901E+02 -0.12275011399E+03 -0.21226631706E+03  0.24561482302E+03  0.00000000000E+00 0. -1.
         21    1    1    2  505  501 -0.73028777805E+02 -0.20047401467E+02 -0.74051938240E+02  0.10591879083E+03  0.00000000000E+00 0. -1.
         21    1    1    2  506  504  0.49624558232E+02  0.16005093976E+03 -0.13774768925E+03  0.21691778625E+03  0.00000000000E+00 0. -1.
<scales pt_clust_3="41.38688" pt_clust_4="14000.00000" pt_clust_5="70.14659" pt_clust_6="140.23092"></scales>
<clustering>
<clus scale="   41.387">  2  3  1 -1</clus>
<clus scale="   70.147">  1  5  2 -1</clus>
<clus scale="  140.231">  1  6  2 -1</clus>
<clus scale="   70.147">  1  3  2 -1</clus>
</clustering>
</event>
<event>
 6    0  0.4582113E+002  0.1488363E+03  0.7546771E-02  0.1201910E+00
         21   -1    0    0  506  501  0.00000000000E+00  0.00000000000E+00  0.48946621787E+03  0.48946621787E+03  0.00000000000E+00 0.  1.
         21   -1    0    0  505  502 -0.00000000000E+00 -0.00000000000E+00 -0.25240876204E+03  0.25240876204E+03  0.00000000000E+00 0. -1.
         21    1    1    2  503  501 -0.43835378837E+02  0.28076488519E+02  0.96400894437E+02  0.10955803071E+03  0.00000000000E+00 0.  1.
         21    1    1    2  504  502  0.12862575384E+03 -0.25806114562E+02 -0.20990417549E+03  0.24752838824E+03  0.00000000000E+00 0. -1.
         21    1    1    2  505  503 -0.74155768489E+02 -0.41989426442E+02  0.10229453466E+03  0.13314038363E+03  0.00000000000E+00 0.  1.
         21    1    1    2  506  504 -0.10634606513E+02  0.39719052485E+02  0.24826620222E+03  0.25164817733E+03  0.00000000000E+00 0.  1.
<scales pt_clust_3="65.25674" pt_clust_4="129.78858" pt_clust_5="65.25674" pt_clust_6="41.11810"></scales>
<clustering>
<clus scale="   41.118">  1  6  2 -1</clus>
<clus scale="   65.257">  3  5 -1 -1</clus>
<clus scale="  129.789">  2  4  1 -1</clus>
<clus scale="   41.118">  1  3  2 -1</clus>
</clustering>
</event>
<event>
 6    0  0.4582113E+002  0.1081287E+03  0.7546771E-02  0.1264075E+00
         21   -1    0    0  503  501  0.00000000000E+00  0.00000000000E+00  0.51092353761E+03  0.51092353761E+03  0.00000000000E+00 0. -1.
         21   -1    0    0  506  502 -0.00000000000E+00 -0.00000000000E+00 -0.21434873746E+03  0.21434873746E+03  0.00000000000E+00 0. -1.
         21    1    1    2  503  505  0.45619330497E+02  0.41343507662E+02  0.63251717136E+02  0.88267710186E+02  0.00000000000E+00 0.  1.
         21    1    1    2  504  501 -0.33634190889E+02 -0.10367550267E+03  0.36951725484E+03  0.38525688869E+03  0.00000000000E+00 0. -1.
         21    1    1    2  505  502  0.10170513804E+02 -0.49696925538E+02 -0.12749757804E+03  0.13721827927E+03  0.00000000000E+00 0. -1.
         21    1    1    2  506  504 -0.22155653412E+02  0.11202892055E+03 -0.86965937957E+01  0.11452939693E+03  0.00000000000E+00 0.  1.
<scales pt_clust_3="58.00835" pt_clust_4="14000.00000" pt_clust_5="50.72695" pt_clust_6="108.12868"></scales>
<clustering>
<clus scale="   50.727">  2  5  1 -1</clus>
<clus scale="   58.008">  2  3  1 -1</clus>
<clus scale="  108.129">  2  6  1 -1</clus>
<clus scale="  108.129">  1  3  2 -1</clus>
</clustering>
</event>
<event>
 6    0  0.6608037E+002  0.1253321E+03  0.7546771E-02  0.1234551E+00
         21   -1    0    0  506  501  0.00000000000E+00  0.00000000000E+00  0.19173403820E+04  0.19173403820E+04  0.00000000000E+00 0.  1.
         21   -1    0    0  503  502 -0.00000000000E+00 -0.00000000000E+00 -0.78988269800E+02  0.78988269800E+02  0.00000000000E+00 0. -1.
         21    1    1    2  503  505 -0.33963941462E+02  0.18569968766E+02  0.80009816031E+02  0.88881740087E+02  0.00000000000E+00 0. -1.
         21    1    1    2  504  501  0.12395751916E+03  0.61078288551E+01  0.16895145122E+04  0.16940667221E+04  0.00000000000E+00 0.  1.
         21    1    1    2  505  504 -0.59804028102E+02 -0.19264831960E+02  0.13031332453E+03  0.14466934049E+03  0.00000000000E+00 0. -1.
         21    1    1    2  506  502 -0.30189549599E+02 -0.54129656612E+01 -0.61485540489E+02  0.68710849154E+02  0.00000000000E+00 0. -1.
<scales pt_clust_3="30.57505" pt_clust_4="119.12495" pt_clust_5="30.57505" pt_clust_6="30.67098"></scales>
<clustering>
<clus scale="   30.575">  3  5 -1 -1</clus>
<clus scale="   30.671">  2  6  1 -1</clus>
<clus scale="  119.125">  1  4  2 -1</clus>
<clus scale="  119.125">  1  3  2 -1</clus>
</clustering>
</event>
<event>
 6    0  0.4582113E+002  0.2857898E+03  0.7546771E-02  0.1092568E+00
         21   -1    0    0  505  501  0.00000000000E+00  0.00000000000E+00  0.16809452055E+04  0.16809452055E+04  0.00000000000E+00 0.  1.
         21   -1    0    0  506  502 -0.00000000000E+00 -0.00000000000E+00 -0.90115970030E+02  0.90115970030E+02  0.00000000000E+00 0. -1.
         21    1    1    2  503  502 -0.16443443926E+03  0.21484589330E+03  0.59056383340E+03  0.64958685640E+03  0.00000000000E+00 0. -1.
         21    1    1    2  504  503  0.97586688246E+02 -0.10643422510E+03  0.39508702418E+03  0.42064850252E+03  0.00000000000E+00 0.  1.
         21    1    1    2  505  504  0.12439025172E+03 -0.64741287215E+02  0.61237978653E+03  0.62823034943E+03  0.00000000000E+00 0.  1.
         21    1    1    2  506  501 -0.57542500707E+02 -0.43670380985E+02 -0.72014086812E+01  0.72595467145E+02  0.00000000000E+00 0. -1.
<scales pt_clust_3="274.03126" pt_clust_4="78.81159" pt_clust_5="78.81159" pt_clust_6="72.23740"></scales>
<clustering>
<clus scale="   72.237">  2  6  1 -1</clus>
<clus scale="   78.812">  4  5 -1 -1</clus>
<clus scale="  274.031">  2  3  1 -1</clus>
<clus scale="  285.790">  1  3  2 -1</clus>
</clustering>
</event>
<event>
 6    0  0.4582113E+002  0.1149239E+03  0.7546771E-02  0.1251714E+00
         21   -1    0    0  505  501  0.00000000000E+00  0.00000000000E+00  0.33349715339E+02  0.33349715339E+02  0.00000000000E+00 0.  1.
         21   -1    0    0  504  502 -0.00000000000E+00 -0.00000000000E+00 -0.13091425083E+04  0.13091425083E+04  0.00000000000E+00 0.  1.
         21    1    1    2  503  501 -0.53692108736E+02 -0.23355058381E+02 -0.36822356988E+02  0.69167819589E+02  0.00000000000E+00 0.  1.
         21    1    1    2  504  506 -0.32449870624E+02  0.77348068488E+01 -0.59970621783E+03  0.60063330664E+03  0.00000000000E+00 0.  1.
         21    1    1    2  505  502  0.11113834741E+03  0.60578418854E+02 -0.58247030838E+03  0.59606470894E+03  0.00000000000E+00 0.  1.
         21    1    1    2  506  503 -0.24996368045E+02 -0.44958167321E+02 -0.56793909759E+02  0.76626388471E+02  0.00000000000E+00 0.  1.
<scales pt_clust_3="37.58345" pt_clust_4="33.35898" pt_clust_5="107.58311" pt_clust_6="37.58345"></scales>
<clustering>
<clus scale="   33.359">  2  4  1 -1</clus>
<clus scale="   37.583">  3  6 -1 -1</clus>
<clus scale="  107.583">  2  5  1 -1</clus>
<clus scale="  114.924">  1  3  2 -1</clus>
</clustering>
</event>
<event>
 6    0  0.4582113E+002  0.1370678E+03  0.7546771E-02  0.1217330E+00
         21   -1    0    0  505  501  0.00000000000E+00  0.00000000000E+00  0.17218047525E+03  0.17218047525E+03  0.00000000000E+00 0.  1.
         21   -1    0    0  501  502 -0.00000000000E+00 -0.00000000000E+00 -0.28149057520E+03  0.28149057520E+03  0.00000000000E+00 0.  1.
         21    1    1    2  503  504 -0.16261010765E+02 -0.94238462429E+02  0.38742397184E+02  0.10318081998E+03  0.00000000000E+00 0.  1.
         21    1    1    2  504  506 -0.30702839343E+01  0.99704795994E+02 -0.54059902217E+02  0.11345900588E+03  0.00000000000E+00 0.  1.
         21    1    1    2  505  503 -0.31850915062E+02 -0.42790288075E+02  0.54090076681E+02  0.75968585213E+02  0.00000000000E+00 0.  1.
         21    1    1    2  506  502  0.51182209762E+02  0.37323954510E+02 -0.14808267159E+03  0.16106263937E+03  0.00000000000E+00 0.  1.
<scales pt_clust_3="36.47408" pt_clust_4="128.07251" pt_clust_5="36.47408" pt_clust_6="63.34585"></scales>
<clustering>
<clus scale="   36.474">  3  5 -1 -1</clus>
<clus scale="   63.346">  2  6  1 -1</clus>
<clus scale="  128.073">  2  4  1 -1</clus>
<clus scale="  137.068">  1  3  2 -1</clus>
</clustering>
</event>
<event>
 6    0  0.4582113E+002  0.1061702E+03  0.7546771E-02  0.1267831E+00
         21   -1    0    0  503  501  0.00000000000E+00  0.00000000000E+00  0.15369442429E+03  0.15369442429E+03  0.00000000000E+00 0. -1.
         21   -1    0    0  505  502 -0.00000000000E+00 -0.00000000000E+00 -0.43216514098E+03  0.43216514098E+03  0.00000000000E+00 0. -1.
         21    1    1    2  503  502 -0.51971431814E+02 -0.19625334641E+02 -0.19656744748E+03  0.20426684727E+03  0.00000000000E+00 0. -1.
         21    1    1    2  504  506  0.25703873200E+02 -0.75732356608E+02  0.17678796120E+02  0.81906158298E+02  0.00000000000E+00 0. -1.
         21    1    1    2  505  504  0.51439434322E+02  0.13484142780E+03 -0.16501709386E+03  0.21922332750E+03  0.00000000000E+00 0. -1.
         21    1    1    2  506  501 -0.25171875708E+02 -0.39483736552E+02  0.65435028527E+02  0.80463232206E+02  0.00000000000E+00 0. -1.
<scales pt_clust_3="57.35678" pt_clust_4="14000.00000" pt_clust_5="106.17023" pt_clust_6="46.82509"></scales>
<clustering>
<clus scale="   46.825">  1  6  2 -1</clus>
<clus scale="   57.357">  2  3  1 -1</clus>
<clus scale="  106.170">  2  5  1 -1</clus>
<clus scale="   46.825">  1  3  2 -1</clus>
</clustering>
</event>
<event>
 6    0  0.4582113E+002  0.1159351E+03  0.7546771E-02  0.1249958E+00
         21   -1    0    0  506  501  0.00000000000E+00  0.00000000000E+00  0.12422827766E+04  0.12422827766E+04  0.00000000000E+00 0.  1.
         21   -1    0    0  503  502 -0.00000000000E+00 -0.00000000000E+00 -0.41286978301E+02  0.41286978301E+02  0.00000000000E+00 0.  1.
         21    1    1    2  503  504 -0.76375815380E+02 -0.80259176717E+02  0.73648245739E+02  0.13303708025E+03  0.00000000000E+00 0.  1.
         21    1    1    2  504  501  0.24466671667E+02  0.17905116349E+02  0.10344338373E+03  0.10779492035E+03  0.00000000000E+00 0. -1.
         21    1    1    2  505  502 -0.31808766236E+02  0.22656850024E+02  0.45521695932E+02  0.59977956476E+02  0.00000000000E+00 0.  1.
         21    1    1    2  506  505  0.83717909949E+02  0.39697210343E+02  0.97838247286E+03  0.98275979779E+03  0.00000000000E+00 0.  1.
<scales pt_clust_3="115.93514" pt_clust_4="30.31850" pt_clust_5="38.63326" pt_clust_6="14000.00000"></scales>
<clustering>
<clus scale="   30.318">  1  4  2 -1</clus>
<clus scale="   38.633">  2  5  1 -1</clus>
<clus scale="  115.935">  2  3  1 -1</clus>
<clus scale="   30.318">  1  3  2 -1</clus>
</clustering>
</event>
<event>
 6    0  0.4582113E+002  0.1181372E+03  0.7546771E-02  0.1246202E+00
         21   -1    0    0  506  501  0.00000000000E+00  0.00000000000E+00  0.27248495117E+03  0.27248495117E+03  0.00000000000E+00 0. -1.
         21   -1    0    0  505  502 -0.00000000000E+00 -0.00000000000E+00 -0.97840443496E+02  0.97840443496E+02  0.00000000000E+00 0.  1.
         21    1    1    2  503  504 -0.59653657375E+02  0.30705982773E+02  0.85554601355E+02  0.10872445001E+03  0.00000000000E+00 0. -1.
         21    1    1    2  504  502 -0.23780314946E+02 -0.31131156904E+02  0.65482197485E+01  0.39718150649E+02  0.00000000000E+00 0.  1.
         21    1    1    2  505  501  0.91923473656E+02 -0.48547355127E+02 -0.21882129958E+02  0.10623369668E+03  0.00000000000E+00 0.  1.
         21    1    1    2  506  503 -0.84895013352E+01  0.48972529258E+02  0.10442381653E+03  0.11564909733E+03  0.00000000000E+00 0. -1.
<scales pt_clust_3="47.81565" pt_clust_4="39.17464" pt_clust_5="103.42561" pt_clust_6="47.81565"></scales>
<clustering>
<clus scale="   39.175">  2  4  1 -1</clus>
<clus scale="   47.816">  3  6 -1 -1</clus>
<clus scale="  103.426">  2  5  1 -1</clus>
<clus scale="  118.137">  1  3  2 -1</clus>
</clustering>
</event>
<event>
 6    0  0.4582113E+002  0.1063687E+03  0.7546771E-02  0.1267446E+00
         21   -1    0    0  503  501  0.00000000000E+00  0.00000000000E+00  0.23609352550E+03  0.23609352550E+03  0.00000000000E+00 0. -1.
         21   -1    0    0  505  502 -0.00000000000E+00 -0.00000000000E+00 -0.20182590476E+03  0.20182590476E+03  0.00000000000E+00 0. -1.
         21    1    1    2  503  504 -0.37529956561E+02 -0.51670962519E+02  0.86790761582E+02  0.10775445375E+03  0.00000000000E+00 0. -1.
         21    1    1    2  504  506 -0.37240325068E+02 -0.87870872606E+02 -0.70274196811E+01  0.95694914656E+02  0.00000000000E+00 0. -1.
         21    1    1    2  505  501  0.25304795295E+02  0.13744450827E+03  0.31188077774E+02  0.14319225437E+03  0.00000000000E+00 0. -1.
         21    1    1    2  506  502  0.49465486334E+02  0.20973268597E+01 -0.76683798935E+02  0.91277807474E+02  0.00000000000E+00 0. -1.
<scales pt_clust_3="61.22299" pt_clust_4="14000.00000" pt_clust_5="106.36870" pt_clust_6="49.50993"></scales>
<clustering>
<clus scale="   49.510">  2  6  1 -1</clus>
<clus scale="   61.223">  1  3  2 -1</clus>
<clus scale="  106.369">  1  5  2 -1</clus>
<clus scale="   61.223">  1  3  2 -1</clus>
</clustering>
</event>
<event>
 6    0  0.4582113E+002  0.1406918E+03  0.7546771E-02  0.1212401E+00
         21   -1    0    0  503  501  0.00000000000E+00  0.00000000000E+00  0.34159455235E+03  0.34159455235E+03  0.00000000000E+00 0. -1.
         21   -1    0    0  506  502 -0.00000000000E+00 -0.00000000000E+00 -0.13009398462E+04  0.13009398462E+04  0.00000000000E+00 0. -1.
         21    1    1    2  503  504  0.27471931417E+01  0.94830741055E+02  0.20385439633E+03  0.22484890798E+03  0.00000000000E+00 0. -1.
         21    1    1    2  504  502 -0.10021255645E+03 -0.11580977623E+03 -0.10548810754E+04  0.10659402159E+04  0.00000000000E+00 0. -1.
         21    1    1    2  505  501  0.59836832397E+02  0.32987519847E+02  0.11021197183E+03  0.12967382816E+03  0.00000000000E+00 0.  1.
         21    1    1    2  506  505  0.37628530912E+02 -0.12008484670E+02 -0.21853058666E+03  0.22207144649E+03  0.00000000000E+00 0.  1.
<scales pt_clust_3="14000.00000" pt_clust_4="140.69176" pt_clust_5="68.57234" pt_clust_6="39.49823"></scales>
<clustering>
<clus scale="   39.498">  2  6  1 -1</clus>
<clus scale="   68.572">  1  5  2 -1</clus>
<clus scale="  140.692">  2  4  1 -1</clus>
<clus scale="   68.572">  1  3  2 -1</clus>
</clustering>
</event>
<event>
 6    0  0.4582113E+002  0.1042621E+03  0.7546771E-02  0.1271580E+00
         21   -1    0    0  506  501  0.00000000000E+00  0.00000000000E+00  0.20473613878E+04  0.20473613878E+04  0.00000000000E+00 0.  1.
         21   -1    0    0  504  502 -0.00000000000E+00 -0.00000000000E+00 -0.71570408358E+02  0.71570408358E+02  0.00000000000E+00 0. -1.
         21    1    1    2  503  502 -0.67378922192E+02 -0.80578314222E+02 -0.14033697129E+02  0.10597041348E+03  0.00000000000E+00 0. -1.
         21    1    1    2  504  505  0.38120958707E+02 -0.35402548675E+02  0.47277986030E+03  0.47563362397E+03  0.00000000000E+00 0.  1.
         21    1    1    2  505  501  0.44372361911E+02 -0.17041542248E+02  0.10603381107E+04  0.10614029534E+04  0.00000000000E+00 0.  1.
         21    1    1    2  506  503 -0.15114398426E+02  0.13302240515E+03  0.45670670559E+03  0.47592480524E+03  0.00000000000E+00 0.  1.
<scales pt_clust_3="14000.00000" pt_clust_4="73.72157" pt_clust_5="47.53231" pt_clust_6="104.26215"></scales>
<clustering>
<clus scale="   47.532">  1  5  2 -1</clus>
<clus scale="   73.722">  1  4  2 -1</clus>
<clus scale="  104.262">  1  6  2 -1</clus>
<clus scale="   47.532">  1  3  2 -1</clus>
</clustering>
</event>
<event>
 6    0  0.4582113E+002  0.1332608E+03  0.7546771E-02  0.1222696E+00
         21   -1    0    0  504  501  0.00000000000E+00  0.00000000000E+00  0.15781003340E+04  0.15781003340E+04  0.00000000000E+00 0.  1.
         21   -1    0    0  503  502 -0.00000000000E+00 -0.00000000000E+00 -0.10249081073E+03  0.10249081073E+03  0.00000000000E+00 0. -1.
         21    1    1    2  503  505 -0.54514988423E+02  0.12259649454E+03  0.88544924494E+01  0.13446258392E+03  0.00000000000E+00 0. -1.
         21    1    1    2  504  506 -0.53235484071E+02  0.34085340843E+02  0.63435531172E+03  0.63749704998E+03  0.00000000000E+00 0. -1.
         21    1    1    2  505  501  0.70103730399E+02 -0.16249924877E+03  0.84887558384E+03  0.86712761212E+03  0.00000000000E+00 0.  1.
         21    1    1    2  506  502  0.37646742095E+02  0.58174133831E+01 -0.16475864747E+02  0.41503898709E+02  0.00000000000E+00 0. -1.
<scales pt_clust_3="133.26077" pt_clust_4="62.60432" pt_clust_5="14000.00000" pt_clust_6="38.09356"></scales>
<clustering>
<clus scale="   38.094">  2  6  1 -1</clus>
<clus scale="   62.604">  1  4  2 -1</clus>
<clus scale="  133.261">  2  3  1 -1</clus>
<clus scale="   62.604">  1  3  2 -1</clus>
</clustering>
</event>
<event>
 6    0  0.4582113E+002  0.1101849E+03  0.7546771E-02  0.1260228E+00
         21   -1    0    0  505  501  0.00000000000E+00  0.00000000000E+00  0.17746265881E+03  0.17746265881E+03  0.00000000000E+00 0. -1.
         21   -1    0    0  506  502 -0.00000000000E+00 -0.00000000000E+00 -0.16925444323E+03  0.16925444323E+03  0.00000000000E+00 0. -1.
         21    1    1    2  503  502 -0.47768071407E+02 -0.25488891574E+02 -0.67699270366E+02  0.86687158494E+02  0.00000000000E+00 0. -1.
         21    1    1    2  504  501  0.47065940335E+02 -0.27885931584E+02  0.86164503844E+02  0.10206443868E+03  0.00000000000E+00 0. -1.
         21    1    1    2  505  503 -0.46342813308E+02  0.79264502464E+02 -0.35738649011E+02  0.98528009872E+02  0.00000000000E+00 0. -1.
         21    1    1    2  506  504  0.47044944380E+02 -0.25889679305E+02  0.25481631114E+02  0.59437494988E+02  0.00000000000E+00 0. -1.
<scales pt_clust_3="54.14307" pt_clust_4="42.83550" pt_clust_5="101.34774" pt_clust_6="42.83550"></scales>
<clustering>
<clus scale="   42.835">  4  6 -1 -1</clus>
<clus scale="   54.143">  2  3  1 -1</clus>
<clus scale="  101.348">  2  5  1 -1</clus>
<clus scale="  110.185">  1  3  2 -1</clus>
</clustering>
</event>
<event>
 6    0  0.4582113E+002  0.1145091E+03  0.7546771E-02  0.1252440E+00
         21   -1    0    0  505  501  0.00000000000E+00  0.00000000000E+00  0.56530297381E+02  0.56530297381E+02  0.00000000000E+00 0.  1.
         21   -1    0    0  504  502 -0.00000000000E+00 -0.00000000000E+00 -0.37510713466E+03  0.37510713466E+03  0.00000000000E+00 0.  1.
         21    1    1    2  503  502 -0.25076467226E+02 -0.72259466586E+02 -0.42757584470E+02  0.87626883714E+02  0.00000000000E+00 0.  1.
         21    1    1    2  504  506 -0.29309957179E+02  0.43997790747E+02 -0.11288927781E+03  0.12465499679E+03  0.00000000000E+00 0.  1.
         21    1    1    2  505  503 -0.40756291753E+02 -0.80610762721E+01 -0.27162358557E+02  0.49637183547E+02  0.00000000000E+00 0.  1.
         21    1    1    2  506  501  0.95142716157E+02  0.36322752111E+02 -0.13576761645E+03  0.16971836799E+03  0.00000000000E+00 0.  1.
<scales pt_clust_3="41.47758" pt_clust_4="52.86662" pt_clust_5="41.47758" pt_clust_6="99.72491"></scales>
<clustering>
<clus scale="   41.478">  3  5 -1 -1</clus>
<clus scale="   52.867">  2  4  1 -1</clus>
<clus scale="   99.725">  2  6  1 -1</clus>
<clus scale="  114.509">  1  3  2 -1</clus>
</clustering>
</event>
<event>
 6    0  0.4582113E+002  0.1921006E+03  0.7546771E-02  0.1156580E+00
         21   -1    0    0  506  501  0.00000000000E+00  0.00000000000E+00  0.42861704883E+03  0.42861704883E+03  0.00000000000E+00 0.  1.
         21   -1    0    0  505  502 -0.00000000000E+00 -0.00000000000E+00 -0.21372289190E+03  0.21372289190E+03  0.00000000000E+00 0.  1.
         21    1    1    2  503  502 -0.15596438997E+03  0.10759289345E+03  0.46393597533E+02  0.19507303133E+03  0.00000000000E+00 0.  1.
         21    1    1    2  504  501  0.17586472327E+02 -0.14700886365E+03  0.16832347149E+03  0.22417332815E+03  0.00000000000E+00 0.  1.
         21    1    1    2  505  504  0.17237775962E+03  0.45601915136E+02 -0.25389609828E+02  0.18010624354E+03  0.00000000000E+00 0.  1.
         21    1    1    2  506  503 -0.33999841977E+02 -0.61859449316E+01  0.25566697745E+02  0.42987337702E+02  0.00000000000E+00 0.  1.
<scales pt_clust_3="30.57247" pt_clust_4="148.05705" pt_clust_5="178.26378" pt_clust_6="30.57247"></scales>
<clustering>
<clus scale="   30.572">  3  6 -1 -1</clus>
<clus scale="  148.057">  1  4  2 -1</clus>
<clus scale="  178.264">  2  5  1 -1</clus>
<clus scale="  148.057">  1  3  2 -1</clus>
</clustering>
</event>
<event>
 6    0  0.4582113E+002  0.9695976E+02  0.7546771E-02  0.1286822E+00
         21   -1    0    0  505  501  0.00000000000E+00  0.00000000000E+00  0.22299421980E+03  0.22299421980E+03  0.00000000000E+00 0.  1.
         21   -1    0    0  506  502 -0.00000000000E+00 -0.00000000000E+00 -0.76570087495E+03  0.76570087495E+03  0.00000000000E+00 0.  1.
         21    1    1    2  503  501 -0.55030218914E+02 -0.30902603414E+01  0.94372556922E+02  0.10928885672E+03  0.00000000000E+00 0.  1.
         21    1    1    2  504  502 -0.16036618799E+02 -0.10881261757E+03  0.49511469910E+02  0.12061817665E+03  0.00000000000E+00 0.  1.
         21    1    1    2  505  504  0.25974088884E+02  0.26373199086E+02  0.22379222683E+02  0.43255387309E+02  0.00000000000E+00 0. -1.
         21    1    1    2  506  503  0.45092748830E+02  0.85529678829E+02 -0.70896990466E+03  0.71553267408E+03  0.00000000000E+00 0.  1.
<scales pt_clust_3="42.57624" pt_clust_4="14000.00000" pt_clust_5="37.01620" pt_clust_6="96.95976"></scales>
<clustering>
<clus scale="   37.016">  1  5  2 -1</clus>
<clus scale="   42.576">  1  3  2 -1</clus>
<clus scale="   96.960">  2  6  1 -1</clus>
<clus scale="   37.016">  1  3  2 -1</clus>
</clustering>
</event>
<event>
 6    0  0.4582113E+002  0.1990682E+03  0.7546771E-02  0.1150528E+00
         21   -1    0    0  504  501  0.00000000000E+00  0.00000000000E+00  0.87983147852E+03  0.87983147852E+03  0.00000000000E+00 0. -1.
         21   -1    0    0  505  502 -0.00000000000E+00 -0.00000000000E+00 -0.35824860659E+03  0.35824860659E+03  0.00000000000E+00 0. -1.
         21    1    1    2  503  502 -0.20008830330E+02  0.57306799059E+02  0.33092236117E+03  0.33644320714E+03  0.00000000000E+00 0. -1.
         21    1    1    2  504  503 -0.60898914490E+02  0.38138021530E+02  0.40169126776E+03  0.40806747122E+03  0.00000000000E+00 0. -1.
         21    1    1    2  505  506  0.16045028087E+03 -0.11434848882E+03 -0.30868721643E+03  0.36620713689E+03  0.00000000000E+00 0. -1.
         21    1    1    2  506  501 -0.79542536047E+02  0.18903668227E+02  0.97656459431E+02  0.12736226985E+03  0.00000000000E+00 0. -1.
<scales pt_clust_3="40.24824" pt_clust_4="40.24824" pt_clust_5="194.19194" pt_clust_6="81.75796"></scales>
<clustering>
<clus scale="   40.248">  3  4 -1 -1</clus>
<clus scale="   81.758">  1  6  2 -1</clus>
<clus scale="  194.192">  2  5  1 -1</clus>
<clus scale="   81.758">  1  3  2 -1</clus>
</clustering>
</event>
<event>
 6    0  0.6613570E+002  0.1081004E+03  0.7546771E-02  0.1264129E+00
         21   -1    0    0  506  501  0.00000000000E+00  0.00000000000E+00  0.58687175197E+03  0.58687175197E+03  0.00000000000E+00 0. -1.
         21   -1    0    0  504  502 -0.00000000000E+00 -0.00000000000E+00 -0.15338172612E+04  0.15338172612E+04  0.00000000000E+00 0. -1.
         21    1    1    2  503  505  0.96380337745E+01  0.16142756137E+03  0.49202762234E+03  0.51792174159E+03  0.00000000000E+00 0. -1.
         21    1    1    2  504  503  0.61830954041E+00 -0.47447404035E+02 -0.14072464256E+04  0.14080462140E+04  0.00000000000E+00 0. -1.
         21    1    1    2  505  501 -0.27441886073E+02 -0.48727939081E+02  0.59235327421E+02  0.81463446852E+02  0.00000000000E+00 0. -1.
         21    1    1    2  506  502  0.17185542758E+02 -0.65252218251E+02 -0.90962033440E+02  0.11325761076E+03  0.00000000000E+00 0. -1.
<scales pt_clust_3="108.10043" pt_clust_4="47.45143" pt_clust_5="59.57575" pt_clust_6="14000.00000"></scales>
<clustering>
<clus scale="   47.451">  2  4  1 -1</clus>
<clus scale="   59.576">  1  5  2 -1</clus>
<clus scale="  108.100">  1  3  2 -1</clus>
<clus scale="   59.576">  1  3  2 -1</clus>
</clustering>
</event>
<event>
 6    0  0.4582113E+002  0.7766597E+02  0.7546771E-02  0.1335809E+00
         21   -1    0    0  505  501  0.00000000000E+00  0.00000000000E+00  0.17501024652E+04  0.17501024652E+04  0.00000000000E+00 0.  1.
         21   -1    0    0  503  502 -0.00000000000E+00 -0.00000000000E+00 -0.69616688403E+02  0.69616688403E+02  0.00000000000E+00 0.  1.
         21    1    1    2  503  504 -0.10748513018E+02 -0.74137395402E+02 -0.25540285408E+02  0.79146636743E+02  0.00000000000E+00 0.  1.
         21    1    1    2  504  506 -0.53688749101E+02  0.10668948911E+03  0.21210917412E+03  0.24342438377E+03  0.00000000000E+00 0.  1.
         21    1    1    2  505  502  0.47595532039E+02  0.12368070326E+02  0.87064522359E+03  0.87203291750E+03  0.00000000000E+00 0.  1.
         21    1    1    2  506  501  0.16841730080E+02 -0.44920164038E+02  0.62327166446E+03  0.62511521557E+03  0.00000000000E+00 0.  1.
<scales pt_clust_3="77.66597" pt_clust_4="14000.00000" pt_clust_5="64.63339" pt_clust_6="47.97359"></scales>
<clustering>
<clus scale="   47.974">  1  6  2 -1</clus>
<clus scale="   64.633">  1  5  2 -1</clus>
<clus scale="   77.666">  2  3  1 -1</clus>
<clus scale="   47.974">  1  3  2 -1</clus>
</clustering>
</event>
<event>
 6    0  0.4582113E+002  0.1101492E+03  0.7546771E-02  0.1260294E+00
         21   -1    0    0  505  501  0.00000000000E+00  0.00000000000E+00  0.25355658827E+02  0.25355658827E+02  0.00000000000E+00 0.  1.
         21   -1    0    0  504  502 -0.00000000000E+00 -0.00000000000E+00 -0.72459920535E+03  0.72459920535E+03  0.00000000000E+00 0.  1.
         21    1    1    2  503  506  0.60220987970E+02 -0.14045977838E+02 -0.10637902312E+03  0.12304614356E+03  0.00000000000E+00 0.  1.
         21    1    1    2  504  501 -0.11681611644E+03  0.36882362736E+02 -0.31662933063E+03  0.33950028977E+03  0.00000000000E+00 0.  1.
         21    1    1    2  505  503  0.15868845838E+02 -0.31546516537E+02 -0.92478532584E+02  0.98991322664E+02  0.00000000000E+00 0.  1.
         21    1    1    2  506  502  0.40726282632E+02  0.87101316384E+01 -0.18375666019E+03  0.18841710818E+03  0.00000000000E+00 0. -1.
<scales pt_clust_3="32.83516" pt_clust_4="101.21699" pt_clust_5="32.83516" pt_clust_6="41.64729"></scales>
<clustering>
<clus scale="   32.835">  3  5 -1 -1</clus>
<clus scale="   41.647">  2  6  1 -1</clus>
<clus scale="  101.217">  2  4  1 -1</clus>
<clus scale="  110.149">  1  3  2 -1</clus>
</clustering>
</event>
<event>
 6    0  0.4582113E+002  0.6380543E+02  0.7546771E-02  0.1382522E+00
         21   -1    0    0  505  501  0.00000000000E+00  0.00000000000E+00  0.40056555098E+02  0.40056555098E+02  0.00000000000E+00 0.  1.
         21   -1    0    0  506  502 -0.00000000000E+00 -0.00000000000E+00 -0.14869957608E+04  0.14869957608E+04  0.00000000000E+00 0.  1.
         21    1    1    2  503  501  0.72788237301E+02 -0.23671883298E+01 -0.12427466769E+02  0.73879449106E+02  0.00000000000E+00 0.  1.
         21    1    1    2  504  502 -0.88439473524E+02 -0.13382394108E+02 -0.77566177174E+03  0.78080203195E+03  0.00000000000E+00 0.  1.
         21    1    1    2  505  504 -0.18908376840E+02 -0.28604754032E+02 -0.48281789778E+02  0.59218999418E+02  0.00000000000E+00 0.  1.
         21    1    1    2  506  503  0.34559613063E+02  0.44354336469E+02 -0.61056817741E+03  0.61315183542E+03  0.00000000000E+00 0.  1.
<scales pt_clust_3="63.80543" pt_clust_4="14000.00000" pt_clust_5="34.28934" pt_clust_6="54.95206"></scales>
<clustering>
<clus scale="   34.289">  1  5  2 -1</clus>
<clus scale="   54.952">  2  6  1 -1</clus>
<clus scale="   63.805">  1  3  2 -1</clus>
<clus scale="   34.289">  1  3  2 -1</clus>
</clustering>
</event>
<event>
 6    0  0.4582113E+002  0.1768160E+03  0.7546771E-02  0.1170921E+00
         21   -1    0    0  505  501  0.00000000000E+00  0.00000000000E+00  0.30983160976E+03  0.30983160976E+03  0.00000000000E+00 0. -1.
         21   -1    0    0  504  502 -0.00000000000E+00 -0.00000000000E+00 -0.49351434124E+03  0.49351434124E+03  0.00000000000E+00 0. -1.
         21    1    1    2  503  501  0.10415909667E+03  0.61789328478E+01 -0.49561499743E+01  0.10445984900E+03  0.00000000000E+00 0. -1.
         21    1    1    2  504  503 -0.25695524880E+03 -0.67002772365E+02  0.14650318874E+03  0.30327966582E+03  0.00000000000E+00 0. -1.
         21    1    1    2  505  506  0.13417854454E+03  0.98776833288E+02 -0.18419199161E+03  0.24836955204E+03  0.00000000000E+00 0.  1.
         21    1    1    2  506  502  0.18617607588E+02 -0.37952993771E+02 -0.14103777863E+03  0.14723688414E+03  0.00000000000E+00 0. -1.
<scales pt_clust_3="107.07464" pt_clust_4="14000.00000" pt_clust_5="176.81600" pt_clust_6="42.27346"></scales>
<clustering>
<clus scale="   42.273">  2  6  1 -1</clus>
<clus scale="  107.075">  1  3  2 -1</clus>
<clus scale="  176.816">  2  5  1 -1</clus>
<clus scale="  107.075">  1  3  2 -1</clus>
</clustering>
</event>
<event>
 6    0  0.4582113E+002  0.9828242E+02  0.7546771E-02  0.1283950E+00
         21   -1    0    0  503  501  0.00000000000E+00  0.00000000000E+00  0.75323989026E+03  0.75323989026E+03  0.00000000000E+00 0. -1.
         21   -1    0    0  506  502 -0.00000000000E+00 -0.00000000000E+00 -0.60685601492E+02  0.60685601492E+02  0.00000000000E+00 0.  1.
         21    1    1    2  503  504 -0.70404699271E+02 -0.83787159799E+01  0.83629953881E+02  0.10964029253E+03  0.00000000000E+00 0. -1.
         21    1    1    2  504  502  0.43046293231E+02 -0.10953838526E+03  0.28493984036E+03  0.30828939948E+03  0.00000000000E+00 0. -1.
         21    1    1    2  505  501  0.55545127109E+02  0.28329004313E+02  0.28919719454E+03  0.29584254420E+03  0.00000000000E+00 0.  1.
         21    1    1    2  506  505 -0.28186721069E+02  0.89588096926E+02  0.34787299997E+02  0.10015325555E+03  0.00000000000E+00 0.  1.
<scales pt_clust_3="58.80473" pt_clust_4="98.28242" pt_clust_5="62.35217" pt_clust_6="14000.00000"></scales>
<clustering>
<clus scale="   62.352">  1  5  2 -1</clus>
<clus scale="   58.805">  1  3  2 -1</clus>
<clus scale="   98.282">  1  4  2 -1</clus>
<clus scale="   62.352">  1  3  2 -1</clus>
</clustering>
</event>
<event>
 6    0  0.4582113E+002  0.1033109E+03  0.7546771E-02  0.1273484E+00
         21   -1    0    0  504  501  0.00000000000E+00  0.00000000000E+00  0.32235382190E+03  0.32235382190E+03  0.00000000000E+00 0. -1.
         21   -1    0    0  505  502 -0.00000000000E+00 -0.00000000000E+00 -0.25433194138E+03  0.25433194138E+03  0.00000000000E+00 0. -1.
         21    1    1    2  503  502 -0.42587164569E+02  0.63746362994E+02  0.55728304821E+01  0.76865608828E+02  0.00000000000E+00 0. -1.
         21    1    1    2  504  503  0.22608098144E+02 -0.17293624762E+03 -0.11298918506E+03  0.20780911381E+03  0.00000000000E+00 0. -1.
         21    1    1    2  505  506  0.35619815307E+02  0.11879764555E+02 -0.40143979494E+02  0.54967618995E+02  0.00000000000E+00 0.  1.
         21    1    1    2  506  501 -0.15640748882E+02  0.97310120070E+02  0.21558221460E+03  0.23704342164E+03  0.00000000000E+00 0. -1.
<scales pt_clust_3="75.21469" pt_clust_4="103.31092" pt_clust_5="37.54864" pt_clust_6="14000.00000"></scales>
<clustering>
<clus scale="   37.549">  2  5  1 -1</clus>
<clus scale="   75.215">  2  3  1 -1</clus>
<clus scale="  103.311">  2  4  1 -1</clus>
<clus scale="  103.311">  1  3  2 -1</clus>
</clustering>
</event>
<event>
 6    0  0.4582113E+002  0.6836251E+02  0.7546771E-02  0.1365752E+00
         21   -1    0    0  504  501  0.00000000000E+00  0.00000000000E+00  0.95494832213E+03  0.95494832213E+03  0.00000000000E+00 0. -1.
         21   -1    0    0  503  502 -0.00000000000E+00 -0.00000000000E+00 -0.25760332059E+03  0.25760332059E+03  0.00000000000E+00 0. -1.
         21    1    1    2  503  506 -0.58243359477E+02 -0.34044200165E+02 -0.30330610678E+02  0.73967847286E+02  0.00000000000E+00 0. -1.
         21    1    1    2  504  505 -0.16467223799E+02 -0.44615860682E+02  0.50283858544E+02  0.69211349604E+02  0.00000000000E+00 0. -1.
         21    1    1    2  505  502  0.36889930334E+01  0.78070971677E+02 -0.18668288294E+03  0.20238375447E+03  0.00000000000E+00 0. -1.
         21    1    1    2  506  501  0.71021590242E+02  0.58908917002E+00  0.86407463661E+03  0.86698869136E+03  0.00000000000E+00 0. -1.
<scales pt_clust_3="68.36251" pt_clust_4="47.55780" pt_clust_5="68.34316" pt_clust_6="14000.00000"></scales>
<clustering>
<clus scale="   47.558">  1  4  2 -1</clus>
<clus scale="   68.363">  2  3  1 -1</clus>
<clus scale="   68.343">  2  5  1 -1</clus>
<clus scale="   47.558">  1  3  2 -1</clus>
</clustering>
</event>
<event>
 6    0  0.4582113E+002  0.1605566E+03  0.7546771E-02  0.1188070E+00
         21   -1    0    0  503  501  0.00000000000E+00  0.00000000000E+00  0.67422719119E+03  0.67422719119E+03  0.00000000000E+00 0.  1.
         21   -1    0    0  504  502 -0.00000000000E+00 -0.00000000000E+00 -0.17784143165E+03  0.17784143165E+03  0.00000000000E+00 0. -1.
         21    1    1    2  503  502 -0.10814373576E+03  0.94036195142E+02 -0.11485286954E+03  0.18365471740E+03  0.00000000000E+00 0. -1.
         21    1    1    2  504  505 -0.25600174168E+02 -0.28931739101E+02  0.25116143980E+01  0.38713339455E+02  0.00000000000E+00 0.  1.
         21    1    1    2  505  506  0.12466876520E+03 -0.34768729404E+02  0.49653010683E+03  0.51312114802E+03  0.00000000000E+00 0.  1.
         21    1    1    2  506  501  0.90751447276E+01 -0.30335726637E+02  0.11219690785E+03  0.11657941797E+03  0.00000000000E+00 0. -1.
<scales pt_clust_3="148.08856" pt_clust_4="38.63178" pt_clust_5="30.68323" pt_clust_6="30.68323"></scales>
<clustering>
<clus scale="   30.683">  5  6 -1 -1</clus>
<clus scale="   38.632">  2  4  1 -1</clus>
<clus scale="  148.089">  2  3  1 -1</clus>
<clus scale="  160.557">  1  3  2 -1</clus>
</clustering>
</event>
<event>
 6    0  0.4582113E+002  0.1306806E+03  0.7546771E-02  0.1226449E+00
         21   -1    0    0  505  501  0.00000000000E+00  0.00000000000E+00  0.22075312683E+03  0.22075312683E+03  0.00000000000E+00 0.  1.
         21   -1    0    0  503  502 -0.00000000000E+00 -0.00000000000E+00 -0.79953554042E+03  0.79953554042E+03  0.00000000000E+00 0.  1.
         21    1    1    2  503  504 -0.65197081879E+02  0.27779610213E+01 -0.21385645912E+03  0.22359105899E+03  0.00000000000E+00 0.  1.
         21    1    1    2  504  501  0.56186644868E+02 -0.12772400014E+03 -0.55150321025E+03  0.56888149046E+03  0.00000000000E+00 0.  1.
         21    1    1    2  505  506  0.94669684376E+01  0.50817183231E+02  0.47429697183E+02  0.70154014695E+02  0.00000000000E+00 0. -1.
         21    1    1    2  506  502 -0.45653142737E+00  0.74128855884E+02  0.13914755859E+03  0.15766210311E+03  0.00000000000E+00 0.  1.
<scales pt_clust_3="65.25624" pt_clust_4="125.22381" pt_clust_5="31.20458" pt_clust_6="31.20458"></scales>
<clustering>
<clus scale="   31.205">  5  6 -1 -1</clus>
<clus scale="   65.256">  2  3  1 -1</clus>
<clus scale="  125.224">  2  4  1 -1</clus>
<clus scale="  130.681">  1  3  2 -1</clus>
</clustering>
</event>
<event>
 6    0  0.4582113E+002  0.1934887E+03  0.7546771E-02  0.1155352E+00
         21   -1    0    0  504  501  0.00000000000E+00  0.00000000000E+00  0.49519293566E+03  0.49519293566E+03  0.00000000000E+00 0. -1.
         21   -1    0    0  503  502 -0.00000000000E+00 -0.00000000000E+00 -0.46954501232E+03  0.46954501232E+03  0.00000000000E+00 0.  1.
         21    1    1    2  503  501 -0.95820143246E+02  0.19175003821E+03  0.10706304637E+03  0.23960816536E+03  0.00000000000E+00 0. -1.
         21    1    1    2  504  505  0.22961671657E+02 -0.87677070212E+02  0.20395476317E+03  0.22318613851E+03  0.00000000000E+00 0. -1.
         21    1    1    2  505  506 -0.18438189461E+01 -0.84729105814E+02  0.87121955912E+02  0.12154281650E+03  0.00000000000E+00 0. -1.
         21    1    1    2  506  502  0.74702290535E+02 -0.19343862189E+02 -0.37249184210E+03  0.38040082761E+03  0.00000000000E+00 0.  1.
<scales pt_clust_3="183.01731" pt_clust_4="60.71703" pt_clust_5="60.71703" pt_clust_6="77.16617"></scales>
<clustering>
<clus scale="   60.717">  4  5 -1 -1</clus>
<clus scale="   77.166">  2  6  1 -1</clus>
<clus scale="  183.017">  2  3  1 -1</clus>
<clus scale="  193.489">  1  3  2 -1</clus>
</clustering>
</event>
<event>
 6    0  0.4582113E+002  0.1532833E+03  0.7546771E-02  0.1196496E+00
         21   -1    0    0  502  501  0.00000000000E+00  0.00000000000E+00  0.12923727275E+03  0.12923727275E+03  0.00000000000E+00 0. -1.
         21   -1    0    0  504  502 -0.00000000000E+00 -0.00000000000E+00 -0.55214538645E+03  0.55214538645E+03  0.00000000000E+00 0. -1.
         21    1    1    2  503  506  0.10980115640E+03  0.70124243765E+02 -0.16779126342E+03  0.21243260482E+03  0.00000000000E+00 0. -1.
         21    1    1    2  504  505 -0.12748213769E+03  0.34978636620E+02 -0.17609655349E+03  0.22019354350E+03  0.00000000000E+00 0. -1.
         21    1    1    2  505  503  0.75518757880E+01  0.36875962118E+02 -0.98165687526E+02  0.10513500662E+03  0.00000000000E+00 0. -1.
         21    1    1    2  506  501  0.10129105503E+02 -0.14197884250E+03  0.19145390732E+02  0.14362150425E+03  0.00000000000E+00 0. -1.
<scales pt_clust_3="37.60783" pt_clust_4="132.19380" pt_clust_5="37.60783" pt_clust_6="136.38346"></scales>
<clustering>
<clus scale="   37.608">  3  5 -1 -1</clus>
<clus scale="  132.194">  2  4  1 -1</clus>
<clus scale="  136.383">  1  6  2 -1</clus>
<clus scale="  136.383">  1  3  2 -1</clus>
</clustering>
</event>
<event>
 6    0  0.4582113E+002  0.8268937E+02  0.7546771E-02  0.1321588E+00
         21   -1    0    0  503  501  0.00000000000E+00  0.00000000000E+00  0.55004710555E+02  0.55004710555E+02  0.00000000000E+00 0.  1.
         21   -1    0    0  504  502 -0.00000000000E+00 -0.00000000000E+00 -0.85325892966E+03  0.85325892966E+03  0.00000000000E+00 0.  1.
         21    1    1    2  503  505 -0.22228078219E+02  0.29250261751E+02  0.47505470646E+01  0.37043663037E+02  0.00000000000E+00 0.  1.
         21    1    1    2  504  501  0.82023640132E+02 -0.71006336145E+02 -0.24127571978E+03  0.26454442022E+03  0.00000000000E+00 0.  1.
         21    1    1    2  505  506 -0.63382703673E+02 -0.43120899190E+00 -0.24773759661E+02  0.68053598243E+02  0.00000000000E+00 0.  1.
         21    1    1    2  506  502  0.35871417591E+01  0.42187283385E+02 -0.53695528673E+03  0.53862195872E+03  0.00000000000E+00 0.  1.
<scales pt_clust_3="36.73779" pt_clust_4="14000.00000" pt_clust_5="82.68937" pt_clust_6="43.00980"></scales>
<clustering>
<clus scale="   36.738">  1  3  2 -1</clus>
<clus scale="   43.010">  2  6  1 -1</clus>
<clus scale="   82.689">  1  5  2 -1</clus>
<clus scale="   36.738">  1  3  2 -1</clus>
</clustering>
</event>
<event>
 6    0  0.4582113E+002  0.9175573E+02  0.7546771E-02  0.1298655E+00
         21   -1    0    0  506  501  0.00000000000E+00  0.00000000000E+00  0.36011929012E+03  0.36011929012E+03  0.00000000000E+00 0.  1.
         21   -1    0    0  504  502 -0.00000000000E+00 -0.00000000000E+00 -0.21995725186E+03  0.21995725186E+03  0.00000000000E+00 0.  1.
         21    1    1    2  503  501 -0.39263457109E+02  0.29444772028E+02  0.22970456177E+03  0.23488890856E+03  0.00000000000E+00 0.  1.
         21    1    1    2  504  505  0.80280630319E+02  0.35287335174E+02 -0.52590502829E+02  0.10225427432E+03  0.00000000000E+00 0.  1.
         21    1    1    2  505  503 -0.11224565904E+02 -0.12341723178E+03 -0.94231683988E+02  0.15568369936E+03  0.00000000000E+00 0.  1.
         21    1    1    2  506  502 -0.29792607306E+02  0.58685124575E+02  0.57279663307E+02  0.87249659742E+02  0.00000000000E+00 0.  1.
<scales pt_clust_3="49.07763" pt_clust_4="83.42705" pt_clust_5="91.75573" pt_clust_6="14000.00000"></scales>
<clustering>
<clus scale="   49.078">  1  3  2 -1</clus>
<clus scale="   83.427">  2  4  1 -1</clus>
<clus scale="   91.756">  2  5  1 -1</clus>
<clus scale="   49.078">  1  3  2 -1</clus>
</clustering>
</event>
<event>
 6    0  0.4582113E+002  0.8404299E+02  0.7546771E-02  0.1317954E+00
         21   -1    0    0  506  501  0.00000000000E+00  0.00000000000E+00  0.14946057100E+03  0.14946057100E+03  0.00000000000E+00 0.  1.
         21   -1    0    0  505  502 -0.00000000000E+00 -0.00000000000E+00 -0.16973726824E+03  0.16973726824E+03  0.00000000000E+00 0.  1.
         21    1    1    2  503  504 -0.36860268115E+02  0.22560985221E+02 -0.86408413194E+01  0.44072004247E+02  0.00000000000E+00 0.  1.
         21    1    1    2  504  501  0.85126059394E+02 -0.56562401485E+01  0.77455013383E+02  0.11522898133E+03  0.00000000000E+00 0.  1.
         21    1    1    2  505  503  0.30978509811E+02  0.26072654511E+02 -0.41409100348E+02  0.57915153242E+02  0.00000000000E+00 0.  1.
         21    1    1    2  506  502 -0.79244301090E+02 -0.42977399584E+02 -0.47681768954E+02  0.10198170042E+03  0.00000000000E+00 0.  1.
<scales pt_clust_3="41.27486" pt_clust_4="84.04299" pt_clust_5="40.49014" pt_clust_6="14000.00000"></scales>
<clustering>
<clus scale="   40.490">  2  5  1 -1</clus>
<clus scale="   41.275">  2  3  1 -1</clus>
<clus scale="   84.043">  1  4  2 -1</clus>
<clus scale="   84.043">  1  3  2 -1</clus>
</clustering>
</event>
<event>
 6    0  0.1722216E+003  0.1040115E+03  0.7546771E-02  0.1272080E+00
         21   -1    0    0  503  501  0.00000000000E+00  0.00000000000E+00  0.91973060711E+03  0.91973060711E+03  0.00000000000E+00 0.  1.
         21   -1    0    0  506  502 -0.00000000000E+00 -0.00000000000E+00 -0.13889653127E+04  0.13889653127E+04  0.00000000000E+00 0.  1.
         21    1    1    2  503  505  0.97064556360E+01  0.38545389663E+02  0.38347450764E+00  0.39750589907E+02  0.00000000000E+00 0. -1.
         21    1    1    2  504  501  0.92257547404E+02 -0.69235474822E+01  0.88111643185E+03  0.88596024574E+03  0.00000000000E+00 0.  1.
         21    1    1    2  505  502 -0.53220972275E+02  0.73243826615E+02 -0.11315421580E+04  0.11351584847E+04  0.00000000000E+00 0.  1.
         21    1    1    2  506  504 -0.48743030764E+02 -0.10486566880E+03 -0.21919245392E+03  0.24782659945E+03  0.00000000000E+00 0.  1.
<scales pt_clust_3="39.74874" pt_clust_4="14000.00000" pt_clust_5="90.58923" pt_clust_6="104.01149"></scales>
<clustering>
<clus scale="   39.749">  1  3  2 -1</clus>
<clus scale="   90.589">  2  5  1 -1</clus>
<clus scale="  104.011">  2  6  1 -1</clus>
<clus scale="   39.749">  1  3  2 -1</clus>
</clustering>
</event>
<event>
 6    0  0.4582113E+002  0.8457045E+02  0.7546771E-02  0.1316560E+00
         21   -1    0    0  506  501  0.00000000000E+00  0.00000000000E+00  0.33852513645E+03  0.33852513645E+03  0.00000000000E+00 0.  1.
         21   -1    0    0  504  502 -0.00000000000E+00 -0.00000000000E+00 -0.14027323831E+03  0.14027323831E+03  0.00000000000E+00 0. -1.
         21    1    1    2  503  501 -0.38739849147E+02  0.12144122760E+03  0.45543549410E+02  0.13536233806E+03  0.00000000000E+00 0.  1.
         21    1    1    2  504  503  0.38068134437E+02 -0.39090359460E+02 -0.63154183890E+02  0.83460709349E+02  0.00000000000E+00 0. -1.
         21    1    1    2  505  502  0.35397820708E+02 -0.15455084118E+02  0.87902882265E+01  0.39612302421E+02  0.00000000000E+00 0.  1.
         21    1    1    2  506  505 -0.34726105998E+02 -0.66895784020E+02  0.20707224440E+03  0.22036302493E+03  0.00000000000E+00 0.  1.
<scales pt_clust_3="14000.00000" pt_clust_4="84.57045" pt_clust_5="38.62467" pt_clust_6="75.26208"></scales>
<clustering>
<clus scale="   38.625">  2  5  1 -1</clus>
<clus scale="   75.262">  1  6  2 -1</clus>
<clus scale="   84.570">  2  4  1 -1</clus>
<clus scale="   75.262">  1  3  2 -1</clus>
</clustering>
</event>
<event>
 6    0  0.4582113E+002  0.1085816E+03  0.7546771E-02  0.1263219E+00
         21   -1    0    0  505  501  0.00000000000E+00  0.00000000000E+00  0.60278280813E+03  0.60278280813E+03  0.00000000000E+00 0.  1.
         21   -1    0    0  503  502 -0.00000000000E+00 -0.00000000000E+00 -0.89928497071E+03  0.89928497071E+03  0.00000000000E+00 0. -1.
         21    1    1    2  503  506  0.52390539578E+02  0.72861315822E+02 -0.60132085708E+03  0.60798052036E+03  0.00000000000E+00 0. -1.
         21    1    1    2  504  502 -0.31451398785E+02  0.33801707103E+02 -0.26442532829E+03  0.26842596769E+03  0.00000000000E+00 0. -1.
         21    1    1    2  505  504  0.73883571935E+02  0.40089090900E+02  0.20941072209E+03  0.22565187333E+03  0.00000000000E+00 0.  1.
         21    1    1    2  506  501 -0.94822712728E+02 -0.14675211383E+03  0.35983330070E+03  0.40000941746E+03  0.00000000000E+00 0.  1.
<scales pt_clust_3="108.58159" pt_clust_4="46.17083" pt_clust_5="83.91311" pt_clust_6="14000.00000"></scales>
<clustering>
<clus scale="   46.171">  2  4  1 -1</clus>
<clus scale="   83.913">  1  5  2 -1</clus>
<clus scale="  108.582">  2  3  1 -1</clus>
<clus scale="   83.913">  1  3  2 -1</clus>
</clustering>
</event>
<event>
 6    0  0.4582113E+002  0.1108934E+03  0.7546771E-02  0.1258924E+00
         21   -1    0    0  503  501  0.00000000000E+00  0.00000000000E+00  0.20497850798E+03  0.20497850798E+03  0.00000000000E+00 0. -1.
         21   -1    0    0  505  502 -0.00000000000E+00 -0.00000000000E+00 -0.57256604915E+03  0.57256604915E+03  0.00000000000E+00 0. -1.
         21    1    1    2  503  502  0.11370527661E+03 -0.11699960336E+03 -0.22395474624E+03  0.27708035924E+03  0.00000000000E+00 0. -1.
         21    1    1    2  504  506 -0.49214048530E+02  0.50822805142E+02 -0.16711925470E+02  0.72692974545E+02  0.00000000000E+00 0.  1.
         21    1    1    2  505  504  0.36972386767E+02  0.29332678353E+02 -0.25553728341E+03  0.25985893599E+03  0.00000000000E+00 0. -1.
         21    1    1    2  506  501 -0.10146361485E+03  0.36844119860E+02  0.12861641395E+03  0.16791228735E+03  0.00000000000E+00 0. -1.
<scales pt_clust_3="14000.00000" pt_clust_4="70.40253" pt_clust_5="47.19495" pt_clust_6="110.89340"></scales>
<clustering>
<clus scale="   47.195">  2  5  1 -1</clus>
<clus scale="   70.403">  2  4  1 -1</clus>
<clus scale="  110.893">  1  6  2 -1</clus>
<clus scale="  110.893">  1  3  2 -1</clus>
</clustering>
</event>
<event>
 6    0  0.4582113E+002  0.7043870E+02  0.7546771E-02  0.1358608E+00
         21   -1    0    0  503  501  0.00000000000E+00  0.00000000000E+00  0.65030491192E+02  0.65030491192E+02  0.00000000000E+00 0. -1.
         21   -1    0    0  506  502 -0.00000000000E+00 -0.00000000000E+00 -0.14934283594E+04  0.14934283594E+04  0.00000000000E+00 0. -1.
         21    1    1    2  503  505  0.16362157038E+02  0.61899512777E+02  0.49992308018E+01  0.64220418666E+02  0.00000000000E+00 0. -1.
         21    1    1    2  504  501  0.40892067034E+01  0.48174483155E+02 -0.13212307382E+03  0.14069118336E+03  0.00000000000E+00 0. -1.
         21    1    1    2  505  502  0.20907788691E+02 -0.95703514112E+02 -0.67425810682E+02  0.11892240406E+03  0.00000000000E+00 0. -1.
         21    1    1    2  506  504 -0.41359152432E+02 -0.14370481820E+02 -0.12338482145E+04  0.12346248445E+04  0.00000000000E+00 0. -1.
<scales pt_clust_3="70.43870" pt_clust_4="44.29207" pt_clust_5="14000.00000" pt_clust_6="43.78459"></scales>
<clustering>
<clus scale="   43.785">  2  6  1 -1</clus>
<clus scale="   44.292">  2  4  1 -1</clus>
<clus scale="   70.439">  1  3  2 -1</clus>
<clus scale="   70.439">  1  3  2 -1</clus>
</clustering>
</event>
<event>
 6    0  0.4582113E+002  0.9498444E+02  0.7546771E-02  0.1291211E+00
         21   -1    0    0  504  501  0.00000000000E+00  0.00000000000E+00  0.32341470639E+03  0.32341470639E+03  0.00000000000E+00 0. -1.
         21   -1    0    0  505  502 -0.00000000000E+00 -0.00000000000E+00 -0.34057052336E+03  0.34057052336E+03  0.00000000000E+00 0.  1.
         21    1    1    2  503  501 -0.74596020802E+01  0.42593859465E+02  0.50528571028E+02  0.66505781835E+02  0.00000000000E+00 0. -1.
         21    1    1    2  504  506 -0.20695921023E+02 -0.97853412733E+02  0.18693020662E+03  0.21200592841E+03  0.00000000000E+00 0. -1.
         21    1    1    2  505  503  0.10650537804E+02  0.14205995181E+03 -0.32160259371E+02  0.14604364466E+03  0.00000000000E+00 0. -1.
         21    1    1    2  506  502  0.17504985299E+02 -0.86800398540E+02 -0.22245433525E+03  0.23942987485E+03  0.00000000000E+00 0.  1.
<scales pt_clust_3="43.24214" pt_clust_4="70.84779" pt_clust_5="94.98444" pt_clust_6="14000.00000"></scales>
<clustering>
<clus scale="   43.242">  1  3  2 -1</clus>
<clus scale="   70.848">  1  4  2 -1</clus>
<clus scale="   94.984">  1  5  2 -1</clus>
<clus scale="   43.242">  1  3  2 -1</clus>
</clustering>
</event>
<event>
 6    0  0.4582113E+002  0.1251398E+03  0.7546771E-02  0.1234851E+00
         21   -1    0    0  504  501  0.00000000000E+00  0.00000000000E+00  0.48363286718E+03  0.48363286718E+03  0.00000000000E+00 0. -1.
         21   -1    0    0  503  502 -0.00000000000E+00 -0.00000000000E+00 -0.61271448734E+03  0.61271448734E+03  0.00000000000E+00 0. -1.
         21    1    1    2  503  505  0.23377265486E+02 -0.21938241112E+02 -0.71984439514E+02  0.78800650358E+02  0.00000000000E+00 0. -1.
         21    1    1    2  504  502 -0.16085912214E+02  0.36316260478E+02  0.57725454112E+02  0.70070360348E+02  0.00000000000E+00 0. -1.
         21    1    1    2  505  506 -0.14541779703E+02 -0.10437548555E+03 -0.52091493413E+03  0.53146784846E+03  0.00000000000E+00 0. -1.
         21    1    1    2  506  501  0.72504264314E+01  0.89997466187E+02  0.40609229937E+03  0.41600849536E+03  0.00000000000E+00 0. -1.
<scales pt_clust_3="32.05905" pt_clust_4="39.38044" pt_clust_5="125.13984" pt_clust_6="14000.00000"></scales>
<clustering>
<clus scale="   32.059">  2  3  1 -1</clus>
<clus scale="   39.380">  1  4  2 -1</clus>
<clus scale="  125.140">  2  5  1 -1</clus>
<clus scale="   39.380">  1  3  2 -1</clus>
</clustering>
</event>
<event>
 6    0  0.4582113E+002  0.2734820E+03  0.7546771E-02  0.1099303E+00
         21   -1    0    0  503  501  0.00000000000E+00  0.00000000000E+00  0.11693961764E+04  0.11693961764E+04  0.00000000000E+00 0. -1.
         21   -1    0    0  501  502 -0.00000000000E+00 -0.00000000000E+00 -0.13677584033E+04  0.13677584033E+04  0.00000000000E+00 0.  1.
         21    1    1    2  503  504 -0.97145965876E+02  0.76139399890E+02  0.48511364764E+03  0.50056947373E+03  0.00000000000E+00 0. -1.
         21    1    1    2  504  505 -0.76905611572E+02  0.13063224421E+03  0.64340762815E+03  0.66102392716E+03  0.00000000000E+00 0. -1.
         21    1    1    2  505  506  0.15623424604E+03 -0.14964648311E+03 -0.47924000645E+03  0.52580813356E+03  0.00000000000E+00 0.  1.
         21    1    1    2  506  502  0.17817331410E+02 -0.57125160994E+02 -0.84764349619E+03  0.84975304527E+03  0.00000000000E+00 0.  1.
<scales pt_clust_3="46.80470" pt_clust_4="46.80470" pt_clust_5="268.51799" pt_clust_6="59.83930"></scales>
<clustering>
<clus scale="   46.805">  3  4 -1 -1</clus>
<clus scale="   59.839">  2  6  1 -1</clus>
<clus scale="  268.518">  2  5  1 -1</clus>
<clus scale="  273.482">  1  3  2 -1</clus>
</clustering>
</event>
<event>
 6    0  0.4582113E+002  0.1781408E+03  0.7546771E-02  0.1169615E+00
         21   -1    0    0  503  501  0.00000000000E+00  0.00000000000E+00  0.15953033862E+03  0.15953033862E+03  0.00000000000E+00 0. -1.
         21   -1    0    0  505  502 -0.00000000000E+00 -0.00000000000E+00 -0.62369844931E+03  0.62369844931E+03  0.00000000000E+00 0.  1.
         21    1    1    2  503  504  0.92067870622E+02  0.71295971856E+01  0.38350983288E+02  0.99990608939E+02  0.00000000000E+00 0. -1.
         21    1    1    2  504  506  0.56266306058E+02  0.40338473940E+02 -0.18685739248E+02  0.71709459128E+02  0.00000000000E+00 0. -1.
         21    1    1    2  505  501 -0.22753862637E+03  0.60190167489E+02 -0.35466818114E+03  0.42565972497E+03  0.00000000000E+00 0.  1.
         21    1    1    2  506  502  0.79204449688E+02 -0.10765823861E+03 -0.12916517359E+03  0.18586899489E+03  0.00000000000E+00 0.  1.
<scales pt_clust_3="60.22561" pt_clust_4="60.22561" pt_clust_5="164.00063" pt_clust_6="133.65493"></scales>
<clustering>
<clus scale="   60.226">  3  4 -1 -1</clus>
<clus scale="  133.655">  2  6  1 -1</clus>
<clus scale="  164.001">  2  5  1 -1</clus>
<clus scale="  178.141">  1  3  2 -1</clus>
</clustering>
</event>
<event>
 6    0  0.4582113E+002  0.9371888E+02  0.7546771E-02  0.1294088E+00
         21   -1    0    0  503  501  0.00000000000E+00  0.00000000000E+00  0.35228206873E+03  0.35228206873E+03  0.00000000000E+00 0.  1.
         21   -1    0    0  505  502 -0.00000000000E+00 -0.00000000000E+00 -0.13026220638E+03  0.13026220638E+03  0.00000000000E+00 0. -1.
         21    1    1    2  503  504  0.50801905557E+02  0.29081634866E+02  0.22626053868E+03  0.23371009062E+03  0.00000000000E+00 0.  1.
         21    1    1    2  504  502  0.68813607938E+02  0.13650304694E+02  0.59580354871E+02  0.92040546186E+02  0.00000000000E+00 0.  1.
         21    1    1    2  505  506 -0.20761934938E+02 -0.22577017114E+02 -0.44541433020E+02  0.54080670296E+02  0.00000000000E+00 0. -1.
         21    1    1    2  506  501 -0.98853578557E+02 -0.20154922446E+02 -0.19279598183E+02  0.10271296801E+03  0.00000000000E+00 0. -1.
<scales pt_clust_3="57.19337" pt_clust_4="93.71888" pt_clust_5="30.67213" pt_clust_6="14000.00000"></scales>
<clustering>
<clus scale="   30.672">  2  5  1 -1</clus>
<clus scale="   57.193">  1  3  2 -1</clus>
<clus scale="   93.719">  1  4  2 -1</clus>
<clus scale="   57.193">  1  3  2 -1</clus>
</clustering>
</event>
<event>
 6    0  0.4582113E+002  0.7545699E+02  0.7546771E-02  0.1342462E+00
         21   -1    0    0  504  501  0.00000000000E+00  0.00000000000E+00  0.11978395095E+03  0.11978395095E+03  0.00000000000E+00 0. -1.
         21   -1    0    0  503  502 -0.00000000000E+00 -0.00000000000E+00 -0.30242104496E+03  0.30242104496E+03  0.00000000000E+00 0. -1.
         21    1    1    2  503  505 -0.28239514397E+01  0.46315640885E+02 -0.24384682059E+02  0.52418756294E+02  0.00000000000E+00 0. -1.
         21    1    1    2  504  506  0.10138683770E+03  0.16755310706E+00  0.42611997506E+02  0.10997773077E+03  0.00000000000E+00 0. -1.
         21    1    1    2  505  501 -0.38033586028E+02  0.22126660577E+02 -0.58382269510E+01  0.44387246686E+02  0.00000000000E+00 0. -1.
         21    1    1    2  506  502 -0.60529300237E+02 -0.68609854569E+02 -0.19502618251E+03  0.21542126217E+03  0.00000000000E+00 0. -1.
<scales pt_clust_3="50.06562" pt_clust_4="14000.00000" pt_clust_5="44.00162" pt_clust_6="75.45699"></scales>
<clustering>
<clus scale="   44.002">  1  5  2 -1</clus>
<clus scale="   50.066">  2  3  1 -1</clus>
<clus scale="   75.457">  2  6  1 -1</clus>
<clus scale="   44.002">  1  3  2 -1</clus>
</clustering>
</event>
<event>
 6    0  0.4582113E+002  0.1660007E+03  0.7546771E-02  0.1182084E+00
         21   -1    0    0  504  501  0.00000000000E+00  0.00000000000E+00  0.88323629233E+03  0.88323629233E+03  0.00000000000E+00 0. -1.
         21   -1    0    0  506  502 -0.00000000000E+00 -0.00000000000E+00 -0.18693984679E+03  0.18693984679E+03  0.00000000000E+00 0.  1.
         21    1    1    2  503  502 -0.14149329117E+03 -0.78208410322E+02 -0.11160989220E+03  0.19645272950E+03  0.00000000000E+00 0.  1.
         21    1    1    2  504  505 -0.16997203682E+02 -0.35645270613E+02  0.41383705953E+02  0.57202284644E+02  0.00000000000E+00 0.  1.
         21    1    1    2  505  503 -0.44208058746E+02 -0.68996053521E+01  0.10302448377E+03  0.11232097430E+03  0.00000000000E+00 0.  1.
         21    1    1    2  506  501  0.20269855360E+03  0.12075328629E+03  0.66349814802E+03  0.70420015067E+03  0.00000000000E+00 0. -1.
<scales pt_clust_3="14000.00000" pt_clust_4="39.49038" pt_clust_5="47.80686" pt_clust_6="166.00073"></scales>
<clustering>
<clus scale="   39.490">  1  4  2 -1</clus>
<clus scale="   47.807">  1  5  2 -1</clus>
<clus scale="  166.001">  1  6  2 -1</clus>
<clus scale="   39.490">  1  3  2 -1</clus>
</clustering>
</event>
<event>
 6    0  0.4582113E+002  0.2202520E+03  0.7546771E-02  0.1133695E+00
         21   -1    0    0  503  501  0.00000000000E+00  0.00000000000E+00  0.77487449005E+03  0.77487449005E+03  0.00000000000E+00 0.  1.
         21   -1    0    0  505  502 -0.00000000000E+00 -0.00000000000E+00 -0.87410882365E+02  0.87410882365E+02  0.00000000000E+00 0. -1.
         21    1    1    2  503  506 -0.98243854035E+02  0.29923014374E+02  0.26066028722E+03  0.28016250102E+03  0.00000000000E+00 0.  1.
         21    1    1    2  504  502 -0.19875756641E+01  0.39594579985E+02  0.25519378525E+02  0.47147851505E+02  0.00000000000E+00 0.  1.
         21    1    1    2  505  501  0.19886979352E+03 -0.11793340811E+03  0.20024969920E+03  0.30587158344E+03  0.00000000000E+00 0. -1.
         21    1    1    2  506  504 -0.98638363824E+02  0.48415813754E+02  0.20103424274E+03  0.22910343645E+03  0.00000000000E+00 0.  1.
<scales pt_clust_3="34.72830" pt_clust_4="39.64443" pt_clust_5="217.30297" pt_clust_6="34.72830"></scales>
<clustering>
<clus scale="   34.728">  3  6 -1 -1</clus>
<clus scale="   39.644">  2  4  1 -1</clus>
<clus scale="  217.303">  2  5  1 -1</clus>
<clus scale="  220.252">  1  3  2 -1</clus>
</clustering>
</event>
<event>
 6    0  0.4582113E+002  0.1213341E+03  0.7546771E-02  0.1240912E+00
         21   -1    0    0  504  501  0.00000000000E+00  0.00000000000E+00  0.14638633338E+03  0.14638633338E+03  0.00000000000E+00 0.  1.
         21   -1    0    0  506  502 -0.00000000000E+00 -0.00000000000E+00 -0.19243296273E+04  0.19243296273E+04  0.00000000000E+00 0. -1.
         21    1    1    2  503  505 -0.80381232852E+02 -0.43382355923E+02  0.18685283947E+02  0.93232565321E+02  0.00000000000E+00 0.  1.
         21    1    1    2  504  502  0.15506356529E+03  0.15847500787E+02 -0.16642309707E+04  0.16715144559E+04  0.00000000000E+00 0. -1.
         21    1    1    2  505  501 -0.42563972836E+02  0.39602710133E+02  0.75482238631E+02  0.95276622433E+02  0.00000000000E+00 0.  1.
         21    1    1    2  506  503 -0.32118359600E+02 -0.12067854997E+02 -0.20787984584E+03  0.21069231703E+03  0.00000000000E+00 0.  1.
<scales pt_clust_3="121.33412" pt_clust_4="14000.00000" pt_clust_5="58.22687" pt_clust_6="34.31067"></scales>
<clustering>
<clus scale="   34.311">  2  6  1 -1</clus>
<clus scale="   58.227">  1  5  2 -1</clus>
<clus scale="  121.334">  1  3  2 -1</clus>
<clus scale="   58.227">  1  3  2 -1</clus>
</clustering>
</event>
<event>
 6    0  0.4582113E+002  0.6796675E+02  0.7546771E-02  0.1367147E+00
         21   -1    0    0  505  501  0.00000000000E+00  0.00000000000E+00  0.38769022857E+03  0.38769022857E+03  0.00000000000E+00 0.  1.
         21   -1    0    0  506  502 -0.00000000000E+00 -0.00000000000E+00 -0.37826965509E+03  0.37826965509E+03  0.00000000000E+00 0.  1.
         21    1    1    2  503  501  0.34087442269E+02  0.57636849574E+02  0.34150163652E+03  0.34800478143E+03  0.00000000000E+00 0.  1.
         21    1    1    2  504  503 -0.10422845353E+03 -0.93110454776E+02 -0.18878443401E+03  0.23488867541E+03  0.00000000000E+00 0.  1.
         21    1    1    2  505  502  0.32947451923E+02  0.11776404514E+02 -0.19984669003E+01  0.35045857978E+02  0.00000000000E+00 0.  1.
         21    1    1    2  506  504  0.37193559338E+02  0.23697200687E+02 -0.14129816213E+03  0.14802056884E+03  0.00000000000E+00 0.  1.
<scales pt_clust_3="14000.00000" pt_clust_4="67.96675" pt_clust_5="34.98883" pt_clust_6="57.90362"></scales>
<clustering>
<clus scale="   34.989">  2  5  1 -1</clus>
<clus scale="   57.904">  2  6  1 -1</clus>
<clus scale="   67.967">  2  4  1 -1</clus>
<clus scale="   67.967">  1  3  2 -1</clus>
</clustering>
</event>
<event>
 6    0  0.4582113E+002  0.9100077E+02  0.7546771E-02  0.1300446E+00
         21   -1    0    0  505  501  0.00000000000E+00  0.00000000000E+00  0.26606434460E+03  0.26606434460E+03  0.00000000000E+00 0. -1.
         21   -1    0    0  504  502 -0.00000000000E+00 -0.00000000000E+00 -0.20486619123E+03  0.20486619123E+03  0.00000000000E+00 0.  1.
         21    1    1    2  503  501 -0.29603693049E+02  0.26355250353E+02  0.41202301798E+02  0.57171737220E+02  0.00000000000E+00 0. -1.
         21    1    1    2  504  503  0.61719307693E+02 -0.83842308171E+02 -0.92731153573E+02  0.13941977057E+03  0.00000000000E+00 0.  1.
         21    1    1    2  505  506  0.23632974258E+02  0.69996676918E+02  0.17492241619E+03  0.18988392227E+03  0.00000000000E+00 0. -1.
         21    1    1    2  506  502 -0.55748588902E+02 -0.12509619100E+02 -0.62195411052E+02  0.84455105769E+02  0.00000000000E+00 0.  1.
<scales pt_clust_3="39.63556" pt_clust_4="14000.00000" pt_clust_5="91.00077" pt_clust_6="58.34452"></scales>
<clustering>
<clus scale="   39.636">  1  3  2 -1</clus>
<clus scale="   58.345">  2  6  1 -1</clus>
<clus scale="   91.001">  1  5  2 -1</clus>
<clus scale="   39.636">  1  3  2 -1</clus>
</clustering>
</event>
<event>
 6    0  0.4582113E+002  0.1516952E+03  0.7546771E-02  0.1198405E+00
         21   -1    0    0  504  501  0.00000000000E+00  0.00000000000E+00  0.54747885630E+03  0.54747885630E+03  0.00000000000E+00 0. -1.
         21   -1    0    0  506  502 -0.00000000000E+00 -0.00000000000E+00 -0.60110691115E+03  0.60110691115E+03  0.00000000000E+00 0. -1.
         21    1    1    2  503  505  0.11447700851E+03 -0.14468298844E+01  0.17586138569E+03  0.20984352688E+03  0.00000000000E+00 0. -1.
         21    1    1    2  504  503 -0.88356098225E+02 -0.16289698137E+02  0.29857564137E+03  0.31180052595E+03  0.00000000000E+00 0. -1.
         21    1    1    2  505  502  0.11509748282E+03  0.94490216911E+02 -0.38106216531E+03  0.40912614861E+03  0.00000000000E+00 0. -1.
         21    1    1    2  506  501 -0.14121839311E+03 -0.76753688890E+02 -0.14700291661E+03  0.21781556602E+03  0.00000000000E+00 0. -1.
<scales pt_clust_3="46.44254" pt_clust_4="89.84517" pt_clust_5="151.69515" pt_clust_6="14000.00000"></scales>
<clustering>
<clus scale="   89.845">  1  4  2 -1</clus>
<clus scale="   46.443">  1  3  2 -1</clus>
<clus scale="  151.695">  2  5  1 -1</clus>
<clus scale="   89.845">  1  3  2 -1</clus>
</clustering>
</event>
<event>
 6    0  0.4582113E+002  0.2032211E+03  0.7546771E-02  0.1147050E+00
         21   -1    0    0  506  501  0.00000000000E+00  0.00000000000E+00  0.10328846779E+04  0.10328846779E+04  0.00000000000E+00 0. -1.
         21   -1    0    0  505  502 -0.00000000000E+00 -0.00000000000E+00 -0.12686820264E+03  0.12686820264E+03  0.00000000000E+00 0.  1.
         21    1    1    2  503  502 -0.14616126256E+02  0.26573655020E+02 -0.65402930874E+02  0.72092535361E+02  0.00000000000E+00 0.  1.
         21    1    1    2  504  503 -0.75621049068E+02  0.91864251979E+02  0.40676958563E+03  0.42381491202E+03  0.00000000000E+00 0. -1.
         21    1    1    2  505  501  0.10738185759E+03 -0.19267459019E+03  0.22246560799E+03  0.31328151523E+03  0.00000000000E+00 0.  1.
         21    1    1    2  506  504 -0.17144682267E+02  0.74236683190E+02  0.34218421247E+03  0.35056391788E+03  0.00000000000E+00 0. -1.
<scales pt_clust_3="30.32804" pt_clust_4="40.11823" pt_clust_5="196.88327" pt_clust_6="40.11823"></scales>
<clustering>
<clus scale="   30.328">  2  3  1 -1</clus>
<clus scale="   40.118">  4  6 -1 -1</clus>
<clus scale="  196.883">  2  5  1 -1</clus>
<clus scale="  203.221">  1  3  2 -1</clus>
</clustering>
</event>
<event>
 6    0  0.4582113E+002  0.7938699E+02  0.7546771E-02  0.1330800E+00
         21   -1    0    0  504  501  0.00000000000E+00  0.00000000000E+00  0.33521893357E+03  0.33521893357E+03  0.00000000000E+00 0. -1.
         21   -1    0    0  503  502 -0.00000000000E+00 -0.00000000000E+00 -0.10932700354E+03  0.10932700354E+03  0.00000000000E+00 0. -1.
         21    1    1    2  503  501  0.78522629226E+02 -0.90008408737E+02  0.20860570484E+02  0.12125378487E+03  0.00000000000E+00 0. -1.
         21    1    1    2  504  505 -0.42550824878E+02  0.88559315566E+01  0.14902428965E+03  0.15523285454E+03  0.00000000000E+00 0. -1.
         21    1    1    2  505  506 -0.20026453291E+02  0.48047288281E+02  0.98788563158E+02  0.11166369577E+03  0.00000000000E+00 0. -1.
         21    1    1    2  506  502 -0.15945351058E+02  0.33105188900E+02 -0.42781493254E+02  0.56395601934E+02  0.00000000000E+00 0. -1.
<scales pt_clust_3="14000.00000" pt_clust_4="44.65009" pt_clust_5="79.38699" pt_clust_6="36.74517"></scales>
<clustering>
<clus scale="   36.745">  2  6  1 -1</clus>
<clus scale="   44.650">  1  4  2 -1</clus>
<clus scale="   79.387">  1  5  2 -1</clus>
<clus scale="   44.650">  1  3  2 -1</clus>
</clustering>
</event>
<event>
 6    0  0.4582113E+002  0.1289026E+03  0.7546771E-02  0.1229093E+00
         21   -1    0    0  504  501  0.00000000000E+00  0.00000000000E+00  0.66972275991E+03  0.66972275991E+03  0.00000000000E+00 0.  1.
         21   -1    0    0  505  502 -0.00000000000E+00 -0.00000000000E+00 -0.80019676423E+03  0.80019676423E+03  0.00000000000E+00 0.  1.
         21    1    1    2  503  506  0.12832249192E+03  0.28435378003E+02  0.28784912308E+03  0.31643696105E+03  0.00000000000E+00 0.  1.
         21    1    1    2  504  502 -0.36354214328E+02  0.40646034048E+02 -0.10632425043E+03  0.11949299232E+03  0.00000000000E+00 0.  1.
         21    1    1    2  505  503 -0.76682249512E+02 -0.10345499976E+03 -0.66582777492E+03  0.67816644728E+03  0.00000000000E+00 0.  1.
         21    1    1    2  506  501 -0.15286028082E+02  0.34373587709E+02  0.35382889795E+03  0.35582312349E+03  0.00000000000E+00 0.  1.
<scales pt_clust_3="128.90264" pt_clust_4="55.28123" pt_clust_5="14000.00000" pt_clust_6="37.61923"></scales>
<clustering>
<clus scale="   37.619">  1  6  2 -1</clus>
<clus scale="   55.281">  2  4  1 -1</clus>
<clus scale="  128.903">  1  3  2 -1</clus>
<clus scale="   37.619">  1  3  2 -1</clus>
</clustering>
</event>
<event>
 6    0  0.4582113E+002  0.8859606E+02  0.7546771E-02  0.1306288E+00
         21   -1    0    0  505  501  0.00000000000E+00  0.00000000000E+00  0.16198442383E+03  0.16198442383E+03  0.00000000000E+00 0.  1.
         21   -1    0    0  506  502 -0.00000000000E+00 -0.00000000000E+00 -0.65969204155E+03  0.65969204155E+03  0.00000000000E+00 0.  1.
         21    1    1    2  503  501 -0.30794465438E+01  0.39100730796E+02 -0.25153004717E+01  0.39302377488E+02  0.00000000000E+00 0.  1.
         21    1    1    2  504  503 -0.79248795955E+02  0.19379231259E+02  0.78818889435E+02  0.11343872177E+03  0.00000000000E+00 0.  1.
         21    1    1    2  505  502  0.47332138162E+02  0.24388683315E+02  0.28055831374E+02  0.60185287661E+02  0.00000000000E+00 0.  1.
         21    1    1    2  506  504  0.34996104337E+02 -0.82868645370E+02 -0.60206703806E+03  0.60875007846E+03  0.00000000000E+00 0.  1.
<scales pt_clust_3="39.22181" pt_clust_4="88.59606" pt_clust_5="58.96467" pt_clust_6="14000.00000"></scales>
<clustering>
<clus scale="   39.222">  1  3  2 -1</clus>
<clus scale="   58.965">  1  5  2 -1</clus>
<clus scale="   88.596">  1  4  2 -1</clus>
<clus scale="   39.222">  1  3  2 -1</clus>
</clustering>
</event>
<event>
 6    0  0.4582113E+002  0.8705126E+02  0.7546771E-02  0.1310154E+00
         21   -1    0    0  505  501  0.00000000000E+00  0.00000000000E+00  0.35436597557E+03  0.35436597557E+03  0.00000000000E+00 0.  1.
         21   -1    0    0  506  502 -0.00000000000E+00 -0.00000000000E+00 -0.46612756002E+03  0.46612756002E+03  0.00000000000E+00 0.  1.
         21    1    1    2  503  502 -0.21860651772E+02  0.21147633325E+02 -0.57803420982E+02  0.65317271593E+02  0.00000000000E+00 0.  1.
         21    1    1    2  504  501 -0.34755089119E+02  0.52635255897E+02  0.45578257455E+02  0.77818789091E+02  0.00000000000E+00 0.  1.
         21    1    1    2  505  503 -0.41398746820E+02 -0.50770764992E+01  0.27809738434E+03  0.28120773126E+03  0.00000000000E+00 0.  1.
         21    1    1    2  506  504  0.98014487711E+02 -0.68705812723E+02 -0.37763380527E+03  0.39614974364E+03  0.00000000000E+00 0.  1.
<scales pt_clust_3="30.41563" pt_clust_4="87.05126" pt_clust_5="41.78252" pt_clust_6="14000.00000"></scales>
<clustering>
<clus scale="   30.416">  2  3  1 -1</clus>
<clus scale="   41.783">  1  5  2 -1</clus>
<clus scale="   87.051">  1  4  2 -1</clus>
<clus scale="   41.783">  1  3  2 -1</clus>
</clustering>
</event>
<event>
 6    0  0.4582113E+002  0.9892249E+02  0.7546771E-02  0.1282578E+00
         21   -1    0    0  503  501  0.00000000000E+00  0.00000000000E+00  0.72297730926E+03  0.72297730926E+03  0.00000000000E+00 0.  1.
         21   -1    0    0  506  502 -0.00000000000E+00 -0.00000000000E+00 -0.12511509191E+03  0.12511509191E+03  0.00000000000E+00 0. -1.
         21    1    1    2  503  502  0.65454493927E+02 -0.18351700816E+02 -0.56894265899E+02  0.88645548056E+02  0.00000000000E+00 0. -1.
         21    1    1    2  504  501 -0.32071829501E+01 -0.31982839449E+02  0.24360881506E+03  0.24572025317E+03  0.00000000000E+00 0.  1.
         21    1    1    2  505  504 -0.90237191894E+02 -0.21697214967E+02  0.42517374461E+03  0.43518528588E+03  0.00000000000E+00 0.  1.
         21    1    1    2  506  505  0.27989880917E+02  0.72031755232E+02 -0.14026076417E+02  0.78541314066E+02  0.00000000000E+00 0. -1.
<scales pt_clust_3="68.17067" pt_clust_4="32.14324" pt_clust_5="98.92249" pt_clust_6="14000.00000"></scales>
<clustering>
<clus scale="   32.143">  1  4  2 -1</clus>
<clus scale="   68.171">  2  3  1 -1</clus>
<clus scale="   98.922">  1  5  2 -1</clus>
<clus scale="   32.143">  1  3  2 -1</clus>
</clustering>
</event>
<event>
 6    0  0.4582113E+002  0.1099611E+03  0.7546771E-02  0.1260642E+00
         21   -1    0    0  502  501  0.00000000000E+00  0.00000000000E+00  0.73607216131E+02  0.73607216131E+02  0.00000000000E+00 0. -1.
         21   -1    0    0  504  502 -0.00000000000E+00 -0.00000000000E+00 -0.45882537410E+03  0.45882537410E+03  0.00000000000E+00 0. -1.
         21    1    1    2  503  501 -0.32969841852E+02  0.45048894974E+02 -0.47667114218E+01  0.56027983615E+02  0.00000000000E+00 0. -1.
         21    1    1    2  504  505  0.51278627949E+01  0.34866563642E+02 -0.21328005484E+03  0.21617204729E+03  0.00000000000E+00 0. -1.
         21    1    1    2  505  506  0.76324623894E+02 -0.92923815729E+02 -0.17193013596E+03  0.20981004598E+03  0.00000000000E+00 0. -1.
         21    1    1    2  506  503 -0.48482644837E+02  0.13008357112E+02  0.47587442563E+01  0.50422513345E+02  0.00000000000E+00 0. -1.
<scales pt_clust_3="34.53742" pt_clust_4="35.24163" pt_clust_5="103.75396" pt_clust_6="34.53742"></scales>
<clustering>
<clus scale="   34.537">  3  6 -1 -1</clus>
<clus scale="   35.242">  2  4  1 -1</clus>
<clus scale="  103.754">  2  5  1 -1</clus>
<clus scale="  109.961">  1  3  2 -1</clus>
</clustering>
</event>
<event>
 6    0  0.4582113E+002  0.7172288E+02  0.7546771E-02  0.1354330E+00
         21   -1    0    0  504  501  0.00000000000E+00  0.00000000000E+00  0.27704638970E+03  0.27704638970E+03  0.00000000000E+00 0.  1.
         21   -1    0    0  505  502 -0.00000000000E+00 -0.00000000000E+00 -0.70710417152E+03  0.70710417152E+03  0.00000000000E+00 0.  1.
         21    1    1    2  503  502  0.89270105557E+02  0.60793473529E+02 -0.17147780570E+03  0.20265644825E+03  0.00000000000E+00 0.  1.
         21    1    1    2  504  503  0.48955303556E+02  0.58536403327E+00  0.11394491201E+02  0.50267273917E+02  0.00000000000E+00 0.  1.
         21    1    1    2  505  506 -0.51045556270E+02 -0.42693750582E+02 -0.48964780306E+03  0.49414914367E+03  0.00000000000E+00 0. -1.
         21    1    1    2  506  501 -0.87179852843E+02 -0.18685086980E+02  0.21967333573E+03  0.23707769539E+03  0.00000000000E+00 0.  1.
<scales pt_clust_3="71.72288" pt_clust_4="48.95880" pt_clust_5="14000.00000" pt_clust_6="45.54132"></scales>
<clustering>
<clus scale="   48.959">  1  4  2 -1</clus>
<clus scale="   45.541">  1  6  2 -1</clus>
<clus scale="   71.723">  1  3  2 -1</clus>
<clus scale="   48.959">  1  3  2 -1</clus>
</clustering>
</event>
<event>
 6    0  0.4582113E+002  0.1469187E+03  0.7546771E-02  0.1204311E+00
         21   -1    0    0  505  501  0.00000000000E+00  0.00000000000E+00  0.14436429036E+04  0.14436429036E+04  0.00000000000E+00 0. -1.
         21   -1    0    0  501  502 -0.00000000000E+00 -0.00000000000E+00 -0.13119381388E+04  0.13119381388E+04  0.00000000000E+00 0.  1.
         21    1    1    2  503  502 -0.47267681109E+02  0.14206542426E+03 -0.12752782458E+04  0.12840371578E+04  0.00000000000E+00 0.  1.
         21    1    1    2  504  503  0.77999204448E+02 -0.67701566537E+02  0.60363692621E+02  0.11962923302E+03  0.00000000000E+00 0. -1.
         21    1    1    2  505  506 -0.25882456861E+02 -0.28478365994E+02  0.11192192184E+04  0.11198806087E+04  0.00000000000E+00 0. -1.
         21    1    1    2  506  504 -0.48490664789E+01 -0.45885491730E+02  0.22740009961E+03  0.23203404298E+03  0.00000000000E+00 0. -1.
<scales pt_clust_3="14000.00000" pt_clust_4="146.91866" pt_clust_5="38.48271" pt_clust_6="70.02398"></scales>
<clustering>
<clus scale="   38.483">  1  5  2 -1</clus>
<clus scale="   70.024">  1  6  2 -1</clus>
<clus scale="  146.919">  1  4  2 -1</clus>
<clus scale="   38.483">  1  3  2 -1</clus>
</clustering>
</event>
<event>
 6    0  0.4582113E+002  0.1696361E+03  0.7546771E-02  0.1178228E+00
         21   -1    0    0  505  501  0.00000000000E+00  0.00000000000E+00  0.76791139660E+03  0.76791139660E+03  0.00000000000E+00 0. -1.
         21   -1    0    0  506  502 -0.00000000000E+00 -0.00000000000E+00 -0.52396539968E+02  0.52396539968E+02  0.00000000000E+00 0. -1.
         21    1    1    2  503  502  0.33703438139E+02 -0.51096560030E+00  0.17159002272E+02  0.37823460804E+02  0.00000000000E+00 0. -1.
         21    1    1    2  504  501  0.55979886575E+02  0.29267580826E+01  0.16831232927E+03  0.17740167361E+03  0.00000000000E+00 0. -1.
         21    1    1    2  505  503 -0.16650845363E+03 -0.71657029371E+02  0.26979799690E+03  0.32503961931E+03  0.00000000000E+00 0. -1.
         21    1    1    2  506  504  0.76825128914E+02  0.69241236889E+02  0.26024552819E+03  0.28004318285E+03  0.00000000000E+00 0. -1.
<scales pt_clust_3="33.70731" pt_clust_4="38.73113" pt_clust_5="161.33145" pt_clust_6="38.73113"></scales>
<clustering>
<clus scale="   33.707">  2  3  1 -1</clus>
<clus scale="   38.731">  4  6 -1 -1</clus>
<clus scale="  161.331">  2  5  1 -1</clus>
<clus scale="  169.636">  1  3  2 -1</clus>
</clustering>
</event>
<event>
 6    0  0.4582113E+002  0.6856267E+02  0.7546771E-02  0.1365050E+00
         21   -1    0    0  503  501  0.00000000000E+00  0.00000000000E+00  0.63941497389E+03  0.63941497389E+03  0.00000000000E+00 0.  1.
         21   -1    0    0  504  502 -0.00000000000E+00 -0.00000000000E+00 -0.47492941091E+03  0.47492941091E+03  0.00000000000E+00 0.  1.
         21    1    1    2  503  505 -0.36962409232E+02 -0.29109830777E+02  0.13521622398E+03  0.14316783567E+03  0.00000000000E+00 0.  1.
         21    1    1    2  504  506 -0.41829349055E+02  0.53165427651E+02 -0.58005836250E+02  0.89111919397E+02  0.00000000000E+00 0.  1.
         21    1    1    2  505  502 -0.25771736463E+02 -0.39048281361E+02 -0.39022510389E+03  0.39301982442E+03  0.00000000000E+00 0.  1.
         21    1    1    2  506  501  0.10456349475E+03  0.14992684487E+02  0.47750027915E+03  0.48904480532E+03  0.00000000000E+00 0.  1.
<scales pt_clust_3="49.17324" pt_clust_4="68.56267" pt_clust_5="46.78622" pt_clust_6="14000.00000"></scales>
<clustering>
<clus scale="   46.786">  2  5  1 -1</clus>
<clus scale="   49.173">  1  3  2 -1</clus>
<clus scale="   68.563">  2  4  1 -1</clus>
<clus scale="   49.173">  1  3  2 -1</clus>
</clustering>
</event>
<event>
 6    0  0.4582113E+002  0.1306169E+03  0.7546771E-02  0.1226543E+00
         21   -1    0    0  506  501  0.00000000000E+00  0.00000000000E+00  0.24565773370E+03  0.24565773370E+03  0.00000000000E+00 0.  1.
         21   -1    0    0  504  502 -0.00000000000E+00 -0.00000000000E+00 -0.15308440964E+03  0.15308440964E+03  0.00000000000E+00 0.  1.
         21    1    1    2  503  502 -0.23946433867E+02 -0.38164362169E+02 -0.61991398492E+01  0.45479441175E+02  0.00000000000E+00 0.  1.
         21    1    1    2  504  501  0.62102522253E+02  0.14645764588E+03 -0.43646529702E+02  0.16495934306E+03  0.00000000000E+00 0.  1.
         21    1    1    2  505  503  0.10483557961E+01 -0.57109303235E+02  0.82086895417E+02  0.10000414974E+03  0.00000000000E+00 0.  1.
         21    1    1    2  506  505 -0.39204444183E+02 -0.51183980480E+02  0.60332098190E+02  0.88299209360E+02  0.00000000000E+00 0.  1.
<scales pt_clust_3="45.05497" pt_clust_4="122.75636" pt_clust_5="42.00572" pt_clust_6="42.00572"></scales>
<clustering>
<clus scale="   42.006">  5  6 -1 -1</clus>
<clus scale="   45.055">  2  3  1 -1</clus>
<clus scale="  122.756">  2  4  1 -1</clus>
<clus scale="  130.617">  1  3  2 -1</clus>
</clustering>
</event>
<event>
 6    0  0.4582113E+002  0.1319957E+03  0.7546771E-02  0.1224524E+00
         21   -1    0    0  504  501  0.00000000000E+00  0.00000000000E+00  0.92564379177E+03  0.92564379177E+03  0.00000000000E+00 0. -1.
         21   -1    0    0  505  502 -0.00000000000E+00 -0.00000000000E+00 -0.24886407196E+02  0.24886407196E+02  0.00000000000E+00 0.  1.
         21    1    1    2  503  501 -0.12098659331E+03  0.24168513942E+01  0.51126977338E+03  0.52539544926E+03  0.00000000000E+00 0. -1.
         21    1    1    2  504  502 -0.16353735951E+01 -0.30949149438E+02  0.12057672696E+03  0.12449606975E+03  0.00000000000E+00 0.  1.
         21    1    1    2  505  506  0.41676522033E+02 -0.77968655806E+01  0.58170385934E+02  0.71982757667E+02  0.00000000000E+00 0. -1.
         21    1    1    2  506  503  0.80945444875E+02  0.36329163624E+02  0.21074049830E+03  0.22865592229E+03  0.00000000000E+00 0.  1.
<scales pt_clust_3="123.29863" pt_clust_4="30.99233" pt_clust_5="33.40147" pt_clust_6="33.40147"></scales>
<clustering>
<clus scale="   30.992">  1  4  2 -1</clus>
<clus scale="   33.401">  5  6 -1 -1</clus>
<clus scale="  123.299">  1  3  2 -1</clus>
<clus scale="   30.992">  1  3  2 -1</clus>
</clustering>
</event>
<event>
 6    0  0.4582113E+002  0.1425319E+03  0.7546771E-02  0.1209962E+00
         21   -1    0    0  504  501  0.00000000000E+00  0.00000000000E+00  0.70614370973E+02  0.70614370973E+02  0.00000000000E+00 0. -1.
         21   -1    0    0  506  502 -0.00000000000E+00 -0.00000000000E+00 -0.13786464743E+04  0.13786464743E+04  0.00000000000E+00 0. -1.
         21    1    1    2  503  501 -0.14028701206E+03 -0.17404551362E+02 -0.26704453481E+02  0.14386275403E+03  0.00000000000E+00 0. -1.
         21    1    1    2  504  502  0.66882775399E+01 -0.40705171920E+02 -0.75199682083E+02  0.85770835736E+02  0.00000000000E+00 0. -1.
         21    1    1    2  505  503  0.10613033297E+03  0.88398327561E+02 -0.84838658809E+03  0.85955669664E+03  0.00000000000E+00 0. -1.
         21    1    1    2  506  505  0.27468401544E+02 -0.30288604278E+02 -0.35774137967E+03  0.36007055887E+03  0.00000000000E+00 0. -1.
<scales pt_clust_3="14000.00000" pt_clust_4="43.99635" pt_clust_5="142.53194" pt_clust_6="40.88903"></scales>
<clustering>
<clus scale="   40.889">  2  6  1 -1</clus>
<clus scale="   43.996">  1  4  2 -1</clus>
<clus scale="  142.532">  2  5  1 -1</clus>
<clus scale="   43.996">  1  3  2 -1</clus>
</clustering>
</event>
<event>
 6    0  0.4582113E+002  0.9653088E+02  0.7546771E-02  0.1287765E+00
         21   -1    0    0  504  501  0.00000000000E+00  0.00000000000E+00  0.10634965874E+03  0.10634965874E+03  0.00000000000E+00 0. -1.
         21   -1    0    0  505  502 -0.00000000000E+00 -0.00000000000E+00 -0.42172902894E+03  0.42172902894E+03  0.00000000000E+00 0. -1.
         21    1    1    2  503  502 -0.18277706421E+02  0.34716879601E+02 -0.60263738656E+02  0.71910044347E+02  0.00000000000E+00 0.  1.
         21    1    1    2  504  503 -0.52930981815E+02 -0.11023147850E+03  0.30644497526E+02  0.12606249608E+03  0.00000000000E+00 0. -1.
         21    1    1    2  505  506  0.71255130848E+02  0.45155489735E+02 -0.28757513827E+03  0.29969279617E+03  0.00000000000E+00 0. -1.
         21    1    1    2  506  501 -0.46442612861E-01  0.30359109164E+02  0.18150091919E+01  0.30413351090E+02  0.00000000000E+00 0. -1.
<scales pt_clust_3="40.97946" pt_clust_4="96.53088" pt_clust_5="14000.00000" pt_clust_6="30.35914"></scales>
<clustering>
<clus scale="   30.359">  1  6  2 -1</clus>
<clus scale="   40.979">  2  3  1 -1</clus>
<clus scale="   96.531">  1  4  2 -1</clus>
<clus scale="   30.359">  1  3  2 -1</clus>
</clustering>
</event>
<event>
 6    0  0.4582113E+002  0.7200108E+02  0.7546771E-02  0.1353418E+00
         21   -1    0    0  506  501  0.00000000000E+00  0.00000000000E+00  0.39334312770E+03  0.39334312770E+03  0.00000000000E+00 0.  1.
         21   -1    0    0  503  502 -0.00000000000E+00 -0.00000000000E+00 -0.74635156349E+02  0.74635156349E+02  0.00000000000E+00 0.  1.
         21    1    1    2  503  501 -0.48225970029E+02  0.88606604580E+02  0.30717284968E+02  0.10545343122E+03  0.00000000000E+00 0.  1.
         21    1    1    2  504  502  0.26208339237E+02  0.15166654421E+02 -0.81105459216E+01  0.31347813433E+02  0.00000000000E+00 0.  1.
         21    1    1    2  505  504  0.37736531187E+02 -0.34468966773E+02  0.38594824998E+02  0.64044640471E+02  0.00000000000E+00 0.  1.
         21    1    1    2  506  505 -0.15718900395E+02 -0.69304292228E+02  0.25750640731E+03  0.26713239892E+03  0.00000000000E+00 0.  1.
<scales pt_clust_3="14000.00000" pt_clust_4="30.28043" pt_clust_5="53.64243" pt_clust_6="72.00108"></scales>
<clustering>
<clus scale="   30.280">  2  4  1 -1</clus>
<clus scale="   53.642">  2  5  1 -1</clus>
<clus scale="   72.001">  1  6  2 -1</clus>
<clus scale="   72.001">  1  3  2 -1</clus>
</clustering>
</event>
<event>
 6    0  0.4582113E+002  0.1206060E+03  0.7546771E-02  0.1242101E+00
         21   -1    0    0  505  501  0.00000000000E+00  0.00000000000E+00  0.11680740748E+03  0.11680740748E+03  0.00000000000E+00 0. -1.
         21   -1    0    0  503  502 -0.00000000000E+00 -0.00000000000E+00 -0.21743683108E+04  0.21743683108E+04  0.00000000000E+00 0.  1.
         21    1    1    2  503  501  0.46325191289E+02  0.54742526422E+02  0.43225793294E+02  0.83733128168E+02  0.00000000000E+00 0. -1.
         21    1    1    2  504  506 -0.12625756826E+03 -0.46685898424E+02 -0.74115585313E+03  0.75328118607E+03  0.00000000000E+00 0.  1.
         21    1    1    2  505  504 -0.33812167888E+02  0.53187893263E+02  0.21810658559E+02  0.66692724594E+02  0.00000000000E+00 0.  1.
         21    1    1    2  506  502  0.11374454486E+03 -0.61244521261E+02 -0.13814415021E+04  0.13874686795E+04  0.00000000000E+00 0.  1.
<scales pt_clust_3="102.65155" pt_clust_4="14000.00000" pt_clust_5="63.02551" pt_clust_6="120.60604"></scales>
<clustering>
<clus scale="   63.026">  1  5  2 -1</clus>
<clus scale="  102.652">  1  3  2 -1</clus>
<clus scale="  120.606">  2  6  1 -1</clus>
<clus scale="   63.026">  1  3  2 -1</clus>
</clustering>
</event>
<event>
 6    0  0.4582113E+002  0.1286869E+03  0.7546771E-02  0.1229417E+00
         21   -1    0    0  503  501  0.00000000000E+00  0.00000000000E+00  0.11417452438E+04  0.11417452438E+04  0.00000000000E+00 0.  1.
         21   -1    0    0  506  502 -0.00000000000E+00 -0.00000000000E+00 -0.25784432557E+03  0.25784432557E+03  0.00000000000E+00 0.  1.
         21    1    1    2  503  504  0.71822060688E+02  0.30066731645E+02  0.10504017703E+03  0.13075112062E+03  0.00000000000E+00 0. -1.
         21    1    1    2  504  505  0.41702014201E+02  0.61028297912E+02  0.74143033745E+02  0.10469336458E+03  0.00000000000E+00 0.  1.
         21    1    1    2  505  502 -0.44046047405E+02  0.34059846054E+01 -0.22386573714E+03  0.22818309159E+03  0.00000000000E+00 0.  1.
         21    1    1    2  506  501 -0.69478027485E+02 -0.94501014162E+02  0.92858344457E+03  0.93596199256E+03  0.00000000000E+00 0.  1.
<scales pt_clust_3="45.05335" pt_clust_4="45.05335" pt_clust_5="44.17754" pt_clust_6="120.07855"></scales>
<clustering>
<clus scale="   44.178">  2  5  1 -1</clus>
<clus scale="   45.053">  3  4 -1 -1</clus>
<clus scale="  120.079">  1  6  2 -1</clus>
<clus scale="  120.079">  1  3  2 -1</clus>
</clustering>
</event>
<event>
 6    0  0.4582113E+002  0.1094691E+03  0.7546771E-02  0.1261556E+00
         21   -1    0    0  506  501  0.00000000000E+00  0.00000000000E+00  0.30079702378E+03  0.30079702378E+03  0.00000000000E+00 0. -1.
         21   -1    0    0  505  502 -0.00000000000E+00 -0.00000000000E+00 -0.14482151464E+03  0.14482151464E+03  0.00000000000E+00 0.  1.
         21    1    1    2  503  501 -0.26698470220E+02  0.16678978259E+02  0.47005799124E+02  0.56573330989E+02  0.00000000000E+00 0. -1.
         21    1    1    2  504  502 -0.45602807405E+02  0.53862935737E+02 -0.86695233401E+02  0.11178951375E+03  0.00000000000E+00 0.  1.
         21    1    1    2  505  503 -0.26839309388E+02  0.31844534426E+02  0.93529214001E+01  0.42683721018E+02  0.00000000000E+00 0. -1.
         21    1    1    2  506  504  0.99140587013E+02 -0.10238644842E+03  0.18631202202E+03  0.23457197267E+03  0.00000000000E+00 0. -1.
<scales pt_clust_3="31.48010" pt_clust_4="109.46908" pt_clust_5="44.78820" pt_clust_6="14000.00000"></scales>
<clustering>
<clus scale="   31.480">  1  3  2 -1</clus>
<clus scale="   44.788">  2  5  1 -1</clus>
<clus scale="  109.469">  2  4  1 -1</clus>
<clus scale="   31.480">  1  3  2 -1</clus>
</clustering>
</event>
<event>
 6    0  0.4582113E+002  0.1202217E+03  0.7546771E-02  0.1242732E+00
         21   -1    0    0  503  501  0.00000000000E+00  0.00000000000E+00  0.38147101437E+03  0.38147101437E+03  0.00000000000E+00 0.  1.
         21   -1    0    0  505  502 -0.00000000000E+00 -0.00000000000E+00 -0.66003643844E+03  0.66003643844E+03  0.00000000000E+00 0.  1.
         21    1    1    2  503  502 -0.52599468650E+02  0.75925563098E+02 -0.19445622263E+03  0.21527800109E+03  0.00000000000E+00 0.  1.
         21    1    1    2  504  506  0.19880375468E+02 -0.65396874968E+02  0.17048483560E+03  0.18367650844E+03  0.00000000000E+00 0.  1.
         21    1    1    2  505  504  0.46826640262E+02  0.39028029615E+02 -0.44302760366E+03  0.44720172064E+03  0.00000000000E+00 0.  1.
         21    1    1    2  506  501 -0.14107547080E+02 -0.49556717744E+02  0.18843356662E+03  0.19535122264E+03  0.00000000000E+00 0.  1.
<scales pt_clust_3="113.40769" pt_clust_4="34.64183" pt_clust_5="60.95836" pt_clust_6="34.64183"></scales>
<clustering>
<clus scale="   34.642">  4  6 -1 -1</clus>
<clus scale="   60.958">  2  5  1 -1</clus>
<clus scale="  113.408">  2  3  1 -1</clus>
<clus scale="  120.222">  1  3  2 -1</clus>
</clustering>
</event>
<event>
 6    0  0.4582113E+002  0.1033756E+03  0.7546771E-02  0.1273354E+00
         21   -1    0    0  502  501  0.00000000000E+00  0.00000000000E+00  0.57223793459E+03  0.57223793459E+03  0.00000000000E+00 0.  1.
         21   -1    0    0  504  502 -0.00000000000E+00 -0.00000000000E+00 -0.15585126908E+03  0.15585126908E+03  0.00000000000E+00 0. -1.
         21    1    1    2  503  506  0.45782164879E+02 -0.50187638798E+02  0.18972271205E+03  0.20151802196E+03  0.00000000000E+00 0.  1.
         21    1    1    2  504  505  0.35658258415E+02  0.83163810370E+01 -0.63129259394E+02  0.72979291435E+02  0.00000000000E+00 0. -1.
         21    1    1    2  505  503 -0.93511163180E+02  0.85519518461E+02 -0.30315500585E+02  0.13029564556E+03  0.00000000000E+00 0. -1.
         21    1    1    2  506  501  0.12070739886E+02 -0.43648260700E+02  0.32010871343E+03  0.32329624470E+03  0.00000000000E+00 0.  1.
<scales pt_clust_3="103.37557" pt_clust_4="36.61521" pt_clust_5="14000.00000" pt_clust_6="45.31846"></scales>
<clustering>
<clus scale="   36.615">  2  4  1 -1</clus>
<clus scale="   45.318">  1  6  2 -1</clus>
<clus scale="  103.376">  1  3  2 -1</clus>
<clus scale="   45.318">  1  3  2 -1</clus>
</clustering>
</event>
<event>
 6    0  0.4582113E+002  0.1436893E+03  0.7546771E-02  0.1208449E+00
         21   -1    0    0  506  501  0.00000000000E+00  0.00000000000E+00  0.94511763219E+02  0.94511763219E+02  0.00000000000E+00 0.  1.
         21   -1    0    0  504  502 -0.00000000000E+00 -0.00000000000E+00 -0.79754523690E+03  0.79754523690E+03  0.00000000000E+00 0.  1.
         21    1    1    2  503  505  0.34200434039E+01  0.42688332993E+02 -0.26883448757E+02  0.50563922787E+02  0.00000000000E+00 0.  1.
         21    1    1    2  504  501 -0.75498581793E+02 -0.18009338810E+03 -0.56879694406E+03  0.60138475859E+03  0.00000000000E+00 0.  1.
         21    1    1    2  505  502  0.58160866793E+02  0.54888911550E+02 -0.13070501813E+03  0.15322950369E+03  0.00000000000E+00 0.  1.
         21    1    1    2  506  503  0.13917671596E+02  0.82516143562E+02  0.23351937263E+02  0.86878815053E+02  0.00000000000E+00 0.  1.
<scales pt_clust_3="38.53264" pt_clust_4="133.21166" pt_clust_5="79.97174" pt_clust_6="38.53264"></scales>
<clustering>
<clus scale="   38.533">  3  6 -1 -1</clus>
<clus scale="   79.972">  2  5  1 -1</clus>
<clus scale="  133.212">  2  4  1 -1</clus>
<clus scale="  143.689">  1  3  2 -1</clus>
</clustering>
</event>
<event>
 6    0  0.4582113E+002  0.8601359E+02  0.7546771E-02  0.1312803E+00
         21   -1    0    0  505  501  0.00000000000E+00  0.00000000000E+00  0.74384675868E+02  0.74384675868E+02  0.00000000000E+00 0.  1.
         21   -1    0    0  506  502 -0.00000000000E+00 -0.00000000000E+00 -0.51100551067E+03  0.51100551067E+03  0.00000000000E+00 0.  1.
         21    1    1    2  503  501 -0.73037369191E+02  0.10638099008E+03 -0.10423084728E+03  0.16587779198E+03  0.00000000000E+00 0.  1.
         21    1    1    2  504  502  0.35497358553E+02 -0.23562465168E+02 -0.75706686902E+02  0.86872059206E+02  0.00000000000E+00 0.  1.
         21    1    1    2  505  504  0.60702127303E+02 -0.44061755194E+02 -0.31032603363E+01  0.75072077063E+02  0.00000000000E+00 0.  1.
         21    1    1    2  506  503 -0.23162116665E+02 -0.38756769715E+02 -0.25358004028E+03  0.25756825829E+03  0.00000000000E+00 0.  1.
<scales pt_clust_3="14000.00000" pt_clust_4="42.60578" pt_clust_5="86.01359" pt_clust_6="52.81038"></scales>
<clustering>
<clus scale="   42.606">  2  4  1 -1</clus>
<clus scale="   52.810">  2  6  1 -1</clus>
<clus scale="   86.014">  1  5  2 -1</clus>
<clus scale="   86.014">  1  3  2 -1</clus>
</clustering>
</event>
<event>
 6    0  0.4582113E+002  0.9719103E+02  0.7546771E-02  0.1286316E+00
         21   -1    0    0  503  501  0.00000000000E+00  0.00000000000E+00  0.19058946410E+03  0.19058946410E+03  0.00000000000E+00 0.  1.
         21   -1    0    0  506  502 -0.00000000000E+00 -0.00000000000E+00 -0.18594466744E+03  0.18594466744E+03  0.00000000000E+00 0.  1.
         21    1    1    2  503  505 -0.50543805254E+02  0.44273686108E+02  0.60236589886E+02  0.90240136814E+02  0.00000000000E+00 0.  1.
         21    1    1    2  504  502  0.94937003363E+01 -0.90094609932E+02 -0.37815699942E+02  0.98169222504E+02  0.00000000000E+00 0.  1.
         21    1    1    2  505  504  0.49809663955E+02  0.82117913564E+02  0.51829953198E+02  0.10913614617E+03  0.00000000000E+00 0.  1.
         21    1    1    2  506  501 -0.87595590374E+01 -0.36296989740E+02 -0.69606046487E+02  0.78988626056E+02  0.00000000000E+00 0.  1.
<scales pt_clust_3="65.01638" pt_clust_4="97.19103" pt_clust_5="14000.00000" pt_clust_6="37.33901"></scales>
<clustering>
<clus scale="   37.339">  2  6  1 -1</clus>
<clus scale="   65.016">  1  3  2 -1</clus>
<clus scale="   97.191">  2  4  1 -1</clus>
<clus scale="   65.016">  1  3  2 -1</clus>
</clustering>
</event>
<event>
 6    0  0.4582113E+002  0.9092051E+02  0.7546771E-02  0.1300638E+00
         21   -1    0    0  505  501  0.00000000000E+00  0.00000000000E+00  0.83710697264E+02  0.83710697264E+02  0.00000000000E+00 0. -1.
         21   -1    0    0  506  502 -0.00000000000E+00 -0.00000000000E+00 -0.66709904459E+03  0.66709904459E+03  0.00000000000E+00 0. -1.
         21    1    1    2  503  502 -0.12719630818E+03 -0.53694575201E+02 -0.50747195398E+02  0.14709617963E+03  0.00000000000E+00 0. -1.
         21    1    1    2  504  501  0.19753306030E+02  0.24864833771E+02  0.45940074627E+01  0.32086725638E+02  0.00000000000E+00 0.  1.
         21    1    1    2  505  503  0.54827041953E+02 -0.42058264255E+02 -0.78962453600E+02  0.10492840988E+03  0.00000000000E+00 0. -1.
         21    1    1    2  506  504  0.52615960198E+02  0.70888005685E+02 -0.45827270579E+03  0.46669842670E+03  0.00000000000E+00 0. -1.
<scales pt_clust_3="90.92051" pt_clust_4="31.75615" pt_clust_5="69.49442" pt_clust_6="14000.00000"></scales>
<clustering>
<clus scale="   31.756">  1  4  2 -1</clus>
<clus scale="   69.494">  1  5  2 -1</clus>
<clus scale="   90.921">  1  3  2 -1</clus>
<clus scale="   31.756">  1  3  2 -1</clus>
</clustering>
</event>
<event>
 6    0  0.4582113E+002  0.1071809E+03  0.7546771E-02  0.1265881E+00
         21   -1    0    0  503  501  0.00000000000E+00  0.00000000000E+00  0.22480199179E+03  0.22480199179E+03  0.00000000000E+00 0. -1.
         21   -1    0    0  504  502 -0.00000000000E+00 -0.00000000000E+00 -0.13075769136E+03  0.13075769136E+03  0.00000000000E+00 0. -1.
         21    1    1    2  503  505  0.85756580018E+02  0.26879999535E+02  0.15403239706E+02  0.91181057160E+02  0.00000000000E+00 0. -1.
         21    1    1    2  504  506 -0.11871702716E+03 -0.63588183410E+02  0.28252684234E+02  0.13760597289E+03  0.00000000000E+00 0. -1.
         21    1    1    2  505  502 -0.14215960320E+02  0.28445521169E+02 -0.22924530390E+02  0.39201725676E+02  0.00000000000E+00 0. -1.
         21    1    1    2  506  501  0.47176407464E+02  0.82626627072E+01  0.73312906876E+02  0.87570927429E+02  0.00000000000E+00 0. -1.
<scales pt_clust_3="14000.00000" pt_clust_4="107.18088" pt_clust_5="31.80002" pt_clust_6="47.29434"></scales>
<clustering>
<clus scale="   31.800">  2  5  1 -1</clus>
<clus scale="   47.294">  1  6  2 -1</clus>
<clus scale="  107.181">  1  4  2 -1</clus>
<clus scale="   47.294">  1  3  2 -1</clus>
</clustering>
</event>
<event>
 6    0  0.4582113E+002  0.1077589E+03  0.7546771E-02  0.1264777E+00
         21   -1    0    0  504  501  0.00000000000E+00  0.00000000000E+00  0.12494304094E+03  0.12494304094E+03  0.00000000000E+00 0.  1.
         21   -1    0    0  506  502 -0.00000000000E+00 -0.00000000000E+00 -0.53980282942E+03  0.53980282942E+03  0.00000000000E+00 0.  1.
         21    1    1    2  503  501  0.48210236232E+02  0.65816746331E+02  0.16018236689E+02  0.83142377171E+02  0.00000000000E+00 0.  1.
         21    1    1    2  504  505  0.15298752402E+02  0.37804716652E+02  0.56946161544E+02  0.70043655964E+02  0.00000000000E+00 0.  1.
         21    1    1    2  505  502  0.12075103690E+02 -0.54917668622E+02 -0.11452544451E+03  0.12758462249E+03  0.00000000000E+00 0.  1.
         21    1    1    2  506  503 -0.75584092324E+02 -0.48703794361E+02 -0.37329874221E+03  0.38397521474E+03  0.00000000000E+00 0.  1.
<scales pt_clust_3="107.75893" pt_clust_4="40.78294" pt_clust_5="52.71214" pt_clust_6="14000.00000"></scales>
<clustering>
<clus scale="   40.783">  1  4  2 -1</clus>
<clus scale="   52.712">  2  5  1 -1</clus>
<clus scale="  107.759">  1  3  2 -1</clus>
<clus scale="   40.783">  1  3  2 -1</clus>
</clustering>
</event>
<event>
 6    0  0.4582113E+002  0.9209602E+02  0.7546771E-02  0.1297854E+00
         21   -1    0    0  504  501  0.00000000000E+00  0.00000000000E+00  0.26365599755E+04  0.26365599755E+04  0.00000000000E+00 0.  1.
         21   -1    0    0  506  502 -0.00000000000E+00 -0.00000000000E+00 -0.14278411338E+03  0.14278411338E+03  0.00000000000E+00 0.  1.
         21    1    1    2  503  501  0.62328722141E+02  0.46278160669E+01  0.24602983329E+04  0.24610920692E+04  0.00000000000E+00 0.  1.
         21    1    1    2  504  505 -0.90923386264E+00 -0.31003131666E+02  0.88451393512E+02  0.93731904352E+02  0.00000000000E+00 0. -1.
         21    1    1    2  505  502 -0.13209280279E+02 -0.67296475098E+02  0.42758447556E+02  0.80818224946E+02  0.00000000000E+00 0.  1.
         21    1    1    2  506  503 -0.48210208000E+02  0.93671790696E+02 -0.97732311817E+02  0.14370189039E+03  0.00000000000E+00 0.  1.
<scales pt_clust_3="66.47053" pt_clust_4="31.01646" pt_clust_5="92.09602" pt_clust_6="14000.00000"></scales>
<clustering>
<clus scale="   31.016">  1  4  2 -1</clus>
<clus scale="   66.471">  1  3  2 -1</clus>
<clus scale="   92.096">  1  5  2 -1</clus>
<clus scale="   31.016">  1  3  2 -1</clus>
</clustering>
</event>
<event>
 6    0  0.4582113E+002  0.1288809E+03  0.7546771E-02  0.1229126E+00
         21   -1    0    0  506  501  0.00000000000E+00  0.00000000000E+00  0.13145229896E+04  0.13145229896E+04  0.00000000000E+00 0.  1.
         21   -1    0    0  505  502 -0.00000000000E+00 -0.00000000000E+00 -0.61548593838E+03  0.61548593838E+03  0.00000000000E+00 0.  1.
         21    1    1    2  503  502  0.11860205960E+03  0.36172259274E+02 -0.59010951862E+03  0.60299595757E+03  0.00000000000E+00 0.  1.
         21    1    1    2  504  503 -0.37421224851E+02  0.35140304481E+02  0.58340676786E+03  0.58566086249E+03  0.00000000000E+00 0.  1.
         21    1    1    2  505  501 -0.44571097338E+02 -0.71348656606E+02  0.85202710565E+02  0.11973602384E+03  0.00000000000E+00 0.  1.
         21    1    1    2  506  504 -0.36609737406E+02  0.36092851014E-01  0.62053709139E+03  0.62161608406E+03  0.00000000000E+00 0.  1.
<scales pt_clust_3="123.65856" pt_clust_4="30.66851" pt_clust_5="84.12618" pt_clust_6="30.66851"></scales>
<clustering>
<clus scale="   30.669">  4  6 -1 -1</clus>
<clus scale="   84.126">  1  5  2 -1</clus>
<clus scale="  123.659">  2  3  1 -1</clus>
<clus scale="   84.126">  1  3  2 -1</clus>
</clustering>
</event>
<event>
 6    0  0.4582113E+002  0.1115814E+03  0.7546771E-02  0.1257669E+00
         21   -1    0    0  505  501  0.00000000000E+00  0.00000000000E+00  0.88215493165E+03  0.88215493165E+03  0.00000000000E+00 0. -1.
         21   -1    0    0  506  502 -0.00000000000E+00 -0.00000000000E+00 -0.75308832484E+02  0.75308832484E+02  0.00000000000E+00 0. -1.
         21    1    1    2  503  501 -0.15416749597E+03  0.47231894592E+02  0.50418029102E+03  0.52933565394E+03  0.00000000000E+00 0. -1.
         21    1    1    2  504  502  0.48580824116E+02 -0.34827897096E+02  0.30490313523E+02  0.67102444863E+02  0.00000000000E+00 0. -1.
         21    1    1    2  505  504  0.38692543422E+02 -0.34721102166E+02  0.28469642515E+03  0.28940408142E+03  0.00000000000E+00 0. -1.
         21    1    1    2  506  503  0.66894128434E+02  0.22317104669E+02 -0.12520930526E+02  0.71621583904E+02  0.00000000000E+00 0. -1.
<scales pt_clust_3="111.58142" pt_clust_4="64.01421" pt_clust_5="51.98719" pt_clust_6="14000.00000"></scales>
<clustering>
<clus scale="   51.987">  1  5  2 -1</clus>
<clus scale="   64.014">  2  4  1 -1</clus>
<clus scale="  111.581">  1  3  2 -1</clus>
<clus scale="   51.987">  1  3  2 -1</clus>
</clustering>
</event>
<event>
 6    0  0.4582113E+002  0.1117630E+03  0.7546771E-02  0.1257339E+00
         21   -1    0    0  506  501  0.00000000000E+00  0.00000000000E+00  0.15122417197E+03  0.15122417197E+03  0.00000000000E+00 0.  1.
         21   -1    0    0  503  502 -0.00000000000E+00 -0.00000000000E+00 -0.26346771580E+03  0.26346771580E+03  0.00000000000E+00 0.  1.
         21    1    1    2  503  505 -0.17160554090E+02  0.56779332297E+02 -0.67495541090E+02  0.89855580015E+02  0.00000000000E+00 0.  1.
         21    1    1    2  504  502 -0.44054455726E+02 -0.10835866798E+03 -0.54729203473E+02  0.12914209890E+03  0.00000000000E+00 0.  1.
         21    1    1    2  505  501  0.98850516559E+02  0.87551310105E+02 -0.23040805793E+02  0.13404303509E+03  0.00000000000E+00 0.  1.
         21    1    1    2  506  504 -0.37635506743E+02 -0.35971974417E+02  0.33022006529E+02  0.61651173764E+02  0.00000000000E+00 0.  1.
<scales pt_clust_3="57.00148" pt_clust_4="14000.00000" pt_clust_5="111.76303" pt_clust_6="52.06164"></scales>
<clustering>
<clus scale="   52.062">  1  6  2 -1</clus>
<clus scale="   57.001">  2  3  1 -1</clus>
<clus scale="  111.763">  1  5  2 -1</clus>
<clus scale="   52.062">  1  3  2 -1</clus>
</clustering>
</event>
<event>
 6    0  0.4582113E+002  0.7513867E+02  0.7546771E-02  0.1343442E+00
         21   -1    0    0  505  501  0.00000000000E+00  0.00000000000E+00  0.32553487838E+03  0.32553487838E+03  0.00000000000E+00 0. -1.
         21   -1    0    0  506  502 -0.00000000000E+00 -0.00000000000E+00 -0.13733120342E+03  0.13733120342E+03  0.00000000000E+00 0. -1.
         21    1    1    2  503  501 -0.12601266352E+03  0.54081481649E+02 -0.55261994379E+02  0.14784412754E+03  0.00000000000E+00 0. -1.
         21    1    1    2  504  502  0.25242660918E+02 -0.43552781846E+02  0.10880183252E+03  0.11988275730E+03  0.00000000000E+00 0. -1.
         21    1    1    2  505  504  0.43505563650E+02 -0.51498972776E+00  0.12968976711E+03  0.13679340253E+03  0.00000000000E+00 0. -1.
         21    1    1    2  506  503  0.57264438953E+02 -0.10013710076E+02  0.49740697101E+01  0.58345794430E+02  0.00000000000E+00 0. -1.
<scales pt_clust_3="14000.00000" pt_clust_4="75.13867" pt_clust_5="43.50861" pt_clust_6="65.21400"></scales>
<clustering>
<clus scale="   43.509">  1  5  2 -1</clus>
<clus scale="   65.214">  2  6  1 -1</clus>
<clus scale="   75.139">  1  4  2 -1</clus>
<clus scale="   43.509">  1  3  2 -1</clus>
</clustering>
</event>
<event>
 6    0  0.4582113E+002  0.1006005E+03  0.7546771E-02  0.1279038E+00
         21   -1    0    0  503  501  0.00000000000E+00  0.00000000000E+00  0.26628379189E+04  0.26628379189E+04  0.00000000000E+00 0. -1.
         21   -1    0    0  505  502 -0.00000000000E+00 -0.00000000000E+00 -0.66790202694E+02  0.66790202694E+02  0.00000000000E+00 0.  1.
         21    1    1    2  503  502 -0.33033606300E+02 -0.15841741620E+01  0.37740930452E+03  0.37885552905E+03  0.00000000000E+00 0.  1.
         21    1    1    2  504  506  0.74325808672E+02 -0.47507135809E+02 -0.53172685694E+00  0.88213017866E+02  0.00000000000E+00 0.  1.
         21    1    1    2  505  504  0.28124207707E+02  0.62765243542E+02  0.34867714677E+02  0.77111635845E+02  0.00000000000E+00 0.  1.
         21    1    1    2  506  501 -0.69416410079E+02 -0.13673933570E+02  0.21843024239E+04  0.21854479388E+04  0.00000000000E+00 0. -1.
<scales pt_clust_3="33.07157" pt_clust_4="100.60050" pt_clust_5="68.41561" pt_clust_6="14000.00000"></scales>
<clustering>
<clus scale="   33.072">  1  3  2 -1</clus>
<clus scale="   68.416">  2  5  1 -1</clus>
<clus scale="  100.600">  2  4  1 -1</clus>
<clus scale="   33.072">  1  3  2 -1</clus>
</clustering>
</event>
<event>
 6    0  0.4582113E+002  0.1701513E+03  0.7546771E-02  0.1177690E+00
         21   -1    0    0  503  501  0.00000000000E+00  0.00000000000E+00  0.87100316869E+03  0.87100316869E+03  0.00000000000E+00 0.  1.
         21   -1    0    0  505  502 -0.00000000000E+00 -0.00000000000E+00 -0.30830030344E+03  0.30830030344E+03  0.00000000000E+00 0.  1.
         21    1    1    2  503  502  0.13389050134E+02  0.43861519175E+02  0.61318870197E+02  0.76570904200E+02  0.00000000000E+00 0.  1.
         21    1    1    2  504  506  0.32848129596E+02 -0.10569873215E+03  0.32314187375E+03  0.34157267479E+03  0.00000000000E+00 0.  1.
         21    1    1    2  505  504 -0.78962828320E+02  0.13824026797E+03 -0.26556907342E+03  0.30963273842E+03  0.00000000000E+00 0.  1.
         21    1    1    2  506  501  0.32725648590E+02 -0.76403054999E+02  0.44381119473E+03  0.45152715472E+03  0.00000000000E+00 0.  1.
<scales pt_clust_3="45.85956" pt_clust_4="47.82686" pt_clust_5="160.06910" pt_clust_6="47.82686"></scales>
<clustering>
<clus scale="   45.860">  1  3  2 -1</clus>
<clus scale="   47.827">  4  6 -1 -1</clus>
<clus scale="  160.069">  2  5  1 -1</clus>
<clus scale="   45.860">  1  3  2 -1</clus>
</clustering>
</event>
<event>
 6    0  0.4582113E+002  0.8850972E+02  0.7546771E-02  0.1306501E+00
         21   -1    0    0  503  501  0.00000000000E+00  0.00000000000E+00  0.16804957984E+03  0.16804957984E+03  0.00000000000E+00 0. -1.
         21   -1    0    0  504  502 -0.00000000000E+00 -0.00000000000E+00 -0.24125818357E+03  0.24125818357E+03  0.00000000000E+00 0.  1.
         21    1    1    2  503  506  0.62153725990E+01 -0.54588468951E+02  0.40726765169E+02  0.68390066531E+02  0.00000000000E+00 0. -1.
         21    1    1    2  504  501 -0.42575129534E+02 -0.23810487467E+02 -0.34992509239E+02  0.60033796075E+02  0.00000000000E+00 0.  1.
         21    1    1    2  505  502  0.86380831114E+02  0.10744940285E+03 -0.14020153526E+03  0.19663034518E+03  0.00000000000E+00 0.  1.
         21    1    1    2  506  505 -0.50021074179E+02 -0.29050446430E+02  0.61258675593E+02  0.84253555623E+02  0.00000000000E+00 0. -1.
<scales pt_clust_3="56.37785" pt_clust_4="48.78095" pt_clust_5="88.50972" pt_clust_6="14000.00000"></scales>
<clustering>
<clus scale="   48.781">  2  4  1 -1</clus>
<clus scale="   56.378">  1  3  2 -1</clus>
<clus scale="   88.510">  2  5  1 -1</clus>
<clus scale="   56.378">  1  3  2 -1</clus>
</clustering>
</event>
<event>
 6    0  0.4582113E+002  0.1208668E+03  0.7546771E-02  0.1241674E+00
         21   -1    0    0  503  501  0.00000000000E+00  0.00000000000E+00  0.48240730270E+02  0.48240730270E+02  0.00000000000E+00 0. -1.
         21   -1    0    0  504  502 -0.00000000000E+00 -0.00000000000E+00 -0.18135348490E+04  0.18135348490E+04  0.00000000000E+00 0.  1.
         21    1    1    2  503  506 -0.47886004907E+02  0.80267366124E+01 -0.37617438770E+02  0.61421247677E+02  0.00000000000E+00 0. -1.
         21    1    1    2  504  505 -0.33715380953E+02 -0.28758928968E+01 -0.26362041182E+03  0.26578321843E+03  0.00000000000E+00 0.  1.
         21    1    1    2  505  501  0.14251427856E+03  0.13272062584E+02 -0.14639527877E+04  0.14709331160E+04  0.00000000000E+00 0.  1.
         21    1    1    2  506  502 -0.60912892697E+02 -0.18422906299E+02 -0.10348046900E+00  0.63637997151E+02  0.00000000000E+00 0. -1.
<scales pt_clust_3="41.85569" pt_clust_4="33.83781" pt_clust_5="111.07253" pt_clust_6="41.85569"></scales>
<clustering>
<clus scale="   33.838">  2  4  1 -1</clus>
<clus scale="   41.856">  3  6 -1 -1</clus>
<clus scale="  111.073">  2  5  1 -1</clus>
<clus scale="  120.867">  1  3  2 -1</clus>
</clustering>
</event>
<event>
 6    0  0.4582113E+002  0.1393949E+03  0.7546771E-02  0.1214145E+00
         21   -1    0    0  503  501  0.00000000000E+00  0.00000000000E+00  0.25642344495E+03  0.25642344495E+03  0.00000000000E+00 0.  1.
         21   -1    0    0  505  502 -0.00000000000E+00 -0.00000000000E+00 -0.15594405618E+04  0.15594405618E+04  0.00000000000E+00 0. -1.
         21    1    1    2  503  506  0.48945552372E+02 -0.54673440963E+02  0.11792043246E+02  0.74322974427E+02  0.00000000000E+00 0. -1.
         21    1    1    2  504  501  0.82000530050E+02 -0.38823487913E+02  0.16628193696E+03  0.18942289382E+03  0.00000000000E+00 0.  1.
         21    1    1    2  505  504 -0.14922568577E+03 -0.12824131063E+02 -0.13477638686E+03  0.20148805941E+03  0.00000000000E+00 0.  1.
         21    1    1    2  506  502  0.18279603347E+02  0.10632105994E+03 -0.13463147102E+04  0.13506300791E+04  0.00000000000E+00 0. -1.
<scales pt_clust_3="73.38155" pt_clust_4="139.39494" pt_clust_5="14000.00000" pt_clust_6="107.42155"></scales>
<clustering>
<clus scale="   73.382">  1  3  2 -1</clus>
<clus scale="  107.422">  2  6  1 -1</clus>
<clus scale="  139.395">  1  4  2 -1</clus>
<clus scale="   73.382">  1  3  2 -1</clus>
</clustering>
</event>
<event>
 6    0  0.4582113E+002  0.1500720E+03  0.7546771E-02  0.1200385E+00
         21   -1    0    0  502  501  0.00000000000E+00  0.00000000000E+00  0.25908310017E+04  0.25908310017E+04  0.00000000000E+00 0. -1.
         21   -1    0    0  505  502 -0.00000000000E+00 -0.00000000000E+00 -0.85622758812E+02  0.85622758812E+02  0.00000000000E+00 0.  1.
         21    1    1    2  503  506  0.89618762105E+02  0.16310478841E+02  0.56976880952E+03  0.57700437653E+03  0.00000000000E+00 0. -1.
         21    1    1    2  504  503  0.71756150122E+02 -0.26099316765E+02  0.40543155152E+03  0.41255891989E+03  0.00000000000E+00 0. -1.
         21    1    1    2  505  504 -0.33258394936E+02  0.66775443335E+02 -0.56885722945E+02  0.93813997576E+02  0.00000000000E+00 0.  1.
         21    1    1    2  506  501 -0.12811651729E+03 -0.56986605411E+02  0.15868936048E+04  0.15930764665E+04  0.00000000000E+00 0. -1.
<scales pt_clust_3="41.77645" pt_clust_4="41.77645" pt_clust_5="74.59947" pt_clust_6="142.96685"></scales>
<clustering>
<clus scale="   41.776">  3  4 -1 -1</clus>
<clus scale="   74.599">  2  5  1 -1</clus>
<clus scale="  142.967">  1  6  2 -1</clus>
<clus scale="  142.967">  1  3  2 -1</clus>
</clustering>
</event>
<event>
 6    0  0.4582113E+002  0.1335043E+03  0.7546771E-02  0.1222347E+00
         21   -1    0    0  506  501  0.00000000000E+00  0.00000000000E+00  0.71600546066E+03  0.71600546066E+03  0.00000000000E+00 0.  1.
         21   -1    0    0  504  502 -0.00000000000E+00 -0.00000000000E+00 -0.29636649128E+03  0.29636649128E+03  0.00000000000E+00 0.  1.
         21    1    1    2  503  502 -0.13002365158E+03 -0.15639236866E+02  0.10361423059E+02  0.13137006808E+03  0.00000000000E+00 0.  1.
         21    1    1    2  504  501  0.15920851990E+02 -0.33682529337E+02 -0.22744157304E+03  0.23047267833E+03  0.00000000000E+00 0.  1.
         21    1    1    2  505  503  0.69362799682E+02  0.18367496787E+02  0.25320536453E+03  0.26317583389E+03  0.00000000000E+00 0.  1.
         21    1    1    2  506  505  0.44739999907E+02  0.30954269416E+02  0.38351375483E+03  0.38735337165E+03  0.00000000000E+00 0.  1.
<scales pt_clust_3="124.49286" pt_clust_4="37.25569" pt_clust_5="41.76254" pt_clust_6="41.76254"></scales>
<clustering>
<clus scale="   37.256">  2  4  1 -1</clus>
<clus scale="   41.763">  5  6 -1 -1</clus>
<clus scale="  124.493">  2  3  1 -1</clus>
<clus scale="  133.504">  1  3  2 -1</clus>
</clustering>
</event>
<event>
 6    0  0.4582113E+002  0.6265047E+02  0.7546771E-02  0.1387034E+00
         21   -1    0    0  504  501  0.00000000000E+00  0.00000000000E+00  0.18914835677E+03  0.18914835677E+03  0.00000000000E+00 0. -1.
         21   -1    0    0  506  502 -0.00000000000E+00 -0.00000000000E+00 -0.17100914035E+04  0.17100914035E+04  0.00000000000E+00 0. -1.
         21    1    1    2  503  501  0.92365789776E+01 -0.44533819549E+02  0.13167033193E+03  0.13930417002E+03  0.00000000000E+00 0. -1.
         21    1    1    2  504  505  0.50946612623E+02  0.73217216037E+01 -0.21962853254E+02  0.55960091745E+02  0.00000000000E+00 0. -1.
         21    1    1    2  505  502 -0.12121929842E+03  0.45322805742E+02 -0.80089961762E+02  0.15219289407E+03  0.00000000000E+00 0. -1.
         21    1    1    2  506  503  0.61036106815E+02 -0.81107077963E+01 -0.15505605636E+04  0.15517826044E+04  0.00000000000E+00 0. -1.
<scales pt_clust_3="45.48159" pt_clust_4="54.29821" pt_clust_5="14000.00000" pt_clust_6="62.65047"></scales>
<clustering>
<clus scale="   45.482">  1  3  2 -1</clus>
<clus scale="   54.298">  1  4  2 -1</clus>
<clus scale="   62.650">  2  6  1 -1</clus>
<clus scale="   45.482">  1  3  2 -1</clus>
</clustering>
</event>
<event>
 6    0  0.4582113E+002  0.7828588E+02  0.7546771E-02  0.1333987E+00
         21   -1    0    0  503  501  0.00000000000E+00  0.00000000000E+00  0.76103564590E+03  0.76103564590E+03  0.00000000000E+00 0. -1.
         21   -1    0    0  505  502 -0.00000000000E+00 -0.00000000000E+00 -0.46919013377E+02  0.46919013377E+02  0.00000000000E+00 0. -1.
         21    1    1    2  503  502 -0.16026785514E+02 -0.77836962530E+02  0.25423044358E+02  0.83437292467E+02  0.00000000000E+00 0. -1.
         21    1    1    2  504  501 -0.13891197361E+02 -0.30062235110E+02  0.42244242741E+03  0.42373848989E+03  0.00000000000E+00 0. -1.
         21    1    1    2  505  506  0.58687895964E+02  0.60743203491E+02  0.16912678627E+03  0.18904463953E+03  0.00000000000E+00 0. -1.
         21    1    1    2  506  504 -0.28769913089E+02  0.47155994149E+02  0.97124374494E+02  0.11173423739E+03  0.00000000000E+00 0. -1.
<scales pt_clust_3="14000.00000" pt_clust_4="33.11651" pt_clust_5="78.28588" pt_clust_6="50.26917"></scales>
<clustering>
<clus scale="   33.117">  1  4  2 -1</clus>
<clus scale="   50.269">  1  6  2 -1</clus>
<clus scale="   78.286">  1  5  2 -1</clus>
<clus scale="   33.117">  1  3  2 -1</clus>
</clustering>
</event>
<event>
 6    0  0.4582113E+002  0.8391144E+02  0.7546771E-02  0.1318304E+00
         21   -1    0    0  504  501  0.00000000000E+00  0.00000000000E+00  0.66191909126E+03  0.66191909126E+03  0.00000000000E+00 0. -1.
         21   -1    0    0  506  502 -0.00000000000E+00 -0.00000000000E+00 -0.59180419388E+02  0.59180419388E+02  0.00000000000E+00 0. -1.
         21    1    1    2  503  505 -0.53545293893E+02  0.81226799384E+02  0.20145641089E+03  0.22371762766E+03  0.00000000000E+00 0. -1.
         21    1    1    2  504  502  0.23341233554E+02  0.20427863346E+02  0.12443047968E+03  0.12823827455E+03  0.00000000000E+00 0.  1.
         21    1    1    2  505  501  0.73245462785E+02 -0.30843934084E+02  0.27500364683E+03  0.28625731756E+03  0.00000000000E+00 0. -1.
         21    1    1    2  506  503 -0.43041402446E+02 -0.70810728645E+02  0.18481344744E+01  0.82886290886E+02  0.00000000000E+00 0. -1.
<scales pt_clust_3="83.91144" pt_clust_4="31.01791" pt_clust_5="14000.00000" pt_clust_6="80.52917"></scales>
<clustering>
<clus scale="   31.018">  1  4  2 -1</clus>
<clus scale="   80.529">  2  6  1 -1</clus>
<clus scale="   83.911">  2  3  1 -1</clus>
<clus scale="   31.018">  1  3  2 -1</clus>
</clustering>
</event>
<event>
 6    0  0.4582113E+002  0.1002844E+03  0.7546771E-02  0.1279699E+00
         21   -1    0    0  503  501  0.00000000000E+00  0.00000000000E+00  0.64226910811E+02  0.64226910811E+02  0.00000000000E+00 0. -1.
         21   -1    0    0  505  502 -0.00000000000E+00 -0.00000000000E+00 -0.28093403297E+03  0.28093403297E+03  0.00000000000E+00 0. -1.
         21    1    1    2  503  506 -0.50097676021E+02  0.23386399216E+02 -0.20799880501E+02  0.59070600469E+02  0.00000000000E+00 0. -1.
         21    1    1    2  504  501  0.31844367567E+02 -0.33166074903E+02 -0.16834897442E+02  0.48963925927E+02  0.00000000000E+00 0. -1.
         21    1    1    2  505  504  0.37324712392E+02 -0.66799028900E+02 -0.89011933166E+02  0.11738129605E+03  0.00000000000E+00 0. -1.
         21    1    1    2  506  502 -0.19071403939E+02  0.76578704587E+02 -0.90060411050E+02  0.11974512133E+03  0.00000000000E+00 0. -1.
<scales pt_clust_3="55.28744" pt_clust_4="31.86471" pt_clust_5="31.86471" pt_clust_6="91.47223"></scales>
<clustering>
<clus scale="   31.865">  4  5 -1 -1</clus>
<clus scale="   55.287">  1  3  2 -1</clus>
<clus scale="   91.472">  2  6  1 -1</clus>
<clus scale="   55.287">  1  3  2 -1</clus>
</clustering>
</event>
<event>
 6    0  0.4582113E+002  0.1516194E+03  0.7546771E-02  0.1198497E+00
         21   -1    0    0  503  501  0.00000000000E+00  0.00000000000E+00  0.49394576908E+03  0.49394576908E+03  0.00000000000E+00 0.  1.
         21   -1    0    0  501  502 -0.00000000000E+00 -0.00000000000E+00 -0.14347428353E+03  0.14347428353E+03  0.00000000000E+00 0. -1.
         21    1    1    2  503  506  0.39748369554E+02  0.96871582328E+02  0.34007749671E+03  0.35583246074E+03  0.00000000000E+00 0.  1.
         21    1    1    2  504  502 -0.70529418382E+01 -0.49763335296E+02 -0.50129989086E+02  0.70986965945E+02  0.00000000000E+00 0. -1.
         21    1    1    2  505  504 -0.72894053880E+02 -0.64084661655E+02 -0.36911232952E+02  0.10384038746E+03  0.00000000000E+00 0. -1.
         21    1    1    2  506  505  0.40198626164E+02  0.16976414622E+02  0.97435210880E+02  0.10676023847E+03  0.00000000000E+00 0. -1.
<scales pt_clust_3="150.24858" pt_clust_4="43.38917" pt_clust_5="43.38917" pt_clust_6="36.64183"></scales>
<clustering>
<clus scale="   36.642">  3  6 -1 -1</clus>
<clus scale="   43.389">  4  5 -1 -1</clus>
<clus scale="  150.249">  1  3  2 -1</clus>
<clus scale="  150.249">  1  3  2 -1</clus>
</clustering>
</event>
<event>
 6    0  0.4582113E+002  0.1981650E+03  0.7546771E-02  0.1151296E+00
         21   -1    0    0  504  501  0.00000000000E+00  0.00000000000E+00  0.24140883106E+03  0.24140883106E+03  0.00000000000E+00 0.  1.
         21   -1    0    0  503  502 -0.00000000000E+00 -0.00000000000E+00 -0.65910937684E+03  0.65910937684E+03  0.00000000000E+00 0.  1.
         21    1    1    2  503  505 -0.32470198515E+02  0.98079343759E+02 -0.16021973328E+03  0.19064163868E+03  0.00000000000E+00 0. -1.
         21    1    1    2  504  502  0.17531412062E+03  0.25895914061E+02 -0.41676076213E+03  0.45287434472E+03  0.00000000000E+00 0.  1.
         21    1    1    2  505  506 -0.10288929413E+03 -0.69692410062E+02  0.13935620292E+03  0.18671740722E+03  0.00000000000E+00 0.  1.
         21    1    1    2  506  501 -0.39954627977E+02 -0.54282847758E+02  0.19923746707E+02  0.70284817282E+02  0.00000000000E+00 0.  1.
<scales pt_clust_3="103.31443" pt_clust_4="185.37419" pt_clust_5="51.58288" pt_clust_6="51.58288"></scales>
<clustering>
<clus scale="   51.583">  5  6 -1 -1</clus>
<clus scale="  103.314">  2  3  1 -1</clus>
<clus scale="  185.374">  2  4  1 -1</clus>
<clus scale="  198.165">  1  3  2 -1</clus>
</clustering>
</event>
<event>
 6    0  0.4582113E+002  0.1014520E+03  0.7546771E-02  0.1277272E+00
         21   -1    0    0  505  501  0.00000000000E+00  0.00000000000E+00  0.89191682032E+02  0.89191682032E+02  0.00000000000E+00 0. -1.
         21   -1    0    0  506  502 -0.00000000000E+00 -0.00000000000E+00 -0.41721346832E+03  0.41721346832E+03  0.00000000000E+00 0. -1.
         21    1    1    2  503  504  0.81775077577E+01  0.42434006926E+02  0.29222788579E+02  0.52167882354E+02  0.00000000000E+00 0. -1.
         21    1    1    2  504  502  0.37900026875E+02  0.23119546060E+01 -0.11006234846E+03  0.11642799371E+03  0.00000000000E+00 0. -1.
         21    1    1    2  505  503  0.36094929392E+02  0.39784293743E+02  0.10232356975E+02  0.54683956383E+02  0.00000000000E+00 0. -1.
         21    1    1    2  506  501 -0.82172464025E+02 -0.84530255275E+02 -0.25741458338E+03  0.28312531790E+03  0.00000000000E+00 0. -1.
<scales pt_clust_3="30.29307" pt_clust_4="37.97048" pt_clust_5="30.29307" pt_clust_6="95.66503"></scales>
<clustering>
<clus scale="   30.293">  3  5 -1 -1</clus>
<clus scale="   37.970">  2  4  1 -1</clus>
<clus scale="   95.665">  2  6  1 -1</clus>
<clus scale="  101.452">  1  3  2 -1</clus>
</clustering>
</event>
<event>
 6    0  0.4582113E+002  0.9325727E+02  0.7546771E-02  0.1295150E+00
         21   -1    0    0  505  501  0.00000000000E+00  0.00000000000E+00  0.25380287892E+03  0.25380287892E+03  0.00000000000E+00 0.  1.
         21   -1    0    0  503  502 -0.00000000000E+00 -0.00000000000E+00 -0.23544479971E+03  0.23544479971E+03  0.00000000000E+00 0.  1.
         21    1    1    2  503  506 -0.15385605457E+02  0.41262753334E+02 -0.17603582400E+03  0.18146058250E+03  0.00000000000E+00 0.  1.
         21    1    1    2  504  501 -0.85215194563E+02 -0.32729328003E+02  0.12597868733E+03  0.15557463790E+03  0.00000000000E+00 0.  1.
         21    1    1    2  505  502  0.11950101651E+02 -0.39644549537E+02  0.14391287203E+02  0.43836108231E+02  0.00000000000E+00 0.  1.
         21    1    1    2  506  504  0.88650698369E+02  0.31111124206E+02  0.54023928673E+02  0.10837635000E+03  0.00000000000E+00 0.  1.
<scales pt_clust_3="43.53904" pt_clust_4="14000.00000" pt_clust_5="41.40646" pt_clust_6="93.25727"></scales>
<clustering>
<clus scale="   41.406">  1  5  2 -1</clus>
<clus scale="   43.539">  2  3  1 -1</clus>
<clus scale="   93.257">  2  6  1 -1</clus>
<clus scale="   41.406">  1  3  2 -1</clus>
</clustering>
</event>
<event>
 6    0  0.4582113E+002  0.1357584E+03  0.7546771E-02  0.1219153E+00
         21   -1    0    0  505  501  0.00000000000E+00  0.00000000000E+00  0.11448286707E+03  0.11448286707E+03  0.00000000000E+00 0. -1.
         21   -1    0    0  506  502 -0.00000000000E+00 -0.00000000000E+00 -0.54960082933E+03  0.54960082933E+03  0.00000000000E+00 0.  1.
         21    1    1    2  503  501 -0.31853917613E+02  0.50147936953E+02 -0.45444607862E+02  0.74797727450E+02  0.00000000000E+00 0.  1.
         21    1    1    2  504  502  0.61418468321E+02  0.22405181942E+02 -0.29072407013E+03  0.29798440459E+03  0.00000000000E+00 0. -1.
         21    1    1    2  505  504  0.27126957088E+02 -0.12582391504E+03  0.37646222563E+02  0.13410729835E+03  0.00000000000E+00 0. -1.
         21    1    1    2  506  503 -0.56691507796E+02  0.53270796143E+02 -0.13659550683E+03  0.15719426601E+03  0.00000000000E+00 0.  1.
<scales pt_clust_3="40.48264" pt_clust_4="65.37752" pt_clust_5="127.61035" pt_clust_6="40.48264"></scales>
<clustering>
<clus scale="   40.483">  3  6 -1 -1</clus>
<clus scale="   65.378">  2  4  1 -1</clus>
<clus scale="  127.610">  1  5  2 -1</clus>
<clus scale="  127.610">  1  3  2 -1</clus>
</clustering>
</event>
<event>
 6    0  0.4582113E+002  0.1262276E+03  0.7546771E-02  0.1233163E+00
         21   -1    0    0  506  501  0.00000000000E+00  0.00000000000E+00  0.37072270253E+03  0.37072270253E+03  0.00000000000E+00 0. -1.
         21   -1    0    0  503  502 -0.00000000000E+00 -0.00000000000E+00 -0.14385875999E+03  0.14385875999E+03  0.00000000000E+00 0. -1.
         21    1    1    2  503  505 -0.71528209542E+02  0.14979726374E+03  0.10313902177E+03  0.19543071098E+03  0.00000000000E+00 0. -1.
         21    1    1    2  504  502  0.55512298173E+02 -0.10201656969E+03 -0.50678469743E+02  0.12671741409E+03  0.00000000000E+00 0. -1.
         21    1    1    2  505  501  0.39995699403E+02 -0.29368987026E+02  0.12532025254E+03  0.13478634599E+03  0.00000000000E+00 0. -1.
         21    1    1    2  506  504 -0.23979788034E+02 -0.18411707031E+02  0.49083137978E+02  0.57646991454E+02  0.00000000000E+00 0. -1.
<scales pt_clust_3="126.22760" pt_clust_4="14000.00000" pt_clust_5="47.67396" pt_clust_6="30.23278"></scales>
<clustering>
<clus scale="   30.233">  1  6  2 -1</clus>
<clus scale="   47.674">  1  5  2 -1</clus>
<clus scale="  126.228">  1  3  2 -1</clus>
<clus scale="   30.233">  1  3  2 -1</clus>
</clustering>
</event>
<event>
 6    0  0.4582113E+002  0.1700885E+03  0.7546771E-02  0.1177756E+00
         21   -1    0    0  505  501  0.00000000000E+00  0.00000000000E+00  0.25041771497E+03  0.25041771497E+03  0.00000000000E+00 0.  1.
         21   -1    0    0  506  502 -0.00000000000E+00 -0.00000000000E+00 -0.29306645201E+03  0.29306645201E+03  0.00000000000E+00 0.  1.
         21    1    1    2  503  501  0.39696629935E+00 -0.12423672689E+03  0.12383844281E+02  0.12485303957E+03  0.00000000000E+00 0.  1.
         21    1    1    2  504  503  0.21833278156E+02 -0.61931929692E+02  0.28202793906E+02  0.71467849657E+02  0.00000000000E+00 0.  1.
         21    1    1    2  505  502  0.13497595731E+02  0.15242937016E+03  0.82812483976E+02  0.17399656744E+03  0.00000000000E+00 0.  1.
         21    1    1    2  506  504 -0.35727840187E+02  0.33739286421E+02 -0.16604785921E+03  0.17316671031E+03  0.00000000000E+00 0.  1.
<scales pt_clust_3="30.34116" pt_clust_4="30.34116" pt_clust_5="164.88918" pt_clust_6="49.14080"></scales>
<clustering>
<clus scale="   30.341">  3  4 -1 -1</clus>
<clus scale="   49.141">  2  6  1 -1</clus>
<clus scale="  164.889">  1  5  2 -1</clus>
<clus scale="  164.889">  1  3  2 -1</clus>
</clustering>
</event>
<event>
 6    0  0.4582113E+002  0.8697005E+02  0.7546771E-02  0.1310360E+00
         21   -1    0    0  506  501  0.00000000000E+00  0.00000000000E+00  0.11759392522E+04  0.11759392522E+04  0.00000000000E+00 0. -1.
         21   -1    0    0  504  502 -0.00000000000E+00 -0.00000000000E+00 -0.44232014982E+02  0.44232014982E+02  0.00000000000E+00 0. -1.
         21    1    1    2  503  501  0.52785140456E+02  0.34484609240E+01  0.36570863012E+03  0.36951449914E+03  0.00000000000E+00 0. -1.
         21    1    1    2  504  503 -0.13321490638E+03  0.68213222869E+02  0.34495328869E+03  0.37602131115E+03  0.00000000000E+00 0. -1.
         21    1    1    2  505  502  0.69237116536E+02 -0.33653826417E+02  0.31659026181E+02  0.83238526402E+02  0.00000000000E+00 0. -1.
         21    1    1    2  506  505  0.11192649388E+02 -0.38007857375E+02  0.38938629227E+03  0.39139693053E+03  0.00000000000E+00 0. -1.
<scales pt_clust_3="59.76823" pt_clust_4="86.97005" pt_clust_5="14000.00000" pt_clust_6="39.62162"></scales>
<clustering>
<clus scale="   39.622">  1  6  2 -1</clus>
<clus scale="   59.768">  1  3  2 -1</clus>
<clus scale="   86.970">  1  4  2 -1</clus>
<clus scale="   39.622">  1  3  2 -1</clus>
</clustering>
</event>
<event>
 6    0  0.4582113E+002  0.8493632E+02  0.7546771E-02  0.1315599E+00
         21   -1    0    0  503  501  0.00000000000E+00  0.00000000000E+00  0.19348081910E+03  0.19348081910E+03  0.00000000000E+00 0.  1.
         21   -1    0    0  506  502 -0.00000000000E+00 -0.00000000000E+00 -0.27364978532E+03  0.27364978532E+03  0.00000000000E+00 0. -1.
         21    1    1    2  503  505 -0.67266076152E+02  0.40098651326E+02  0.11435066538E+03  0.13859545992E+03  0.00000000000E+00 0.  1.
         21    1    1    2  504  502 -0.38687474297E+02  0.88227573695E+00 -0.81923642739E+02  0.90603434358E+02  0.00000000000E+00 0. -1.
         21    1    1    2  505  504  0.15269895689E+03 -0.52475347018E+02 -0.86341445822E+02  0.18309964158E+03  0.00000000000E+00 0. -1.
         21    1    1    2  506  501 -0.46745406437E+02  0.11494419955E+02 -0.26254543039E+02  0.54832068566E+02  0.00000000000E+00 0. -1.
<scales pt_clust_3="14000.00000" pt_clust_4="38.69753" pt_clust_5="84.93632" pt_clust_6="56.34102"></scales>
<clustering>
<clus scale="   38.698">  2  4  1 -1</clus>
<clus scale="   56.341">  2  6  1 -1</clus>
<clus scale="   84.936">  2  5  1 -1</clus>
<clus scale="   84.936">  1  3  2 -1</clus>
</clustering>
</event>
<event>
 6    0  0.4582113E+002  0.7195605E+02  0.7546771E-02  0.1353565E+00
         21   -1    0    0  506  501  0.00000000000E+00  0.00000000000E+00  0.15857737318E+04  0.15857737318E+04  0.00000000000E+00 0.  1.
         21   -1    0    0  503  502 -0.00000000000E+00 -0.00000000000E+00 -0.51879940240E+02  0.51879940240E+02  0.00000000000E+00 0.  1.
         21    1    1    2  503  504 -0.66404954982E+02 -0.33767628776E+02  0.22617306486E+02  0.77855079166E+02  0.00000000000E+00 0.  1.
         21    1    1    2  504  501 -0.50362546433E+02 -0.35105770854E+02  0.23058515854E+03  0.23861751103E+03  0.00000000000E+00 0. -1.
         21    1    1    2  505  502  0.72770710033E+02  0.12790424166E+01  0.51056985965E+02  0.88904600579E+02  0.00000000000E+00 0.  1.
         21    1    1    2  506  505  0.43996791382E+02  0.67594357213E+02  0.12296343406E+04  0.12322764813E+04  0.00000000000E+00 0.  1.
<scales pt_clust_3="71.95605" pt_clust_4="61.39056" pt_clust_5="14000.00000" pt_clust_6="35.66188"></scales>
<clustering>
<clus scale="   61.391">  1  4  2 -1</clus>
<clus scale="   35.662">  1  6  2 -1</clus>
<clus scale="   71.956">  2  3  1 -1</clus>
<clus scale="   61.391">  1  3  2 -1</clus>
</clustering>
</event>
<event>
 6    0  0.4582113E+002  0.9502607E+02  0.7546771E-02  0.1291117E+00
         21   -1    0    0  506  501  0.00000000000E+00  0.00000000000E+00  0.92847778737E+02  0.92847778737E+02  0.00000000000E+00 0.  1.
         21   -1    0    0  503  502 -0.00000000000E+00 -0.00000000000E+00 -0.44617678803E+03  0.44617678803E+03  0.00000000000E+00 0.  1.
         21    1    1    2  503  501 -0.44347440349E+02  0.31189761462E-01 -0.83332124225E+02  0.94397772041E+02  0.00000000000E+00 0. -1.
         21    1    1    2  504  505 -0.47009883995E+02  0.44358065847E+02 -0.13726865785E+02  0.66075669071E+02  0.00000000000E+00 0.  1.
         21    1    1    2  505  502  0.11469854844E+03 -0.76005329766E+02 -0.29366620698E+03  0.32430295757E+03  0.00000000000E+00 0.  1.
         21    1    1    2  506  504 -0.23341224091E+02  0.31616074157E+02  0.37396187692E+02  0.54248168090E+02  0.00000000000E+00 0.  1.
<scales pt_clust_3="47.24281" pt_clust_4="95.02607" pt_clust_5="14000.00000" pt_clust_6="39.29871"></scales>
<clustering>
<clus scale="   39.299">  1  6  2 -1</clus>
<clus scale="   47.243">  2  3  1 -1</clus>
<clus scale="   95.026">  1  4  2 -1</clus>
<clus scale="   39.299">  1  3  2 -1</clus>
</clustering>
</event>
<event>
 6    0  0.4582113E+002  0.1463672E+03  0.7546771E-02  0.1205009E+00
         21   -1    0    0  503  501  0.00000000000E+00  0.00000000000E+00  0.24287083099E+03  0.24287083099E+03  0.00000000000E+00 0. -1.
         21   -1    0    0  504  502 -0.00000000000E+00 -0.00000000000E+00 -0.35357484285E+03  0.35357484285E+03  0.00000000000E+00 0. -1.
         21    1    1    2  503  505 -0.79395335720E+02 -0.13748061923E+02 -0.69493887806E+01  0.80875970134E+02  0.00000000000E+00 0. -1.
         21    1    1    2  504  506  0.63220444404E+02  0.91344781177E+02 -0.35731061067E+02  0.11669362606E+03  0.00000000000E+00 0. -1.
         21    1    1    2  505  502 -0.47012268598E+02  0.10739458705E+03  0.89766993261E+02  0.14765454211E+03  0.00000000000E+00 0. -1.
         21    1    1    2  506  501  0.63187159914E+02 -0.18499130630E+03 -0.15779055527E+03  0.25122153554E+03  0.00000000000E+00 0. -1.
<scales pt_clust_3="80.57685" pt_clust_4="100.61925" pt_clust_5="14000.00000" pt_clust_6="146.36715"></scales>
<clustering>
<clus scale="   80.577">  1  3  2 -1</clus>
<clus scale="  100.619">  2  4  1 -1</clus>
<clus scale="  146.367">  2  6  1 -1</clus>
<clus scale="   80.577">  1  3  2 -1</clus>
</clustering>
</event>
<event>
 6    0  0.4582113E+002  0.1588369E+03  0.7546771E-02  0.1190016E+00
         21   -1    0    0  505  501  0.00000000000E+00  0.00000000000E+00  0.45590815770E+03  0.45590815770E+03  0.00000000000E+00 0.  1.
         21   -1    0    0  503  502 -0.00000000000E+00 -0.00000000000E+00 -0.15219801362E+03  0.15219801362E+03  0.00000000000E+00 0.  1.
         21    1    1    2  503  506  0.14268986895E+02 -0.12125454227E+03  0.11329499332E+03  0.16655936936E+03  0.00000000000E+00 0.  1.
         21    1    1    2  504  502  0.48158954732E+02  0.17609789734E+02 -0.90777657533E+02  0.10425916134E+03  0.00000000000E+00 0.  1.
         21    1    1    2  505  504 -0.27421103649E+02  0.13532486964E+03  0.22385506092E+03  0.26301297604E+03  0.00000000000E+00 0.  1.
         21    1    1    2  506  501 -0.35006837979E+02 -0.31680117101E+02  0.57337747376E+02  0.74274664583E+02  0.00000000000E+00 0.  1.
<scales pt_clust_3="44.26308" pt_clust_4="51.27757" pt_clust_5="141.99552" pt_clust_6="44.26308"></scales>
<clustering>
<clus scale="   44.263">  3  6 -1 -1</clus>
<clus scale="   51.278">  2  4  1 -1</clus>
<clus scale="  141.996">  1  5  2 -1</clus>
<clus scale="  141.996">  1  3  2 -1</clus>
</clustering>
</event>
<event>
 6    0  0.4582113E+002  0.6174055E+02  0.7546771E-02  0.1390669E+00
         21   -1    0    0  503  501  0.00000000000E+00  0.00000000000E+00  0.93225386743E+03  0.93225386743E+03  0.00000000000E+00 0. -1.
         21   -1    0    0  504  502 -0.00000000000E+00 -0.00000000000E+00 -0.52375770588E+03  0.52375770588E+03  0.00000000000E+00 0.  1.
         21    1    1    2  503  506 -0.25629036729E+02 -0.58702566423E+02  0.67037236633E+03  0.67342553290E+03  0.00000000000E+00 0. -1.
         21    1    1    2  504  501  0.14730152163E+01 -0.55411942078E+02 -0.98366993766E+02  0.11291022346E+03  0.00000000000E+00 0.  1.
         21    1    1    2  505  502 -0.27285611092E+02  0.78395949803E+02 -0.40847879663E+03  0.41682773038E+03  0.00000000000E+00 0.  1.
         21    1    1    2  506  505  0.51441632605E+02  0.35718558698E+02  0.24496958562E+03  0.25284808656E+03  0.00000000000E+00 0. -1.
<scales pt_clust_3="61.74055" pt_clust_4="55.43152" pt_clust_5="35.06240" pt_clust_6="14000.00000"></scales>
<clustering>
<clus scale="   55.432">  2  4  1 -1</clus>
<clus scale="   35.062">  2  5  1 -1</clus>
<clus scale="   61.741">  1  3  2 -1</clus>
<clus scale="   61.741">  1  3  2 -1</clus>
</clustering>
</event>
<event>
 6    0  0.4582113E+002  0.8035060E+02  0.7546771E-02  0.1328059E+00
         21   -1    0    0  506  501  0.00000000000E+00  0.00000000000E+00  0.24718535798E+04  0.24718535798E+04  0.00000000000E+00 0.  1.
         21   -1    0    0  504  502 -0.00000000000E+00 -0.00000000000E+00 -0.28096710130E+03  0.28096710130E+03  0.00000000000E+00 0.  1.
         21    1    1    2  503  502 -0.81758231678E+02 -0.66750170742E+01 -0.20803201007E+03  0.22362084320E+03  0.00000000000E+00 0.  1.
         21    1    1    2  504  505  0.73170375934E+02 -0.58674579244E+02 -0.29946241051E+02  0.98455002498E+02  0.00000000000E+00 0.  1.
         21    1    1    2  505  501 -0.27949177478E+02  0.44328666948E+02  0.11664612459E+04  0.11676377972E+04  0.00000000000E+00 0.  1.
         21    1    1    2  506  503  0.36537033223E+02  0.21020929371E+02  0.12624034837E+04  0.12631070382E+04  0.00000000000E+00 0.  1.
<scales pt_clust_3="14000.00000" pt_clust_4="80.35060" pt_clust_5="65.03152" pt_clust_6="42.15251"></scales>
<clustering>
<clus scale="   42.153">  1  6  2 -1</clus>
<clus scale="   65.032">  1  5  2 -1</clus>
<clus scale="   80.351">  1  4  2 -1</clus>
<clus scale="   42.153">  1  3  2 -1</clus>
</clustering>
</event>
<event>
 6    0  0.4582113E+002  0.9704801E+02  0.7546771E-02  0.1286629E+00
         21   -1    0    0  505  501  0.00000000000E+00  0.00000000000E+00  0.41417170314E+03  0.41417170314E+03  0.00000000000E+00 0. -1.
         21   -1    0    0  503  502 -0.00000000000E+00 -0.00000000000E+00 -0.77437364568E+02  0.77437364568E+02  0.00000000000E+00 0. -1.
         21    1    1    2  503  504  0.88738085801E+02 -0.88942782666E+02  0.40041250572E+02  0.13186572037E+03  0.00000000000E+00 0. -1.
         21    1    1    2  504  501 -0.30151971257E+02 -0.64408256415E+01  0.55353297779E+02  0.63360975219E+02  0.00000000000E+00 0. -1.
         21    1    1    2  505  506 -0.24186452536E+02  0.83196509586E+02  0.24484245141E+03  0.25971998327E+03  0.00000000000E+00 0. -1.
         21    1    1    2  506  502 -0.34399662008E+02  0.12187098722E+02 -0.35026611912E+01  0.36662388860E+02  0.00000000000E+00 0. -1.
<scales pt_clust_3="14000.00000" pt_clust_4="30.83222" pt_clust_5="97.04801" pt_clust_6="37.72979"></scales>
<clustering>
<clus scale="   30.832">  1  4  2 -1</clus>
<clus scale="   37.730">  2  6  1 -1</clus>
<clus scale="   97.048">  1  5  2 -1</clus>
<clus scale="   30.832">  1  3  2 -1</clus>
</clustering>
</event>
<event>
 6    0  0.4582113E+002  0.2141870E+03  0.7546771E-02  0.1138293E+00
         21   -1    0    0  503  501  0.00000000000E+00  0.00000000000E+00  0.87825326186E+02  0.87825326186E+02  0.00000000000E+00 0.  1.
         21   -1    0    0  506  502 -0.00000000000E+00 -0.00000000000E+00 -0.16518866096E+04  0.16518866096E+04  0.00000000000E+00 0.  1.
         21    1    1    2  503  505  0.23140270729E+02 -0.53982747038E+02  0.54660382839E+01  0.58987173875E+02  0.00000000000E+00 0.  1.
         21    1    1    2  504  502  0.53439368262E+00  0.23824132199E+03 -0.11975058553E+04  0.12209748099E+04  0.00000000000E+00 0.  1.
         21    1    1    2  505  504 -0.50438946587E+01 -0.14311266866E+03 -0.79554356446E+02  0.16381566602E+03  0.00000000000E+00 0.  1.
         21    1    1    2  506  501 -0.18630769753E+02 -0.41145906294E+02 -0.29246711000E+03  0.29593428598E+03  0.00000000000E+00 0. -1.
<scales pt_clust_3="44.83323" pt_clust_4="202.23284" pt_clust_5="44.83323" pt_clust_6="45.16737"></scales>
<clustering>
<clus scale="   45.167">  2  6  1 -1</clus>
<clus scale="   44.833">  3  5 -1 -1</clus>
<clus scale="  202.233">  2  4  1 -1</clus>
<clus scale="  214.187">  1  3  2 -1</clus>
</clustering>
</event>
<event>
 6    0  0.4582113E+002  0.1410142E+03  0.7546771E-02  0.1211971E+00
         21   -1    0    0  506  501  0.00000000000E+00  0.00000000000E+00  0.66885531309E+03  0.66885531309E+03  0.00000000000E+00 0. -1.
         21   -1    0    0  503  502 -0.00000000000E+00 -0.00000000000E+00 -0.56539384377E+02  0.56539384377E+02  0.00000000000E+00 0.  1.
         21    1    1    2  503  504  0.30849965725E+02  0.70998756286E+02  0.58949338316E+02  0.97301429934E+02  0.00000000000E+00 0.  1.
         21    1    1    2  504  501 -0.14711506883E+03 -0.34587252154E+02  0.20933083419E+03  0.25818311260E+03  0.00000000000E+00 0.  1.
         21    1    1    2  505  502  0.59248008645E+02 -0.43068677272E+02  0.14067058793E+03  0.15859839784E+03  0.00000000000E+00 0.  1.
         21    1    1    2  506  505  0.57017094463E+02  0.66571731402E+01  0.20336516828E+03  0.21131175709E+03  0.00000000000E+00 0. -1.
<scales pt_clust_3="77.41152" pt_clust_4="127.49685" pt_clust_5="53.33371" pt_clust_6="53.33371"></scales>
<clustering>
<clus scale="   53.334">  5  6 -1 -1</clus>
<clus scale="   77.412">  2  3  1 -1</clus>
<clus scale="  127.497">  2  4  1 -1</clus>
<clus scale="  141.014">  1  3  2 -1</clus>
</clustering>
</event>
<event>
 6    0  0.4582113E+002  0.1325212E+03  0.7546771E-02  0.1223762E+00
         21   -1    0    0  505  501  0.00000000000E+00  0.00000000000E+00  0.39138907079E+03  0.39138907079E+03  0.00000000000E+00 0. -1.
         21   -1    0    0  504  502 -0.00000000000E+00 -0.00000000000E+00 -0.39693970057E+03  0.39693970057E+03  0.00000000000E+00 0. -1.
         21    1    1    2  503  502 -0.57606424883E+02 -0.53919974167E+02  0.22718472931E+03  0.24049691273E+03  0.00000000000E+00 0. -1.
         21    1    1    2  504  506  0.13735195286E+03 -0.29137473080E+02 -0.24354729898E+03  0.28112246109E+03  0.00000000000E+00 0. -1.
         21    1    1    2  505  503 -0.99686205850E+00 -0.38722548457E+02  0.92485305571E+02  0.10026944320E+03  0.00000000000E+00 0.  1.
         21    1    1    2  506  501 -0.78748665917E+02  0.12177999570E+03 -0.81673365677E+02  0.16643995433E+03  0.00000000000E+00 0. -1.
<scales pt_clust_3="118.03719" pt_clust_4="132.52115" pt_clust_5="30.66752" pt_clust_6="14000.00000"></scales>
<clustering>
<clus scale="   30.668">  3  5 -1 -1</clus>
<clus scale="  118.037">  1  3  2 -1</clus>
<clus scale="  132.521">  2  4  1 -1</clus>
<clus scale="  118.037">  1  3  2 -1</clus>
</clustering>
</event>
<event>
 6    0  0.4582113E+002  0.1074569E+03  0.7546771E-02  0.1265353E+00
         21   -1    0    0  505  501  0.00000000000E+00  0.00000000000E+00  0.16594541042E+04  0.16594541042E+04  0.00000000000E+00 0.  1.
         21   -1    0    0  503  502 -0.00000000000E+00 -0.00000000000E+00 -0.27939996925E+03  0.27939996925E+03  0.00000000000E+00 0. -1.
         21    1    1    2  503  504  0.16234063389E+02  0.31832483984E+02  0.87389205631E+01  0.36786146623E+02  0.00000000000E+00 0. -1.
         21    1    1    2  504  501  0.27601028526E+02 -0.12862119727E+02  0.14541701874E+03  0.14857106124E+03  0.00000000000E+00 0.  1.
         21    1    1    2  505  506  0.71612083915E+02  0.54571098951E+02  0.14704711785E+04  0.14732249598E+04  0.00000000000E+00 0.  1.
         21    1    1    2  506  502 -0.11544717583E+03 -0.73541463208E+02 -0.24457298286E+03  0.28027190577E+03  0.00000000000E+00 0. -1.
<scales pt_clust_3="35.75227" pt_clust_4="30.45079" pt_clust_5="107.45686" pt_clust_6="14000.00000"></scales>
<clustering>
<clus scale="   30.451">  1  4  2 -1</clus>
<clus scale="   35.752">  2  3  1 -1</clus>
<clus scale="  107.457">  1  5  2 -1</clus>
<clus scale="   30.451">  1  3  2 -1</clus>
</clustering>
</event>
<event>
 6    0  0.4582113E+002  0.1595348E+03  0.7546771E-02  0.1189223E+00
         21   -1    0    0  504  501  0.00000000000E+00  0.00000000000E+00  0.64011763876E+03  0.64011763876E+03  0.00000000000E+00 0. -1.
         21   -1    0    0  503  502 -0.00000000000E+00 -0.00000000000E+00 -0.42085134978E+03  0.42085134978E+03  0.00000000000E+00 0.  1.
         21    1    1    2  503  501 -0.13584660689E+03  0.34992438190E+02  0.50023910067E+02  0.14893341772E+03  0.00000000000E+00 0. -1.
         21    1    1    2  504  505  0.10503667670E+02 -0.75771795776E+02  0.37830490401E+03  0.38596151682E+03  0.00000000000E+00 0. -1.
         21    1    1    2  505  506  0.28210091596E+02 -0.65583817067E+02  0.13519995910E+03  0.15289236498E+03  0.00000000000E+00 0. -1.
         21    1    1    2  506  502  0.97132847625E+02  0.10636317465E+03 -0.34426248418E+03  0.37318168903E+03  0.00000000000E+00 0.  1.
<scales pt_clust_3="140.28104" pt_clust_4="69.63826" pt_clust_5="69.63826" pt_clust_6="142.32097"></scales>
<clustering>
<clus scale="   69.638">  4  5 -1 -1</clus>
<clus scale="  140.281">  1  3  2 -1</clus>
<clus scale="  142.321">  2  6  1 -1</clus>
<clus scale="  140.281">  1  3  2 -1</clus>
</clustering>
</event>
<event>
 6    0  0.4582113E+002  0.1499074E+03  0.7546771E-02  0.1200587E+00
         21   -1    0    0  503  501  0.00000000000E+00  0.00000000000E+00  0.11954900578E+03  0.11954900578E+03  0.00000000000E+00 0.  1.
         21   -1    0    0  505  502 -0.00000000000E+00 -0.00000000000E+00 -0.12377302635E+04  0.12377302635E+04  0.00000000000E+00 0.  1.
         21    1    1    2  503  504  0.45564038126E+02 -0.32500164831E+02 -0.15769719680E+02  0.58146593564E+02  0.00000000000E+00 0.  1.
         21    1    1    2  504  506  0.71659553195E+02  0.12607601330E+03  0.14506669975E+02  0.14574188199E+03  0.00000000000E+00 0.  1.
         21    1    1    2  505  501 -0.20624191511E+02  0.37214954095E+02 -0.75990090440E+03  0.76109112109E+03  0.00000000000E+00 0.  1.
         21    1    1    2  506  502 -0.96599399810E+02 -0.13079080256E+03 -0.35701730365E+03  0.39229967268E+03  0.00000000000E+00 0.  1.
<scales pt_clust_3="53.01244" pt_clust_4="14000.00000" pt_clust_5="42.54774" pt_clust_6="149.90736"></scales>
<clustering>
<clus scale="   42.548">  2  5  1 -1</clus>
<clus scale="   53.012">  1  3  2 -1</clus>
<clus scale="  149.907">  2  6  1 -1</clus>
<clus scale="   53.012">  1  3  2 -1</clus>
</clustering>
</event>
<event>
 6    0  0.4582113E+002  0.1278814E+03  0.7546771E-02  0.1230634E+00
         21   -1    0    0  503  501  0.00000000000E+00  0.00000000000E+00  0.10269237655E+03  0.10269237655E+03  0.00000000000E+00 0. -1.
         21   -1    0    0  504  502 -0.00000000000E+00 -0.00000000000E+00 -0.19072718326E+04  0.19072718326E+04  0.00000000000E+00 0. -1.
         21    1    1    2  503  505  0.54979473583E+02  0.95514521074E+01  0.69354409226E+02  0.89016890711E+02  0.00000000000E+00 0. -1.
         21    1    1    2  504  506  0.27640149139E+02 -0.95748250693E+02 -0.49295577898E+03  0.50292852910E+03  0.00000000000E+00 0. -1.
         21    1    1    2  505  502 -0.86533574871E+02  0.12938788299E+03 -0.13616849319E+04  0.13705528584E+04  0.00000000000E+00 0. -1.
         21    1    1    2  506  501  0.39139521498E+01 -0.43191084407E+02 -0.19293154360E+02  0.47465930928E+02  0.00000000000E+00 0. -1.
<scales pt_clust_3="65.29443" pt_clust_4="127.88136" pt_clust_5="14000.00000" pt_clust_6="43.36806"></scales>
<clustering>
<clus scale="   43.368">  1  6  2 -1</clus>
<clus scale="   65.294">  1  3  2 -1</clus>
<clus scale="  127.881">  1  4  2 -1</clus>
<clus scale="   43.368">  1  3  2 -1</clus>
</clustering>
</event>
<event>
 6    0  0.4582113E+002  0.1167194E+03  0.7546771E-02  0.1248609E+00
         21   -1    0    0  506  501  0.00000000000E+00  0.00000000000E+00  0.97526038372E+02  0.97526038372E+02  0.00000000000E+00 0. -1.
         21   -1    0    0  504  502 -0.00000000000E+00 -0.00000000000E+00 -0.50122868209E+03  0.50122868209E+03  0.00000000000E+00 0. -1.
         21    1    1    2  503  502 -0.10462793779E+01 -0.65463047973E+02 -0.35219213357E+03  0.35822591238E+03  0.00000000000E+00 0. -1.
         21    1    1    2  504  505  0.76817658146E+01  0.60192938849E+02  0.69152621572E+01  0.61073891836E+02  0.00000000000E+00 0. -1.
         21    1    1    2  505  501 -0.32394923320E+02  0.82171182127E+02 -0.25584377735E+02  0.91957025904E+02  0.00000000000E+00 0. -1.
         21    1    1    2  506  503  0.25759436883E+02 -0.76901073003E+02 -0.32841394571E+02  0.87497890345E+02  0.00000000000E+00 0. -1.
<scales pt_clust_3="65.47141" pt_clust_4="38.80313" pt_clust_5="38.80313" pt_clust_6="106.91947"></scales>
<clustering>
<clus scale="   38.803">  4  5 -1 -1</clus>
<clus scale="   65.471">  2  3  1 -1</clus>
<clus scale="  106.919">  1  6  2 -1</clus>
<clus scale="  106.919">  1  3  2 -1</clus>
</clustering>
</event>
<event>
 6    0  0.4582113E+002  0.1077502E+03  0.7546771E-02  0.1264794E+00
         21   -1    0    0  506  501  0.00000000000E+00  0.00000000000E+00  0.43346822936E+03  0.43346822936E+03  0.00000000000E+00 0. -1.
         21   -1    0    0  505  502 -0.00000000000E+00 -0.00000000000E+00 -0.16887627894E+03  0.16887627894E+03  0.00000000000E+00 0. -1.
         21    1    1    2  503  502 -0.16977944018E+02 -0.24884984050E+02 -0.65909050038E+02  0.72467343619E+02  0.00000000000E+00 0. -1.
         21    1    1    2  504  501  0.30158667318E+02  0.30642192393E+02  0.14226434565E+03  0.14861908764E+03  0.00000000000E+00 0. -1.
         21    1    1    2  505  504 -0.95758597556E+02  0.32118106603E+02 -0.59613581196E+02  0.11728197151E+03  0.00000000000E+00 0. -1.
         21    1    1    2  506  503  0.82577874256E+02 -0.37875314946E+02  0.24785023601E+03  0.26397610552E+03  0.00000000000E+00 0. -1.
<scales pt_clust_3="30.12496" pt_clust_4="42.04952" pt_clust_5="14000.00000" pt_clust_6="107.75018"></scales>
<clustering>
<clus scale="   30.125">  2  3  1 -1</clus>
<clus scale="   42.050">  1  4  2 -1</clus>
<clus scale="  107.750">  1  6  2 -1</clus>
<clus scale="   42.050">  1  3  2 -1</clus>
</clustering>
</event>
<event>
 6    0  0.4582113E+002  0.1188482E+03  0.7546771E-02  0.1245009E+00
         21   -1    0    0  504  501  0.00000000000E+00  0.00000000000E+00  0.82618430588E+03  0.82618430588E+03  0.00000000000E+00 0.  1.
         21   -1    0    0  503  502 -0.00000000000E+00 -0.00000000000E+00 -0.11128148396E+03  0.11128148396E+03  0.00000000000E+00 0.  1.
         21    1    1    2  503  501 -0.43359962336E+02 -0.60583505845E+02 -0.26989259316E+02  0.79239306109E+02  0.00000000000E+00 0.  1.
         21    1    1    2  504  506 -0.26160932462E+02 -0.11661845223E+03  0.26762323679E+03  0.29309802909E+03  0.00000000000E+00 0.  1.
         21    1    1    2  505  502  0.14992209081E+03  0.58319458409E+02  0.21155602577E+03  0.26577009723E+03  0.00000000000E+00 0.  1.
         21    1    1    2  506  505 -0.80401196015E+02  0.11888249967E+03  0.26271281868E+03  0.29935835740E+03  0.00000000000E+00 0.  1.
<scales pt_clust_3="74.50133" pt_clust_4="14000.00000" pt_clust_5="133.15894" pt_clust_6="118.84818"></scales>
<clustering>
<clus scale="   74.501">  2  3  1 -1</clus>
<clus scale="  133.159">  2  5  1 -1</clus>
<clus scale="  118.848">  2  6  1 -1</clus>
<clus scale="  118.848">  1  3  2 -1</clus>
</clustering>
</event>
<event>
 6    0  0.4582113E+002  0.8615110E+02  0.7546771E-02  0.1312449E+00
         21   -1    0    0  506  501  0.00000000000E+00  0.00000000000E+00  0.28744053050E+02  0.28744053050E+02  0.00000000000E+00 0.  1.
         21   -1    0    0  504  502 -0.00000000000E+00 -0.00000000000E+00 -0.21607335731E+04  0.21607335731E+04  0.00000000000E+00 0.  1.
         21    1    1    2  503  501 -0.14549829503E+02  0.84363050081E+02 -0.78058743202E+02  0.11585330875E+03  0.00000000000E+00 0.  1.
         21    1    1    2  504  503  0.36521242540E+02 -0.88927989140E+02 -0.14018115491E+04  0.14051041270E+04  0.00000000000E+00 0.  1.
         21    1    1    2  505  502  0.30953018216E+02  0.60378503297E+02 -0.36637879695E+03  0.37260847528E+03  0.00000000000E+00 0.  1.
         21    1    1    2  506  505 -0.52924431252E+02 -0.55813564238E+02 -0.28574043075E+03  0.29591171511E+03  0.00000000000E+00 0.  1.
<scales pt_clust_3="86.15110" pt_clust_4="14000.00000" pt_clust_5="67.85022" pt_clust_6="66.41739"></scales>
<clustering>
<clus scale="   67.850">  2  5  1 -1</clus>
<clus scale="   66.417">  2  6  1 -1</clus>
<clus scale="   86.151">  1  3  2 -1</clus>
<clus scale="   86.151">  1  3  2 -1</clus>
</clustering>
</event>
<event>
 6    0  0.4582113E+002  0.1038139E+03  0.7546771E-02  0.1272474E+00
         21   -1    0    0  505  501  0.00000000000E+00  0.00000000000E+00  0.66203657040E+03  0.66203657040E+03  0.00000000000E+00 0.  1.
         21   -1    0    0  506  502 -0.00000000000E+00 -0.00000000000E+00 -0.17447871554E+03  0.17447871554E+03  0.00000000000E+00 0.  1.
         21    1    1    2  503  502 -0.38544812630E+02  0.23942307932E+02  0.24515728344E+02  0.51574777033E+02  0.00000000000E+00 0.  1.
         21    1    1    2  504  501  0.10072506058E+03 -0.66463065367E+01  0.34631189647E+03  0.36072377362E+03  0.00000000000E+00 0.  1.
         21    1    1    2  505  503 -0.10815639591E+03 -0.31430555341E+02  0.25449068356E+03  0.27830054582E+03  0.00000000000E+00 0.  1.
         21    1    1    2  506  504  0.45976147957E+02  0.14134553946E+02 -0.13776045352E+03  0.14591618947E+03  0.00000000000E+00 0.  1.
<scales pt_clust_3="45.37551" pt_clust_4="103.81388" pt_clust_5="14000.00000" pt_clust_6="37.22403"></scales>
<clustering>
<clus scale="   45.376">  2  3  1 -1</clus>
<clus scale="   37.224">  2  6  1 -1</clus>
<clus scale="  103.814">  1  4  2 -1</clus>
<clus scale="  103.814">  1  3  2 -1</clus>
</clustering>
</event>
<event>
 6    0  0.4582113E+002  0.1348148E+03  0.7546771E-02  0.1220481E+00
         21   -1    0    0  503  501  0.00000000000E+00  0.00000000000E+00  0.17079024817E+03  0.17079024817E+03  0.00000000000E+00 0.  1.
         21   -1    0    0  506  502 -0.00000000000E+00 -0.00000000000E+00 -0.29018688787E+03  0.29018688787E+03  0.00000000000E+00 0.  1.
         21    1    1    2  503  504  0.84194431038E+02  0.11053410474E+03  0.53715275363E+02  0.14896919593E+03  0.00000000000E+00 0.  1.
         21    1    1    2  504  502 -0.14451125663E+01 -0.33740675308E+02 -0.18604655696E+03  0.18908686596E+03  0.00000000000E+00 0.  1.
         21    1    1    2  505  501 -0.39842914338E+02 -0.56398952676E+02  0.25780055306E+02  0.73708282693E+02  0.00000000000E+00 0.  1.
         21    1    1    2  506  505 -0.42906404133E+02 -0.20394476754E+02 -0.12845413407E+02  0.49212791461E+02  0.00000000000E+00 0.  1.
<scales pt_clust_3="126.40187" pt_clust_4="33.77161" pt_clust_5="39.21864" pt_clust_6="39.21864"></scales>
<clustering>
<clus scale="   33.772">  2  4  1 -1</clus>
<clus scale="   39.219">  5  6 -1 -1</clus>
<clus scale="  126.402">  1  3  2 -1</clus>
<clus scale="  126.402">  1  3  2 -1</clus>
</clustering>
</event>
<event>
 6    0  0.4582113E+002  0.1236234E+03  0.7546771E-02  0.1237236E+00
         21   -1    0    0  506  501  0.00000000000E+00  0.00000000000E+00  0.78776969610E+03  0.78776969610E+03  0.00000000000E+00 0.  1.
         21   -1    0    0  503  502 -0.00000000000E+00 -0.00000000000E+00 -0.66095479320E+02  0.66095479320E+02  0.00000000000E+00 0.  1.
         21    1    1    2  503  505  0.44971704564E+02  0.30972056260E+02  0.45318050604E+02  0.70960891982E+02  0.00000000000E+00 0.  1.
         21    1    1    2  504  502 -0.12052619125E+03  0.54668737306E+02  0.31616906106E+03  0.34275079692E+03  0.00000000000E+00 0.  1.
         21    1    1    2  505  501  0.32704941482E+02 -0.13303173868E+03  0.93351574737E+02  0.16577567132E+03  0.00000000000E+00 0.  1.
         21    1    1    2  506  504  0.42849545207E+02  0.47390945117E+02  0.26683553038E+03  0.27437781520E+03  0.00000000000E+00 0.  1.
<scales pt_clust_3="54.60515" pt_clust_4="123.62345" pt_clust_5="14000.00000" pt_clust_6="67.65757"></scales>
<clustering>
<clus scale="   54.605">  2  3  1 -1</clus>
<clus scale="   67.658">  1  6  2 -1</clus>
<clus scale="  123.623">  1  4  2 -1</clus>
<clus scale="   67.658">  1  3  2 -1</clus>
</clustering>
</event>
<event>
 6    0  0.4582113E+002  0.3680508E+03  0.7546771E-02  0.1055441E+00
         21   -1    0    0  506  501  0.00000000000E+00  0.00000000000E+00  0.94984161977E+03  0.94984161977E+03  0.00000000000E+00 0.  1.
         21   -1    0    0  503  502 -0.00000000000E+00 -0.00000000000E+00 -0.27904967732E+03  0.27904967732E+03  0.00000000000E+00 0.  1.
         21    1    1    2  503  501  0.53225191735E+02 -0.91991508859E+02  0.31890009890E+03  0.33614376659E+03  0.00000000000E+00 0.  1.
         21    1    1    2  504  505 -0.29388499479E+03  0.28605483317E+03  0.60693844037E+02  0.41458352650E+03  0.00000000000E+00 0.  1.
         21    1    1    2  505  502 -0.22604843210E+02 -0.31157440287E+02 -0.16310130549E+02  0.41806523179E+02  0.00000000000E+00 0.  1.
         21    1    1    2  506  504  0.26326464626E+03 -0.16290588402E+03  0.30750813006E+03  0.43635748082E+03  0.00000000000E+00 0.  1.
<scales pt_clust_3="106.82619" pt_clust_4="368.05075" pt_clust_5="38.49370" pt_clust_6="14000.00000"></scales>
<clustering>
<clus scale="   38.494">  2  5  1 -1</clus>
<clus scale="  106.826">  1  3  2 -1</clus>
<clus scale="  368.051">  2  4  1 -1</clus>
<clus scale="  106.826">  1  3  2 -1</clus>
</clustering>
</event>
<event>
 6    0  0.4582113E+002  0.1862355E+03  0.7546771E-02  0.1161901E+00
         21   -1    0    0  505  501  0.00000000000E+00  0.00000000000E+00  0.28999765470E+03  0.28999765470E+03  0.00000000000E+00 0.  1.
         21   -1    0    0  503  502 -0.00000000000E+00 -0.00000000000E+00 -0.19229370305E+03  0.19229370305E+03  0.00000000000E+00 0.  1.
         21    1    1    2  503  504  0.14749382432E+03 -0.10956667575E+03  0.18877338237E+02  0.18470419201E+03  0.00000000000E+00 0.  1.
         21    1    1    2  504  501  0.38957939470E+01  0.53016064226E+02  0.10396010616E+03  0.11676293911E+03  0.00000000000E+00 0.  1.
         21    1    1    2  505  506 -0.62953826906E+02  0.28194989937E+02  0.27287442032E+02  0.74180497925E+02  0.00000000000E+00 0.  1.
         21    1    1    2  506  502 -0.88435791363E+02  0.28355621582E+02 -0.52420934774E+02  0.10664372870E+03  0.00000000000E+00 0.  1.
<scales pt_clust_3="169.51327" pt_clust_4="53.15901" pt_clust_5="68.69953" pt_clust_6="68.69953"></scales>
<clustering>
<clus scale="   53.159">  1  4  2 -1</clus>
<clus scale="   68.700">  5  6 -1 -1</clus>
<clus scale="  169.513">  1  3  2 -1</clus>
<clus scale="   53.159">  1  3  2 -1</clus>
</clustering>
</event>
<event>
 6    0  0.4582113E+002  0.8285750E+02  0.7546771E-02  0.1321132E+00
         21   -1    0    0  503  501  0.00000000000E+00  0.00000000000E+00  0.16733835289E+04  0.16733835289E+04  0.00000000000E+00 0.  1.
         21   -1    0    0  506  502 -0.00000000000E+00 -0.00000000000E+00 -0.18667781631E+03  0.18667781631E+03  0.00000000000E+00 0.  1.
         21    1    1    2  503  502 -0.39848515465E+02 -0.45631867563E+02  0.27587917220E+03  0.28245263174E+03  0.00000000000E+00 0. -1.
         21    1    1    2  504  505 -0.32176914240E+02  0.45076153692E+02  0.11965525604E+02  0.56660279249E+02  0.00000000000E+00 0. -1.
         21    1    1    2  505  501  0.80585876628E+02  0.50616620259E+02  0.13541888033E+04  0.13575284309E+04  0.00000000000E+00 0.  1.
         21    1    1    2  506  504 -0.85604469235E+01 -0.50060906387E+02 -0.15532778851E+03  0.16342000331E+03  0.00000000000E+00 0.  1.
<scales pt_clust_3="14000.00000" pt_clust_4="39.39759" pt_clust_5="82.85750" pt_clust_6="50.78755"></scales>
<clustering>
<clus scale="   50.788">  2  6  1 -1</clus>
<clus scale="   39.398">  2  4  1 -1</clus>
<clus scale="   82.857">  1  5  2 -1</clus>
<clus scale="   82.857">  1  3  2 -1</clus>
</clustering>
</event>
<event>
 6    0  0.4582113E+002  0.1645575E+03  0.7546771E-02  0.1183645E+00
         21   -1    0    0  505  501  0.00000000000E+00  0.00000000000E+00  0.51568744441E+02  0.51568744441E+02  0.00000000000E+00 0. -1.
         21   -1    0    0  503  502 -0.00000000000E+00 -0.00000000000E+00 -0.17794691871E+04  0.17794691871E+04  0.00000000000E+00 0. -1.
         21    1    1    2  503  501  0.12439887658E+03  0.98450738417E+02 -0.14453951400E+04  0.14540752179E+04  0.00000000000E+00 0. -1.
         21    1    1    2  504  502 -0.98339829690E+02 -0.37604537540E+02 -0.21839495264E+03  0.24244830106E+03  0.00000000000E+00 0. -1.
         21    1    1    2  505  506  0.28130443856E+02 -0.46587358619E+02 -0.76295074769E+01  0.54953737261E+02  0.00000000000E+00 0. -1.
         21    1    1    2  506  504 -0.54189490747E+02 -0.14258842258E+02 -0.56480842465E+02  0.79560675308E+02  0.00000000000E+00 0. -1.
<scales pt_clust_3="157.80086" pt_clust_4="34.04710" pt_clust_5="54.42154" pt_clust_6="34.04710"></scales>
<clustering>
<clus scale="   34.047">  4  6 -1 -1</clus>
<clus scale="   54.422">  1  5  2 -1</clus>
<clus scale="  157.801">  2  3  1 -1</clus>
<clus scale="   54.422">  1  3  2 -1</clus>
</clustering>
</event>
<event>
 6    0  0.4582113E+002  0.1087304E+03  0.7546771E-02  0.1262939E+00
         21   -1    0    0  503  501  0.00000000000E+00  0.00000000000E+00  0.16101130919E+03  0.16101130919E+03  0.00000000000E+00 0.  1.
         21   -1    0    0  506  502 -0.00000000000E+00 -0.00000000000E+00 -0.11905460633E+04  0.11905460633E+04  0.00000000000E+00 0.  1.
         21    1    1    2  503  504  0.25286458077E+02  0.59486657400E+02  0.95632152681E+02  0.11542779560E+03  0.00000000000E+00 0.  1.
         21    1    1    2  504  505 -0.48292581284E+02 -0.51581755900E+02 -0.44304818268E+01  0.70798870881E+02  0.00000000000E+00 0.  1.
         21    1    1    2  505  502 -0.38393527734E+02 -0.98619639408E+02 -0.12585283387E+03  0.16443488694E+03  0.00000000000E+00 0.  1.
         21    1    1    2  506  501  0.61399650941E+02  0.90714737909E+02 -0.99488359105E+03  0.10008958190E+04  0.00000000000E+00 0.  1.
<scales pt_clust_3="64.63797" pt_clust_4="36.82666" pt_clust_5="108.73044" pt_clust_6="14000.00000"></scales>
<clustering>
<clus scale="   64.638">  1  3  2 -1</clus>
<clus scale="   36.827">  1  4  2 -1</clus>
<clus scale="  108.730">  1  5  2 -1</clus>
<clus scale="   64.638">  1  3  2 -1</clus>
</clustering>
</event>
<event>
 6    0  0.4582113E+002  0.9671554E+02  0.7546771E-02  0.1287358E+00
         21   -1    0    0  506  501  0.00000000000E+00  0.00000000000E+00  0.17932664109E+03  0.17932664109E+03  0.00000000000E+00 0. -1.
         21   -1    0    0  504  502 -0.00000000000E+00 -0.00000000000E+00 -0.84943963618E+03  0.84943963618E+03  0.00000000000E+00 0. -1.
         21    1    1    2  503  501  0.10678777698E+03  0.24126983088E+02 -0.58313225748E+02  0.12404101306E+03  0.00000000000E+00 0. -1.
         21    1    1    2  504  503  0.31441146870E+02  0.40206914146E+02 -0.32668560866E+03  0.33064879944E+03  0.00000000000E+00 0. -1.
         21    1    1    2  505  502 -0.89104043260E+02  0.23007736986E+02 -0.40643402175E+03  0.41672233024E+03  0.00000000000E+00 0. -1.
         21    1    1    2  506  505 -0.49124880587E+02 -0.87341634220E+02  0.12131986108E+03  0.15735413453E+03  0.00000000000E+00 0. -1.
<scales pt_clust_3="96.71554" pt_clust_4="51.04059" pt_clust_5="84.43969" pt_clust_6="14000.00000"></scales>
<clustering>
<clus scale="   51.041">  2  4  1 -1</clus>
<clus scale="   84.440">  2  5  1 -1</clus>
<clus scale="   96.716">  2  3  1 -1</clus>
<clus scale="   96.716">  1  3  2 -1</clus>
</clustering>
</event>
<event>
 6    0  0.4582113E+002  0.1347924E+03  0.7546771E-02  0.1220513E+00
         21   -1    0    0  506  501  0.00000000000E+00  0.00000000000E+00  0.10835043984E+04  0.10835043984E+04  0.00000000000E+00 0. -1.
         21   -1    0    0  501  502 -0.00000000000E+00 -0.00000000000E+00 -0.91333100282E+02  0.91333100282E+02  0.00000000000E+00 0. -1.
         21    1    1    2  503  504  0.13905185003E+02 -0.68186378307E+02  0.41585052111E+03  0.42163300662E+03  0.00000000000E+00 0. -1.
         21    1    1    2  504  505 -0.52835886281E+02  0.84969118540E+02 -0.44428281580E+02  0.10947718570E+03  0.00000000000E+00 0. -1.
         21    1    1    2  505  502  0.85537994427E+00  0.33796635137E+02  0.19246134858E+02  0.38901901347E+02  0.00000000000E+00 0. -1.
         21    1    1    2  506  503  0.38075321333E+02 -0.50579375370E+02  0.60150292370E+03  0.60482540500E+03  0.00000000000E+00 0. -1.
<scales pt_clust_3="40.65418" pt_clust_4="127.93521" pt_clust_5="33.80746" pt_clust_6="40.65418"></scales>
<clustering>
<clus scale="   33.807">  2  5  1 -1</clus>
<clus scale="   40.654">  3  6 -1 -1</clus>
<clus scale="  127.935">  2  4  1 -1</clus>
<clus scale="  134.792">  1  3  2 -1</clus>
</clustering>
</event>
<event>
 6    0  0.4582113E+002  0.1224793E+03  0.7546771E-02  0.1239062E+00
         21   -1    0    0  502  501  0.00000000000E+00  0.00000000000E+00  0.95077077095E+02  0.95077077095E+02  0.00000000000E+00 0. -1.
         21   -1    0    0  503  502 -0.00000000000E+00 -0.00000000000E+00 -0.80497883011E+03  0.80497883011E+03  0.00000000000E+00 0.  1.
         21    1    1    2  503  504  0.29913455379E+02 -0.24736036090E+02 -0.24490357694E+03  0.24796057810E+03  0.00000000000E+00 0.  1.
         21    1    1    2  504  505 -0.70696926118E+02 -0.78770734427E+02 -0.50998972115E+03  0.52085736977E+03  0.00000000000E+00 0.  1.
         21    1    1    2  505  506  0.26723478592E+02  0.34024530423E+02 -0.63232751579E+01  0.43724098473E+02  0.00000000000E+00 0.  1.
         21    1    1    2  506  501  0.14059992147E+02  0.69482240095E+02  0.51314820231E+02  0.87513860863E+02  0.00000000000E+00 0. -1.
<scales pt_clust_3="38.81606" pt_clust_4="110.35830" pt_clust_5="41.66977" pt_clust_6="41.66977"></scales>
<clustering>
<clus scale="   38.816">  2  3  1 -1</clus>
<clus scale="   41.670">  5  6 -1 -1</clus>
<clus scale="  110.358">  2  4  1 -1</clus>
<clus scale="  122.479">  1  3  2 -1</clus>
</clustering>
</event>
<event>
 6    0  0.4582113E+002  0.1384099E+03  0.7546771E-02  0.1215485E+00
         21   -1    0    0  504  501  0.00000000000E+00  0.00000000000E+00  0.72140246010E+03  0.72140246010E+03  0.00000000000E+00 0.  1.
         21   -1    0    0  503  502 -0.00000000000E+00 -0.00000000000E+00 -0.16830444065E+03  0.16830444065E+03  0.00000000000E+00 0.  1.
         21    1    1    2  503  506 -0.29200010724E+02 -0.27314909145E+02  0.16246335910E+02  0.43158872997E+02  0.00000000000E+00 0.  1.
         21    1    1    2  504  505 -0.63362218414E+01 -0.46063269996E+02 -0.49258237400E+02  0.67737334622E+02  0.00000000000E+00 0.  1.
         21    1    1    2  505  502 -0.59176751545E+02 -0.47008466412E+01 -0.81043617823E+02  0.10045921497E+03  0.00000000000E+00 0.  1.
         21    1    1    2  506  501  0.94712984111E+02  0.78079025782E+02  0.66715353877E+03  0.67835147816E+03  0.00000000000E+00 0.  1.
<scales pt_clust_3="39.98431" pt_clust_4="57.58061" pt_clust_5="57.58061" pt_clust_6="121.30436"></scales>
<clustering>
<clus scale="   39.984">  2  3  1 -1</clus>
<clus scale="   57.581">  4  5 -1 -1</clus>
<clus scale="  121.304">  1  6  2 -1</clus>
<clus scale="  121.304">  1  3  2 -1</clus>
</clustering>
</event>
<event>
 6    0  0.4582113E+002  0.7891541E+02  0.7546771E-02  0.1332158E+00
         21   -1    0    0  506  501  0.00000000000E+00  0.00000000000E+00  0.69840013895E+02  0.69840013895E+02  0.00000000000E+00 0. -1.
         21   -1    0    0  505  502 -0.00000000000E+00 -0.00000000000E+00 -0.50582381320E+03  0.50582381320E+03  0.00000000000E+00 0. -1.
         21    1    1    2  503  501  0.28135801985E+02  0.47348826304E+02 -0.43879899243E+00  0.55079281498E+02  0.00000000000E+00 0. -1.
         21    1    1    2  504  503 -0.33625565834E+02  0.45399278863E+02 -0.25998354314E+02  0.62190735853E+02  0.00000000000E+00 0. -1.
         21    1    1    2  505  504  0.80244632863E+02 -0.49208713986E+02 -0.10150040259E+03  0.13843059763E+03  0.00000000000E+00 0. -1.
         21    1    1    2  506  502 -0.74754869015E+02 -0.43539391181E+02 -0.30804624341E+03  0.31996321211E+03  0.00000000000E+00 0. -1.
<scales pt_clust_3="55.07753" pt_clust_4="69.03379" pt_clust_5="14000.00000" pt_clust_6="78.91541"></scales>
<clustering>
<clus scale="   55.078">  1  3  2 -1</clus>
<clus scale="   69.034">  1  4  2 -1</clus>
<clus scale="   78.915">  2  6  1 -1</clus>
<clus scale="   55.078">  1  3  2 -1</clus>
</clustering>
</event>
<event>
 6    0  0.4582113E+002  0.9738178E+02  0.7546771E-02  0.1285900E+00
         21   -1    0    0  505  501  0.00000000000E+00  0.00000000000E+00  0.94020347435E+03  0.94020347435E+03  0.00000000000E+00 0.  1.
         21   -1    0    0  504  502 -0.00000000000E+00 -0.00000000000E+00 -0.29603717751E+03  0.29603717751E+03  0.00000000000E+00 0. -1.
         21    1    1    2  503  502 -0.56516728345E+02 -0.11152179418E+03 -0.25982982219E+03  0.28834491093E+03  0.00000000000E+00 0. -1.
         21    1    1    2  504  506 -0.59125379282E+00  0.31621464701E+02 -0.33259526804E+01  0.31801392613E+02  0.00000000000E+00 0. -1.
         21    1    1    2  505  503  0.18342639607E+02  0.37964017723E+02  0.12976608505E+03  0.13644396615E+03  0.00000000000E+00 0.  1.
         21    1    1    2  506  501  0.38765342530E+02  0.41936311760E+02  0.77755598666E+03  0.77965038216E+03  0.00000000000E+00 0.  1.
<scales pt_clust_3="97.38178" pt_clust_4="31.62699" pt_clust_5="42.50165" pt_clust_6="14000.00000"></scales>
<clustering>
<clus scale="   31.627">  2  4  1 -1</clus>
<clus scale="   42.502">  1  5  2 -1</clus>
<clus scale="   97.382">  2  3  1 -1</clus>
<clus scale="   42.502">  1  3  2 -1</clus>
</clustering>
</event>
<event>
 6    0  0.4582113E+002  0.1999022E+03  0.7546771E-02  0.1149822E+00
         21   -1    0    0  506  501  0.00000000000E+00  0.00000000000E+00  0.52863148287E+03  0.52863148287E+03  0.00000000000E+00 0. -1.
         21   -1    0    0  503  502 -0.00000000000E+00 -0.00000000000E+00 -0.13730614455E+04  0.13730614455E+04  0.00000000000E+00 0.  1.
         21    1    1    2  503  504  0.69995169657E+02 -0.19854347899E+03 -0.10851887363E+04  0.11054200244E+04  0.00000000000E+00 0.  1.
         21    1    1    2  504  501  0.84276060918E+01  0.17900607776E+03 -0.24260998154E+03  0.30161863929E+03  0.00000000000E+00 0.  1.
         21    1    1    2  505  502 -0.52776364189E+02 -0.63176324745E+01  0.14690219538E+03  0.15622263634E+03  0.00000000000E+00 0.  1.
         21    1    1    2  506  505 -0.25646411560E+02  0.25855033701E+02  0.33646655986E+03  0.33843162839E+03  0.00000000000E+00 0. -1.
<scales pt_clust_3="14000.00000" pt_clust_4="199.90220" pt_clust_5="74.47025" pt_clust_6="36.41732"></scales>
<clustering>
<clus scale="   36.417">  1  6  2 -1</clus>
<clus scale="   74.470">  1  5  2 -1</clus>
<clus scale="  199.902">  1  4  2 -1</clus>
<clus scale="   36.417">  1  3  2 -1</clus>
</clustering>
</event>
<event>
 6    0  0.4582113E+002  0.1444394E+03  0.7546771E-02  0.1207477E+00
         21   -1    0    0  505  501  0.00000000000E+00  0.00000000000E+00  0.30737167850E+03  0.30737167850E+03  0.00000000000E+00 0. -1.
         21   -1    0    0  504  502 -0.00000000000E+00 -0.00000000000E+00 -0.73773022827E+03  0.73773022827E+03  0.00000000000E+00 0. -1.
         21    1    1    2  503  501  0.91641918817E+02 -0.18395830989E+03 -0.26151614227E+03  0.33261027303E+03  0.00000000000E+00 0. -1.
         21    1    1    2  504  503  0.14111997956E+02  0.84891895169E+02 -0.41034218377E+03  0.41926899495E+03  0.00000000000E+00 0. -1.
         21    1    1    2  505  506 -0.38902603089E+02  0.19319816156E+02  0.18642589673E+02  0.47267472675E+02  0.00000000000E+00 0. -1.
         21    1    1    2  506  502 -0.66851313684E+02  0.79746598561E+02  0.22285718659E+03  0.24595516611E+03  0.00000000000E+00 0. -1.
<scales pt_clust_3="14000.00000" pt_clust_4="86.26572" pt_clust_5="43.43579" pt_clust_6="144.43943"></scales>
<clustering>
<clus scale="   43.436">  1  5  2 -1</clus>
<clus scale="   86.266">  2  4  1 -1</clus>
<clus scale="  144.439">  1  6  2 -1</clus>
<clus scale="   43.436">  1  3  2 -1</clus>
</clustering>
</event>
<event>
 6    0  0.4582113E+002  0.9778474E+02  0.7546771E-02  0.1285025E+00
         21   -1    0    0  503  501  0.00000000000E+00  0.00000000000E+00  0.15330244862E+03  0.15330244862E+03  0.00000000000E+00 0.  1.
         21   -1    0    0  504  502 -0.00000000000E+00 -0.00000000000E+00 -0.22956624892E+03  0.22956624892E+03  0.00000000000E+00 0.  1.
         21    1    1    2  503  505  0.84648775225E+02  0.42070266051E+02  0.10853248623E+02  0.95147860923E+02  0.00000000000E+00 0.  1.
         21    1    1    2  504  506 -0.49992056959E+02 -0.91994330380E+02 -0.28008957316E+02  0.10838202928E+03  0.00000000000E+00 0.  1.
         21    1    1    2  505  502 -0.62072995767E+02  0.90737373171E+02 -0.68150086641E+02  0.12934744683E+03  0.00000000000E+00 0.  1.
         21    1    1    2  506  501  0.27416277501E+02 -0.40813308841E+02  0.90419950273E+01  0.49991360501E+02  0.00000000000E+00 0.  1.
<scales pt_clust_3="14000.00000" pt_clust_4="93.52580" pt_clust_5="97.78474" pt_clust_6="49.16684"></scales>
<clustering>
<clus scale="   49.167">  1  6  2 -1</clus>
<clus scale="   97.785">  2  5  1 -1</clus>
<clus scale="   93.526">  2  4  1 -1</clus>
<clus scale="   49.167">  1  3  2 -1</clus>
</clustering>
</event>
<event>
 6    0  0.4582113E+002  0.1401463E+03  0.7546771E-02  0.1213132E+00
         21   -1    0    0  504  501  0.00000000000E+00  0.00000000000E+00  0.29880796585E+03  0.29880796585E+03  0.00000000000E+00 0. -1.
         21   -1    0    0  505  502 -0.00000000000E+00 -0.00000000000E+00 -0.75208599710E+03  0.75208599710E+03  0.00000000000E+00 0. -1.
         21    1    1    2  503  502  0.12136372804E+03 -0.19137417140E+02  0.28992623197E+02  0.12623774165E+03  0.00000000000E+00 0. -1.
         21    1    1    2  504  503 -0.16129843614E+03  0.40261541011E+02  0.15641243833E+03  0.22826087718E+03  0.00000000000E+00 0. -1.
         21    1    1    2  505  506  0.61774562700E+00 -0.74057041685E+02 -0.62459437459E+03  0.62896976064E+03  0.00000000000E+00 0. -1.
         21    1    1    2  506  501  0.39316962479E+02  0.52932917814E+02 -0.14088718191E+02  0.67425583477E+02  0.00000000000E+00 0. -1.
<scales pt_clust_3="140.14634" pt_clust_4="14000.00000" pt_clust_5="73.63744" pt_clust_6="65.93722"></scales>
<clustering>
<clus scale="   65.937">  1  6  2 -1</clus>
<clus scale="   73.637">  2  5  1 -1</clus>
<clus scale="  140.146">  2  3  1 -1</clus>
<clus scale="   65.937">  1  3  2 -1</clus>
</clustering>
</event>
<event>
 6    0  0.4582113E+002  0.1291499E+03  0.7546771E-02  0.1228723E+00
         21   -1    0    0  505  501  0.00000000000E+00  0.00000000000E+00  0.45584546108E+03  0.45584546108E+03  0.00000000000E+00 0.  1.
         21   -1    0    0  504  502 -0.00000000000E+00 -0.00000000000E+00 -0.92629830539E+02  0.92629830539E+02  0.00000000000E+00 0. -1.
         21    1    1    2  503  502 -0.21922222630E+02 -0.38675290943E+02  0.30583526796E+02  0.53960301017E+02  0.00000000000E+00 0. -1.
         21    1    1    2  504  506 -0.49007999462E+02  0.25877267979E+02 -0.39404543868E+02  0.68000993278E+02  0.00000000000E+00 0. -1.
         21    1    1    2  505  503 -0.62399372885E+02 -0.15561672368E+02  0.69516663675E+02  0.94701710185E+02  0.00000000000E+00 0. -1.
         21    1    1    2  506  501  0.13332959498E+03  0.28359695332E+02  0.30251998394E+03  0.33181228714E+03  0.00000000000E+00 0.  1.
<scales pt_clust_3="37.44726" pt_clust_4="55.42037" pt_clust_5="37.44726" pt_clust_6="121.04186"></scales>
<clustering>
<clus scale="   37.447">  3  5 -1 -1</clus>
<clus scale="   55.420">  2  4  1 -1</clus>
<clus scale="  121.042">  1  6  2 -1</clus>
<clus scale="  121.042">  1  3  2 -1</clus>
</clustering>
</event>
<event>
 6    0  0.4582113E+002  0.1137239E+03  0.7546771E-02  0.1253825E+00
         21   -1    0    0  504  501  0.00000000000E+00  0.00000000000E+00  0.13112530202E+04  0.13112530202E+04  0.00000000000E+00 0. -1.
         21   -1    0    0  505  502 -0.00000000000E+00 -0.00000000000E+00 -0.79320045872E+02  0.79320045872E+02  0.00000000000E+00 0.  1.
         21    1    1    2  503  502 -0.35074958496E+02 -0.27222195747E+02 -0.38329758724E+02  0.58655528798E+02  0.00000000000E+00 0.  1.
         21    1    1    2  504  506 -0.53759099563E+02  0.35136201008E+02  0.88931939164E+03  0.89163533675E+03  0.00000000000E+00 0. -1.
         21    1    1    2  505  501  0.11318475037E+03 -0.42082336965E+02  0.10161580506E+03  0.15782104625E+03  0.00000000000E+00 0.  1.
         21    1    1    2  506  503 -0.24350692311E+02  0.34168331704E+02  0.27932753632E+03  0.28246115424E+03  0.00000000000E+00 0. -1.
<scales pt_clust_3="44.39933" pt_clust_4="34.88409" pt_clust_5="105.21627" pt_clust_6="34.88409"></scales>
<clustering>
<clus scale="   34.884">  4  6 -1 -1</clus>
<clus scale="   44.399">  2  3  1 -1</clus>
<clus scale="  105.216">  2  5  1 -1</clus>
<clus scale="  113.724">  1  3  2 -1</clus>
</clustering>
</event>
<event>
 6    0  0.4582113E+002  0.1001970E+03  0.7546771E-02  0.1279882E+00
         21   -1    0    0  504  501  0.00000000000E+00  0.00000000000E+00  0.33704521324E+03  0.33704521324E+03  0.00000000000E+00 0.  1.
         21   -1    0    0  505  502 -0.00000000000E+00 -0.00000000000E+00 -0.11836985826E+03  0.11836985826E+03  0.00000000000E+00 0.  1.
         21    1    1    2  503  506  0.81511454710E+01  0.55644786055E+02  0.28692063109E+02  0.63134918017E+02  0.00000000000E+00 0.  1.
         21    1    1    2  504  502 -0.90542878086E+02 -0.39635642652E+02 -0.57977815952E+02  0.11458806257E+03  0.00000000000E+00 0.  1.
         21    1    1    2  505  503  0.32785774644E+02  0.17068400218E+02  0.19926423125E+02  0.41991661596E+02  0.00000000000E+00 0. -1.
         21    1    1    2  506  501  0.49605957971E+02 -0.33077543621E+02  0.22803468469E+03  0.23570042932E+03  0.00000000000E+00 0.  1.
<scales pt_clust_3="33.66927" pt_clust_4="91.18468" pt_clust_5="33.66927" pt_clust_6="59.62277"></scales>
<clustering>
<clus scale="   33.669">  3  5 -1 -1</clus>
<clus scale="   59.623">  1  6  2 -1</clus>
<clus scale="   91.185">  2  4  1 -1</clus>
<clus scale="   59.623">  1  3  2 -1</clus>
</clustering>
</event>
<event>
 6    0  0.4582113E+002  0.9672961E+02  0.7546771E-02  0.1287327E+00
         21   -1    0    0  502  501  0.00000000000E+00  0.00000000000E+00  0.11451077744E+04  0.11451077744E+04  0.00000000000E+00 0. -1.
         21   -1    0    0  503  502 -0.00000000000E+00 -0.00000000000E+00 -0.62404058350E+03  0.62404058350E+03  0.00000000000E+00 0. -1.
         21    1    1    2  503  506  0.39996174612E+02  0.86121306876E+02 -0.55503046872E+03  0.56309448114E+03  0.00000000000E+00 0. -1.
         21    1    1    2  504  505  0.66736413760E+02 -0.24983647108E+02  0.23431534177E+03  0.24491143488E+03  0.00000000000E+00 0. -1.
         21    1    1    2  505  501 -0.32630693713E+02  0.46001002491E+02  0.82825595736E+03  0.83017394882E+03  0.00000000000E+00 0. -1.
         21    1    1    2  506  504 -0.74101894659E+02 -0.10713866226E+03  0.13526360480E+02  0.13096849305E+03  0.00000000000E+00 0. -1.
<scales pt_clust_3="96.72961" pt_clust_4="43.13870" pt_clust_5="56.39906" pt_clust_6="14000.00000"></scales>
<clustering>
<clus scale="   56.399">  1  5  2 -1</clus>
<clus scale="   43.139">  1  4  2 -1</clus>
<clus scale="   96.730">  2  3  1 -1</clus>
<clus scale="   56.399">  1  3  2 -1</clus>
</clustering>
</event>
<event>
 6    0  0.4582113E+002  0.9432757E+02  0.7546771E-02  0.1292698E+00
         21   -1    0    0  506  501  0.00000000000E+00  0.00000000000E+00  0.53190147614E+03  0.53190147614E+03  0.00000000000E+00 0. -1.
         21   -1    0    0  505  502 -0.00000000000E+00 -0.00000000000E+00 -0.12072465722E+03  0.12072465722E+03  0.00000000000E+00 0. -1.
         21    1    1    2  503  501  0.32294560765E+02 -0.40285793339E+02  0.22810194304E+03  0.23387257260E+03  0.00000000000E+00 0. -1.
         21    1    1    2  504  502  0.98206753477E+02  0.36888852946E+02  0.16201301343E+03  0.19301184011E+03  0.00000000000E+00 0. -1.
         21    1    1    2  505  503 -0.55859723857E+02  0.42128147786E+02 -0.71945059063E+02  0.10035527444E+03  0.00000000000E+00 0. -1.
         21    1    1    2  506  504 -0.74641590385E+02 -0.38731207393E+02  0.93006921512E+02  0.12538644620E+03  0.00000000000E+00 0. -1.
<scales pt_clust_3="51.63220" pt_clust_4="94.32757" pt_clust_5="67.60531" pt_clust_6="14000.00000"></scales>
<clustering>
<clus scale="   51.632">  1  3  2 -1</clus>
<clus scale="   67.605">  2  5  1 -1</clus>
<clus scale="   94.328">  2  4  1 -1</clus>
<clus scale="   51.632">  1  3  2 -1</clus>
</clustering>
</event>
<event>
 6    0  0.4582113E+002  0.8720976E+02  0.7546771E-02  0.1309753E+00
         21   -1    0    0  503  501  0.00000000000E+00  0.00000000000E+00  0.10696950761E+04  0.10696950761E+04  0.00000000000E+00 0.  1.
         21   -1    0    0  506  502 -0.00000000000E+00 -0.00000000000E+00 -0.84901339211E+02  0.84901339211E+02  0.00000000000E+00 0.  1.
         21    1    1    2  503  502  0.41040742069E+02 -0.65763886027E+02  0.58886639740E+02  0.97349204182E+02  0.00000000000E+00 0.  1.
         21    1    1    2  504  505  0.34125554056E+02  0.57644325934E+02  0.12421319651E+03  0.14112526330E+03  0.00000000000E+00 0.  1.
         21    1    1    2  505  501 -0.70797541992E+02  0.53828665361E+02  0.84697596967E+03  0.85163261467E+03  0.00000000000E+00 0.  1.
         21    1    1    2  506  504 -0.43687541333E+01 -0.45709105268E+02 -0.45282069031E+02  0.64489333171E+02  0.00000000000E+00 0.  1.
<scales pt_clust_3="14000.00000" pt_clust_4="55.55323" pt_clust_5="87.20976" pt_clust_6="45.91741"></scales>
<clustering>
<clus scale="   45.917">  2  6  1 -1</clus>
<clus scale="   55.553">  2  4  1 -1</clus>
<clus scale="   87.210">  1  5  2 -1</clus>
<clus scale="   87.210">  1  3  2 -1</clus>
</clustering>
</event>
<event>
 6    0  0.4582113E+002  0.1616268E+03  0.7546771E-02  0.1186872E+00
         21   -1    0    0  505  501  0.00000000000E+00  0.00000000000E+00  0.46579884144E+03  0.46579884144E+03  0.00000000000E+00 0. -1.
         21   -1    0    0  504  502 -0.00000000000E+00 -0.00000000000E+00 -0.53071067280E+03  0.53071067280E+03  0.00000000000E+00 0. -1.
         21    1    1    2  503  506 -0.35556702255E+02  0.80128852758E+02  0.19880201028E+03  0.21727206772E+03  0.00000000000E+00 0. -1.
         21    1    1    2  504  503  0.34482265344E+02 -0.17861007015E+03 -0.43530012863E+03  0.47178044233E+03  0.00000000000E+00 0. -1.
         21    1    1    2  505  502  0.57576568322E+02  0.52710027955E+02 -0.37126865403E+02  0.86439646005E+02  0.00000000000E+00 0.  1.
         21    1    1    2  506  501 -0.56502131412E+02  0.45771189436E+02  0.20871315239E+03  0.22101735818E+03  0.00000000000E+00 0. -1.
<scales pt_clust_3="37.58862" pt_clust_4="156.26859" pt_clust_5="78.06029" pt_clust_6="37.58862"></scales>
<clustering>
<clus scale="   37.589">  3  6 -1 -1</clus>
<clus scale="   78.060">  2  5  1 -1</clus>
<clus scale="  156.269">  2  4  1 -1</clus>
<clus scale="  161.627">  1  3  2 -1</clus>
</clustering>
</event>
<event>
 6    0  0.4582113E+002  0.1469447E+03  0.7546771E-02  0.1204278E+00
         21   -1    0    0  504  501  0.00000000000E+00  0.00000000000E+00  0.12885919060E+04  0.12885919060E+04  0.00000000000E+00 0. -1.
         21   -1    0    0  503  502 -0.00000000000E+00 -0.00000000000E+00 -0.17734929113E+04  0.17734929113E+04  0.00000000000E+00 0. -1.
         21    1    1    2  503  501 -0.38159810725E+02 -0.99937160263E+01  0.58099315746E+02  0.70225180702E+02  0.00000000000E+00 0. -1.
         21    1    1    2  504  506 -0.83771921663E+02  0.10773800226E+03  0.11911983880E+04  0.11989907471E+04  0.00000000000E+00 0. -1.
         21    1    1    2  505  502  0.32381896834E+02 -0.71029497897E+02 -0.16858431729E+04  0.16876495432E+04  0.00000000000E+00 0. -1.
         21    1    1    2  506  505  0.89549835553E+02 -0.26714788339E+02 -0.48355536097E+02  0.10521934630E+03  0.00000000000E+00 0. -1.
<scales pt_clust_3="39.44674" pt_clust_4="14000.00000" pt_clust_5="78.05768" pt_clust_6="146.94466"></scales>
<clustering>
<clus scale="   39.447">  1  3  2 -1</clus>
<clus scale="   78.058">  2  5  1 -1</clus>
<clus scale="  146.945">  2  6  1 -1</clus>
<clus scale="   39.447">  1  3  2 -1</clus>
</clustering>
</event>
<event>
 6    0  0.4582113E+002  0.1592213E+03  0.7546771E-02  0.1189579E+00
         21   -1    0    0  506  501  0.00000000000E+00  0.00000000000E+00  0.35205978548E+03  0.35205978548E+03  0.00000000000E+00 0. -1.
         21   -1    0    0  505  502 -0.00000000000E+00 -0.00000000000E+00 -0.11453175527E+04  0.11453175527E+04  0.00000000000E+00 0.  1.
         21    1    1    2  503  504 -0.69345933966E+02  0.34716714758E+02 -0.49448693422E+03  0.50053115483E+03  0.00000000000E+00 0.  1.
         21    1    1    2  504  502 -0.96097016995E+01  0.81161285937E+02 -0.62467994979E+03  0.63000360346E+03  0.00000000000E+00 0.  1.
         21    1    1    2  505  501 -0.35526321340E+01 -0.51751493999E+02  0.51010715385E+02  0.72752535422E+02  0.00000000000E+00 0. -1.
         21    1    1    2  506  503  0.82508267799E+02 -0.64126506695E+02  0.27489840144E+03  0.29409004443E+03  0.00000000000E+00 0. -1.
<scales pt_clust_3="75.01765" pt_clust_4="75.01765" pt_clust_5="51.87329" pt_clust_6="139.42308"></scales>
<clustering>
<clus scale="   51.873">  1  5  2 -1</clus>
<clus scale="   75.018">  3  4 -1 -1</clus>
<clus scale="  139.423">  1  6  2 -1</clus>
<clus scale="   51.873">  1  3  2 -1</clus>
</clustering>
</event>
<event>
 6    0  0.4582113E+002  0.2076557E+03  0.7546771E-02  0.1143436E+00
         21   -1    0    0  506  501  0.00000000000E+00  0.00000000000E+00  0.11465530985E+04  0.11465530985E+04  0.00000000000E+00 0. -1.
         21   -1    0    0  504  502 -0.00000000000E+00 -0.00000000000E+00 -0.36248908701E+03  0.36248908701E+03  0.00000000000E+00 0.  1.
         21    1    1    2  503  501  0.17333582536E+03  0.93874329856E+02  0.10866448426E+04  0.11043797862E+04  0.00000000000E+00 0. -1.
         21    1    1    2  504  505 -0.47875866394E+02 -0.42608301316E+02 -0.76759240983E+02  0.99997734975E+02  0.00000000000E+00 0.  1.
         21    1    1    2  505  503 -0.10937262936E+03 -0.23380961578E+02 -0.44279240420E+02  0.12029003513E+03  0.00000000000E+00 0.  1.
         21    1    1    2  506  502 -0.16087329605E+02 -0.27885066963E+02 -0.18154234975E+03  0.18437462919E+03  0.00000000000E+00 0.  1.
<scales pt_clust_3="195.77072" pt_clust_4="55.77259" pt_clust_5="55.77259" pt_clust_6="32.19284"></scales>
<clustering>
<clus scale="   32.193">  2  6  1 -1</clus>
<clus scale="   55.773">  4  5 -1 -1</clus>
<clus scale="  195.771">  1  3  2 -1</clus>
<clus scale="  195.771">  1  3  2 -1</clus>
</clustering>
</event>
<event>
 6    0  0.4582113E+002  0.1035460E+03  0.7546771E-02  0.1273011E+00
         21   -1    0    0  506  501  0.00000000000E+00  0.00000000000E+00  0.49857236652E+03  0.49857236652E+03  0.00000000000E+00 0. -1.
         21   -1    0    0  504  502 -0.00000000000E+00 -0.00000000000E+00 -0.71848359530E+02  0.71848359530E+02  0.00000000000E+00 0. -1.
         21    1    1    2  503  502 -0.75241636957E+01  0.30254750365E+02 -0.63829044005E+01  0.31823017260E+02  0.00000000000E+00 0. -1.
         21    1    1    2  504  505 -0.80430415529E+02 -0.77065493883E+02  0.40184162430E+02  0.11841836428E+03  0.00000000000E+00 0. -1.
         21    1    1    2  505  501  0.11217722957E+03  0.22438270257E+02  0.29523134320E+03  0.31662083446E+03  0.00000000000E+00 0. -1.
         21    1    1    2  506  503 -0.24222650350E+02  0.24372473261E+02  0.97691405754E+02  0.10355851004E+03  0.00000000000E+00 0. -1.
<scales pt_clust_3="31.17632" pt_clust_4="14000.00000" pt_clust_5="103.54601" pt_clust_6="35.86163"></scales>
<clustering>
<clus scale="   31.176">  2  3  1 -1</clus>
<clus scale="   35.862">  1  6  2 -1</clus>
<clus scale="  103.546">  1  5  2 -1</clus>
<clus scale="   35.862">  1  3  2 -1</clus>
</clustering>
</event>
<event>
 6    0  0.4582113E+002  0.1187187E+03  0.7546771E-02  0.1245226E+00
         21   -1    0    0  502  501  0.00000000000E+00  0.00000000000E+00  0.88690240779E+02  0.88690240779E+02  0.00000000000E+00 0. -1.
         21   -1    0    0  506  502 -0.00000000000E+00 -0.00000000000E+00 -0.33014689242E+03  0.33014689242E+03  0.00000000000E+00 0.  1.
         21    1    1    2  503  505 -0.11138391412E+03 -0.47714090953E+02 -0.31842917756E+02  0.12528759800E+03  0.00000000000E+00 0.  1.
         21    1    1    2  504  501  0.61727989265E+02  0.15159593609E+02 -0.96997753862E+01  0.64298083794E+02  0.00000000000E+00 0. -1.
         21    1    1    2  505  504  0.39606093523E+02 -0.19088428299E+02 -0.35144665727E+02  0.56286395054E+02  0.00000000000E+00 0. -1.
         21    1    1    2  506  503  0.10049831334E+02  0.51642925643E+02 -0.16476929277E+03  0.17296505635E+03  0.00000000000E+00 0.  1.
<scales pt_clust_3="108.85113" pt_clust_4="39.41136" pt_clust_5="39.41136" pt_clust_6="52.61170"></scales>
<clustering>
<clus scale="   39.411">  4  5 -1 -1</clus>
<clus scale="   52.612">  2  6  1 -1</clus>
<clus scale="  108.851">  2  3  1 -1</clus>
<clus scale="  118.719">  1  3  2 -1</clus>
</clustering>
</event>
<event>
 6    0  0.4582113E+002  0.7768816E+02  0.7546771E-02  0.1335743E+00
         21   -1    0    0  506  501  0.00000000000E+00  0.00000000000E+00  0.77649183672E+02  0.77649183672E+02  0.00000000000E+00 0.  1.
         21   -1    0    0  503  502 -0.00000000000E+00 -0.00000000000E+00 -0.59788463440E+03  0.59788463440E+03  0.00000000000E+00 0.  1.
         21    1    1    2  503  505 -0.41067553015E+02  0.87495194870E+02 -0.40479970738E+02  0.10478826779E+03  0.00000000000E+00 0.  1.
         21    1    1    2  504  502  0.69238676928E+02  0.10595402418E+02 -0.42600881617E+03  0.43172881348E+03  0.00000000000E+00 0.  1.
         21    1    1    2  505  501  0.26571707453E+02 -0.29081596931E+02 -0.23570033606E+02  0.45905788319E+02  0.00000000000E+00 0.  1.
         21    1    1    2  506  504 -0.54742831367E+02 -0.69009000357E+02 -0.30176630218E+02  0.93110948484E+02  0.00000000000E+00 0.  1.
<scales pt_clust_3="77.68816" pt_clust_4="70.99938" pt_clust_5="39.39283" pt_clust_6="14000.00000"></scales>
<clustering>
<clus scale="   39.393">  1  5  2 -1</clus>
<clus scale="   70.999">  2  4  1 -1</clus>
<clus scale="   77.688">  1  3  2 -1</clus>
<clus scale="   39.393">  1  3  2 -1</clus>
</clustering>
</event>
<event>
 6    0  0.4582113E+002  0.8137316E+02  0.7546771E-02  0.1325199E+00
         21   -1    0    0  505  501  0.00000000000E+00  0.00000000000E+00  0.19290663572E+03  0.19290663572E+03  0.00000000000E+00 0. -1.
         21   -1    0    0  506  502 -0.00000000000E+00 -0.00000000000E+00 -0.21464204206E+03  0.21464204206E+03  0.00000000000E+00 0. -1.
         21    1    1    2  503  502 -0.37913786278E+02 -0.67248698604E+02 -0.68242040924E+02  0.10303794837E+03  0.00000000000E+00 0. -1.
         21    1    1    2  504  501  0.23786539542E+02 -0.25387892971E+02  0.37233964132E+02  0.50957949899E+02  0.00000000000E+00 0.  1.
         21    1    1    2  505  503 -0.56371305207E+02  0.38376791792E+02  0.10351187469E+03  0.12395648592E+03  0.00000000000E+00 0. -1.
         21    1    1    2  506  504  0.70498551943E+02  0.54259799784E+02 -0.94239204242E+02  0.12959629360E+03  0.00000000000E+00 0. -1.
<scales pt_clust_3="81.37316" pt_clust_4="34.79001" pt_clust_5="42.64474" pt_clust_6="14000.00000"></scales>
<clustering>
<clus scale="   34.790">  1  4  2 -1</clus>
<clus scale="   42.645">  1  5  2 -1</clus>
<clus scale="   81.373">  2  3  1 -1</clus>
<clus scale="   34.790">  1  3  2 -1</clus>
</clustering>
</event>
<event>
 6    0  0.4582113E+002  0.1441419E+03  0.7546771E-02  0.1207862E+00
         21   -1    0    0  505  501  0.00000000000E+00  0.00000000000E+00  0.76336446213E+03  0.76336446213E+03  0.00000000000E+00 0.  1.
         21   -1    0    0  504  502 -0.00000000000E+00 -0.00000000000E+00 -0.80923416879E+02  0.80923416879E+02  0.00000000000E+00 0.  1.
         21    1    1    2  503  501  0.39021827123E+02 -0.56563200214E+00  0.19382308336E+03  0.19771294994E+03  0.00000000000E+00 0.  1.
         21    1    1    2  504  506  0.28985860998E+02 -0.63238329298E+02  0.41093083498E+02  0.80795469808E+02  0.00000000000E+00 0.  1.
         21    1    1    2  505  502 -0.12707433424E+03  0.16167461433E+03  0.17416735328E+03  0.26948253058E+03  0.00000000000E+00 0.  1.
         21    1    1    2  506  503  0.59066646116E+02 -0.97870653027E+02  0.27335752512E+03  0.29629692868E+03  0.00000000000E+00 0.  1.
<scales pt_clust_3="39.02593" pt_clust_4="71.46608" pt_clust_5="14000.00000" pt_clust_6="144.14189"></scales>
<clustering>
<clus scale="   39.026">  1  3  2 -1</clus>
<clus scale="   71.466">  2  4  1 -1</clus>
<clus scale="  144.142">  1  6  2 -1</clus>
<clus scale="   39.026">  1  3  2 -1</clus>
</clustering>
</event>
<event>
 6    0  0.4582113E+002  0.6837161E+02  0.7546771E-02  0.1365720E+00
         21   -1    0    0  504  501  0.00000000000E+00  0.00000000000E+00  0.37574234520E+03  0.37574234520E+03  0.00000000000E+00 0. -1.
         21   -1    0    0  503  502 -0.00000000000E+00 -0.00000000000E+00 -0.54901645039E+03  0.54901645039E+03  0.00000000000E+00 0.  1.
         21    1    1    2  503  501  0.74236908519E+02  0.75265806925E+01  0.28549184056E+03  0.29508195308E+03  0.00000000000E+00 0. -1.
         21    1    1    2  504  506  0.46616629078E+02  0.19735500620E+00  0.26368446608E+02  0.53557856866E+02  0.00000000000E+00 0. -1.
         21    1    1    2  505  502 -0.57396283145E+02 -0.37181088130E+02 -0.49995070701E+03  0.50460625845E+03  0.00000000000E+00 0.  1.
         21    1    1    2  506  505 -0.63457254452E+02  0.29457152431E+02  0.14816314640E+02  0.71512727199E+02  0.00000000000E+00 0. -1.
<scales pt_clust_3="14000.00000" pt_clust_4="46.61705" pt_clust_5="68.37161" pt_clust_6="64.58644"></scales>
<clustering>
<clus scale="   46.617">  1  4  2 -1</clus>
<clus scale="   64.586">  1  6  2 -1</clus>
<clus scale="   68.372">  2  5  1 -1</clus>
<clus scale="   46.617">  1  3  2 -1</clus>
</clustering>
</event>
<event>
 6    0  0.4582113E+002  0.9038649E+02  0.7546771E-02  0.1301918E+00
         21   -1    0    0  505  501  0.00000000000E+00  0.00000000000E+00  0.19681730410E+04  0.19681730410E+04  0.00000000000E+00 0. -1.
         21   -1    0    0  506  502 -0.00000000000E+00 -0.00000000000E+00 -0.40408861517E+03  0.40408861517E+03  0.00000000000E+00 0. -1.
         21    1    1    2  503  501  0.29781025869E+02 -0.14574312373E+02  0.33960170313E+03  0.34121640765E+03  0.00000000000E+00 0. -1.
         21    1    1    2  504  502  0.67664125889E+02  0.36881372865E+02 -0.18832246687E+03  0.20347978063E+03  0.00000000000E+00 0. -1.
         21    1    1    2  505  504  0.59935475894E+02  0.30689838286E+01  0.15888996288E+04  0.15900326130E+04  0.00000000000E+00 0. -1.
         21    1    1    2  506  503 -0.15738062765E+03 -0.25376044321E+02 -0.17609443928E+03  0.23753285485E+03  0.00000000000E+00 0. -1.
<scales pt_clust_3="33.15600" pt_clust_4="77.15214" pt_clust_5="14000.00000" pt_clust_6="90.38649"></scales>
<clustering>
<clus scale="   33.156">  1  3  2 -1</clus>
<clus scale="   77.152">  2  4  1 -1</clus>
<clus scale="   90.386">  2  6  1 -1</clus>
<clus scale="   33.156">  1  3  2 -1</clus>
</clustering>
</event>
<event>
 6    0  0.4582113E+002  0.1138017E+03  0.7546771E-02  0.1253687E+00
         21   -1    0    0  503  501  0.00000000000E+00  0.00000000000E+00  0.10503603907E+04  0.10503603907E+04  0.00000000000E+00 0. -1.
         21   -1    0    0  504  502 -0.00000000000E+00 -0.00000000000E+00 -0.35624982040E+03  0.35624982040E+03  0.00000000000E+00 0. -1.
         21    1    1    2  503  506 -0.10513774040E+03  0.42462810859E+02  0.92458648481E+02  0.14630665208E+03  0.00000000000E+00 0. -1.
         21    1    1    2  504  505  0.18818638497E+02 -0.32348997796E+02 -0.53488672446E+02  0.65281213939E+02  0.00000000000E+00 0. -1.
         21    1    1    2  505  501  0.27504302453E+02 -0.12506415217E+03  0.90487021097E+03  0.91388600357E+03  0.00000000000E+00 0. -1.
         21    1    1    2  506  502  0.58814799452E+02  0.11495033910E+03 -0.24972961668E+03  0.28113634155E+03  0.00000000000E+00 0. -1.
<scales pt_clust_3="110.72718" pt_clust_4="37.42457" pt_clust_5="113.80175" pt_clust_6="14000.00000"></scales>
<clustering>
<clus scale="   37.425">  2  4  1 -1</clus>
<clus scale="  110.727">  1  3  2 -1</clus>
<clus scale="  113.802">  1  5  2 -1</clus>
<clus scale="  110.727">  1  3  2 -1</clus>
</clustering>
</event>
<event>
 6    0  0.4582113E+002  0.9186801E+02  0.7546771E-02  0.1298390E+00
         21   -1    0    0  503  501  0.00000000000E+00  0.00000000000E+00  0.88170417675E+03  0.88170417675E+03  0.00000000000E+00 0.  1.
         21   -1    0    0  505  502 -0.00000000000E+00 -0.00000000000E+00 -0.22784541135E+03  0.22784541135E+03  0.00000000000E+00 0.  1.
         21    1    1    2  503  504 -0.24860022992E+02  0.27800121505E+02  0.69417802936E+02  0.78801642517E+02  0.00000000000E+00 0.  1.
         21    1    1    2  504  506  0.12197229775E+03 -0.25448973535E+02  0.95465596479E+02  0.15696678560E+03  0.00000000000E+00 0.  1.
         21    1    1    2  505  501 -0.64316361600E+02 -0.24140192241E+02  0.67760875231E+03  0.68108220096E+03  0.00000000000E+00 0.  1.
         21    1    1    2  506  502 -0.32795913155E+02  0.21789044271E+02 -0.18863338633E+03  0.19269895902E+03  0.00000000000E+00 0.  1.
<scales pt_clust_3="37.29434" pt_clust_4="91.86801" pt_clust_5="14000.00000" pt_clust_6="39.46514"></scales>
<clustering>
<clus scale="   37.294">  1  3  2 -1</clus>
<clus scale="   39.465">  2  6  1 -1</clus>
<clus scale="   91.868">  2  4  1 -1</clus>
<clus scale="   37.294">  1  3  2 -1</clus>
</clustering>
</event>
<event>
 6    0  0.4582113E+002  0.7140015E+02  0.7546771E-02  0.1355395E+00
         21   -1    0    0  503  501  0.00000000000E+00  0.00000000000E+00  0.23732004781E+03  0.23732004781E+03  0.00000000000E+00 0.  1.
         21   -1    0    0  506  502 -0.00000000000E+00 -0.00000000000E+00 -0.15357185888E+04  0.15357185888E+04  0.00000000000E+00 0. -1.
         21    1    1    2  503  504 -0.10606770343E+02 -0.69969248049E+02  0.21061167035E+03  0.22218342633E+03  0.00000000000E+00 0.  1.
         21    1    1    2  504  502  0.53663687836E+02 -0.78573731619E+02 -0.11279848127E+04  0.11319908836E+04  0.00000000000E+00 0. -1.
         21    1    1    2  505  501 -0.35419801515E+01  0.10773732981E+03 -0.30819030915E+03  0.32649830706E+03  0.00000000000E+00 0. -1.
         21    1    1    2  506  505 -0.39514937342E+02  0.40805649856E+02 -0.72835089406E+02  0.92366019629E+02  0.00000000000E+00 0. -1.
<scales pt_clust_3="71.40015" pt_clust_4="52.15576" pt_clust_5="14000.00000" pt_clust_6="56.80256"></scales>
<clustering>
<clus scale="   56.803">  2  6  1 -1</clus>
<clus scale="   52.156">  2  4  1 -1</clus>
<clus scale="   71.400">  1  3  2 -1</clus>
<clus scale="   71.400">  1  3  2 -1</clus>
</clustering>
</event>
<event>
 6    0  0.4582113E+002  0.1081699E+03  0.7546771E-02  0.1263997E+00
         21   -1    0    0  505  501  0.00000000000E+00  0.00000000000E+00  0.28409064545E+04  0.28409064545E+04  0.00000000000E+00 0.  1.
         21   -1    0    0  504  502 -0.00000000000E+00 -0.00000000000E+00 -0.21316921774E+02  0.21316921774E+02  0.00000000000E+00 0.  1.
         21    1    1    2  503  506  0.45606649123E+02 -0.16491174726E+01  0.69412665907E+03  0.69562526181E+03  0.00000000000E+00 0.  1.
         21    1    1    2  504  503 -0.13291252748E+03  0.30616773535E+01  0.24731633027E+03  0.28078547158E+03  0.00000000000E+00 0.  1.
         21    1    1    2  505  502  0.35097567027E+02  0.29444212339E+01  0.86437602715E+02  0.93337923647E+02  0.00000000000E+00 0.  1.
         21    1    1    2  506  501  0.52208311328E+02 -0.43569811148E+01  0.17917089406E+04  0.17924747192E+04  0.00000000000E+00 0.  1.
<scales pt_clust_3="38.35021" pt_clust_4="100.20817" pt_clust_5="35.22086" pt_clust_6="38.35021"></scales>
<clustering>
<clus scale="   35.221">  2  5  1 -1</clus>
<clus scale="   38.350">  3  6 -1 -1</clus>
<clus scale="  100.208">  2  4  1 -1</clus>
<clus scale="  108.170">  1  3  2 -1</clus>
</clustering>
</event>
<event>
 6    0  0.4582113E+002  0.1371298E+03  0.7546771E-02  0.1217244E+00
         21   -1    0    0  504  501  0.00000000000E+00  0.00000000000E+00  0.24131801193E+04  0.24131801193E+04  0.00000000000E+00 0.  1.
         21   -1    0    0  506  502 -0.00000000000E+00 -0.00000000000E+00 -0.14445769310E+03  0.14445769310E+03  0.00000000000E+00 0.  1.
         21    1    1    2  503  501 -0.15424605004E+03  0.12522746108E+03  0.94957007115E+03  0.97013250692E+03  0.00000000000E+00 0.  1.
         21    1    1    2  504  505  0.61270789393E+02 -0.76518323507E+01  0.10074951843E+04  0.10093855589E+04  0.00000000000E+00 0.  1.
         21    1    1    2  505  502  0.88717842362E+02 -0.38760101160E+02  0.42728743383E+03  0.43811842247E+03  0.00000000000E+00 0.  1.
         21    1    1    2  506  503  0.42574182839E+01 -0.78815527568E+02 -0.11563026310E+03  0.14000132407E+03  0.00000000000E+00 0.  1.
<scales pt_clust_3="137.12984" pt_clust_4="61.74674" pt_clust_5="14000.00000" pt_clust_6="79.02714"></scales>
<clustering>
<clus scale="   61.747">  1  4  2 -1</clus>
<clus scale="   79.027">  2  6  1 -1</clus>
<clus scale="  137.130">  1  3  2 -1</clus>
<clus scale="   61.747">  1  3  2 -1</clus>
</clustering>
</event>
<event>
 6    0  0.4582113E+002  0.1124430E+03  0.7546771E-02  0.1256112E+00
         21   -1    0    0  503  501  0.00000000000E+00  0.00000000000E+00  0.58540907758E+03  0.58540907758E+03  0.00000000000E+00 0.  1.
         21   -1    0    0  505  502 -0.00000000000E+00 -0.00000000000E+00 -0.43140571567E+02  0.43140571567E+02  0.00000000000E+00 0.  1.
         21    1    1    2  503  504 -0.44310388509E+02 -0.12403645131E+01  0.59326011515E+02  0.74057576764E+02  0.00000000000E+00 0.  1.
         21    1    1    2  504  502 -0.73300999499E+02 -0.66195041619E+02  0.12119358313E+03  0.15634162803E+03  0.00000000000E+00 0.  1.
         21    1    1    2  505  506  0.25158064739E+02  0.47751025979E+02  0.54553805419E+02  0.76741164893E+02  0.00000000000E+00 0.  1.
         21    1    1    2  506  501  0.92453323269E+02  0.19684380154E+02  0.30719510595E+03  0.32140927946E+03  0.00000000000E+00 0.  1.
<scales pt_clust_3="30.82065" pt_clust_4="30.82065" pt_clust_5="53.97304" pt_clust_6="102.60083"></scales>
<clustering>
<clus scale="   30.821">  3  4 -1 -1</clus>
<clus scale="   53.973">  2  5  1 -1</clus>
<clus scale="  102.601">  1  6  2 -1</clus>
<clus scale="  102.601">  1  3  2 -1</clus>
</clustering>
</event>
<event>
 6    0  0.4582113E+002  0.8780098E+02  0.7546771E-02  0.1308266E+00
         21   -1    0    0  506  501  0.00000000000E+00  0.00000000000E+00  0.61198416680E+03  0.61198416680E+03  0.00000000000E+00 0. -1.
         21   -1    0    0  503  502 -0.00000000000E+00 -0.00000000000E+00 -0.86993114881E+02  0.86993114881E+02  0.00000000000E+00 0. -1.
         21    1    1    2  503  505 -0.30234728936E+02  0.97646716674E+02  0.24163642151E+02  0.10503762047E+03  0.00000000000E+00 0. -1.
         21    1    1    2  504  502  0.49489646184E+02 -0.91559978185E+01 -0.22830592062E+02  0.55265661214E+02  0.00000000000E+00 0. -1.
         21    1    1    2  505  501 -0.41841618590E+02 -0.64602358531E+02  0.46590003458E+03  0.47221502305E+03  0.00000000000E+00 0. -1.
         21    1    1    2  506  504  0.22586701342E+02 -0.23888360325E+02  0.57757967253E+02  0.66458976954E+02  0.00000000000E+00 0. -1.
<scales pt_clust_3="87.80098" pt_clust_4="51.11589" pt_clust_5="14000.00000" pt_clust_6="32.87572"></scales>
<clustering>
<clus scale="   32.876">  1  6  2 -1</clus>
<clus scale="   51.116">  2  4  1 -1</clus>
<clus scale="   87.801">  2  3  1 -1</clus>
<clus scale="   32.876">  1  3  2 -1</clus>
</clustering>
</event>
<event>
 6    0  0.4582113E+002  0.3180486E+03  0.7546771E-02  0.1076551E+00
         21   -1    0    0  504  501  0.00000000000E+00  0.00000000000E+00  0.52167238886E+03  0.52167238886E+03  0.00000000000E+00 0.  1.
         21   -1    0    0  505  502 -0.00000000000E+00 -0.00000000000E+00 -0.76841265789E+03  0.76841265789E+03  0.00000000000E+00 0.  1.
         21    1    1    2  503  502  0.73986121609E+01  0.80820603208E+02 -0.23509159865E+03  0.24870619036E+03  0.00000000000E+00 0.  1.
         21    1    1    2  504  506 -0.74045221321E+02 -0.29566273572E+02  0.33259209438E+02  0.86388855449E+02  0.00000000000E+00 0. -1.
         21    1    1    2  505  501 -0.10169867030E+03 -0.21759268688E+03  0.39105915222E+03  0.45892968684E+03  0.00000000000E+00 0.  1.
         21    1    1    2  506  503  0.16834527946E+03  0.16633835725E+03 -0.43596703204E+03  0.49606031411E+03  0.00000000000E+00 0.  1.
<scales pt_clust_3="65.16792" pt_clust_4="79.72991" pt_clust_5="297.94449" pt_clust_6="65.16792"></scales>
<clustering>
<clus scale="   65.168">  3  6 -1 -1</clus>
<clus scale="   79.730">  1  4  2 -1</clus>
<clus scale="  297.944">  1  5  2 -1</clus>
<clus scale="   79.730">  1  3  2 -1</clus>
</clustering>
</event>
<event>
 6    0  0.4582113E+002  0.7880887E+02  0.7546771E-02  0.1332466E+00
         21   -1    0    0  504  501  0.00000000000E+00  0.00000000000E+00  0.14632717943E+04  0.14632717943E+04  0.00000000000E+00 0.  1.
         21   -1    0    0  503  502 -0.00000000000E+00 -0.00000000000E+00 -0.21233735328E+04  0.21233735328E+04  0.00000000000E+00 0.  1.
         21    1    1    2  503  506 -0.41378941984E+02  0.71389875611E+02 -0.19059764912E+04  0.19077618080E+04  0.00000000000E+00 0.  1.
         21    1    1    2  504  505  0.56428568204E+02 -0.20717058919E+01  0.13271496208E+04  0.13283503270E+04  0.00000000000E+00 0.  1.
         21    1    1    2  505  502 -0.66773747673E+02 -0.32534136591E+02  0.11909024321E+03  0.14035558218E+03  0.00000000000E+00 0.  1.
         21    1    1    2  506  501  0.51724121454E+02 -0.36784033128E+02 -0.20036511137E+03  0.21017760987E+03  0.00000000000E+00 0.  1.
<scales pt_clust_3="14000.00000" pt_clust_4="56.46659" pt_clust_5="36.80010" pt_clust_6="78.80887"></scales>
<clustering>
<clus scale="   56.467">  1  4  2 -1</clus>
<clus scale="   36.800">  1  5  2 -1</clus>
<clus scale="   78.809">  1  6  2 -1</clus>
<clus scale="   56.467">  1  3  2 -1</clus>
</clustering>
</event>
<event>
 6    0  0.4582113E+002  0.2832824E+03  0.7546771E-02  0.1093910E+00
         21   -1    0    0  506  501  0.00000000000E+00  0.00000000000E+00  0.16180938695E+04  0.16180938695E+04  0.00000000000E+00 0. -1.
         21   -1    0    0  503  502 -0.00000000000E+00 -0.00000000000E+00 -0.77608057353E+02  0.77608057353E+02  0.00000000000E+00 0. -1.
         21    1    1    2  503  504 -0.37076381801E+02  0.44111532990E+02  0.72376117082E+01  0.58076401864E+02  0.00000000000E+00 0.  1.
         21    1    1    2  504  505  0.55170404501E+02  0.21288718583E+02  0.11834467891E+03  0.13229681061E+03  0.00000000000E+00 0.  1.
         21    1    1    2  505  501  0.19484742545E+03  0.98886496783E+02  0.87863581824E+03  0.90539768033E+03  0.00000000000E+00 0. -1.
         21    1    1    2  506  502 -0.21294144815E+03 -0.16428674836E+03  0.53626770329E+03  0.59993103405E+03  0.00000000000E+00 0. -1.
<scales pt_clust_3="57.62365" pt_clust_4="39.92133" pt_clust_5="39.92133" pt_clust_6="272.69058"></scales>
<clustering>
<clus scale="   39.921">  4  5 -1 -1</clus>
<clus scale="   57.624">  2  3  1 -1</clus>
<clus scale="  272.691">  2  6  1 -1</clus>
<clus scale="  283.282">  1  3  2 -1</clus>
</clustering>
</event>
<event>
 6    0  0.4582113E+002  0.1051312E+03  0.7546771E-02  0.1269861E+00
         21   -1    0    0  505  501  0.00000000000E+00  0.00000000000E+00  0.56860218039E+03  0.56860218039E+03  0.00000000000E+00 0. -1.
         21   -1    0    0  506  502 -0.00000000000E+00 -0.00000000000E+00 -0.72089865248E+02  0.72089865248E+02  0.00000000000E+00 0. -1.
         21    1    1    2  503  502  0.69181198158E+02  0.40227316631E+02 -0.47544347227E+01  0.80167822918E+02  0.00000000000E+00 0. -1.
         21    1    1    2  504  503 -0.55726978890E+02 -0.56236583087E+01  0.18810760385E+03  0.19626918335E+03  0.00000000000E+00 0. -1.
         21    1    1    2  505  504 -0.39044945886E+02  0.32068750018E+02  0.28173895658E+03  0.28623373698E+03  0.00000000000E+00 0. -1.
         21    1    1    2  506  501  0.25590726619E+02 -0.66672408340E+02  0.31420189435E+02  0.78021302391E+02  0.00000000000E+00 0. -1.
<scales pt_clust_3="93.16836" pt_clust_4="46.25976" pt_clust_5="46.25976" pt_clust_6="71.41495"></scales>
<clustering>
<clus scale="   46.260">  4  5 -1 -1</clus>
<clus scale="   71.415">  2  6  1 -1</clus>
<clus scale="   93.168">  2  3  1 -1</clus>
<clus scale="  105.131">  1  3  2 -1</clus>
</clustering>
</event>
<event>
 6    0  0.4582113E+002  0.1084346E+03  0.7546771E-02  0.1263497E+00
         21   -1    0    0  505  501  0.00000000000E+00  0.00000000000E+00  0.10525591952E+04  0.10525591952E+04  0.00000000000E+00 0. -1.
         21   -1    0    0  503  502 -0.00000000000E+00 -0.00000000000E+00 -0.29051834250E+02  0.29051834250E+02  0.00000000000E+00 0. -1.
         21    1    1    2  503  501  0.18627293283E+02 -0.43162631703E+02  0.27555104280E+02  0.54491032312E+02  0.00000000000E+00 0. -1.
         21    1    1    2  504  506 -0.39870341715E+02 -0.31652802202E+02  0.29719309958E+03  0.30152161195E+03  0.00000000000E+00 0. -1.
         21    1    1    2  505  504 -0.55063740101E+02  0.13392288824E+02  0.50806898989E+03  0.51121958820E+03  0.00000000000E+00 0. -1.
         21    1    1    2  506  502  0.76306788533E+02  0.61423145081E+02  0.19069016716E+03  0.21437879694E+03  0.00000000000E+00 0. -1.
<scales pt_clust_3="47.01052" pt_clust_4="52.02308" pt_clust_5="52.02308" pt_clust_6="94.88289"></scales>
<clustering>
<clus scale="   47.011">  2  3  1 -1</clus>
<clus scale="   52.023">  4  5 -1 -1</clus>
<clus scale="   94.883">  2  6  1 -1</clus>
<clus scale="  108.435">  1  3  2 -1</clus>
</clustering>
</event>
<event>
 6    0  0.4582113E+002  0.9594495E+02  0.7546771E-02  0.1289062E+00
         21   -1    0    0  504  501  0.00000000000E+00  0.00000000000E+00  0.55897211811E+02  0.55897211811E+02  0.00000000000E+00 0. -1.
         21   -1    0    0  503  502 -0.00000000000E+00 -0.00000000000E+00 -0.13780323201E+04  0.13780323201E+04  0.00000000000E+00 0. -1.
         21    1    1    2  503  505  0.27363732406E+02 -0.28614957236E+02 -0.24283740589E+03  0.24604388903E+03  0.00000000000E+00 0. -1.
         21    1    1    2  504  506 -0.37518510093E+02  0.32052466679E+02 -0.56858501709E+02  0.75285379965E+02  0.00000000000E+00 0. -1.
         21    1    1    2  505  501 -0.47173529749E+02 -0.81243963518E+02 -0.87927951349E+01  0.94356964572E+02  0.00000000000E+00 0. -1.
         21    1    1    2  506  502  0.57328307436E+02  0.77806454075E+02 -0.10136464055E+04  0.10182432983E+04  0.00000000000E+00 0. -1.
<scales pt_clust_3="39.59280" pt_clust_4="47.05030" pt_clust_5="14000.00000" pt_clust_6="95.94495"></scales>
<clustering>
<clus scale="   39.593">  2  3  1 -1</clus>
<clus scale="   47.050">  1  4  2 -1</clus>
<clus scale="   95.945">  2  6  1 -1</clus>
<clus scale="   47.050">  1  3  2 -1</clus>
</clustering>
</event>
<event>
 6    0  0.4582113E+002  0.1311602E+03  0.7546771E-02  0.1225744E+00
         21   -1    0    0  502  501  0.00000000000E+00  0.00000000000E+00  0.11831544852E+03  0.11831544852E+03  0.00000000000E+00 0.  1.
         21   -1    0    0  506  502 -0.00000000000E+00 -0.00000000000E+00 -0.31520790293E+03  0.31520790293E+03  0.00000000000E+00 0. -1.
         21    1    1    2  503  504 -0.54835417037E+02 -0.26345414013E+02  0.20645500363E+01  0.60870897546E+02  0.00000000000E+00 0.  1.
         21    1    1    2  504  501 -0.33388179077E+02  0.36919289709E+02  0.92919711473E+01  0.50637389176E+02  0.00000000000E+00 0.  1.
         21    1    1    2  505  503 -0.37563097229E+02 -0.48766507521E+02  0.14616879193E+02  0.63267777633E+02  0.00000000000E+00 0. -1.
         21    1    1    2  506  505  0.12578669334E+03  0.38192631825E+02 -0.22286585479E+03  0.25874728710E+03  0.00000000000E+00 0. -1.
<scales pt_clust_3="30.68721" pt_clust_4="49.77755" pt_clust_5="30.68721" pt_clust_6="127.47610"></scales>
<clustering>
<clus scale="   30.687">  3  5 -1 -1</clus>
<clus scale="   49.778">  1  4  2 -1</clus>
<clus scale="  127.476">  2  6  1 -1</clus>
<clus scale="   49.778">  1  3  2 -1</clus>
</clustering>
</event>
<event>
 6    0  0.4582113E+002  0.1320063E+03  0.7546771E-02  0.1224509E+00
         21   -1    0    0  505  501  0.00000000000E+00  0.00000000000E+00  0.36117544330E+03  0.36117544330E+03  0.00000000000E+00 0.  1.
         21   -1    0    0  504  502 -0.00000000000E+00 -0.00000000000E+00 -0.19874605263E+03  0.19874605263E+03  0.00000000000E+00 0.  1.
         21    1    1    2  503  506  0.73899946298E+02  0.12537408322E+03  0.30277713807E+02  0.14864926088E+03  0.00000000000E+00 0.  1.
         21    1    1    2  504  501 -0.12331679659E+03 -0.88933066196E+02  0.11526703973E+03  0.19079468817E+03  0.00000000000E+00 0.  1.
         21    1    1    2  505  503  0.21239443720E+02  0.53079147909E+02  0.86458603290E+02  0.10365133861E+03  0.00000000000E+00 0.  1.
         21    1    1    2  506  502  0.28177406575E+02 -0.89520164936E+02 -0.69573966158E+02  0.11682620827E+03  0.00000000000E+00 0.  1.
<scales pt_clust_3="132.00627" pt_clust_4="14000.00000" pt_clust_5="57.17088" pt_clust_6="89.97861"></scales>
<clustering>
<clus scale="   57.171">  1  5  2 -1</clus>
<clus scale="   89.979">  2  6  1 -1</clus>
<clus scale="  132.006">  2  3  1 -1</clus>
<clus scale="   57.171">  1  3  2 -1</clus>
</clustering>
</event>
<event>
 6    0  0.4582113E+002  0.1310017E+03  0.7546771E-02  0.1225977E+00
         21   -1    0    0  505  501  0.00000000000E+00  0.00000000000E+00  0.11067276431E+04  0.11067276431E+04  0.00000000000E+00 0. -1.
         21   -1    0    0  504  502 -0.00000000000E+00 -0.00000000000E+00 -0.54069647840E+02  0.54069647840E+02  0.00000000000E+00 0. -1.
         21    1    1    2  503  502  0.55229415534E+02  0.31080084685E+02  0.78669000182E+01  0.63860379894E+02  0.00000000000E+00 0. -1.
         21    1    1    2  504  501  0.57944574187E+02 -0.84590550611E+02  0.10334424911E+03  0.14557873730E+03  0.00000000000E+00 0. -1.
         21    1    1    2  505  506 -0.89086108790E+02  0.23740039272E+02  0.78009693273E+03  0.78552603311E+03  0.00000000000E+00 0. -1.
         21    1    1    2  506  503 -0.24087880930E+02  0.29770426653E+02  0.16134991339E+03  0.16583214062E+03  0.00000000000E+00 0. -1.
<scales pt_clust_3="63.37397" pt_clust_4="118.62949" pt_clust_5="35.81707" pt_clust_6="35.81707"></scales>
<clustering>
<clus scale="   35.817">  5  6 -1 -1</clus>
<clus scale="   63.374">  2  3  1 -1</clus>
<clus scale="  118.629">  2  4  1 -1</clus>
<clus scale="  131.002">  1  3  2 -1</clus>
</clustering>
</event>
<event>
 6    0  0.4582113E+002  0.8438268E+02  0.7546771E-02  0.1317055E+00
         21   -1    0    0  503  501  0.00000000000E+00  0.00000000000E+00  0.15306666199E+04  0.15306666199E+04  0.00000000000E+00 0. -1.
         21   -1    0    0  504  502 -0.00000000000E+00 -0.00000000000E+00 -0.28847582956E+03  0.28847582956E+03  0.00000000000E+00 0. -1.
         21    1    1    2  503  502  0.95409938525E+02  0.66002378357E+02  0.12878465573E+04  0.12930615320E+04  0.00000000000E+00 0. -1.
         21    1    1    2  504  505 -0.48834868458E+02  0.12361167731E+02 -0.27028400387E+03  0.27493833053E+03  0.00000000000E+00 0. -1.
         21    1    1    2  505  506 -0.31862450564E+02 -0.52084303337E+02  0.66937059326E+02  0.90601105519E+02  0.00000000000E+00 0.  1.
         21    1    1    2  506  501 -0.14712619503E+02 -0.26279242751E+02  0.15769117751E+03  0.16054148136E+03  0.00000000000E+00 0. -1.
<scales pt_clust_3="84.38268" pt_clust_4="50.38831" pt_clust_5="14000.00000" pt_clust_6="30.11743"></scales>
<clustering>
<clus scale="   30.117">  1  6  2 -1</clus>
<clus scale="   50.388">  2  4  1 -1</clus>
<clus scale="   84.383">  1  3  2 -1</clus>
<clus scale="   30.117">  1  3  2 -1</clus>
</clustering>
</event>
<event>
 6    0  0.4582113E+002  0.1297305E+03  0.7546771E-02  0.1227856E+00
         21   -1    0    0  504  501  0.00000000000E+00  0.00000000000E+00  0.10057141326E+03  0.10057141326E+03  0.00000000000E+00 0. -1.
         21   -1    0    0  506  502 -0.00000000000E+00 -0.00000000000E+00 -0.52008547857E+03  0.52008547857E+03  0.00000000000E+00 0. -1.
         21    1    1    2  503  505 -0.10995006840E+03 -0.10820541014E+01 -0.20780397714E+03  0.23510142768E+03  0.00000000000E+00 0. -1.
         21    1    1    2  504  502  0.20008248429E+02  0.33649393858E+02  0.18677929853E+02  0.43375993081E+02  0.00000000000E+00 0. -1.
         21    1    1    2  505  501  0.12406954541E+03  0.12112953209E+02 -0.22310782043E+02  0.12664022555E+03  0.00000000000E+00 0. -1.
         21    1    1    2  506  503 -0.34127725430E+02 -0.44680292966E+02 -0.20807723599E+03  0.21553924552E+03  0.00000000000E+00 0. -1.
<scales pt_clust_3="129.73053" pt_clust_4="39.14859" pt_clust_5="14000.00000" pt_clust_6="54.13737"></scales>
<clustering>
<clus scale="   39.149">  1  4  2 -1</clus>
<clus scale="   54.137">  2  6  1 -1</clus>
<clus scale="  129.731">  2  3  1 -1</clus>
<clus scale="   39.149">  1  3  2 -1</clus>
</clustering>
</event>
<event>
 6    0  0.4582113E+002  0.8266173E+02  0.7546771E-02  0.1321663E+00
         21   -1    0    0  504  501  0.00000000000E+00  0.00000000000E+00  0.15155604795E+04  0.15155604795E+04  0.00000000000E+00 0.  1.
         21   -1    0    0  506  502 -0.00000000000E+00 -0.00000000000E+00 -0.11030455605E+03  0.11030455605E+03  0.00000000000E+00 0.  1.
         21    1    1    2  503  505  0.69388975540E+02 -0.24556558542E+01  0.43633690077E+03  0.44182660755E+03  0.00000000000E+00 0.  1.
         21    1    1    2  504  503 -0.94279351282E+02 -0.35118860850E+01  0.92330994344E+03  0.92811754702E+03  0.00000000000E+00 0.  1.
         21    1    1    2  505  502 -0.39750337672E+01  0.42517737685E+02 -0.96954722028E+02  0.10594232882E+03  0.00000000000E+00 0.  1.
         21    1    1    2  506  501  0.28865409509E+02 -0.36550195746E+02  0.14256380131E+03  0.14997855219E+03  0.00000000000E+00 0.  1.
<scales pt_clust_3="82.66173" pt_clust_4="14000.00000" pt_clust_5="42.70315" pt_clust_6="33.03813"></scales>
<clustering>
<clus scale="   42.703">  2  5  1 -1</clus>
<clus scale="   33.038">  2  6  1 -1</clus>
<clus scale="   82.662">  2  3  1 -1</clus>
<clus scale="   82.662">  1  3  2 -1</clus>
</clustering>
</event>
<event>
 6    0  0.4582113E+002  0.1910567E+03  0.7546771E-02  0.1157512E+00
         21   -1    0    0  505  501  0.00000000000E+00  0.00000000000E+00  0.26657139870E+03  0.26657139870E+03  0.00000000000E+00 0. -1.
         21   -1    0    0  504  502 -0.00000000000E+00 -0.00000000000E+00 -0.18280972351E+03  0.18280972351E+03  0.00000000000E+00 0. -1.
         21    1    1    2  503  502 -0.61819309837E+02  0.70226040670E+02  0.61177536881E+02  0.11178557544E+03  0.00000000000E+00 0. -1.
         21    1    1    2  504  501  0.48584437161E+02 -0.15243508206E+03 -0.96390693399E+02  0.18678347772E+03  0.00000000000E+00 0. -1.
         21    1    1    2  505  506  0.12117394827E+02  0.29986263233E+02  0.77949113718E+02  0.84392366772E+02  0.00000000000E+00 0. -1.
         21    1    1    2  506  503  0.11174778498E+01  0.52222778155E+02  0.41025717987E+02  0.66419702283E+02  0.00000000000E+00 0. -1.
<scales pt_clust_3="83.98385" pt_clust_4="159.99032" pt_clust_5="32.01883" pt_clust_6="83.98385"></scales>
<clustering>
<clus scale="   32.019">  5  6 -1 -1</clus>
<clus scale="   83.984">  3  5 -1 -1</clus>
<clus scale="  159.990">  2  4  1 -1</clus>
<clus scale="  191.057">  1  3  2 -1</clus>
</clustering>
</event>
<event>
 6    0  0.4582113E+002  0.9474124E+02  0.7546771E-02  0.1291760E+00
         21   -1    0    0  503  501  0.00000000000E+00  0.00000000000E+00  0.15636857271E+03  0.15636857271E+03  0.00000000000E+00 0.  1.
         21   -1    0    0  505  502 -0.00000000000E+00 -0.00000000000E+00 -0.71119126776E+03  0.71119126776E+03  0.00000000000E+00 0. -1.
         21    1    1    2  503  504  0.64174136481E+02  0.31832358891E+02  0.41034114880E+02  0.82555541605E+02  0.00000000000E+00 0.  1.
         21    1    1    2  504  502 -0.11778875550E+02 -0.67786620355E+02 -0.41810752510E+03  0.42373065779E+03  0.00000000000E+00 0. -1.
         21    1    1    2  505  506 -0.87692764229E+02  0.36107348541E+02 -0.25731222546E+03  0.27423227908E+03  0.00000000000E+00 0.  1.
         21    1    1    2  506  501  0.35297503297E+02 -0.15308707752E+00  0.79562940631E+02  0.87041361987E+02  0.00000000000E+00 0.  1.
<scales pt_clust_3="94.74124" pt_clust_4="68.58873" pt_clust_5="14000.00000" pt_clust_6="35.29784"></scales>
<clustering>
<clus scale="   35.298">  1  6  2 -1</clus>
<clus scale="   68.589">  2  4  1 -1</clus>
<clus scale="   94.741">  1  3  2 -1</clus>
<clus scale="   35.298">  1  3  2 -1</clus>
</clustering>
</event>
<event>
 6    0  0.4582113E+002  0.1150544E+03  0.7546771E-02  0.1251486E+00
         21   -1    0    0  506  501  0.00000000000E+00  0.00000000000E+00  0.60356631824E+02  0.60356631824E+02  0.00000000000E+00 0. -1.
         21   -1    0    0  503  502 -0.00000000000E+00 -0.00000000000E+00 -0.93618505382E+03  0.93618505382E+03  0.00000000000E+00 0. -1.
         21    1    1    2  503  501 -0.83318494378E+02  0.96213008226E+02 -0.67828705795E+02  0.14422082993E+03  0.00000000000E+00 0. -1.
         21    1    1    2  504  502  0.10948998511E+02 -0.47632077333E+02 -0.71867116509E+03  0.72033113142E+03  0.00000000000E+00 0. -1.
         21    1    1    2  505  504  0.41562498585E+02 -0.85458200710E+01 -0.21938163450E+02  0.47767722836E+02  0.00000000000E+00 0. -1.
         21    1    1    2  506  505  0.30806997281E+02 -0.40035110821E+02 -0.67390387664E+02  0.84222001458E+02  0.00000000000E+00 0. -1.
<scales pt_clust_3="106.73924" pt_clust_4="48.87428" pt_clust_5="39.35872" pt_clust_6="39.35872"></scales>
<clustering>
<clus scale="   39.359">  5  6 -1 -1</clus>
<clus scale="   48.874">  2  4  1 -1</clus>
<clus scale="  106.739">  2  3  1 -1</clus>
<clus scale="  115.054">  1  3  2 -1</clus>
</clustering>
</event>
<event>
 6    0  0.4582113E+002  0.1149249E+03  0.7546771E-02  0.1251712E+00
         21   -1    0    0  503  501  0.00000000000E+00  0.00000000000E+00  0.43826551239E+03  0.43826551239E+03  0.00000000000E+00 0.  1.
         21   -1    0    0  505  502 -0.00000000000E+00 -0.00000000000E+00 -0.23151031312E+03  0.23151031312E+03  0.00000000000E+00 0. -1.
         21    1    1    2  503  504 -0.39140647999E+02  0.16492736970E+02  0.11175867506E+02  0.43919252192E+02  0.00000000000E+00 0.  1.
         21    1    1    2  504  502 -0.28322643529E+02  0.10353756805E+02 -0.69422911399E+02  0.75689583455E+02  0.00000000000E+00 0. -1.
         21    1    1    2  505  506 -0.48302738407E+02 -0.52688071371E+02 -0.12419526734E+03  0.14329567974E+03  0.00000000000E+00 0. -1.
         21    1    1    2  506  501  0.11576602994E+03  0.25841577596E+02  0.38919751051E+03  0.40687131013E+03  0.00000000000E+00 0.  1.
<scales pt_clust_3="45.57609" pt_clust_4="30.15580" pt_clust_5="114.92486" pt_clust_6="14000.00000"></scales>
<clustering>
<clus scale="   30.156">  2  4  1 -1</clus>
<clus scale="   45.576">  2  3  1 -1</clus>
<clus scale="  114.925">  2  5  1 -1</clus>
<clus scale="  114.925">  1  3  2 -1</clus>
</clustering>
</event>
<event>
 6    0  0.4582113E+002  0.3558546E+03  0.7546771E-02  0.1060237E+00
         21   -1    0    0  505  501  0.00000000000E+00  0.00000000000E+00  0.27772921344E+04  0.27772921344E+04  0.00000000000E+00 0. -1.
         21   -1    0    0  504  502 -0.00000000000E+00 -0.00000000000E+00 -0.17957087798E+03  0.17957087798E+03  0.00000000000E+00 0. -1.
         21    1    1    2  503  502  0.10441038262E+03  0.31307295478E+03  0.85141178993E+03  0.91313648435E+03  0.00000000000E+00 0. -1.
         21    1    1    2  504  506 -0.14102775802E+03 -0.33403402186E+03  0.75457872010E+02  0.37035313788E+03  0.00000000000E+00 0. -1.
         21    1    1    2  505  503  0.31387814908E+02  0.51781402611E+02  0.11188920587E+04  0.11205293158E+04  0.00000000000E+00 0. -1.
         21    1    1    2  506  501  0.52295604964E+01 -0.30820335535E+02  0.55195953584E+03  0.55284407439E+03  0.00000000000E+00 0. -1.
<scales pt_clust_3="355.85461" pt_clust_4="14000.00000" pt_clust_5="49.72820" pt_clust_6="31.26086"></scales>
<clustering>
<clus scale="   31.261">  1  6  2 -1</clus>
<clus scale="   49.728">  1  5  2 -1</clus>
<clus scale="  355.855">  1  3  2 -1</clus>
<clus scale="   31.261">  1  3  2 -1</clus>
</clustering>
</event>
<event>
 6    0  0.4582113E+002  0.1970268E+03  0.7546771E-02  0.1152272E+00
         21   -1    0    0  506  501  0.00000000000E+00  0.00000000000E+00  0.96620815573E+02  0.96620815573E+02  0.00000000000E+00 0. -1.
         21   -1    0    0  501  502 -0.00000000000E+00 -0.00000000000E+00 -0.56654636194E+03  0.56654636194E+03  0.00000000000E+00 0. -1.
         21    1    1    2  503  502  0.67333020841E+02 -0.20617650808E+02 -0.13511536971E+03  0.15236464929E+03  0.00000000000E+00 0. -1.
         21    1    1    2  504  505 -0.15435776229E+03  0.76151333499E+02 -0.10973693132E+03  0.20412628069E+03  0.00000000000E+00 0. -1.
         21    1    1    2  505  503  0.10021702838E+03 -0.94818584169E+02 -0.22650117046E+03  0.26521085366E+03  0.00000000000E+00 0. -1.
         21    1    1    2  506  504 -0.13192286928E+02  0.39284901478E+02  0.14279251298E+01  0.41465393869E+02  0.00000000000E+00 0.  1.
<scales pt_clust_3="33.54216" pt_clust_4="191.35132" pt_clust_5="33.54216" pt_clust_6="41.44080"></scales>
<clustering>
<clus scale="   33.542">  3  5 -1 -1</clus>
<clus scale="   41.441">  1  6  2 -1</clus>
<clus scale="  191.351">  1  4  2 -1</clus>
<clus scale="   41.441">  1  3  2 -1</clus>
</clustering>
</event>
<event>
 6    0  0.4582113E+002  0.9161860E+02  0.7546771E-02  0.1298979E+00
         21   -1    0    0  503  501  0.00000000000E+00  0.00000000000E+00  0.34080930354E+03  0.34080930354E+03  0.00000000000E+00 0. -1.
         21   -1    0    0  504  502 -0.00000000000E+00 -0.00000000000E+00 -0.96203199852E+02  0.96203199852E+02  0.00000000000E+00 0. -1.
         21    1    1    2  503  506 -0.47009293538E+01 -0.34393687345E+02  0.68396475708E+02  0.76701384311E+02  0.00000000000E+00 0. -1.
         21    1    1    2  504  505  0.97056704513E+02 -0.78045608729E+01 -0.21888936596E+00  0.97370236591E+02  0.00000000000E+00 0. -1.
         21    1    1    2  505  501 -0.85623273740E+02  0.77336582903E+01  0.20197806939E+03  0.21951376948E+03  0.00000000000E+00 0. -1.
         21    1    1    2  506  502 -0.67325014188E+01  0.34464589927E+02 -0.25549552048E+02  0.43427113006E+02  0.00000000000E+00 0. -1.
<scales pt_clust_3="34.71346" pt_clust_4="91.61860" pt_clust_5="14000.00000" pt_clust_6="34.02331"></scales>
<clustering>
<clus scale="   34.713">  1  3  2 -1</clus>
<clus scale="   34.023">  2  6  1 -1</clus>
<clus scale="   91.619">  2  4  1 -1</clus>
<clus scale="   34.713">  1  3  2 -1</clus>
</clustering>
</event>
<event>
 6    0  0.4582113E+002  0.1154162E+03  0.7546771E-02  0.1250856E+00
         21   -1    0    0  505  501  0.00000000000E+00  0.00000000000E+00  0.13058214412E+04  0.13058214412E+04  0.00000000000E+00 0.  1.
         21   -1    0    0  504  502 -0.00000000000E+00 -0.00000000000E+00 -0.29969407758E+03  0.29969407758E+03  0.00000000000E+00 0. -1.
         21    1    1    2  503  501  0.35814823686E+02 -0.27534774122E+02  0.68526080343E+03  0.68674830477E+03  0.00000000000E+00 0.  1.
         21    1    1    2  504  506 -0.43589030593E+02 -0.84969130009E+02 -0.39953945989E+02  0.10351847392E+03  0.00000000000E+00 0. -1.
         21    1    1    2  505  502 -0.62860459496E+02  0.29078160013E+02 -0.21668704275E+03  0.22748681556E+03  0.00000000000E+00 0. -1.
         21    1    1    2  506  503  0.70634666403E+02  0.83425744118E+02  0.57750754894E+03  0.58776192456E+03  0.00000000000E+00 0.  1.
<scales pt_clust_3="45.17594" pt_clust_4="14000.00000" pt_clust_5="68.87636" pt_clust_6="115.41617"></scales>
<clustering>
<clus scale="   45.176">  1  3  2 -1</clus>
<clus scale="   68.876">  2  5  1 -1</clus>
<clus scale="  115.416">  1  6  2 -1</clus>
<clus scale="   45.176">  1  3  2 -1</clus>
</clustering>
</event>
<event>
 6    0  0.4582113E+002  0.1423479E+03  0.7546771E-02  0.1210204E+00
         21   -1    0    0  506  501  0.00000000000E+00  0.00000000000E+00  0.14183229559E+03  0.14183229559E+03  0.00000000000E+00 0. -1.
         21   -1    0    0  501  502 -0.00000000000E+00 -0.00000000000E+00 -0.28407808811E+03  0.28407808811E+03  0.00000000000E+00 0. -1.
         21    1    1    2  503  504  0.10937931273E+03  0.64559019239E+02 -0.13935915330E+03  0.18855416894E+03  0.00000000000E+00 0. -1.
         21    1    1    2  504  502  0.20337163971E+02 -0.41926238861E+02 -0.64990796837E+02  0.79970078260E+02  0.00000000000E+00 0. -1.
         21    1    1    2  505  503 -0.82919326161E+02 -0.35450334234E+02  0.18300260699E+02  0.92017609129E+02  0.00000000000E+00 0. -1.
         21    1    1    2  506  505 -0.46797150538E+02  0.12817553856E+02  0.43803896918E+02  0.65368527370E+02  0.00000000000E+00 0.  1.
<scales pt_clust_3="129.18226" pt_clust_4="46.59839" pt_clust_5="43.85706" pt_clust_6="43.85706"></scales>
<clustering>
<clus scale="   43.857">  5  6 -1 -1</clus>
<clus scale="   46.598">  2  4  1 -1</clus>
<clus scale="  129.182">  2  3  1 -1</clus>
<clus scale="  142.348">  1  3  2 -1</clus>
</clustering>
</event>
<event>
 6    0  0.4582113E+002  0.1200650E+03  0.7546771E-02  0.1242990E+00
         21   -1    0    0  505  501  0.00000000000E+00  0.00000000000E+00  0.12929353897E+04  0.12929353897E+04  0.00000000000E+00 0.  1.
         21   -1    0    0  503  502 -0.00000000000E+00 -0.00000000000E+00 -0.10236722866E+04  0.10236722866E+04  0.00000000000E+00 0.  1.
         21    1    1    2  503  506 -0.63821252153E+02 -0.58875493355E+02 -0.14706606080E+03  0.17078612995E+03  0.00000000000E+00 0.  1.
         21    1    1    2  504  502  0.77500046077E+02  0.11151616302E+03 -0.85524142505E+03  0.86595612295E+03  0.00000000000E+00 0.  1.
         21    1    1    2  505  504 -0.18105636882E+02 -0.89942718648E+02  0.11183644686E+04  0.11221214690E+04  0.00000000000E+00 0.  1.
         21    1    1    2  506  501  0.44268429575E+01  0.37302048987E+02  0.15320612043E+03  0.15774395435E+03  0.00000000000E+00 0.  1.
<scales pt_clust_3="120.06502" pt_clust_4="14000.00000" pt_clust_5="54.95226" pt_clust_6="37.56381"></scales>
<clustering>
<clus scale="   37.564">  1  6  2 -1</clus>
<clus scale="   54.952">  1  5  2 -1</clus>
<clus scale="  120.065">  1  3  2 -1</clus>
<clus scale="   37.564">  1  3  2 -1</clus>
</clustering>
</event>
<event>
 6    0  0.4582113E+002  0.1020555E+03  0.7546771E-02  0.1276032E+00
         21   -1    0    0  503  501  0.00000000000E+00  0.00000000000E+00  0.22469431268E+03  0.22469431268E+03  0.00000000000E+00 0. -1.
         21   -1    0    0  504  502 -0.00000000000E+00 -0.00000000000E+00 -0.29794694139E+03  0.29794694139E+03  0.00000000000E+00 0. -1.
         21    1    1    2  503  506 -0.19972422409E+02  0.28284272767E+02  0.18999837473E+02  0.39495462611E+02  0.00000000000E+00 0.  1.
         21    1    1    2  504  501 -0.34763977848E+02  0.22279955998E+01  0.15303071659E+03  0.15694552667E+03  0.00000000000E+00 0. -1.
         21    1    1    2  505  502  0.10831258981E+03  0.44093305438E+02 -0.17529995024E+03  0.21072709662E+03  0.00000000000E+00 0. -1.
         21    1    1    2  506  505 -0.53576189551E+02 -0.74605573805E+02 -0.69983232541E+02  0.11547316817E+03  0.00000000000E+00 0. -1.
<scales pt_clust_3="34.62510" pt_clust_4="56.28981" pt_clust_5="14000.00000" pt_clust_6="102.05547"></scales>
<clustering>
<clus scale="   34.625">  1  3  2 -1</clus>
<clus scale="   56.290">  1  4  2 -1</clus>
<clus scale="  102.055">  1  6  2 -1</clus>
<clus scale="   34.625">  1  3  2 -1</clus>
</clustering>
</event>
<event>
 6    0  0.4582113E+002  0.1032589E+03  0.7546771E-02  0.1273588E+00
         21   -1    0    0  505  501  0.00000000000E+00  0.00000000000E+00  0.10070963220E+03  0.10070963220E+03  0.00000000000E+00 0. -1.
         21   -1    0    0  506  502 -0.00000000000E+00 -0.00000000000E+00 -0.32519907212E+03  0.32519907212E+03  0.00000000000E+00 0. -1.
         21    1    1    2  503  502  0.19092351950E+02  0.99292133899E+02 -0.13226827911E+03  0.16648826811E+03  0.00000000000E+00 0. -1.
         21    1    1    2  504  503  0.25725560278E+02 -0.24450532911E+02  0.23478520714E+02  0.42554364596E+02  0.00000000000E+00 0. -1.
         21    1    1    2  505  504  0.43624468835E+02  0.56740955707E+01  0.80972448671E+01  0.44730917899E+02  0.00000000000E+00 0. -1.
         21    1    1    2  506  501 -0.88442381063E+02 -0.80515696559E+02 -0.12379692639E+03  0.17213515371E+03  0.00000000000E+00 0. -1.
<scales pt_clust_3="103.25892" pt_clust_4="34.31689" pt_clust_5="81.37378" pt_clust_6="14000.00000"></scales>
<clustering>
<clus scale="   34.317">  4  5 -1 -1</clus>
<clus scale="   81.374">  1  4  2 -1</clus>
<clus scale="  103.259">  2  3  1 -1</clus>
<clus scale="   81.374">  1  3  2 -1</clus>
</clustering>
</event>
<event>
 6    0  0.4582113E+002  0.8143271E+02  0.7546771E-02  0.1325034E+00
         21   -1    0    0  505  501  0.00000000000E+00  0.00000000000E+00  0.86885339319E+03  0.86885339319E+03  0.00000000000E+00 0. -1.
         21   -1    0    0  504  502 -0.00000000000E+00 -0.00000000000E+00 -0.82005083650E+02  0.82005083650E+02  0.00000000000E+00 0.  1.
         21    1    1    2  503  502  0.32219689786E+02  0.11977501272E+03 -0.13914007100E+02  0.12481090368E+03  0.00000000000E+00 0.  1.
         21    1    1    2  504  506 -0.16814526158E+01 -0.41744735092E+02  0.46078041730E+02  0.62198361075E+02  0.00000000000E+00 0.  1.
         21    1    1    2  505  503 -0.43648269596E+02 -0.31352780185E+02  0.58235716780E+03  0.58483163317E+03  0.00000000000E+00 0. -1.
         21    1    1    2  506  501  0.13110032425E+02 -0.46677497446E+02  0.17232710711E+03  0.17901757892E+03  0.00000000000E+00 0.  1.
<scales pt_clust_3="14000.00000" pt_clust_4="41.77859" pt_clust_5="81.43271" pt_clust_6="50.28461"></scales>
<clustering>
<clus scale="   41.779">  2  4  1 -1</clus>
<clus scale="   50.285">  1  6  2 -1</clus>
<clus scale="   81.433">  1  5  2 -1</clus>
<clus scale="   50.285">  1  3  2 -1</clus>
</clustering>
</event>
<event>
 6    0  0.4582113E+002  0.1565610E+03  0.7546771E-02  0.1192635E+00
         21   -1    0    0  504  501  0.00000000000E+00  0.00000000000E+00  0.49181245652E+03  0.49181245652E+03  0.00000000000E+00 0. -1.
         21   -1    0    0  506  502 -0.00000000000E+00 -0.00000000000E+00 -0.81816861188E+02  0.81816861188E+02  0.00000000000E+00 0. -1.
         21    1    1    2  503  505  0.50628294741E+02 -0.20351965819E+02  0.64201201346E+02  0.84256875063E+02  0.00000000000E+00 0. -1.
         21    1    1    2  504  502 -0.17165776283E+03  0.27375454591E+02  0.12531805636E+03  0.21429049980E+03  0.00000000000E+00 0. -1.
         21    1    1    2  505  501  0.80749068992E+02 -0.35964069911E+02  0.20480327237E+03  0.22306547658E+03  0.00000000000E+00 0. -1.
         21    1    1    2  506  503  0.40280399096E+02  0.28940581139E+02  0.15673065246E+02  0.52016466261E+02  0.00000000000E+00 0.  1.
<scales pt_clust_3="31.93480" pt_clust_4="151.19268" pt_clust_5="31.93480" pt_clust_6="49.59907"></scales>
<clustering>
<clus scale="   31.935">  3  5 -1 -1</clus>
<clus scale="   49.599">  2  6  1 -1</clus>
<clus scale="  151.193">  2  4  1 -1</clus>
<clus scale="  156.561">  1  3  2 -1</clus>
</clustering>
</event>
<event>
 6    0  0.4582113E+002  0.1009121E+03  0.7546771E-02  0.1278390E+00
         21   -1    0    0  504  501  0.00000000000E+00  0.00000000000E+00  0.31576723079E+03  0.31576723079E+03  0.00000000000E+00 0.  1.
         21   -1    0    0  503  502 -0.00000000000E+00 -0.00000000000E+00 -0.11251059642E+03  0.11251059642E+03  0.00000000000E+00 0. -1.
         21    1    1    2  503  505 -0.46082946404E+01 -0.34805806128E+02 -0.70142770407E+01  0.35803360207E+02  0.00000000000E+00 0.  1.
         21    1    1    2  504  506  0.94782029232E+01 -0.33768177993E+02  0.50864018343E+02  0.61784096154E+02  0.00000000000E+00 0.  1.
         21    1    1    2  505  501 -0.92970398931E+02  0.70319314004E+02 -0.31224433437E+02  0.12067835864E+03  0.00000000000E+00 0. -1.
         21    1    1    2  506  502  0.88100490648E+02 -0.17453298841E+01  0.19063132650E+03  0.21001201221E+03  0.00000000000E+00 0.  1.
<scales pt_clust_3="36.90584" pt_clust_4="35.07315" pt_clust_5="100.91206" pt_clust_6="14000.00000"></scales>
<clustering>
<clus scale="   35.073">  1  4  2 -1</clus>
<clus scale="   36.906">  2  3  1 -1</clus>
<clus scale="  100.912">  2  5  1 -1</clus>
<clus scale="   35.073">  1  3  2 -1</clus>
</clustering>
</event>
<event>
 6    0  0.4582113E+002  0.1687534E+03  0.7546771E-02  0.1179154E+00
         21   -1    0    0  503  501  0.00000000000E+00  0.00000000000E+00  0.16625481651E+04  0.16625481651E+04  0.00000000000E+00 0. -1.
         21   -1    0    0  504  502 -0.00000000000E+00 -0.00000000000E+00 -0.10533711064E+03  0.10533711064E+03  0.00000000000E+00 0. -1.
         21    1    1    2  503  506 -0.12221705861E+03 -0.63794547065E+02  0.19360584796E+03  0.23767620414E+03  0.00000000000E+00 0. -1.
         21    1    1    2  504  505  0.77802927377E+02 -0.17170555822E+02  0.55729540927E+03  0.56296207393E+03  0.00000000000E+00 0. -1.
         21    1    1    2  505  501  0.77158379248E+02  0.48724827701E+02  0.87765357383E+03  0.88238501799E+03  0.00000000000E+00 0. -1.
         21    1    1    2  506  502 -0.32744248019E+02  0.32240275186E+02 -0.71343776640E+02  0.84861979636E+02  0.00000000000E+00 0. -1.
<scales pt_clust_3="153.41690" pt_clust_4="64.29962" pt_clust_5="64.29962" pt_clust_6="45.95238"></scales>
<clustering>
<clus scale="   45.952">  2  6  1 -1</clus>
<clus scale="   64.300">  4  5 -1 -1</clus>
<clus scale="  153.417">  2  3  1 -1</clus>
<clus scale="  168.753">  1  3  2 -1</clus>
</clustering>
</event>
<event>
 6    0  0.4582113E+002  0.1213318E+03  0.7546771E-02  0.1240916E+00
         21   -1    0    0  504  501  0.00000000000E+00  0.00000000000E+00  0.29507429063E+03  0.29507429063E+03  0.00000000000E+00 0.  1.
         21   -1    0    0  501  502 -0.00000000000E+00 -0.00000000000E+00 -0.19042714739E+03  0.19042714739E+03  0.00000000000E+00 0.  1.
         21    1    1    2  503  502 -0.85096575506E+02  0.65822630008E+02 -0.68485001024E+02  0.12753133399E+03  0.00000000000E+00 0.  1.
         21    1    1    2  504  505 -0.11891091148E+02  0.27749787866E+02  0.71291256443E+02  0.77420230046E+02  0.00000000000E+00 0.  1.
         21    1    1    2  505  506 -0.64569163218E+02 -0.32562185995E+02  0.77755122580E+02  0.10618536567E+03  0.00000000000E+00 0.  1.
         21    1    1    2  506  503  0.16155682987E+03 -0.61010231879E+02  0.24085765246E+02  0.17436450831E+03  0.00000000000E+00 0.  1.
<scales pt_clust_3="14000.00000" pt_clust_4="30.19021" pt_clust_5="72.62614" pt_clust_6="121.33178"></scales>
<clustering>
<clus scale="   30.190">  1  4  2 -1</clus>
<clus scale="   72.626">  1  5  2 -1</clus>
<clus scale="  121.332">  1  6  2 -1</clus>
<clus scale="   30.190">  1  3  2 -1</clus>
</clustering>
</event>
<event>
 6    0  0.4582113E+002  0.1017735E+03  0.7546771E-02  0.1276610E+00
         21   -1    0    0  504  501  0.00000000000E+00  0.00000000000E+00  0.34895413774E+02  0.34895413774E+02  0.00000000000E+00 0. -1.
         21   -1    0    0  505  502 -0.00000000000E+00 -0.00000000000E+00 -0.23574154674E+04  0.23574154674E+04  0.00000000000E+00 0. -1.
         21    1    1    2  503  502  0.52184708208E+02 -0.11688247138E+03 -0.18924661610E+04  0.18967901640E+04  0.00000000000E+00 0. -1.
         21    1    1    2  504  503  0.28750216042E+02  0.64227094562E+02 -0.11213648494E+03  0.13238687946E+03  0.00000000000E+00 0.  1.
         21    1    1    2  505  506  0.93065486122E+01  0.33719231852E+02 -0.23964590861E+03  0.24218538345E+03  0.00000000000E+00 0. -1.
         21    1    1    2  506  501 -0.90241472862E+02  0.18936144970E+02 -0.78271499077E+02  0.12094845422E+03  0.00000000000E+00 0. -1.
<scales pt_clust_3="14000.00000" pt_clust_4="72.36640" pt_clust_5="34.97997" pt_clust_6="101.77345"></scales>
<clustering>
<clus scale="   34.980">  2  5  1 -1</clus>
<clus scale="   72.366">  1  4  2 -1</clus>
<clus scale="  101.773">  1  6  2 -1</clus>
<clus scale="   72.366">  1  3  2 -1</clus>
</clustering>
</event>
<event>
 6    0  0.4582113E+002  0.1492446E+03  0.7546771E-02  0.1201404E+00
         21   -1    0    0  505  501  0.00000000000E+00  0.00000000000E+00  0.26643543750E+03  0.26643543750E+03  0.00000000000E+00 0.  1.
         21   -1    0    0  503  502 -0.00000000000E+00 -0.00000000000E+00 -0.23138509067E+03  0.23138509067E+03  0.00000000000E+00 0.  1.
         21    1    1    2  503  506 -0.64371519963E+02  0.51191846412E+02 -0.13290149151E+03  0.15629172777E+03  0.00000000000E+00 0.  1.
         21    1    1    2  504  502  0.23660396575E+02 -0.40883866224E+02  0.81382295227E+01  0.47932615861E+02  0.00000000000E+00 0. -1.
         21    1    1    2  505  504  0.14410877868E+02 -0.12299168158E+03  0.11656799917E+03  0.17006682678E+03  0.00000000000E+00 0.  1.
         21    1    1    2  506  501  0.26300245519E+02  0.11268370140E+03  0.43245609653E+02  0.12352935776E+03  0.00000000000E+00 0.  1.
<scales pt_clust_3="82.24535" pt_clust_4="37.40299" pt_clust_5="37.40299" pt_clust_6="136.40545"></scales>
<clustering>
<clus scale="   37.403">  4  5 -1 -1</clus>
<clus scale="   82.245">  2  3  1 -1</clus>
<clus scale="  136.405">  1  6  2 -1</clus>
<clus scale="  136.405">  1  3  2 -1</clus>
</clustering>
</event>
<event>
 6    0  0.4582113E+002  0.1258178E+03  0.7546771E-02  0.1233797E+00
         21   -1    0    0  506  501  0.00000000000E+00  0.00000000000E+00  0.10315344449E+04  0.10315344449E+04  0.00000000000E+00 0.  1.
         21   -1    0    0  505  502 -0.00000000000E+00 -0.00000000000E+00 -0.31036301480E+03  0.31036301480E+03  0.00000000000E+00 0.  1.
         21    1    1    2  503  502  0.47180849556E+02 -0.11841534231E+03 -0.27650884188E+03  0.30447555813E+03  0.00000000000E+00 0.  1.
         21    1    1    2  504  503 -0.37362957670E+02  0.87799204190E+02  0.24888697965E+03  0.26655096980E+03  0.00000000000E+00 0.  1.
         21    1    1    2  505  501 -0.84534319940E+02 -0.89517626853E+01  0.52108705934E+03  0.52797529176E+03  0.00000000000E+00 0.  1.
         21    1    1    2  506  504  0.74716428053E+02  0.39567900805E+02  0.22770623296E+03  0.24289563998E+03  0.00000000000E+00 0.  1.
<scales pt_clust_3="14000.00000" pt_clust_4="125.81778" pt_clust_5="39.24225" pt_clust_6="84.54681"></scales>
<clustering>
<clus scale="   84.547">  1  6  2 -1</clus>
<clus scale="   39.242">  1  5  2 -1</clus>
<clus scale="  125.818">  1  4  2 -1</clus>
<clus scale="   84.547">  1  3  2 -1</clus>
</clustering>
</event>
<event>
 6    0  0.4582113E+002  0.1347991E+03  0.7546771E-02  0.1220504E+00
         21   -1    0    0  506  501  0.00000000000E+00  0.00000000000E+00  0.72795848385E+03  0.72795848385E+03  0.00000000000E+00 0.  1.
         21   -1    0    0  504  502 -0.00000000000E+00 -0.00000000000E+00 -0.15501493689E+03  0.15501493689E+03  0.00000000000E+00 0. -1.
         21    1    1    2  503  505 -0.30745906173E+02  0.20185367909E+02  0.14459080584E+03  0.14919537847E+03  0.00000000000E+00 0. -1.
         21    1    1    2  504  501  0.51457640003E+02  0.34160458393E+02 -0.10754179977E+03  0.12401638734E+03  0.00000000000E+00 0. -1.
         21    1    1    2  505  502  0.76791887652E+02 -0.89927816047E+01  0.16119324308E+02  0.78979090564E+02  0.00000000000E+00 0. -1.
         21    1    1    2  506  503 -0.97503621483E+02 -0.45353044696E+02  0.51977521658E+03  0.53078256436E+03  0.00000000000E+00 0.  1.
<scales pt_clust_3="36.55274" pt_clust_4="61.76427" pt_clust_5="119.43347" pt_clust_6="36.55274"></scales>
<clustering>
<clus scale="   36.553">  3  6 -1 -1</clus>
<clus scale="   61.764">  2  4  1 -1</clus>
<clus scale="  119.433">  2  5  1 -1</clus>
<clus scale="  134.799">  1  3  2 -1</clus>
</clustering>
</event>
<event>
 6    0  0.4582113E+002  0.1451152E+03  0.7546771E-02  0.1206607E+00
         21   -1    0    0  502  501  0.00000000000E+00  0.00000000000E+00  0.44180259836E+03  0.44180259836E+03  0.00000000000E+00 0. -1.
         21   -1    0    0  505  502 -0.00000000000E+00 -0.00000000000E+00 -0.28667764408E+03  0.28667764408E+03  0.00000000000E+00 0.  1.
         21    1    1    2  503  504 -0.11190536966E+02  0.35093666198E+02 -0.38667431572E+02  0.53403780664E+02  0.00000000000E+00 0.  1.
         21    1    1    2  504  506  0.66419217070E+02 -0.12734863012E+02  0.16415040498E+03  0.17753603743E+03  0.00000000000E+00 0. -1.
         21    1    1    2  505  503 -0.85289702854E+02  0.47586993208E+02 -0.21777613311E+03  0.23867404444E+03  0.00000000000E+00 0.  1.
         21    1    1    2  506  501  0.30061022749E+02 -0.69945796394E+02  0.24741811398E+03  0.25886637991E+03  0.00000000000E+00 0.  1.
<scales pt_clust_3="35.81770" pt_clust_4="66.06874" pt_clust_5="139.80756" pt_clust_6="66.06874"></scales>
<clustering>
<clus scale="   35.818">  3  5 -1 -1</clus>
<clus scale="   66.069">  4  6 -1 -1</clus>
<clus scale="  139.808">  2  3  1 -1</clus>
<clus scale="  145.115">  1  3  2 -1</clus>
</clustering>
</event>
<event>
 6    0  0.4582113E+002  0.1110531E+03  0.7546771E-02  0.1258632E+00
         21   -1    0    0  503  501  0.00000000000E+00  0.00000000000E+00  0.71552902357E+03  0.71552902357E+03  0.00000000000E+00 0. -1.
         21   -1    0    0  504  502 -0.00000000000E+00 -0.00000000000E+00 -0.45424581592E+02  0.45424581592E+02  0.00000000000E+00 0. -1.
         21    1    1    2  503  505 -0.22620724516E+02  0.57222290842E+02  0.23560038431E+03  0.24350283126E+03  0.00000000000E+00 0. -1.
         21    1    1    2  504  501  0.14077047798E+03 -0.23060344241E+02  0.25260958827E+03  0.29010293179E+03  0.00000000000E+00 0. -1.
         21    1    1    2  505  506 -0.86856958220E+02 -0.32274092900E+02  0.17038812785E+03  0.19395324792E+03  0.00000000000E+00 0. -1.
         21    1    1    2  506  502 -0.31292795241E+02 -0.18878537011E+01  0.11506341543E+02  0.33394594193E+02  0.00000000000E+00 0. -1.
<scales pt_clust_3="62.74128" pt_clust_4="111.05312" pt_clust_5="14000.00000" pt_clust_6="31.34969"></scales>
<clustering>
<clus scale="   31.350">  2  6  1 -1</clus>
<clus scale="   62.741">  1  3  2 -1</clus>
<clus scale="  111.053">  2  4  1 -1</clus>
<clus scale="   62.741">  1  3  2 -1</clus>
</clustering>
</event>
<event>
 6    0  0.4582113E+002  0.9995697E+02  0.7546771E-02  0.1280386E+00
         21   -1    0    0  506  501  0.00000000000E+00  0.00000000000E+00  0.27040694336E+04  0.27040694336E+04  0.00000000000E+00 0.  1.
         21   -1    0    0  503  502 -0.00000000000E+00 -0.00000000000E+00 -0.31602380539E+03  0.31602380539E+03  0.00000000000E+00 0.  1.
         21    1    1    2  503  501 -0.18995262771E+02  0.90618802801E+02  0.25578286287E+04  0.25595038350E+04  0.00000000000E+00 0.  1.
         21    1    1    2  504  502 -0.93363789916E+02 -0.16234554434E+02 -0.24802477597E+03  0.26551204779E+03  0.00000000000E+00 0.  1.
         21    1    1    2  505  504  0.82208393718E+02 -0.85186209564E+02  0.89265425351E+01  0.11872065304E+03  0.00000000000E+00 0.  1.
         21    1    1    2  506  505  0.30150658969E+02  0.10801961197E+02  0.69315232950E+02  0.76356703182E+02  0.00000000000E+00 0. -1.
<scales pt_clust_3="14000.00000" pt_clust_4="94.65989" pt_clust_5="99.95697" pt_clust_6="32.02725"></scales>
<clustering>
<clus scale="   32.027">  1  6  2 -1</clus>
<clus scale="   94.660">  2  4  1 -1</clus>
<clus scale="   99.957">  2  5  1 -1</clus>
<clus scale="   32.027">  1  3  2 -1</clus>
</clustering>
</event>
<event>
 6    0  0.4582113E+002  0.6956121E+02  0.7546771E-02  0.1361592E+00
         21   -1    0    0  504  501  0.00000000000E+00  0.00000000000E+00  0.28182456105E+04  0.28182456105E+04  0.00000000000E+00 0. -1.
         21   -1    0    0  503  502 -0.00000000000E+00 -0.00000000000E+00 -0.47310436171E+03  0.47310436171E+03  0.00000000000E+00 0. -1.
         21    1    1    2  503  506  0.60332240597E+02 -0.82678842352E+02  0.39958074690E+03  0.41248096140E+03  0.00000000000E+00 0. -1.
         21    1    1    2  504  505 -0.31229902037E+02  0.33458213213E+02  0.16089493871E+04  0.16096002265E+04  0.00000000000E+00 0. -1.
         21    1    1    2  505  502  0.24803095490E+01  0.69446131905E+02 -0.46329824888E+03  0.46848071955E+03  0.00000000000E+00 0. -1.
         21    1    1    2  506  501 -0.31582648109E+02 -0.20225502766E+02  0.79990936365E+03  0.80078806477E+03  0.00000000000E+00 0. -1.
<scales pt_clust_3="14000.00000" pt_clust_4="59.01831" pt_clust_5="69.56121" pt_clust_6="37.50379"></scales>
<clustering>
<clus scale="   37.504">  1  6  2 -1</clus>
<clus scale="   59.018">  1  4  2 -1</clus>
<clus scale="   69.561">  2  5  1 -1</clus>
<clus scale="   37.504">  1  3  2 -1</clus>
</clustering>
</event>
<event>
 6    0  0.4582113E+002  0.1034395E+03  0.7546771E-02  0.1273225E+00
         21   -1    0    0  505  501  0.00000000000E+00  0.00000000000E+00  0.39097565444E+03  0.39097565444E+03  0.00000000000E+00 0.  1.
         21   -1    0    0  503  502 -0.00000000000E+00 -0.00000000000E+00 -0.11789243193E+03  0.11789243193E+03  0.00000000000E+00 0.  1.
         21    1    1    2  503  504 -0.42110678505E+02  0.47992733036E+01  0.26330183177E+02  0.49896100194E+02  0.00000000000E+00 0.  1.
         21    1    1    2  504  501  0.83151239372E+02  0.78393692916E+02  0.29747653143E+03  0.31867222416E+03  0.00000000000E+00 0.  1.
         21    1    1    2  505  506 -0.36516755818E+01 -0.79977762243E+02 -0.37120315421E+01  0.80147092063E+02  0.00000000000E+00 0.  1.
         21    1    1    2  506  502 -0.37388885285E+02 -0.32152039767E+01 -0.47011460550E+02  0.60152669953E+02  0.00000000000E+00 0.  1.
<scales pt_clust_3="49.14176" pt_clust_4="14000.00000" pt_clust_5="103.43955" pt_clust_6="37.52687"></scales>
<clustering>
<clus scale="   37.527">  2  6  1 -1</clus>
<clus scale="   49.142">  2  3  1 -1</clus>
<clus scale="  103.440">  2  5  1 -1</clus>
<clus scale="  103.440">  1  3  2 -1</clus>
</clustering>
</event>
<event>
 6    0  0.4582113E+002  0.3401741E+03  0.7546771E-02  0.1066722E+00
         21   -1    0    0  506  501  0.00000000000E+00  0.00000000000E+00  0.79081773543E+03  0.79081773543E+03  0.00000000000E+00 0. -1.
         21   -1    0    0  505  502 -0.00000000000E+00 -0.00000000000E+00 -0.67090550600E+03  0.67090550600E+03  0.00000000000E+00 0.  1.
         21    1    1    2  503  504  0.30587812820E+02  0.90607737470E+02  0.12660740476E+03  0.15866572195E+03  0.00000000000E+00 0. -1.
         21    1    1    2  504  502 -0.10744219575E+03 -0.27410890008E+03 -0.35041654017E+03  0.45768030999E+03  0.00000000000E+00 0.  1.
         21    1    1    2  505  501  0.42513832235E+02 -0.53894791995E+02 -0.22121840467E+03  0.23162395624E+03  0.00000000000E+00 0.  1.
         21    1    1    2  506  503  0.34340550694E+02  0.23739595460E+03  0.56493976952E+03  0.61375325325E+03  0.00000000000E+00 0. -1.
<scales pt_clust_3="51.26326" pt_clust_4="330.34372" pt_clust_5="68.64455" pt_clust_6="51.26326"></scales>
<clustering>
<clus scale="   51.263">  3  6 -1 -1</clus>
<clus scale="   68.645">  2  5  1 -1</clus>
<clus scale="  330.344">  2  4  1 -1</clus>
<clus scale="  340.174">  1  3  2 -1</clus>
</clustering>
</event>
<event>
 6    0  0.4582113E+002  0.1187256E+03  0.7546771E-02  0.1245214E+00
         21   -1    0    0  503  501  0.00000000000E+00  0.00000000000E+00  0.19338042838E+03  0.19338042838E+03  0.00000000000E+00 0.  1.
         21   -1    0    0  505  502 -0.00000000000E+00 -0.00000000000E+00 -0.52626628642E+03  0.52626628642E+03  0.00000000000E+00 0.  1.
         21    1    1    2  503  504  0.37276427267E+02 -0.15571119866E+02  0.13105500072E+03  0.13714009267E+03  0.00000000000E+00 0. -1.
         21    1    1    2  504  506  0.82180709082E+02 -0.19501564270E+02 -0.42356980118E+02  0.94488590416E+02  0.00000000000E+00 0.  1.
         21    1    1    2  505  501 -0.13335899564E+02 -0.49279980321E+02 -0.66292369827E+01  0.51481156364E+02  0.00000000000E+00 0.  1.
         21    1    1    2  506  502 -0.10612123678E+03  0.84352664458E+02 -0.41495464166E+03  0.43653687534E+03  0.00000000000E+00 0.  1.
<scales pt_clust_3="40.39792" pt_clust_4="14000.00000" pt_clust_5="55.17564" pt_clust_6="118.72564"></scales>
<clustering>
<clus scale="   40.398">  1  3  2 -1</clus>
<clus scale="   55.176">  1  5  2 -1</clus>
<clus scale="  118.726">  2  6  1 -1</clus>
<clus scale="   40.398">  1  3  2 -1</clus>
</clustering>
</event>
<event>
 6    0  0.4582113E+002  0.1024309E+03  0.7546771E-02  0.1275266E+00
         21   -1    0    0  504  501  0.00000000000E+00  0.00000000000E+00  0.13190671202E+04  0.13190671202E+04  0.00000000000E+00 0.  1.
         21   -1    0    0  506  502 -0.00000000000E+00 -0.00000000000E+00 -0.66857945891E+03  0.66857945891E+03  0.00000000000E+00 0. -1.
         21    1    1    2  503  502 -0.25472537272E+02  0.98351942943E+02 -0.52571197104E+03  0.53543910142E+03  0.00000000000E+00 0. -1.
         21    1    1    2  504  505 -0.39749678248E+02  0.27762311181E+01  0.12680919535E+03  0.13292221938E+03  0.00000000000E+00 0.  1.
         21    1    1    2  505  503  0.92838628630E+02 -0.83425217890E+02 -0.10580387136E+03  0.16362529493E+03  0.00000000000E+00 0. -1.
         21    1    1    2  506  501 -0.27616413111E+02 -0.17702956171E+02  0.11551943083E+04  0.11556599633E+04  0.00000000000E+00 0.  1.
<scales pt_clust_3="102.43086" pt_clust_4="62.68815" pt_clust_5="14000.00000" pt_clust_6="32.80337"></scales>
<clustering>
<clus scale="   32.803">  1  6  2 -1</clus>
<clus scale="   62.688">  1  4  2 -1</clus>
<clus scale="  102.431">  2  3  1 -1</clus>
<clus scale="   32.803">  1  3  2 -1</clus>
</clustering>
</event>
<event>
 6    0  0.4582113E+002  0.1910125E+03  0.7546771E-02  0.1157551E+00
         21   -1    0    0  506  501  0.00000000000E+00  0.00000000000E+00  0.95563170163E+03  0.95563170163E+03  0.00000000000E+00 0. -1.
         21   -1    0    0  505  502 -0.00000000000E+00 -0.00000000000E+00 -0.62857091742E+03  0.62857091742E+03  0.00000000000E+00 0.  1.
         21    1    1    2  503  504 -0.89661255743E+02 -0.30317628073E+02 -0.41423792986E+03  0.42491335810E+03  0.00000000000E+00 0.  1.
         21    1    1    2  504  502 -0.78909577280E+02 -0.36581336857E+02 -0.18744804046E+03  0.20664385658E+03  0.00000000000E+00 0.  1.
         21    1    1    2  505  501  0.26044143686E+02  0.24169658984E+02  0.44780881124E+03  0.44921620770E+03  0.00000000000E+00 0. -1.
         21    1    1    2  506  503  0.14252668934E+03  0.42729305946E+02  0.48093794329E+03  0.50342919667E+03  0.00000000000E+00 0. -1.
<scales pt_clust_3="60.11116" pt_clust_4="60.11116" pt_clust_5="35.53125" pt_clust_6="180.38527"></scales>
<clustering>
<clus scale="   35.531">  1  5  2 -1</clus>
<clus scale="   60.111">  3  4 -1 -1</clus>
<clus scale="  180.385">  1  6  2 -1</clus>
<clus scale="   35.531">  1  3  2 -1</clus>
</clustering>
</event>
<event>
 6    0  0.4582113E+002  0.2300305E+03  0.7546771E-02  0.1126618E+00
         21   -1    0    0  505  501  0.00000000000E+00  0.00000000000E+00  0.14261859795E+03  0.14261859795E+03  0.00000000000E+00 0. -1.
         21   -1    0    0  503  502 -0.00000000000E+00 -0.00000000000E+00 -0.10939497719E+04  0.10939497719E+04  0.00000000000E+00 0. -1.
         21    1    1    2  503  501  0.11686862058E+03 -0.17514158020E+03 -0.52173955032E+03  0.56262332511E+03  0.00000000000E+00 0. -1.
         21    1    1    2  504  502 -0.30806564049E+02  0.29213149583E+03 -0.43481164433E+03  0.52473900302E+03  0.00000000000E+00 0. -1.
         21    1    1    2  505  506 -0.32493911991E+02 -0.68887272992E+02 -0.57327719078E+01  0.76381773811E+02  0.00000000000E+00 0. -1.
         21    1    1    2  506  504 -0.53568144536E+02 -0.48102642638E+02  0.10952792561E+02  0.72824267951E+02  0.00000000000E+00 0. -1.
<scales pt_clust_3="230.03048" pt_clust_4="14000.00000" pt_clust_5="149.11470" pt_clust_6="32.85352"></scales>
<clustering>
<clus scale="   32.854">  5  6 -1 -1</clus>
<clus scale="  149.115">  1  5  2 -1</clus>
<clus scale="  230.030">  2  3  1 -1</clus>
<clus scale="  149.115">  1  3  2 -1</clus>
</clustering>
</event>
<event>
 6    0  0.4582113E+002  0.1336579E+03  0.7546771E-02  0.1222127E+00
         21   -1    0    0  502  501  0.00000000000E+00  0.00000000000E+00  0.17838191514E+03  0.17838191514E+03  0.00000000000E+00 0. -1.
         21   -1    0    0  506  502 -0.00000000000E+00 -0.00000000000E+00 -0.38155821884E+03  0.38155821884E+03  0.00000000000E+00 0. -1.
         21    1    1    2  503  505 -0.39510736050E+02 -0.57833120304E+02  0.28632903096E+02  0.75667768614E+02  0.00000000000E+00 0. -1.
         21    1    1    2  504  503  0.86362108822E+02  0.37919149273E+02 -0.67671395724E+02  0.11608485483E+03  0.00000000000E+00 0. -1.
         21    1    1    2  505  501 -0.56917958576E+02 -0.28588064750E+02  0.89448256087E+02  0.10980856966E+03  0.00000000000E+00 0. -1.
         21    1    1    2  506  504  0.10066585804E+02  0.48502035782E+02 -0.25358606716E+03  0.25837894087E+03  0.00000000000E+00 0. -1.
<scales pt_clust_3="60.60698" pt_clust_4="119.05146" pt_clust_5="60.60698" pt_clust_6="49.53568"></scales>
<clustering>
<clus scale="   49.536">  2  6  1 -1</clus>
<clus scale="   60.607">  3  5 -1 -1</clus>
<clus scale="  119.051">  2  4  1 -1</clus>
<clus scale="  133.658">  1  3  2 -1</clus>
</clustering>
</event>
<event>
 6    0  0.4582113E+002  0.9339661E+02  0.7546771E-02  0.1294829E+00
         21   -1    0    0  506  501  0.00000000000E+00  0.00000000000E+00  0.13160474390E+03  0.13160474390E+03  0.00000000000E+00 0.  1.
         21   -1    0    0  501  502 -0.00000000000E+00 -0.00000000000E+00 -0.21646499740E+03  0.21646499740E+03  0.00000000000E+00 0.  1.
         21    1    1    2  503  502  0.45772680087E+02  0.10001616914E+02 -0.60103507448E+02  0.76207625542E+02  0.00000000000E+00 0.  1.
         21    1    1    2  504  505 -0.61967790623E+02  0.57286771275E+02  0.49108609090E+02  0.97639319562E+02  0.00000000000E+00 0.  1.
         21    1    1    2  505  503  0.84329217012E+01 -0.97772260658E+02 -0.94792505116E+02  0.13644100611E+03  0.00000000000E+00 0.  1.
         21    1    1    2  506  504  0.77621888340E+01  0.30483872469E+02  0.20927149975E+02  0.37781790089E+02  0.00000000000E+00 0.  1.
<scales pt_clust_3="48.01337" pt_clust_4="14000.00000" pt_clust_5="93.39661" pt_clust_6="31.45661"></scales>
<clustering>
<clus scale="   31.457">  1  6  2 -1</clus>
<clus scale="   48.013">  2  3  1 -1</clus>
<clus scale="   93.397">  2  5  1 -1</clus>
<clus scale="   31.457">  1  3  2 -1</clus>
</clustering>
</event>
<event>
 6    0  0.4582113E+002  0.8101475E+02  0.7546771E-02  0.1326196E+00
         21   -1    0    0  503  501  0.00000000000E+00  0.00000000000E+00  0.94348274550E+03  0.94348274550E+03  0.00000000000E+00 0.  1.
         21   -1    0    0  506  502 -0.00000000000E+00 -0.00000000000E+00 -0.96779158875E+02  0.96779158875E+02  0.00000000000E+00 0. -1.
         21    1    1    2  503  505  0.58341202255E+02 -0.34409207074E+02  0.39561489896E+03  0.40137119689E+03  0.00000000000E+00 0.  1.
         21    1    1    2  504  502  0.39405301500E+02 -0.20980729704E+02  0.34186650951E+02  0.56228959696E+02  0.00000000000E+00 0.  1.
         21    1    1    2  505  504 -0.12475879310E+03  0.11168510149E+02  0.48282638306E+03  0.49880939070E+03  0.00000000000E+00 0.  1.
         21    1    1    2  506  501  0.27012289349E+02  0.44221426629E+02 -0.65924346342E+02  0.83852357090E+02  0.00000000000E+00 0. -1.
<scales pt_clust_3="14000.00000" pt_clust_4="44.64268" pt_clust_5="81.01475" pt_clust_6="66.66033"></scales>
<clustering>
<clus scale="   44.643">  2  4  1 -1</clus>
<clus scale="   66.660">  2  6  1 -1</clus>
<clus scale="   81.015">  2  5  1 -1</clus>
<clus scale="   81.015">  1  3  2 -1</clus>
</clustering>
</event>
<event>
 6    0  0.4582113E+002  0.6239558E+02  0.7546771E-02  0.1388045E+00
         21   -1    0    0  503  501  0.00000000000E+00  0.00000000000E+00  0.18368712870E+03  0.18368712870E+03  0.00000000000E+00 0.  1.
         21   -1    0    0  504  502 -0.00000000000E+00 -0.00000000000E+00 -0.86852985710E+03  0.86852985710E+03  0.00000000000E+00 0. -1.
         21    1    1    2  503  506 -0.91270204510E+01 -0.43429552539E+02 -0.16185429495E+02  0.47237661500E+02  0.00000000000E+00 0.  1.
         21    1    1    2  504  505  0.56446486656E+02 -0.70856635524E+02 -0.47063698684E+03  0.47927658198E+03  0.00000000000E+00 0. -1.
         21    1    1    2  505  501 -0.21084178237E+02  0.94222935952E+02  0.14876324741E+03  0.17734995915E+03  0.00000000000E+00 0.  1.
         21    1    1    2  506  502 -0.26235287968E+02  0.20063252111E+02 -0.34678355947E+03  0.34835278317E+03  0.00000000000E+00 0. -1.
<scales pt_clust_3="43.54932" pt_clust_4="14000.00000" pt_clust_5="62.39558" pt_clust_6="33.02763"></scales>
<clustering>
<clus scale="   33.028">  2  6  1 -1</clus>
<clus scale="   43.549">  1  3  2 -1</clus>
<clus scale="   62.396">  1  5  2 -1</clus>
<clus scale="   43.549">  1  3  2 -1</clus>
</clustering>
</event>
<event>
 6    0  0.4582113E+002  0.1334148E+03  0.7546771E-02  0.1222475E+00
         21   -1    0    0  506  501  0.00000000000E+00  0.00000000000E+00  0.35106570492E+03  0.35106570492E+03  0.00000000000E+00 0.  1.
         21   -1    0    0  504  502 -0.00000000000E+00 -0.00000000000E+00 -0.17727125524E+03  0.17727125524E+03  0.00000000000E+00 0.  1.
         21    1    1    2  503  501  0.47333235022E-01 -0.44434195869E+02  0.84652956606E+02  0.95606082783E+02  0.00000000000E+00 0.  1.
         21    1    1    2  504  505 -0.71736287384E+02  0.66640370344E+02 -0.57730284653E+02  0.11366538459E+03  0.00000000000E+00 0.  1.
         21    1    1    2  505  503  0.63330630719E+02 -0.68964589940E+02  0.21586815077E+03  0.23529968544E+03  0.00000000000E+00 0.  1.
         21    1    1    2  506  502  0.83583234292E+01  0.46758415464E+02 -0.68996373046E+02  0.83765807348E+02  0.00000000000E+00 0.  1.
<scales pt_clust_3="33.10699" pt_clust_4="124.45828" pt_clust_5="33.10699" pt_clust_6="47.49959"></scales>
<clustering>
<clus scale="   33.107">  3  5 -1 -1</clus>
<clus scale="   47.500">  2  6  1 -1</clus>
<clus scale="  124.458">  2  4  1 -1</clus>
<clus scale="  133.415">  1  3  2 -1</clus>
</clustering>
</event>
<event>
 6    0  0.4582113E+002  0.2292078E+03  0.7546771E-02  0.1127199E+00
         21   -1    0    0  503  501  0.00000000000E+00  0.00000000000E+00  0.41815793216E+03  0.41815793216E+03  0.00000000000E+00 0. -1.
         21   -1    0    0  506  502 -0.00000000000E+00 -0.00000000000E+00 -0.71956701580E+03  0.71956701580E+03  0.00000000000E+00 0.  1.
         21    1    1    2  503  505 -0.96773812768E+00 -0.79775024240E+02  0.11946489338E+02  0.80670376329E+02  0.00000000000E+00 0. -1.
         21    1    1    2  504  501  0.61288717876E+02 -0.14282397888E+03  0.29663407349E+03  0.33488321761E+03  0.00000000000E+00 0. -1.
         21    1    1    2  505  502 -0.20471713316E+01 -0.69122302613E+02 -0.22651981014E+03  0.23684025844E+03  0.00000000000E+00 0.  1.
         21    1    1    2  506  504 -0.58273808417E+02  0.29172130573E+03 -0.38346983633E+03  0.48533109558E+03  0.00000000000E+00 0.  1.
<scales pt_clust_3="84.65062" pt_clust_4="229.20782" pt_clust_5="69.15261" pt_clust_6="14000.00000"></scales>
<clustering>
<clus scale="   69.153">  2  5  1 -1</clus>
<clus scale="   84.651">  1  3  2 -1</clus>
<clus scale="  229.208">  1  4  2 -1</clus>
<clus scale="   84.651">  1  3  2 -1</clus>
</clustering>
</event>
<event>
 6    0  0.4582113E+002  0.1350772E+03  0.7546771E-02  0.1220111E+00
         21   -1    0    0  506  501  0.00000000000E+00  0.00000000000E+00  0.10020590327E+04  0.10020590327E+04  0.00000000000E+00 0. -1.
         21   -1    0    0  505  502 -0.00000000000E+00 -0.00000000000E+00 -0.64973601976E+03  0.64973601976E+03  0.00000000000E+00 0.  1.
         21    1    1    2  503  502  0.18024187081E+03 -0.18367398390E+03 -0.55748157080E+03  0.61401055865E+03  0.00000000000E+00 0.  1.
         21    1    1    2  504  501 -0.73911796236E+02  0.10123433094E+03  0.79374579364E+03  0.80358181184E+03  0.00000000000E+00 0. -1.
         21    1    1    2  505  504 -0.72660792323E+02  0.10253863035E+03  0.15941464875E+02  0.12668027375E+03  0.00000000000E+00 0.  1.
         21    1    1    2  506  503 -0.33669282249E+02 -0.20098977396E+02  0.10011732519E+03  0.10752240819E+03  0.00000000000E+00 0. -1.
<scales pt_clust_3="135.07722" pt_clust_4="14000.00000" pt_clust_5="125.95501" pt_clust_6="39.21211"></scales>
<clustering>
<clus scale="   39.212">  1  6  2 -1</clus>
<clus scale="  125.955">  2  5  1 -1</clus>
<clus scale="  135.077">  2  3  1 -1</clus>
<clus scale="   39.212">  1  3  2 -1</clus>
</clustering>
</event>
<event>
 6    0  0.4582113E+002  0.9167549E+02  0.7546771E-02  0.1298844E+00
         21   -1    0    0  505  501  0.00000000000E+00  0.00000000000E+00  0.22529464514E+03  0.22529464514E+03  0.00000000000E+00 0. -1.
         21   -1    0    0  503  502 -0.00000000000E+00 -0.00000000000E+00 -0.44285399782E+03  0.44285399782E+03  0.00000000000E+00 0. -1.
         21    1    1    2  503  504 -0.21395621273E+02 -0.60553708060E+02 -0.32441784481E+03  0.33071356519E+03  0.00000000000E+00 0. -1.
         21    1    1    2  504  501 -0.33709602593E+02 -0.35554323219E+01  0.14669337978E+02  0.36934643395E+02  0.00000000000E+00 0. -1.
         21    1    1    2  505  506 -0.59950828831E+02  0.24588977362E+02  0.15178168527E+03  0.16503454084E+03  0.00000000000E+00 0. -1.
         21    1    1    2  506  502  0.11505605270E+03  0.39520163020E+02 -0.59592531122E+02  0.13546589354E+03  0.00000000000E+00 0. -1.
<scales pt_clust_3="64.45437" pt_clust_4="33.89658" pt_clust_5="91.67549" pt_clust_6="14000.00000"></scales>
<clustering>
<clus scale="   33.897">  1  4  2 -1</clus>
<clus scale="   64.454">  2  3  1 -1</clus>
<clus scale="   91.675">  1  5  2 -1</clus>
<clus scale="   33.897">  1  3  2 -1</clus>
</clustering>
</event>
<event>
 6    0  0.4582113E+002  0.1171092E+03  0.7546771E-02  0.1247944E+00
         21   -1    0    0  506  501  0.00000000000E+00  0.00000000000E+00  0.21037002540E+03  0.21037002540E+03  0.00000000000E+00 0. -1.
         21   -1    0    0  503  502 -0.00000000000E+00 -0.00000000000E+00 -0.94464842880E+02  0.94464842880E+02  0.00000000000E+00 0. -1.
         21    1    1    2  503  505  0.64445823923E+02  0.15780572750E+02  0.23142192538E+02  0.70269849672E+02  0.00000000000E+00 0. -1.
         21    1    1    2  504  502 -0.33832586000E+02  0.20228169943E+02 -0.12835084355E+02  0.41455543961E+02  0.00000000000E+00 0. -1.
         21    1    1    2  505  501  0.62594443085E+02 -0.18959154234E+02  0.56305032055E+02  0.86300466216E+02  0.00000000000E+00 0. -1.
         21    1    1    2  506  504 -0.93207681008E+02 -0.17049588458E+02  0.49293042285E+02  0.10680900844E+03  0.00000000000E+00 0. -1.
<scales pt_clust_3="45.13910" pt_clust_4="39.41856" pt_clust_5="45.13910" pt_clust_6="107.98835"></scales>
<clustering>
<clus scale="   39.419">  2  4  1 -1</clus>
<clus scale="   45.139">  3  5 -1 -1</clus>
<clus scale="  107.988">  1  6  2 -1</clus>
<clus scale="  107.988">  1  3  2 -1</clus>
</clustering>
</event>
<event>
 6    0  0.4582113E+002  0.8291280E+02  0.7546771E-02  0.1320983E+00
         21   -1    0    0  505  501  0.00000000000E+00  0.00000000000E+00  0.47455815438E+03  0.47455815438E+03  0.00000000000E+00 0.  1.
         21   -1    0    0  506  502 -0.00000000000E+00 -0.00000000000E+00 -0.20253688688E+03  0.20253688688E+03  0.00000000000E+00 0.  1.
         21    1    1    2  503  501 -0.10521001337E+02 -0.61873822616E+02  0.61711168419E+02  0.88018916727E+02  0.00000000000E+00 0.  1.
         21    1    1    2  504  502 -0.73112753563E+02  0.26820129283E+02 -0.14644398525E+03  0.16586330180E+03  0.00000000000E+00 0.  1.
         21    1    1    2  505  504  0.66442890304E+02 -0.50262199537E+01  0.37130645752E+03  0.37723786390E+03  0.00000000000E+00 0.  1.
         21    1    1    2  506  503  0.17190864596E+02  0.40079913286E+02 -0.14552373198E+02  0.45974958839E+02  0.00000000000E+00 0.  1.
<scales pt_clust_3="59.53004" pt_clust_4="82.91280" pt_clust_5="14000.00000" pt_clust_6="43.61107"></scales>
<clustering>
<clus scale="   43.611">  2  6  1 -1</clus>
<clus scale="   59.530">  1  3  2 -1</clus>
<clus scale="   82.913">  2  4  1 -1</clus>
<clus scale="   59.530">  1  3  2 -1</clus>
</clustering>
</event>
<event>
 6    0  0.4582113E+002  0.1333792E+03  0.7546771E-02  0.1222526E+00
         21   -1    0    0  506  501  0.00000000000E+00  0.00000000000E+00  0.20508347562E+03  0.20508347562E+03  0.00000000000E+00 0. -1.
         21   -1    0    0  505  502 -0.00000000000E+00 -0.00000000000E+00 -0.18458061412E+03  0.18458061412E+03  0.00000000000E+00 0. -1.
         21    1    1    2  503  504 -0.73589010835E+02 -0.27781233063E+02  0.59496180156E+02  0.98625224356E+02  0.00000000000E+00 0. -1.
         21    1    1    2  504  501 -0.66328662583E+02  0.15251499256E+02  0.59195829327E+02  0.90201141452E+02  0.00000000000E+00 0. -1.
         21    1    1    2  505  503  0.38867840624E+02  0.39995180896E+02 -0.75207643513E+02  0.93629659683E+02  0.00000000000E+00 0. -1.
         21    1    1    2  506  502  0.10104983279E+03 -0.27465447089E+02 -0.22981504473E+02  0.10720806425E+03  0.00000000000E+00 0. -1.
<scales pt_clust_3="39.83187" pt_clust_4="39.83187" pt_clust_5="55.77027" pt_clust_6="126.31844"></scales>
<clustering>
<clus scale="   39.832">  3  4 -1 -1</clus>
<clus scale="   55.770">  2  5  1 -1</clus>
<clus scale="  126.318">  2  6  1 -1</clus>
<clus scale="  133.379">  1  3  2 -1</clus>
</clustering>
</event>
<event>
 6    0  0.4582113E+002  0.1563744E+03  0.7546771E-02  0.1192852E+00
         21   -1    0    0  503  501  0.00000000000E+00  0.00000000000E+00  0.32474314190E+03  0.32474314190E+03  0.00000000000E+00 0.  1.
         21   -1    0    0  504  502 -0.00000000000E+00 -0.00000000000E+00 -0.14353945982E+03  0.14353945982E+03  0.00000000000E+00 0.  1.
         21    1    1    2  503  506 -0.29833931486E+02  0.30867296191E+02  0.10243245147E+03  0.11106421816E+03  0.00000000000E+00 0.  1.
         21    1    1    2  504  501 -0.41400978224E+02 -0.22920178798E+02  0.18198882057E+00  0.47322391254E+02  0.00000000000E+00 0. -1.
         21    1    1    2  505  502  0.16194787814E+03 -0.50194376058E+02 -0.18393203251E+02  0.17054295807E+03  0.00000000000E+00 0.  1.
         21    1    1    2  506  505 -0.90712968431E+02  0.42247258665E+02  0.96982445043E+02  0.13935303424E+03  0.00000000000E+00 0.  1.
<scales pt_clust_3="36.26220" pt_clust_4="47.32204" pt_clust_5="146.24555" pt_clust_6="36.26220"></scales>
<clustering>
<clus scale="   36.262">  3  6 -1 -1</clus>
<clus scale="   47.322">  2  4  1 -1</clus>
<clus scale="  146.246">  2  5  1 -1</clus>
<clus scale="  156.374">  1  3  2 -1</clus>
</clustering>
</event>
<event>
 6    0  0.4582113E+002  0.9687126E+02  0.7546771E-02  0.1287016E+00
         21   -1    0    0  504  501  0.00000000000E+00  0.00000000000E+00  0.79795987849E+03  0.79795987849E+03  0.00000000000E+00 0.  1.
         21   -1    0    0  505  502 -0.00000000000E+00 -0.00000000000E+00 -0.41564902109E+03  0.41564902109E+03  0.00000000000E+00 0. -1.
         21    1    1    2  503  506  0.42801487913E+02  0.57234658009E+02  0.22311661925E+03  0.23428358720E+03  0.00000000000E+00 0.  1.
         21    1    1    2  504  502  0.23503154095E+02 -0.72170019714E+02  0.10483411926E+03  0.12942605055E+03  0.00000000000E+00 0. -1.
         21    1    1    2  505  503 -0.97987315883E+02  0.95776422510E+01 -0.39108972894E+03  0.40329198032E+03  0.00000000000E+00 0. -1.
         21    1    1    2  506  501  0.31682673875E+02  0.53577194545E+01  0.44544984782E+03  0.44660728152E+03  0.00000000000E+00 0.  1.
<scales pt_clust_3="14000.00000" pt_clust_4="78.18928" pt_clust_5="96.87126" pt_clust_6="32.13249"></scales>
<clustering>
<clus scale="   32.132">  1  6  2 -1</clus>
<clus scale="   78.189">  1  4  2 -1</clus>
<clus scale="   96.871">  2  5  1 -1</clus>
<clus scale="   32.132">  1  3  2 -1</clus>
</clustering>
</event>
<event>
 6    0  0.4582113E+002  0.7490345E+02  0.7546771E-02  0.1344170E+00
         21   -1    0    0  505  501  0.00000000000E+00  0.00000000000E+00  0.11352657437E+03  0.11352657437E+03  0.00000000000E+00 0.  1.
         21   -1    0    0  506  502 -0.00000000000E+00 -0.00000000000E+00 -0.36309154778E+03  0.36309154778E+03  0.00000000000E+00 0.  1.
         21    1    1    2  503  502  0.67446174097E+02  0.15964877444E+02 -0.19462815202E+03  0.20660101953E+03  0.00000000000E+00 0.  1.
         21    1    1    2  504  503  0.65173504679E+02  0.10549955173E+02 -0.37858673163E+02  0.76106283577E+02  0.00000000000E+00 0.  1.
         21    1    1    2  505  504  0.22183380839E+01  0.38690333783E+02 -0.21010039818E+02  0.44082703244E+02  0.00000000000E+00 0.  1.
         21    1    1    2  506  501 -0.13483801686E+03 -0.65205166400E+02  0.39318915854E+01  0.14982811581E+03  0.00000000000E+00 0.  1.
<scales pt_clust_3="74.90345" pt_clust_4="67.96309" pt_clust_5="38.75388" pt_clust_6="14000.00000"></scales>
<clustering>
<clus scale="   38.754">  1  5  2 -1</clus>
<clus scale="   67.963">  1  4  2 -1</clus>
<clus scale="   74.903">  2  3  1 -1</clus>
<clus scale="   38.754">  1  3  2 -1</clus>
</clustering>
</event>
<event>
 6    0  0.4582113E+002  0.2321863E+03  0.7546771E-02  0.1125110E+00
         21   -1    0    0  505  501  0.00000000000E+00  0.00000000000E+00  0.35119434449E+03  0.35119434449E+03  0.00000000000E+00 0. -1.
         21   -1    0    0  503  502 -0.00000000000E+00 -0.00000000000E+00 -0.22005943934E+03  0.22005943934E+03  0.00000000000E+00 0. -1.
         21    1    1    2  503  504  0.39459128439E+02 -0.33632713035E+00  0.18160095724E+01  0.39502326816E+02  0.00000000000E+00 0. -1.
         21    1    1    2  504  506 -0.64983995826E+02  0.17570533322E+03  0.14080076462E+03  0.23435046225E+03  0.00000000000E+00 0. -1.
         21    1    1    2  505  502  0.66596955960E+02 -0.19779733395E+03 -0.72109193002E+02  0.22081366710E+03  0.00000000000E+00 0. -1.
         21    1    1    2  506  501 -0.41072088573E+02  0.22428327858E+02  0.60627323949E+02  0.76587327669E+02  0.00000000000E+00 0.  1.
<scales pt_clust_3="39.46056" pt_clust_4="37.41560" pt_clust_5="219.78695" pt_clust_6="37.41560"></scales>
<clustering>
<clus scale="   37.416">  4  6 -1 -1</clus>
<clus scale="   39.461">  2  3  1 -1</clus>
<clus scale="  219.787">  2  5  1 -1</clus>
<clus scale="  232.186">  1  3  2 -1</clus>
</clustering>
</event>
<event>
 6    0  0.4582113E+002  0.1073298E+03  0.7546771E-02  0.1265596E+00
         21   -1    0    0  506  501  0.00000000000E+00  0.00000000000E+00  0.25869783426E+04  0.25869783426E+04  0.00000000000E+00 0.  1.
         21   -1    0    0  505  502 -0.00000000000E+00 -0.00000000000E+00 -0.96658229266E+01  0.96658229266E+01  0.00000000000E+00 0.  1.
         21    1    1    2  503  501  0.30866446433E+02  0.89286254447E+02  0.77234551150E+03  0.77810176834E+03  0.00000000000E+00 0.  1.
         21    1    1    2  504  502  0.74192123661E+01 -0.12603474962E+03  0.12033541446E+04  0.12099590903E+04  0.00000000000E+00 0.  1.
         21    1    1    2  505  503  0.53289969970E+00  0.33536777907E+02  0.10030175370E+03  0.10576124645E+03  0.00000000000E+00 0.  1.
         21    1    1    2  506  504 -0.38818558499E+02  0.32117172636E+01  0.50131110988E+03  0.50282206048E+03  0.00000000000E+00 0. -1.
<scales pt_clust_3="14000.00000" pt_clust_4="107.32978" pt_clust_5="33.54101" pt_clust_6="39.36368"></scales>
<clustering>
<clus scale="   33.541">  2  5  1 -1</clus>
<clus scale="   39.364">  1  6  2 -1</clus>
<clus scale="  107.330">  2  4  1 -1</clus>
<clus scale="   39.364">  1  3  2 -1</clus>
</clustering>
</event>
<event>
 6    0  0.4582113E+002  0.1759100E+03  0.7546771E-02  0.1171821E+00
         21   -1    0    0  503  501  0.00000000000E+00  0.00000000000E+00  0.42953033849E+03  0.42953033849E+03  0.00000000000E+00 0.  1.
         21   -1    0    0  504  502 -0.00000000000E+00 -0.00000000000E+00 -0.15398244519E+03  0.15398244519E+03  0.00000000000E+00 0.  1.
         21    1    1    2  503  506  0.30505909613E+02 -0.95555176007E+02 -0.22992196443E+02  0.10290793594E+03  0.00000000000E+00 0.  1.
         21    1    1    2  504  505  0.21414942237E+02  0.22162580638E+02 -0.20905271110E+01  0.30889319111E+02  0.00000000000E+00 0.  1.
         21    1    1    2  505  501 -0.35171303639E+01  0.15375066771E+03  0.31898842917E+03  0.35412604532E+03  0.00000000000E+00 0.  1.
         21    1    1    2  506  502 -0.48403721486E+02 -0.80358072344E+02 -0.18357812323E+02  0.95589483301E+02  0.00000000000E+00 0.  1.
<scales pt_clust_3="74.42589" pt_clust_4="30.81850" pt_clust_5="156.58455" pt_clust_6="74.42589"></scales>
<clustering>
<clus scale="   30.818">  2  4  1 -1</clus>
<clus scale="   74.426">  3  6 -1 -1</clus>
<clus scale="  156.585">  1  5  2 -1</clus>
<clus scale="  156.585">  1  3  2 -1</clus>
</clustering>
</event>
<event>
 6    0  0.4582113E+002  0.1442886E+03  0.7546771E-02  0.1207672E+00
         21   -1    0    0  506  501  0.00000000000E+00  0.00000000000E+00  0.18721190063E+03  0.18721190063E+03  0.00000000000E+00 0.  1.
         21   -1    0    0  505  502 -0.00000000000E+00 -0.00000000000E+00 -0.67472954706E+03  0.67472954706E+03  0.00000000000E+00 0. -1.
         21    1    1    2  503  501 -0.33893724696E+02  0.67044886607E+02  0.10744603354E+03  0.13110473492E+03  0.00000000000E+00 0.  1.
         21    1    1    2  504  502 -0.48554795283E+01 -0.34460341588E+02 -0.34197289684E+03  0.34373907692E+03  0.00000000000E+00 0. -1.
         21    1    1    2  505  503  0.14522189350E+03 -0.82602263966E+02 -0.19226560071E+03  0.25471276682E+03  0.00000000000E+00 0. -1.
         21    1    1    2  506  504 -0.10647268927E+03  0.50017718947E+02 -0.60725182417E+02  0.13238486904E+03  0.00000000000E+00 0.  1.
<scales pt_clust_3="74.11051" pt_clust_4="34.80073" pt_clust_5="144.28862" pt_clust_6="14000.00000"></scales>
<clustering>
<clus scale="   34.801">  2  4  1 -1</clus>
<clus scale="   74.111">  1  3  2 -1</clus>
<clus scale="  144.289">  1  5  2 -1</clus>
<clus scale="   74.111">  1  3  2 -1</clus>
</clustering>
</event>
<event>
 6    0  0.4582113E+002  0.1918841E+03  0.7546771E-02  0.1156773E+00
         21   -1    0    0  502  501  0.00000000000E+00  0.00000000000E+00  0.94212670186E+03  0.94212670186E+03  0.00000000000E+00 0.  1.
         21   -1    0    0  505  502 -0.00000000000E+00 -0.00000000000E+00 -0.52080906598E+02  0.52080906598E+02  0.00000000000E+00 0.  1.
         21    1    1    2  503  501 -0.32217881537E+02  0.41682876462E+01  0.23794654050E+03  0.24015395614E+03  0.00000000000E+00 0.  1.
         21    1    1    2  504  503 -0.66756762014E+02  0.81099137868E+02  0.24460407748E+03  0.26620422641E+03  0.00000000000E+00 0.  1.
         21    1    1    2  505  506  0.10759226652E+03 -0.15982101847E+03  0.27936967079E+03  0.33936155751E+03  0.00000000000E+00 0.  1.
         21    1    1    2  506  504 -0.86176229665E+01  0.74553592956E+02  0.12812550649E+03  0.14848786840E+03  0.00000000000E+00 0. -1.
<scales pt_clust_3="32.48641" pt_clust_4="45.96883" pt_clust_5="183.53850" pt_clust_6="45.96883"></scales>
<clustering>
<clus scale="   32.486">  1  3  2 -1</clus>
<clus scale="   45.969">  4  6 -1 -1</clus>
<clus scale="  183.539">  2  5  1 -1</clus>
<clus scale="   32.486">  1  3  2 -1</clus>
</clustering>
</event>
<event>
 6    0  0.4582113E+002  0.9661367E+02  0.7546771E-02  0.1287582E+00
         21   -1    0    0  505  501  0.00000000000E+00  0.00000000000E+00  0.36636624187E+03  0.36636624187E+03  0.00000000000E+00 0.  1.
         21   -1    0    0  504  502 -0.00000000000E+00 -0.00000000000E+00 -0.24042111916E+03  0.24042111916E+03  0.00000000000E+00 0. -1.
         21    1    1    2  503  501  0.15998331124E+02 -0.61155732185E+02  0.23705261989E+03  0.24533632991E+03  0.00000000000E+00 0.  1.
         21    1    1    2  504  503 -0.11197703647E+02  0.11507908250E+03 -0.12246248911E+03  0.16842103501E+03  0.00000000000E+00 0. -1.
         21    1    1    2  505  506  0.34264466834E+02  0.23032900237E+02  0.75124858130E+02  0.85722298673E+02  0.00000000000E+00 0.  1.
         21    1    1    2  506  502 -0.39065094311E+02 -0.76956250555E+02 -0.63769866199E+02  0.10730769743E+03  0.00000000000E+00 0. -1.
<scales pt_clust_3="61.29630" pt_clust_4="14000.00000" pt_clust_5="41.28642" pt_clust_6="96.61367"></scales>
<clustering>
<clus scale="   41.286">  1  5  2 -1</clus>
<clus scale="   61.296">  1  3  2 -1</clus>
<clus scale="   96.614">  2  6  1 -1</clus>
<clus scale="   41.286">  1  3  2 -1</clus>
</clustering>
</event>
<event>
 6    0  0.4582113E+002  0.1399291E+03  0.7546771E-02  0.1213424E+00
         21   -1    0    0  503  501  0.00000000000E+00  0.00000000000E+00  0.68611599295E+03  0.68611599295E+03  0.00000000000E+00 0. -1.
         21   -1    0    0  504  502 -0.00000000000E+00 -0.00000000000E+00 -0.52291672978E+02  0.52291672978E+02  0.00000000000E+00 0. -1.
         21    1    1    2  503  506 -0.29287716985E+01  0.45031933809E+02  0.37147433415E+02  0.58449846668E+02  0.00000000000E+00 0. -1.
         21    1    1    2  504  505  0.42175563006E+02 -0.15218768656E+03  0.25321774673E+03  0.29842770869E+03  0.00000000000E+00 0. -1.
         21    1    1    2  505  501 -0.75482730839E+02  0.34823408453E+02  0.20427858383E+03  0.22054489848E+03  0.00000000000E+00 0. -1.
         21    1    1    2  506  502  0.36235939531E+02  0.72332344300E+02  0.13918055600E+03  0.16098521210E+03  0.00000000000E+00 0. -1.
<scales pt_clust_3="34.84293" pt_clust_4="131.92309" pt_clust_5="83.12829" pt_clust_6="34.84293"></scales>
<clustering>
<clus scale="   34.843">  3  6 -1 -1</clus>
<clus scale="   83.128">  1  5  2 -1</clus>
<clus scale="  131.923">  1  4  2 -1</clus>
<clus scale="   83.128">  1  3  2 -1</clus>
</clustering>
</event>
<event>
 6    0  0.4582113E+002  0.7667806E+02  0.7546771E-02  0.1338752E+00
         21   -1    0    0  505  501  0.00000000000E+00  0.00000000000E+00  0.58951461582E+03  0.58951461582E+03  0.00000000000E+00 0.  1.
         21   -1    0    0  506  502 -0.00000000000E+00 -0.00000000000E+00 -0.38014526998E+03  0.38014526998E+03  0.00000000000E+00 0.  1.
         21    1    1    2  503  502 -0.32580786540E+02  0.48017105468E+02 -0.32840002404E+03  0.33348721993E+03  0.00000000000E+00 0.  1.
         21    1    1    2  504  503 -0.10726329101E+03  0.15505537039E+02  0.57463880878E+02  0.12267001623E+03  0.00000000000E+00 0.  1.
         21    1    1    2  505  504  0.70011941410E+02 -0.21595257593E+02  0.36529810549E+03  0.37257312432E+03  0.00000000000E+00 0.  1.
         21    1    1    2  506  501  0.69832136138E+02 -0.41927384914E+02  0.11500738351E+03  0.14092952532E+03  0.00000000000E+00 0.  1.
<scales pt_clust_3="58.02715" pt_clust_4="14000.00000" pt_clust_5="76.67806" pt_clust_6="67.88754"></scales>
<clustering>
<clus scale="   58.027">  2  3  1 -1</clus>
<clus scale="   67.888">  2  6  1 -1</clus>
<clus scale="   76.678">  1  5  2 -1</clus>
<clus scale="   76.678">  1  3  2 -1</clus>
</clustering>
</event>
<event>
 6    0  0.4582113E+002  0.1121609E+03  0.7546771E-02  0.1256620E+00
         21   -1    0    0  505  501  0.00000000000E+00  0.00000000000E+00  0.18625616110E+04  0.18625616110E+04  0.00000000000E+00 0. -1.
         21   -1    0    0  504  502 -0.00000000000E+00 -0.00000000000E+00 -0.10623189020E+03  0.10623189020E+03  0.00000000000E+00 0.  1.
         21    1    1    2  503  502  0.34592534805E+02  0.50585912483E+02 -0.20431470738E+02  0.64598939639E+02  0.00000000000E+00 0.  1.
         21    1    1    2  504  501  0.70657462828E+02  0.48732159617E+02  0.15050110222E+04  0.15074566254E+04  0.00000000000E+00 0. -1.
         21    1    1    2  505  506  0.34469477576E+02 -0.11186901515E+02  0.22096210906E+03  0.22391414714E+03  0.00000000000E+00 0. -1.
         21    1    1    2  506  503 -0.13971947521E+03 -0.88131170585E+02  0.50788060224E+02  0.17282378900E+03  0.00000000000E+00 0.  1.
<scales pt_clust_3="61.42220" pt_clust_4="112.16087" pt_clust_5="36.23937" pt_clust_6="14000.00000"></scales>
<clustering>
<clus scale="   36.239">  1  5  2 -1</clus>
<clus scale="   61.422">  2  3  1 -1</clus>
<clus scale="  112.161">  1  4  2 -1</clus>
<clus scale="   36.239">  1  3  2 -1</clus>
</clustering>
</event>
<event>
 6    0  0.4582113E+002  0.1347232E+03  0.7546771E-02  0.1220611E+00
         21   -1    0    0  502  501  0.00000000000E+00  0.00000000000E+00  0.71087851286E+02  0.71087851286E+02  0.00000000000E+00 0. -1.
         21   -1    0    0  504  502 -0.00000000000E+00 -0.00000000000E+00 -0.16404198566E+04  0.16404198566E+04  0.00000000000E+00 0.  1.
         21    1    1    2  503  501  0.10337345669E+02  0.36130909351E+02  0.16338945983E+01  0.37616126031E+02  0.00000000000E+00 0. -1.
         21    1    1    2  504  505 -0.34506464952E+02 -0.46679113330E+02 -0.11871863274E+04  0.11886046490E+04  0.00000000000E+00 0.  1.
         21    1    1    2  505  506 -0.10861582225E+03  0.59674893073E+02 -0.29025398717E+03  0.31560397142E+03  0.00000000000E+00 0. -1.
         21    1    1    2  506  503  0.13278494153E+03 -0.49126689094E+02 -0.93525585353E+02  0.16968296141E+03  0.00000000000E+00 0. -1.
<scales pt_clust_3="37.58062" pt_clust_4="57.56380" pt_clust_5="134.72317" pt_clust_6="14000.00000"></scales>
<clustering>
<clus scale="   37.581">  1  3  2 -1</clus>
<clus scale="   57.564">  2  4  1 -1</clus>
<clus scale="  134.723">  2  5  1 -1</clus>
<clus scale="   37.581">  1  3  2 -1</clus>
</clustering>
</event>
<event>
 6    0  0.4582113E+002  0.1274246E+03  0.7546771E-02  0.1231328E+00
         21   -1    0    0  502  501  0.00000000000E+00  0.00000000000E+00  0.30799620779E+03  0.30799620779E+03  0.00000000000E+00 0. -1.
         21   -1    0    0  504  502 -0.00000000000E+00 -0.00000000000E+00 -0.82252132226E+03  0.82252132226E+03  0.00000000000E+00 0. -1.
         21    1    1    2  503  506 -0.70015199256E+02 -0.74284113972E+02 -0.35595046241E+03  0.37029851391E+03  0.00000000000E+00 0. -1.
         21    1    1    2  504  505  0.30759067023E+00  0.30621367699E+02 -0.31787216530E+03  0.31934382136E+03  0.00000000000E+00 0. -1.
         21    1    1    2  505  503 -0.36888375027E+02  0.64403115040E+01 -0.12737703885E+03  0.13276723937E+03  0.00000000000E+00 0. -1.
         21    1    1    2  506  501  0.10659598361E+03  0.37222434769E+02  0.28667455208E+03  0.30810795541E+03  0.00000000000E+00 0. -1.
<scales pt_clust_3="39.47666" pt_clust_4="30.62291" pt_clust_5="39.47666" pt_clust_6="113.13051"></scales>
<clustering>
<clus scale="   30.623">  2  4  1 -1</clus>
<clus scale="   39.477">  3  5 -1 -1</clus>
<clus scale="  113.131">  1  6  2 -1</clus>
<clus scale="  113.131">  1  3  2 -1</clus>
</clustering>
</event>
<event>
 6    0  0.4582113E+002  0.1409981E+03  0.7546771E-02  0.1211992E+00
         21   -1    0    0  505  501  0.00000000000E+00  0.00000000000E+00  0.21535176000E+04  0.21535176000E+04  0.00000000000E+00 0.  1.
         21   -1    0    0  506  502 -0.00000000000E+00 -0.00000000000E+00 -0.20672432091E+03  0.20672432091E+03  0.00000000000E+00 0.  1.
         21    1    1    2  503  504  0.48524949020E+02  0.14321217785E+02  0.69791814645E+03  0.69974960315E+03  0.00000000000E+00 0. -1.
         21    1    1    2  504  501  0.57581100183E+02  0.70109871826E+02  0.13992142643E+04  0.14021524648E+04  0.00000000000E+00 0.  1.
         21    1    1    2  505  502 -0.17274606859E+02 -0.48411137442E+02  0.26021584732E+02  0.57612265557E+02  0.00000000000E+00 0. -1.
         21    1    1    2  506  503 -0.88831442343E+02 -0.36019952168E+02 -0.17636071632E+03  0.20072758745E+03  0.00000000000E+00 0.  1.
<scales pt_clust_3="30.24977" pt_clust_4="30.24977" pt_clust_5="51.40088" pt_clust_6="135.05413"></scales>
<clustering>
<clus scale="   30.250">  3  4 -1 -1</clus>
<clus scale="   51.401">  2  5  1 -1</clus>
<clus scale="  135.054">  2  6  1 -1</clus>
<clus scale="  140.998">  1  3  2 -1</clus>
</clustering>
</event>
<event>
 6    0  0.4582113E+002  0.1111457E+03  0.7546771E-02  0.1258463E+00
         21   -1    0    0  504  501  0.00000000000E+00  0.00000000000E+00  0.12832118368E+03  0.12832118368E+03  0.00000000000E+00 0.  1.
         21   -1    0    0  503  502 -0.00000000000E+00 -0.00000000000E+00 -0.11370466730E+04  0.11370466730E+04  0.00000000000E+00 0.  1.
         21    1    1    2  503  506  0.31551193608E+01 -0.67085956866E+02  0.66602084301E+02  0.94584977772E+02  0.00000000000E+00 0.  1.
         21    1    1    2  504  505  0.43353239343E+02  0.38781311242E+02 -0.52928907184E+02  0.78644533687E+02  0.00000000000E+00 0.  1.
         21    1    1    2  505  502 -0.45828886908E+02  0.87404188987E+02 -0.10280400730E+04  0.10327662711E+04  0.00000000000E+00 0.  1.
         21    1    1    2  506  501 -0.67947179538E+00 -0.59099543362E+02  0.56414066015E+01  0.59372074042E+02  0.00000000000E+00 0. -1.
<scales pt_clust_3="47.41593" pt_clust_4="58.16780" pt_clust_5="98.98796" pt_clust_6="47.41593"></scales>
<clustering>
<clus scale="   47.416">  3  6 -1 -1</clus>
<clus scale="   58.168">  1  4  2 -1</clus>
<clus scale="   98.988">  2  5  1 -1</clus>
<clus scale="   58.168">  1  3  2 -1</clus>
</clustering>
</event>
<event>
 6    0  0.4582113E+002  0.1304452E+03  0.7546771E-02  0.1226797E+00
         21   -1    0    0  504  501  0.00000000000E+00  0.00000000000E+00  0.11959121693E+04  0.11959121693E+04  0.00000000000E+00 0. -1.
         21   -1    0    0  505  502 -0.00000000000E+00 -0.00000000000E+00 -0.13893867439E+02  0.13893867439E+02  0.00000000000E+00 0. -1.
         21    1    1    2  503  501  0.72988143809E+01 -0.72670433661E+02  0.32437796763E+03  0.33249861729E+03  0.00000000000E+00 0. -1.
         21    1    1    2  504  506  0.42916927316E+02  0.75308004962E+02  0.34359257031E+03  0.35435718228E+03  0.00000000000E+00 0. -1.
         21    1    1    2  505  503 -0.28490128158E+02 -0.40609107876E+02  0.33400877991E+03  0.33767240353E+03  0.00000000000E+00 0.  1.
         21    1    1    2  506  502 -0.21725613538E+02  0.37971536575E+02  0.18003898397E+03  0.18527783359E+03  0.00000000000E+00 0. -1.
<scales pt_clust_3="125.12429" pt_clust_4="43.41541" pt_clust_5="40.16149" pt_clust_6="43.41541"></scales>
<clustering>
<clus scale="   40.161">  3  5 -1 -1</clus>
<clus scale="   43.415">  4  6 -1 -1</clus>
<clus scale="  125.124">  1  3  2 -1</clus>
<clus scale="  125.124">  1  3  2 -1</clus>
</clustering>
</event>
<event>
 6    0  0.4582113E+002  0.1189391E+03  0.7546771E-02  0.1244858E+00
         21   -1    0    0  503  501  0.00000000000E+00  0.00000000000E+00  0.74655835976E+03  0.74655835976E+03  0.00000000000E+00 0.  1.
         21   -1    0    0  501  502 -0.00000000000E+00 -0.00000000000E+00 -0.87327418452E+02  0.87327418452E+02  0.00000000000E+00 0.  1.
         21    1    1    2  503  505 -0.34323377967E+02 -0.31853550288E+01  0.49487883332E+02  0.60309960690E+02  0.00000000000E+00 0.  1.
         21    1    1    2  504  502  0.34431298198E+02  0.44929772981E+02 -0.30191957029E+02  0.64154135213E+02  0.00000000000E+00 0.  1.
         21    1    1    2  505  506 -0.78030962405E+02 -0.76503783247E+02  0.60890057727E+03  0.61862878444E+03  0.00000000000E+00 0.  1.
         21    1    1    2  506  504  0.77923042175E+02  0.34759365295E+02  0.31034437739E+02  0.90792897868E+02  0.00000000000E+00 0.  1.
<scales pt_clust_3="34.47087" pt_clust_4="56.03444" pt_clust_5="118.93908" pt_clust_6="14000.00000"></scales>
<clustering>
<clus scale="   34.471">  1  3  2 -1</clus>
<clus scale="   56.034">  2  4  1 -1</clus>
<clus scale="  118.939">  1  5  2 -1</clus>
<clus scale="   34.471">  1  3  2 -1</clus>
</clustering>
</event>
<event>
 6    0  0.4582113E+002  0.1105234E+03  0.7546771E-02  0.1259604E+00
         21   -1    0    0  506  501  0.00000000000E+00  0.00000000000E+00  0.15236560671E+03  0.15236560671E+03  0.00000000000E+00 0. -1.
         21   -1    0    0  505  502 -0.00000000000E+00 -0.00000000000E+00 -0.18642266651E+03  0.18642266651E+03  0.00000000000E+00 0. -1.
         21    1    1    2  503  502  0.59387599001E+02  0.26967512189E+02 -0.96859464789E+02  0.11677281168E+03  0.00000000000E+00 0. -1.
         21    1    1    2  504  501 -0.52173754538E+02 -0.36687376358E+02  0.10795734095E+02  0.64688577982E+02  0.00000000000E+00 0. -1.
         21    1    1    2  505  504 -0.72507436751E+02  0.85260809935E+01  0.55834399949E+02  0.91910296806E+02  0.00000000000E+00 0. -1.
         21    1    1    2  506  503  0.65293592288E+02  0.11937831760E+01 -0.38277290584E+01  0.65416586749E+02  0.00000000000E+00 0. -1.
<scales pt_clust_3="65.22372" pt_clust_4="57.20062" pt_clust_5="57.20062" pt_clust_6="92.03394"></scales>
<clustering>
<clus scale="   57.201">  4  5 -1 -1</clus>
<clus scale="   65.224">  2  3  1 -1</clus>
<clus scale="   92.034">  1  6  2 -1</clus>
<clus scale="   92.034">  1  3  2 -1</clus>
</clustering>
</event>
<event>
 6    0  0.4582113E+002  0.1030691E+03  0.7546771E-02  0.1273971E+00
         21   -1    0    0  506  501  0.00000000000E+00  0.00000000000E+00  0.14186922696E+04  0.14186922696E+04  0.00000000000E+00 0. -1.
         21   -1    0    0  503  502 -0.00000000000E+00 -0.00000000000E+00 -0.10109848356E+03  0.10109848356E+03  0.00000000000E+00 0. -1.
         21    1    1    2  503  505 -0.51145695975E+01 -0.31857303026E+02 -0.37430545800E+01  0.32481641520E+02  0.00000000000E+00 0.  1.
         21    1    1    2  504  502 -0.95610207603E+02  0.63691572445E+01 -0.47586303973E+02  0.10698754268E+03  0.00000000000E+00 0. -1.
         21    1    1    2  505  501 -0.12247589339E+02  0.54772633476E+02  0.31549174357E+03  0.32044513584E+03  0.00000000000E+00 0.  1.
         21    1    1    2  506  504  0.11297236654E+03 -0.29284487695E+02  0.10534314010E+04  0.10598764331E+04  0.00000000000E+00 0. -1.
<scales pt_clust_3="32.26525" pt_clust_4="14000.00000" pt_clust_5="55.23186" pt_clust_6="103.06911"></scales>
<clustering>
<clus scale="   32.265">  2  3  1 -1</clus>
<clus scale="   55.232">  1  5  2 -1</clus>
<clus scale="  103.069">  1  6  2 -1</clus>
<clus scale="   55.232">  1  3  2 -1</clus>
</clustering>
</event>
<event>
 6    0  0.4582113E+002  0.1371895E+03  0.7546771E-02  0.1217162E+00
         21   -1    0    0  504  501  0.00000000000E+00  0.00000000000E+00  0.24063004035E+04  0.24063004035E+04  0.00000000000E+00 0.  1.
         21   -1    0    0  505  502 -0.00000000000E+00 -0.00000000000E+00 -0.39680917148E+02  0.39680917148E+02  0.00000000000E+00 0. -1.
         21    1    1    2  503  501 -0.24298066851E+02 -0.43359419954E+02  0.97270480783E+03  0.97397385926E+03  0.00000000000E+00 0.  1.
         21    1    1    2  504  506  0.97103960103E+02 -0.90635116875E+02  0.11548799704E+04  0.11624937202E+04  0.00000000000E+00 0.  1.
         21    1    1    2  505  503 -0.22514535022E+02  0.11898179379E+03  0.22446396528E+03  0.25504439467E+03  0.00000000000E+00 0. -1.
         21    1    1    2  506  502 -0.50291358229E+02  0.15012743043E+02  0.14570742877E+02  0.54469346556E+02  0.00000000000E+00 0. -1.
<scales pt_clust_3="49.70347" pt_clust_4="14000.00000" pt_clust_5="137.18949" pt_clust_6="52.75935"></scales>
<clustering>
<clus scale="   49.703">  1  3  2 -1</clus>
<clus scale="   52.759">  2  6  1 -1</clus>
<clus scale="  137.189">  2  5  1 -1</clus>
<clus scale="   49.703">  1  3  2 -1</clus>
</clustering>
</event>
<event>
 6    0  0.4582113E+002  0.9612765E+02  0.7546771E-02  0.1288656E+00
         21   -1    0    0  504  501  0.00000000000E+00  0.00000000000E+00  0.32999495376E+03  0.32999495376E+03  0.00000000000E+00 0.  1.
         21   -1    0    0  503  502 -0.00000000000E+00 -0.00000000000E+00 -0.45936949124E+03  0.45936949124E+03  0.00000000000E+00 0.  1.
         21    1    1    2  503  506 -0.30645335505E+02 -0.28437107912E+02 -0.39753090501E+03  0.39972318688E+03  0.00000000000E+00 0.  1.
         21    1    1    2  504  505  0.20837688362E+02  0.26810535181E+02  0.62126625942E+02  0.70800647623E+02  0.00000000000E+00 0. -1.
         21    1    1    2  505  502  0.60792171927E+02  0.98461503849E+02  0.45032703346E+02  0.12417044849E+03  0.00000000000E+00 0.  1.
         21    1    1    2  506  501 -0.50984524784E+02 -0.96834931118E+02  0.16099703824E+03  0.19467016201E+03  0.00000000000E+00 0.  1.
<scales pt_clust_3="41.66739" pt_clust_4="33.95606" pt_clust_5="14000.00000" pt_clust_6="96.12765"></scales>
<clustering>
<clus scale="   33.956">  1  4  2 -1</clus>
<clus scale="   41.667">  2  3  1 -1</clus>
<clus scale="   96.128">  1  6  2 -1</clus>
<clus scale="   33.956">  1  3  2 -1</clus>
</clustering>
</event>
<event>
 6    0  0.4582113E+002  0.1113980E+03  0.7546771E-02  0.1258003E+00
         21   -1    0    0  503  501  0.00000000000E+00  0.00000000000E+00  0.26769508246E+03  0.26769508246E+03  0.00000000000E+00 0. -1.
         21   -1    0    0  504  502 -0.00000000000E+00 -0.00000000000E+00 -0.18011088550E+03  0.18011088550E+03  0.00000000000E+00 0.  1.
         21    1    1    2  503  502  0.79043299327E+02 -0.24735614264E+02  0.61934501923E+02  0.10341941940E+03  0.00000000000E+00 0. -1.
         21    1    1    2  504  506  0.41646741712E+02  0.18113420411E+02 -0.13206556348E+03  0.13965622132E+03  0.00000000000E+00 0.  1.
         21    1    1    2  505  501 -0.51122036660E+02 -0.77827395073E+01  0.10231138729E+03  0.11463705176E+03  0.00000000000E+00 0. -1.
         21    1    1    2  506  505 -0.69568004379E+02  0.14404933361E+02  0.55403871241E+02  0.90093275481E+02  0.00000000000E+00 0. -1.
<scales pt_clust_3="99.89518" pt_clust_4="45.41527" pt_clust_5="42.06041" pt_clust_6="42.06041"></scales>
<clustering>
<clus scale="   42.060">  5  6 -1 -1</clus>
<clus scale="   45.415">  2  4  1 -1</clus>
<clus scale="   99.895">  1  3  2 -1</clus>
<clus scale="   99.895">  1  3  2 -1</clus>
</clustering>
</event>
<event>
 6    0  0.4582113E+002  0.1066769E+03  0.7546771E-02  0.1266850E+00
         21   -1    0    0  502  501  0.00000000000E+00  0.00000000000E+00  0.50151827231E+03  0.50151827231E+03  0.00000000000E+00 0. -1.
         21   -1    0    0  506  502 -0.00000000000E+00 -0.00000000000E+00 -0.12180877441E+04  0.12180877441E+04  0.00000000000E+00 0.  1.
         21    1    1    2  503  504 -0.45301685878E+02  0.99672119392E+02 -0.64515928178E+03  0.65438312401E+03  0.00000000000E+00 0.  1.
         21    1    1    2  504  505  0.14736184653E+03 -0.19801850294E+02  0.35042107395E+03  0.38066068376E+03  0.00000000000E+00 0. -1.
         21    1    1    2  505  501 -0.64434283066E+02 -0.47302456081E+02  0.11795471392E+03  0.14248724056E+03  0.00000000000E+00 0. -1.
         21    1    1    2  506  503 -0.37625877589E+02 -0.32567813018E+02 -0.53978597786E+03  0.54207496807E+03  0.00000000000E+00 0.  1.
<scales pt_clust_3="14000.00000" pt_clust_4="106.67693" pt_clust_5="80.83165" pt_clust_6="49.76313"></scales>
<clustering>
<clus scale="   49.763">  2  6  1 -1</clus>
<clus scale="   80.832">  1  5  2 -1</clus>
<clus scale="  106.677">  1  4  2 -1</clus>
<clus scale="   80.832">  1  3  2 -1</clus>
</clustering>
</event>
<event>
 6    0  0.4582113E+002  0.1253894E+03  0.7546771E-02  0.1234462E+00
         21   -1    0    0  503  501  0.00000000000E+00  0.00000000000E+00  0.12327141992E+04  0.12327141992E+04  0.00000000000E+00 0.  1.
         21   -1    0    0  505  502 -0.00000000000E+00 -0.00000000000E+00 -0.29318778446E+03  0.29318778446E+03  0.00000000000E+00 0. -1.
         21    1    1    2  503  506  0.47133237891E+02 -0.14811759980E+01  0.64310455398E+03  0.64483114328E+03  0.00000000000E+00 0.  1.
         21    1    1    2  504  501  0.65594350001E+02 -0.57759382561E+02  0.53941553902E+03  0.54645026193E+03  0.00000000000E+00 0. -1.
         21    1    1    2  505  504 -0.25564196968E+01 -0.52060701121E+02 -0.13410620355E+03  0.14387955280E+03  0.00000000000E+00 0. -1.
         21    1    1    2  506  502 -0.11017116820E+03  0.11130125968E+03 -0.10888747473E+03  0.19074102563E+03  0.00000000000E+00 0. -1.
<scales pt_clust_3="47.15651" pt_clust_4="125.38937" pt_clust_5="52.11799" pt_clust_6="14000.00000"></scales>
<clustering>
<clus scale="   47.157">  1  3  2 -1</clus>
<clus scale="   52.118">  2  5  1 -1</clus>
<clus scale="  125.389">  1  4  2 -1</clus>
<clus scale="   47.157">  1  3  2 -1</clus>
</clustering>
</event>
<event>
 6    0  0.4582113E+002  0.1068127E+03  0.7546771E-02  0.1266589E+00
         21   -1    0    0  503  501  0.00000000000E+00  0.00000000000E+00  0.91887825321E+03  0.91887825321E+03  0.00000000000E+00 0.  1.
         21   -1    0    0  504  502 -0.00000000000E+00 -0.00000000000E+00 -0.69781784828E+02  0.69781784828E+02  0.00000000000E+00 0.  1.
         21    1    1    2  503  502  0.77280424465E+02  0.13038716347E+03  0.55086810435E+02  0.16126882243E+03  0.00000000000E+00 0.  1.
         21    1    1    2  504  505 -0.38362070437E+02 -0.30878477057E+02  0.60335745281E+02  0.77881518682E+02  0.00000000000E+00 0.  1.
         21    1    1    2  505  506  0.12344152954E+00 -0.92483732270E+02  0.29769855856E+03  0.31173336000E+03  0.00000000000E+00 0.  1.
         21    1    1    2  506  501 -0.39041795558E+02 -0.70249541436E+01  0.43597535411E+03  0.43777633693E+03  0.00000000000E+00 0.  1.
<scales pt_clust_3="14000.00000" pt_clust_4="54.30620" pt_clust_5="106.81266" pt_clust_6="39.66878"></scales>
<clustering>
<clus scale="   39.669">  1  6  2 -1</clus>
<clus scale="   54.306">  2  4  1 -1</clus>
<clus scale="  106.813">  1  5  2 -1</clus>
<clus scale="   39.669">  1  3  2 -1</clus>
</clustering>
</event>
<event>
 6    0  0.4582113E+002  0.1612922E+03  0.7546771E-02  0.1187246E+00
         21   -1    0    0  506  501  0.00000000000E+00  0.00000000000E+00  0.42446915893E+03  0.42446915893E+03  0.00000000000E+00 0.  1.
         21   -1    0    0  505  502 -0.00000000000E+00 -0.00000000000E+00 -0.27807117294E+03  0.27807117294E+03  0.00000000000E+00 0. -1.
         21    1    1    2  503  504 -0.85302638370E+02  0.26418857593E+02  0.21002669678E+03  0.22822293818E+03  0.00000000000E+00 0.  1.
         21    1    1    2  504  502 -0.44280587748E+02 -0.15751765645E+02 -0.29804730959E+02  0.55652588078E+02  0.00000000000E+00 0.  1.
         21    1    1    2  505  501  0.17924522328E+03 -0.59306793656E+02 -0.17744847149E+03  0.25910250071E+03  0.00000000000E+00 0. -1.
         21    1    1    2  506  503 -0.49661997160E+02  0.48639701708E+02  0.14362449165E+03  0.15956230490E+03  0.00000000000E+00 0. -1.
<scales pt_clust_3="33.70042" pt_clust_4="46.99881" pt_clust_5="156.70411" pt_clust_6="33.70042"></scales>
<clustering>
<clus scale="   33.700">  3  6 -1 -1</clus>
<clus scale="   46.999">  2  4  1 -1</clus>
<clus scale="  156.704">  2  5  1 -1</clus>
<clus scale="  161.292">  1  3  2 -1</clus>
</clustering>
</event>
<event>
 6    0  0.4582113E+002  0.1154439E+03  0.7546771E-02  0.1250808E+00
         21   -1    0    0  504  501  0.00000000000E+00  0.00000000000E+00  0.13299986437E+04  0.13299986437E+04  0.00000000000E+00 0. -1.
         21   -1    0    0  505  502 -0.00000000000E+00 -0.00000000000E+00 -0.49111263442E+03  0.49111263442E+03  0.00000000000E+00 0.  1.
         21    1    1    2  503  506 -0.69212159637E+02 -0.33982773489E+02 -0.37885622998E+02  0.85909675623E+02  0.00000000000E+00 0.  1.
         21    1    1    2  504  502 -0.19226721450E+02  0.25201319564E+02  0.69636447353E+03  0.69708554233E+03  0.00000000000E+00 0. -1.
         21    1    1    2  505  503  0.13068637467E+03  0.24185479000E+02 -0.41769298156E+03  0.43832783709E+03  0.00000000000E+00 0.  1.
         21    1    1    2  506  501 -0.42247493584E+02 -0.15404025075E+02  0.59810014029E+03  0.59978822306E+03  0.00000000000E+00 0. -1.
<scales pt_clust_3="115.44394" pt_clust_4="31.69816" pt_clust_5="14000.00000" pt_clust_6="61.01724"></scales>
<clustering>
<clus scale="   31.698">  1  4  2 -1</clus>
<clus scale="   61.017">  1  6  2 -1</clus>
<clus scale="  115.444">  1  3  2 -1</clus>
<clus scale="   31.698">  1  3  2 -1</clus>
</clustering>
</event>
<event>
 6    0  0.4582113E+002  0.4873566E+03  0.7546771E-02  0.1017133E+00
         21   -1    0    0  502  501  0.00000000000E+00  0.00000000000E+00  0.84836775928E+03  0.84836775928E+03  0.00000000000E+00 0.  1.
         21   -1    0    0  506  502 -0.00000000000E+00 -0.00000000000E+00 -0.43373725206E+03  0.43373725206E+03  0.00000000000E+00 0.  1.
         21    1    1    2  503  504 -0.71129501827E+02 -0.43851767119E+03  0.26977506305E+02  0.44506734302E+03  0.00000000000E+00 0.  1.
         21    1    1    2  504  505  0.13032387654E+03  0.38772373983E+03  0.36484978349E+03  0.54811438198E+03  0.00000000000E+00 0.  1.
         21    1    1    2  505  501 -0.26027430546E+02  0.68811228594E+02  0.14415188311E+03  0.16183997567E+03  0.00000000000E+00 0.  1.
         21    1    1    2  506  503 -0.33166944164E+02 -0.18017297234E+02 -0.12134866569E+03  0.12708331066E+03  0.00000000000E+00 0.  1.
<scales pt_clust_3="460.28893" pt_clust_4="68.54153" pt_clust_5="68.54153" pt_clust_6="37.74479"></scales>
<clustering>
<clus scale="   37.745">  2  6  1 -1</clus>
<clus scale="   68.542">  4  5 -1 -1</clus>
<clus scale="  460.289">  2  3  1 -1</clus>
<clus scale="  487.357">  1  3  2 -1</clus>
</clustering>
</event>
<event>
 6    0  0.4582113E+002  0.8830087E+02  0.7546771E-02  0.1307019E+00
         21   -1    0    0  503  501  0.00000000000E+00  0.00000000000E+00  0.10260773698E+03  0.10260773698E+03  0.00000000000E+00 0. -1.
         21   -1    0    0  504  502 -0.00000000000E+00 -0.00000000000E+00 -0.49297484000E+03  0.49297484000E+03  0.00000000000E+00 0. -1.
         21    1    1    2  503  505  0.72632390457E+02 -0.97772096079E+02 -0.92609814095E+02  0.15300792327E+03  0.00000000000E+00 0. -1.
         21    1    1    2  504  506 -0.13001000588E+02  0.68279314305E+02 -0.74577651375E+02  0.10194565642E+03  0.00000000000E+00 0. -1.
         21    1    1    2  505  502 -0.38709613408E+02 -0.98231468833E+00 -0.27459097152E+03  0.27730777261E+03  0.00000000000E+00 0. -1.
         21    1    1    2  506  501 -0.20921776460E+02  0.30475096462E+02  0.51411333964E+02  0.63321224677E+02  0.00000000000E+00 0. -1.
<scales pt_clust_3="88.30087" pt_clust_4="14000.00000" pt_clust_5="39.33786" pt_clust_6="36.96555"></scales>
<clustering>
<clus scale="   36.966">  1  6  2 -1</clus>
<clus scale="   39.338">  2  5  1 -1</clus>
<clus scale="   88.301">  1  3  2 -1</clus>
<clus scale="   36.966">  1  3  2 -1</clus>
</clustering>
</event>
<event>
 6    0  0.4582113E+002  0.8430240E+02  0.7546771E-02  0.1317267E+00
         21   -1    0    0  506  501  0.00000000000E+00  0.00000000000E+00  0.93845845398E+02  0.93845845398E+02  0.00000000000E+00 0.  1.
         21   -1    0    0  505  502 -0.00000000000E+00 -0.00000000000E+00 -0.62767867105E+03  0.62767867105E+03  0.00000000000E+00 0.  1.
         21    1    1    2  503  504 -0.65788800569E+02  0.98015899438E+02 -0.40534317691E+03  0.42218286783E+03  0.00000000000E+00 0.  1.
         21    1    1    2  504  502  0.50194935915E+02 -0.37024899556E+02 -0.15611608063E+03  0.16811485779E+03  0.00000000000E+00 0. -1.
         21    1    1    2  505  501 -0.24610373077E+02 -0.35001655441E+02  0.59811533768E+02  0.73540505290E+02  0.00000000000E+00 0.  1.
         21    1    1    2  506  503  0.40204237731E+02 -0.25989344441E+02 -0.32185101880E+02  0.57686285537E+02  0.00000000000E+00 0.  1.
<scales pt_clust_3="14000.00000" pt_clust_4="84.30240" pt_clust_5="42.78769" pt_clust_6="51.18748"></scales>
<clustering>
<clus scale="   42.788">  1  5  2 -1</clus>
<clus scale="   51.187">  1  6  2 -1</clus>
<clus scale="   84.302">  2  4  1 -1</clus>
<clus scale="   42.788">  1  3  2 -1</clus>
</clustering>
</event>
<event>
 6    0  0.4582113E+002  0.7850772E+02  0.7546771E-02  0.1333340E+00
         21   -1    0    0  503  501  0.00000000000E+00  0.00000000000E+00  0.22391578672E+03  0.22391578672E+03  0.00000000000E+00 0. -1.
         21   -1    0    0  506  502 -0.00000000000E+00 -0.00000000000E+00 -0.45040767252E+03  0.45040767252E+03  0.00000000000E+00 0.  1.
         21    1    1    2  503  505 -0.31544966497E+02 -0.24906045037E+02  0.12073155709E+03  0.12724584421E+03  0.00000000000E+00 0. -1.
         21    1    1    2  504  502 -0.36431031007E+01 -0.39900212659E+02 -0.11119637004E+03  0.11819446637E+03  0.00000000000E+00 0.  1.
         21    1    1    2  505  504  0.44111699552E+02 -0.52480755812E+02  0.71844722202E+02  0.99306273096E+02  0.00000000000E+00 0. -1.
         21    1    1    2  506  501 -0.89236299548E+01  0.11728701351E+03 -0.30787179507E+03  0.32957687556E+03  0.00000000000E+00 0.  1.
<scales pt_clust_3="40.46060" pt_clust_4="40.06618" pt_clust_5="78.50772" pt_clust_6="14000.00000"></scales>
<clustering>
<clus scale="   40.066">  2  4  1 -1</clus>
<clus scale="   40.461">  1  3  2 -1</clus>
<clus scale="   78.508">  1  5  2 -1</clus>
<clus scale="   40.461">  1  3  2 -1</clus>
</clustering>
</event>
<event>
 6    0  0.4582113E+002  0.1037680E+03  0.7546771E-02  0.1272566E+00
         21   -1    0    0  503  501  0.00000000000E+00  0.00000000000E+00  0.15797827171E+04  0.15797827171E+04  0.00000000000E+00 0. -1.
         21   -1    0    0  505  502 -0.00000000000E+00 -0.00000000000E+00 -0.51589571222E+02  0.51589571222E+02  0.00000000000E+00 0. -1.
         21    1    1    2  503  504 -0.14275187433E+02  0.26393246329E+02  0.19809730344E+03  0.20035699653E+03  0.00000000000E+00 0. -1.
         21    1    1    2  504  502  0.36978519281E+02  0.63229877565E+02  0.10862475536E+03  0.13101437243E+03  0.00000000000E+00 0. -1.
         21    1    1    2  505  506 -0.44524399968E+02 -0.12643728697E+03  0.76719417424E+02  0.15444959935E+03  0.00000000000E+00 0. -1.
         21    1    1    2  506  501  0.21821068120E+02  0.36814163080E+02  0.11447516696E+04  0.11455513200E+04  0.00000000000E+00 0. -1.
<scales pt_clust_3="30.00641" pt_clust_4="103.76796" pt_clust_5="14000.00000" pt_clust_6="59.54923"></scales>
<clustering>
<clus scale="   30.006">  1  3  2 -1</clus>
<clus scale="   59.549">  1  6  2 -1</clus>
<clus scale="  103.768">  1  4  2 -1</clus>
<clus scale="   30.006">  1  3  2 -1</clus>
</clustering>
</event>
<event>
 6    0  0.4582113E+002  0.1316253E+03  0.7546771E-02  0.1225064E+00
         21   -1    0    0  506  501  0.00000000000E+00  0.00000000000E+00  0.48486755873E+02  0.48486755873E+02  0.00000000000E+00 0.  1.
         21   -1    0    0  503  502 -0.00000000000E+00 -0.00000000000E+00 -0.12023292646E+04  0.12023292646E+04  0.00000000000E+00 0.  1.
         21    1    1    2  503  504  0.72253014695E+01 -0.29523569847E+02 -0.93224673337E+02  0.98054504622E+02  0.00000000000E+00 0. -1.
         21    1    1    2  504  501 -0.84944853759E+02 -0.61414091175E+02 -0.19623662087E+03  0.22247725759E+03  0.00000000000E+00 0.  1.
         21    1    1    2  505  502  0.14263265820E+03  0.51400120236E+02 -0.83523126086E+03  0.84888003079E+03  0.00000000000E+00 0.  1.
         21    1    1    2  506  505 -0.64913105907E+02  0.39537540786E+02 -0.29149953635E+02  0.81404227450E+02  0.00000000000E+00 0.  1.
<scales pt_clust_3="30.39484" pt_clust_4="131.62534" pt_clust_5="14000.00000" pt_clust_6="74.93846"></scales>
<clustering>
<clus scale="   30.395">  2  3  1 -1</clus>
<clus scale="   74.938">  1  6  2 -1</clus>
<clus scale="  131.625">  1  4  2 -1</clus>
<clus scale="   74.938">  1  3  2 -1</clus>
</clustering>
</event>
<event>
 6    0  0.4582113E+002  0.2268561E+03  0.7546771E-02  0.1128872E+00
         21   -1    0    0  503  501  0.00000000000E+00  0.00000000000E+00  0.10372556022E+03  0.10372556022E+03  0.00000000000E+00 0.  1.
         21   -1    0    0  505  502 -0.00000000000E+00 -0.00000000000E+00 -0.85215631091E+03  0.85215631091E+03  0.00000000000E+00 0.  1.
         21    1    1    2  503  502 -0.25004222589E+03 -0.94348905153E+02 -0.47140480191E+03  0.54189050361E+03  0.00000000000E+00 0.  1.
         21    1    1    2  504  501  0.75921444597E+02  0.80065171699E+01 -0.27309994879E+02  0.81080243507E+02  0.00000000000E+00 0.  1.
         21    1    1    2  505  506  0.63682442068E+02  0.13060875581E+02 -0.16043517323E+03  0.17310541501E+03  0.00000000000E+00 0.  1.
         21    1    1    2  506  504  0.11043833923E+03  0.73281512402E+02 -0.89280780667E+02  0.15980570900E+03  0.00000000000E+00 0.  1.
<scales pt_clust_3="219.92903" pt_clust_4="42.22159" pt_clust_5="65.00800" pt_clust_6="42.22159"></scales>
<clustering>
<clus scale="   42.222">  4  6 -1 -1</clus>
<clus scale="   65.008">  2  5  1 -1</clus>
<clus scale="  219.929">  2  3  1 -1</clus>
<clus scale="  226.856">  1  3  2 -1</clus>
</clustering>
</event>
<event>
 6    0  0.4582113E+002  0.1327027E+03  0.7546771E-02  0.1223500E+00
         21   -1    0    0  506  501  0.00000000000E+00  0.00000000000E+00  0.60141440820E+03  0.60141440820E+03  0.00000000000E+00 0.  1.
         21   -1    0    0  505  502 -0.00000000000E+00 -0.00000000000E+00 -0.19416511044E+03  0.19416511044E+03  0.00000000000E+00 0.  1.
         21    1    1    2  503  502 -0.11092767464E+03  0.10563001754E+02 -0.11482506590E+03  0.16000413046E+03  0.00000000000E+00 0.  1.
         21    1    1    2  504  503  0.24464113009E+02 -0.59411072076E+02  0.32049518242E+03  0.32687203959E+03  0.00000000000E+00 0.  1.
         21    1    1    2  505  501  0.21365660832E+02  0.65727755879E+02 -0.24117559251E+02  0.73200314343E+02  0.00000000000E+00 0. -1.
         21    1    1    2  506  504  0.65097900794E+02 -0.16879685557E+02  0.22569674049E+03  0.23550303425E+03  0.00000000000E+00 0.  1.
<scales pt_clust_3="116.23910" pt_clust_4="62.57515" pt_clust_5="69.11316" pt_clust_6="62.57515"></scales>
<clustering>
<clus scale="   62.575">  4  6 -1 -1</clus>
<clus scale="   69.113">  2  5  1 -1</clus>
<clus scale="  116.239">  2  3  1 -1</clus>
<clus scale="  132.703">  1  3  2 -1</clus>
</clustering>
</event>
<event>
 6    0  0.4582113E+002  0.1503021E+03  0.7546771E-02  0.1200102E+00
         21   -1    0    0  506  501  0.00000000000E+00  0.00000000000E+00  0.13197231704E+04  0.13197231704E+04  0.00000000000E+00 0.  1.
         21   -1    0    0  503  502 -0.00000000000E+00 -0.00000000000E+00 -0.23268969316E+03  0.23268969316E+03  0.00000000000E+00 0. -1.
         21    1    1    2  503  501  0.15135643886E+03  0.92393214290E+02 -0.17094796405E+03  0.24630973193E+03  0.00000000000E+00 0. -1.
         21    1    1    2  504  505 -0.70252966273E+02 -0.92547927387E+02  0.11421876360E+04  0.11480823986E+04  0.00000000000E+00 0.  1.
         21    1    1    2  505  502 -0.35277480626E+02  0.41279898866E+01  0.23379002978E+01  0.35595037824E+02  0.00000000000E+00 0. -1.
         21    1    1    2  506  504 -0.45825991961E+02 -0.39732767886E+01  0.11345590494E+03  0.12242569515E+03  0.00000000000E+00 0. -1.
<scales pt_clust_3="14000.00000" pt_clust_4="150.30209" pt_clust_5="35.51818" pt_clust_6="46.72029"></scales>
<clustering>
<clus scale="   35.518">  2  5  1 -1</clus>
<clus scale="   46.720">  1  6  2 -1</clus>
<clus scale="  150.302">  1  4  2 -1</clus>
<clus scale="   46.720">  1  3  2 -1</clus>
</clustering>
</event>
<event>
 6    0  0.4582113E+002  0.1069085E+03  0.7546771E-02  0.1266404E+00
         21   -1    0    0  505  501  0.00000000000E+00  0.00000000000E+00  0.49666756147E+02  0.49666756147E+02  0.00000000000E+00 0.  1.
         21   -1    0    0  506  502 -0.00000000000E+00 -0.00000000000E+00 -0.85405812061E+03  0.85405812061E+03  0.00000000000E+00 0. -1.
         21    1    1    2  503  504 -0.57345097733E+02  0.24234510405E+02 -0.18938314195E+02  0.65072509350E+02  0.00000000000E+00 0.  1.
         21    1    1    2  504  502 -0.28730789830E+02  0.12411479504E+02 -0.28646728508E+03  0.28817183855E+03  0.00000000000E+00 0. -1.
         21    1    1    2  505  503 -0.14106893840E+02  0.38659702856E+02 -0.57283399654E+01  0.41549861101E+02  0.00000000000E+00 0.  1.
         21    1    1    2  506  501  0.10018278140E+03 -0.75305692765E+02 -0.49325742522E+03  0.50893066776E+03  0.00000000000E+00 0. -1.
<scales pt_clust_3="33.26438" pt_clust_4="31.29701" pt_clust_5="33.26438" pt_clust_6="98.64384"></scales>
<clustering>
<clus scale="   31.297">  2  4  1 -1</clus>
<clus scale="   33.264">  3  5 -1 -1</clus>
<clus scale="   98.644">  2  6  1 -1</clus>
<clus scale="  106.908">  1  3  2 -1</clus>
</clustering>
</event>
<event>
 6    0  0.4582113E+002  0.7770241E+02  0.7546771E-02  0.1335701E+00
         21   -1    0    0  504  501  0.00000000000E+00  0.00000000000E+00  0.47645009543E+02  0.47645009543E+02  0.00000000000E+00 0. -1.
         21   -1    0    0  506  502 -0.00000000000E+00 -0.00000000000E+00 -0.93482590038E+03  0.93482590038E+03  0.00000000000E+00 0. -1.
         21    1    1    2  503  501  0.34135289077E+02 -0.20952441151E+02  0.86549224693E+01  0.40977194065E+02  0.00000000000E+00 0. -1.
         21    1    1    2  504  502  0.20589739859E+02  0.44187501195E+02 -0.35202983091E+02  0.60130879487E+02  0.00000000000E+00 0. -1.
         21    1    1    2  505  503 -0.26182479582E+01 -0.84928087091E+02 -0.22304067891E+03  0.23867714522E+03  0.00000000000E+00 0. -1.
         21    1    1    2  506  505 -0.52106780978E+02  0.61693027047E+02 -0.63759215130E+03  0.64268569115E+03  0.00000000000E+00 0. -1.
<scales pt_clust_3="40.05275" pt_clust_4="51.09955" pt_clust_5="14000.00000" pt_clust_6="77.70241"></scales>
<clustering>
<clus scale="   40.053">  1  3  2 -1</clus>
<clus scale="   51.100">  1  4  2 -1</clus>
<clus scale="   77.702">  2  6  1 -1</clus>
<clus scale="   40.053">  1  3  2 -1</clus>
</clustering>
</event>
<event>
 6    0  0.4582113E+002  0.8922347E+02  0.7546771E-02  0.1304743E+00
         21   -1    0    0  504  501  0.00000000000E+00  0.00000000000E+00  0.10851933896E+03  0.10851933896E+03  0.00000000000E+00 0.  1.
         21   -1    0    0  506  502 -0.00000000000E+00 -0.00000000000E+00 -0.69343717083E+03  0.69343717083E+03  0.00000000000E+00 0.  1.
         21    1    1    2  503  501 -0.58966519527E+00 -0.39264052535E+02  0.20612210508E+02  0.44349484197E+02  0.00000000000E+00 0. -1.
         21    1    1    2  504  505  0.34709758494E+02 -0.15501101760E+01  0.46441012608E+02  0.57999464035E+02  0.00000000000E+00 0.  1.
         21    1    1    2  505  502  0.32036803610E+01  0.11782782076E+03 -0.15191284298E+03  0.19227888801E+03  0.00000000000E+00 0.  1.
         21    1    1    2  506  503 -0.37323773660E+02 -0.77013658044E+02 -0.50005821201E+03  0.50732867355E+03  0.00000000000E+00 0.  1.
<scales pt_clust_3="44.61429" pt_clust_4="34.74435" pt_clust_5="14000.00000" pt_clust_6="89.22347"></scales>
<clustering>
<clus scale="   34.744">  1  4  2 -1</clus>
<clus scale="   44.614">  1  3  2 -1</clus>
<clus scale="   89.223">  2  6  1 -1</clus>
<clus scale="   34.744">  1  3  2 -1</clus>
</clustering>
</event>
<event>
 6    0  0.4582113E+002  0.9501978E+02  0.7546771E-02  0.1291132E+00
         21   -1    0    0  503  501  0.00000000000E+00  0.00000000000E+00  0.38988441918E+02  0.38988441918E+02  0.00000000000E+00 0.  1.
         21   -1    0    0  505  502 -0.00000000000E+00 -0.00000000000E+00 -0.10982049317E+04  0.10982049317E+04  0.00000000000E+00 0.  1.
         21    1    1    2  503  506 -0.74030688011E+02 -0.31951081360E+02 -0.79059406287E+02  0.11292388627E+03  0.00000000000E+00 0.  1.
         21    1    1    2  504  501  0.11692821004E+03  0.11583060417E+03 -0.39605291735E+03  0.42889025229E+03  0.00000000000E+00 0.  1.
         21    1    1    2  505  504 -0.73978695774E+01 -0.73636897475E+02 -0.45917826007E+03  0.46510406971E+03  0.00000000000E+00 0.  1.
         21    1    1    2  506  502 -0.35499652452E+02 -0.10242625332E+02 -0.12492590606E+03  0.13027516534E+03  0.00000000000E+00 0.  1.
<scales pt_clust_3="95.01978" pt_clust_4="14000.00000" pt_clust_5="82.18841" pt_clust_6="36.94776"></scales>
<clustering>
<clus scale="   36.948">  2  6  1 -1</clus>
<clus scale="   82.188">  2  5  1 -1</clus>
<clus scale="   95.020">  1  3  2 -1</clus>
<clus scale="   95.020">  1  3  2 -1</clus>
</clustering>
</event>
<event>
 6    0  0.4582113E+002  0.1311710E+03  0.7546771E-02  0.1225729E+00
         21   -1    0    0  503  501  0.00000000000E+00  0.00000000000E+00  0.57586361612E+03  0.57586361612E+03  0.00000000000E+00 0.  1.
         21   -1    0    0  504  502 -0.00000000000E+00 -0.00000000000E+00 -0.17235128177E+03  0.17235128177E+03  0.00000000000E+00 0. -1.
         21    1    1    2  503  502 -0.16736429500E+01  0.47781418006E+02  0.71251872721E+02  0.85806144032E+02  0.00000000000E+00 0.  1.
         21    1    1    2  504  506  0.10569920059E+03 -0.70626263009E+02 -0.13280131022E+03  0.18383845634E+03  0.00000000000E+00 0. -1.
         21    1    1    2  505  501 -0.55900993004E+02  0.64190539403E+01  0.31863696527E+03  0.32356705782E+03  0.00000000000E+00 0.  1.
         21    1    1    2  506  505 -0.48124564641E+02  0.16425791062E+02  0.14642480658E+03  0.15500323970E+03  0.00000000000E+00 0.  1.
<scales pt_clust_3="47.81072" pt_clust_4="125.70579" pt_clust_5="35.61886" pt_clust_6="35.61886"></scales>
<clustering>
<clus scale="   35.619">  5  6 -1 -1</clus>
<clus scale="   47.811">  1  3  2 -1</clus>
<clus scale="  125.706">  2  4  1 -1</clus>
<clus scale="   47.811">  1  3  2 -1</clus>
</clustering>
</event>
<event>
 6    0  0.4582113E+002  0.1608980E+03  0.7546771E-02  0.1187687E+00
         21   -1    0    0  506  501  0.00000000000E+00  0.00000000000E+00  0.37577825153E+03  0.37577825153E+03  0.00000000000E+00 0. -1.
         21   -1    0    0  503  502 -0.00000000000E+00 -0.00000000000E+00 -0.18002622857E+03  0.18002622857E+03  0.00000000000E+00 0.  1.
         21    1    1    2  503  501 -0.19156091890E+03  0.81646640502E+02  0.42629395444E+02  0.21255358127E+03  0.00000000000E+00 0. -1.
         21    1    1    2  504  505  0.10623707158E+03 -0.67263892826E+02  0.89984545855E+02  0.15462200732E+03  0.00000000000E+00 0.  1.
         21    1    1    2  505  502  0.49370711337E+02  0.55212869098E+00 -0.49220399514E+02  0.69716710424E+02  0.00000000000E+00 0.  1.
         21    1    1    2  506  504  0.35953135981E+02 -0.14934876367E+02  0.11235848117E+03  0.11891218108E+03  0.00000000000E+00 0. -1.
<scales pt_clust_3="160.89802" pt_clust_4="14000.00000" pt_clust_5="50.78707" pt_clust_6="38.93172"></scales>
<clustering>
<clus scale="   38.932">  1  6  2 -1</clus>
<clus scale="   50.787">  2  5  1 -1</clus>
<clus scale="  160.898">  2  3  1 -1</clus>
<clus scale="   38.932">  1  3  2 -1</clus>
</clustering>
</event>
<event>
 6    0  0.4582113E+002  0.1053316E+03  0.7546771E-02  0.1269468E+00
         21   -1    0    0  506  501  0.00000000000E+00  0.00000000000E+00  0.13571860654E+04  0.13571860654E+04  0.00000000000E+00 0. -1.
         21   -1    0    0  503  502 -0.00000000000E+00 -0.00000000000E+00 -0.22934248113E+03  0.22934248113E+03  0.00000000000E+00 0.  1.
         21    1    1    2  503  504 -0.70517122837E+02 -0.76597335093E+01 -0.20298259862E+03  0.21501923512E+03  0.00000000000E+00 0.  1.
         21    1    1    2  504  501 -0.38520875492E+02 -0.10265200096E+03  0.40829205413E+03  0.42275725023E+03  0.00000000000E+00 0. -1.
         21    1    1    2  505  502  0.12990049968E+03  0.50102421064E+02  0.42669391063E+03  0.44883414062E+03  0.00000000000E+00 0. -1.
         21    1    1    2  506  505 -0.20862501355E+02  0.60209313405E+02  0.49584021818E+03  0.49991792061E+03  0.00000000000E+00 0. -1.
<scales pt_clust_3="71.03297" pt_clust_4="105.33155" pt_clust_5="14000.00000" pt_clust_6="63.72131"></scales>
<clustering>
<clus scale="   63.721">  1  6  2 -1</clus>
<clus scale="   71.033">  2  3  1 -1</clus>
<clus scale="  105.332">  1  4  2 -1</clus>
<clus scale="   63.721">  1  3  2 -1</clus>
</clustering>
</event>
<event>
 6    0  0.4582113E+002  0.9241290E+02  0.7546771E-02  0.1297112E+00
         21   -1    0    0  504  501  0.00000000000E+00  0.00000000000E+00  0.27642235866E+03  0.27642235866E+03  0.00000000000E+00 0. -1.
         21   -1    0    0  506  502 -0.00000000000E+00 -0.00000000000E+00 -0.11114966109E+04  0.11114966109E+04  0.00000000000E+00 0. -1.
         21    1    1    2  503  501 -0.25832245358E+02  0.27385148354E+02 -0.17269503356E+02  0.41418437884E+02  0.00000000000E+00 0.  1.
         21    1    1    2  504  505 -0.58493907110E+02 -0.63764420186E+02  0.25142986834E+03  0.26590302207E+03  0.00000000000E+00 0. -1.
         21    1    1    2  505  502 -0.89283778847E+01 -0.32693516361E+02 -0.13528026850E+03  0.13946086543E+03  0.00000000000E+00 0. -1.
         21    1    1    2  506  503  0.93254530353E+02  0.69072788193E+02 -0.93395434870E+03  0.94113664415E+03  0.00000000000E+00 0. -1.
<scales pt_clust_3="37.12477" pt_clust_4="14000.00000" pt_clust_5="33.89074" pt_clust_6="92.41290"></scales>
<clustering>
<clus scale="   33.891">  2  5  1 -1</clus>
<clus scale="   37.125">  1  3  2 -1</clus>
<clus scale="   92.413">  2  6  1 -1</clus>
<clus scale="   37.125">  1  3  2 -1</clus>
</clustering>
</event>
<event>
 6    0  0.4582113E+002  0.1221740E+03  0.7546771E-02  0.1239553E+00
         21   -1    0    0  505  501  0.00000000000E+00  0.00000000000E+00  0.20084303544E+03  0.20084303544E+03  0.00000000000E+00 0.  1.
         21   -1    0    0  506  502 -0.00000000000E+00 -0.00000000000E+00 -0.11401248620E+03  0.11401248620E+03  0.00000000000E+00 0.  1.
         21    1    1    2  503  502 -0.76291241937E+02  0.15312289834E+02 -0.29894149918E+02  0.83357543243E+02  0.00000000000E+00 0.  1.
         21    1    1    2  504  503 -0.46283193139E+02  0.58126634757E+01  0.15944089966E+02  0.49296399753E+02  0.00000000000E+00 0.  1.
         21    1    1    2  505  504  0.21866926076E+02 -0.42950833988E+02  0.39467808055E+02  0.62294818958E+02  0.00000000000E+00 0.  1.
         21    1    1    2  506  501  0.10070750900E+03  0.21825880679E+02  0.61312801136E+02  0.11990675969E+03  0.00000000000E+00 0.  1.
<scales pt_clust_3="34.02956" pt_clust_4="34.02956" pt_clust_5="48.19685" pt_clust_6="113.99462"></scales>
<clustering>
<clus scale="   34.030">  3  4 -1 -1</clus>
<clus scale="   48.197">  1  5  2 -1</clus>
<clus scale="  113.995">  1  6  2 -1</clus>
<clus scale="   48.197">  1  3  2 -1</clus>
</clustering>
</event>
<event>
 6    0  0.4582113E+002  0.1065508E+03  0.7546771E-02  0.1267094E+00
         21   -1    0    0  506  501  0.00000000000E+00  0.00000000000E+00  0.16262234306E+04  0.16262234306E+04  0.00000000000E+00 0.  1.
         21   -1    0    0  504  502 -0.00000000000E+00 -0.00000000000E+00 -0.10033928170E+04  0.10033928170E+04  0.00000000000E+00 0.  1.
         21    1    1    2  503  505 -0.52167082870E+02  0.56522224246E+02 -0.28653223815E+03  0.29667640599E+03  0.00000000000E+00 0.  1.
         21    1    1    2  504  503 -0.22348800670E+02  0.20202060166E+02 -0.70723795292E+03  0.70787930763E+03  0.00000000000E+00 0.  1.
         21    1    1    2  505  501  0.25853398543E+02  0.29560330301E+02  0.21220108740E+03  0.21580433925E+03  0.00000000000E+00 0.  1.
         21    1    1    2  506  502  0.48662484997E+02 -0.10628461471E+03  0.14043997172E+04  0.14092561948E+04  0.00000000000E+00 0.  1.
<scales pt_clust_3="14000.00000" pt_clust_4="30.12627" pt_clust_5="39.27443" pt_clust_6="106.55084"></scales>
<clustering>
<clus scale="   30.126">  2  4  1 -1</clus>
<clus scale="   39.274">  1  5  2 -1</clus>
<clus scale="  106.551">  1  6  2 -1</clus>
<clus scale="   39.274">  1  3  2 -1</clus>
</clustering>
</event>
<event>
 6    0  0.4582113E+002  0.1362224E+03  0.7546771E-02  0.1218504E+00
         21   -1    0    0  505  501  0.00000000000E+00  0.00000000000E+00  0.22100979538E+03  0.22100979538E+03  0.00000000000E+00 0. -1.
         21   -1    0    0  504  502 -0.00000000000E+00 -0.00000000000E+00 -0.15807134853E+03  0.15807134853E+03  0.00000000000E+00 0.  1.
         21    1    1    2  503  502 -0.52385163727E+02 -0.64622970909E+02  0.73377389542E+02  0.11092598904E+03  0.00000000000E+00 0. -1.
         21    1    1    2  504  506  0.33224111895E+02  0.43248300252E+01 -0.21615560644E+02  0.39872023123E+02  0.00000000000E+00 0.  1.
         21    1    1    2  505  503 -0.21701807969E+02 -0.33797527234E+02  0.90233849369E+02  0.98769372217E+02  0.00000000000E+00 0. -1.
         21    1    1    2  506  501  0.40862859800E+02  0.94095668118E+02 -0.79057231419E+02  0.12951375954E+03  0.00000000000E+00 0.  1.
<scales pt_clust_3="131.16214" pt_clust_4="33.23032" pt_clust_5="31.29180" pt_clust_6="33.23032"></scales>
<clustering>
<clus scale="   31.292">  3  5 -1 -1</clus>
<clus scale="   33.230">  4  6 -1 -1</clus>
<clus scale="  131.162">  1  3  2 -1</clus>
<clus scale="  131.162">  1  3  2 -1</clus>
</clustering>
</event>
<event>
 6    0  0.4582113E+002  0.8554956E+02  0.7546771E-02  0.1314002E+00
         21   -1    0    0  506  501  0.00000000000E+00  0.00000000000E+00  0.11295904014E+03  0.11295904014E+03  0.00000000000E+00 0.  1.
         21   -1    0    0  503  502 -0.00000000000E+00 -0.00000000000E+00 -0.47438394310E+03  0.47438394310E+03  0.00000000000E+00 0.  1.
         21    1    1    2  503  504 -0.21531383116E+02  0.49747688944E+02 -0.31878970372E+03  0.32336559528E+03  0.00000000000E+00 0.  1.
         21    1    1    2  504  501  0.32403428408E+02  0.77983626220E+02 -0.60461694628E+01  0.84663949212E+02  0.00000000000E+00 0.  1.
         21    1    1    2  505  502 -0.74245307257E+01 -0.39407552391E+02 -0.73339544525E+02  0.83586886729E+02  0.00000000000E+00 0.  1.
         21    1    1    2  506  505 -0.34475145665E+01 -0.88323762773E+02  0.36750514749E+02  0.95726552018E+02  0.00000000000E+00 0.  1.
<scales pt_clust_3="32.79640" pt_clust_4="14000.00000" pt_clust_5="40.10086" pt_clust_6="85.54956"></scales>
<clustering>
<clus scale="   40.101">  2  5  1 -1</clus>
<clus scale="   32.796">  2  3  1 -1</clus>
<clus scale="   85.550">  1  6  2 -1</clus>
<clus scale="   85.550">  1  3  2 -1</clus>
</clustering>
</event>
<event>
 6    0  0.4582113E+002  0.8883215E+02  0.7546771E-02  0.1305705E+00
         21   -1    0    0  506  501  0.00000000000E+00  0.00000000000E+00  0.76797017014E+03  0.76797017014E+03  0.00000000000E+00 0. -1.
         21   -1    0    0  505  502 -0.00000000000E+00 -0.00000000000E+00 -0.16368439361E+03  0.16368439361E+03  0.00000000000E+00 0. -1.
         21    1    1    2  503  502 -0.27258521058E+02 -0.72965552410E+02 -0.12647385294E+03  0.14853495981E+03  0.00000000000E+00 0. -1.
         21    1    1    2  504  503  0.12897225053E+02 -0.33998077130E+02  0.14770518844E+03  0.15211518779E+03  0.00000000000E+00 0. -1.
         21    1    1    2  505  501  0.18250984069E+01  0.14299771832E+03  0.19898312891E+03  0.24504277998E+03  0.00000000000E+00 0. -1.
         21    1    1    2  506  504  0.12536197598E+02 -0.36034088781E+02  0.38407131212E+03  0.38596163617E+03  0.00000000000E+00 0. -1.
<scales pt_clust_3="77.89094" pt_clust_4="33.66396" pt_clust_5="81.86631" pt_clust_6="33.66396"></scales>
<clustering>
<clus scale="   33.664">  4  6 -1 -1</clus>
<clus scale="   77.891">  2  3  1 -1</clus>
<clus scale="   81.866">  2  5  1 -1</clus>
<clus scale="   88.832">  1  3  2 -1</clus>
</clustering>
</event>
<event>
 6    0  0.4582113E+002  0.1124707E+03  0.7546771E-02  0.1256062E+00
         21   -1    0    0  503  501  0.00000000000E+00  0.00000000000E+00  0.26654234789E+03  0.26654234789E+03  0.00000000000E+00 0.  1.
         21   -1    0    0  505  502 -0.00000000000E+00 -0.00000000000E+00 -0.85715051243E+03  0.85715051243E+03  0.00000000000E+00 0.  1.
         21    1    1    2  503  504 -0.99668829236E+01 -0.29664060259E+02  0.59129975427E+02  0.66900293125E+02  0.00000000000E+00 0. -1.
         21    1    1    2  504  502 -0.36994135599E+02 -0.91748447950E+02 -0.53042713660E+02  0.11224915698E+03  0.00000000000E+00 0. -1.
         21    1    1    2  505  506  0.92904997143E+02  0.70111299187E+02 -0.75918880189E+03  0.76805896237E+03  0.00000000000E+00 0.  1.
         21    1    1    2  506  501 -0.45943978621E+02  0.51301209021E+02  0.16249337559E+03  0.17648444784E+03  0.00000000000E+00 0.  1.
<scales pt_clust_3="31.29369" pt_clust_4="14000.00000" pt_clust_5="112.47066" pt_clust_6="60.41420"></scales>
<clustering>
<clus scale="   31.294">  1  3  2 -1</clus>
<clus scale="   60.414">  1  6  2 -1</clus>
<clus scale="  112.471">  2  5  1 -1</clus>
<clus scale="   31.294">  1  3  2 -1</clus>
</clustering>
</event>
<event>
 6    0  0.4582113E+002  0.1504613E+03  0.7546771E-02  0.1199907E+00
         21   -1    0    0  506  501  0.00000000000E+00  0.00000000000E+00  0.91180116097E+03  0.91180116097E+03  0.00000000000E+00 0. -1.
         21   -1    0    0  504  502 -0.00000000000E+00 -0.00000000000E+00 -0.41948154205E+02  0.41948154205E+02  0.00000000000E+00 0. -1.
         21    1    1    2  503  502 -0.44070796881E+02 -0.25968565695E+02  0.35075887675E+02  0.62023539388E+02  0.00000000000E+00 0. -1.
         21    1    1    2  504  505 -0.32596711133E+02 -0.31242820081E+02  0.12562196808E+03  0.13348984324E+03  0.00000000000E+00 0. -1.
         21    1    1    2  505  501 -0.10652953791E+02 -0.90120430532E+02  0.32894782005E+03  0.34123576269E+03  0.00000000000E+00 0. -1.
         21    1    1    2  506  503  0.87320461805E+02  0.14733181631E+03  0.38020733096E+03  0.41700016986E+03  0.00000000000E+00 0. -1.
<scales pt_clust_3="51.15273" pt_clust_4="32.56294" pt_clust_5="32.56294" pt_clust_6="143.20429"></scales>
<clustering>
<clus scale="   32.563">  4  5 -1 -1</clus>
<clus scale="   51.153">  2  3  1 -1</clus>
<clus scale="  143.204">  2  6  1 -1</clus>
<clus scale="  150.461">  1  3  2 -1</clus>
</clustering>
</event>
<event>
 6    0  0.4582113E+002  0.9969875E+02  0.7546771E-02  0.1280931E+00
         21   -1    0    0  505  501  0.00000000000E+00  0.00000000000E+00  0.15148297318E+03  0.15148297318E+03  0.00000000000E+00 0.  1.
         21   -1    0    0  506  502 -0.00000000000E+00 -0.00000000000E+00 -0.19103662733E+03  0.19103662733E+03  0.00000000000E+00 0. -1.
         21    1    1    2  503  502 -0.60242224829E+02  0.16134998868E+02 -0.20393060323E+02  0.65615095444E+02  0.00000000000E+00 0. -1.
         21    1    1    2  504  501  0.89733836178E+02 -0.35678912986E+02  0.78086955705E+02  0.12418823953E+03  0.00000000000E+00 0.  1.
         21    1    1    2  505  503  0.13487475740E+02 -0.31038885910E+02  0.13366491765E+01  0.33869028203E+02  0.00000000000E+00 0.  1.
         21    1    1    2  506  504 -0.42979087089E+02  0.50582800027E+02 -0.98584198705E+02  0.11884723733E+03  0.00000000000E+00 0. -1.
<scales pt_clust_3="58.97895" pt_clust_4="99.69875" pt_clust_5="33.84264" pt_clust_6="14000.00000"></scales>
<clustering>
<clus scale="   33.843">  1  5  2 -1</clus>
<clus scale="   58.979">  2  3  1 -1</clus>
<clus scale="   99.699">  1  4  2 -1</clus>
<clus scale="   33.843">  1  3  2 -1</clus>
</clustering>
</event>
<event>
 6    0  0.4582113E+002  0.1202905E+03  0.7546771E-02  0.1242619E+00
         21   -1    0    0  503  501  0.00000000000E+00  0.00000000000E+00  0.30698123445E+03  0.30698123445E+03  0.00000000000E+00 0. -1.
         21   -1    0    0  505  502 -0.00000000000E+00 -0.00000000000E+00 -0.11270476126E+04  0.11270476126E+04  0.00000000000E+00 0. -1.
         21    1    1    2  503  504 -0.31251292521E+02 -0.15015663023E+02  0.80822423086E+02  0.87945309674E+02  0.00000000000E+00 0. -1.
         21    1    1    2  504  502 -0.21538482702E+02 -0.73307514186E+02 -0.27624283216E+02  0.81246531596E+02  0.00000000000E+00 0.  1.
         21    1    1    2  505  506  0.11200401626E+03  0.47777646703E+02 -0.10588657167E+04  0.10658443644E+04  0.00000000000E+00 0. -1.
         21    1    1    2  506  501 -0.59214241032E+02  0.40545530505E+02  0.18560119865E+03  0.19899264138E+03  0.00000000000E+00 0. -1.
<scales pt_clust_3="34.67151" pt_clust_4="79.26317" pt_clust_5="14000.00000" pt_clust_6="120.29048"></scales>
<clustering>
<clus scale="   34.672">  1  3  2 -1</clus>
<clus scale="   79.263">  1  4  2 -1</clus>
<clus scale="  120.290">  1  6  2 -1</clus>
<clus scale="   34.672">  1  3  2 -1</clus>
</clustering>
</event>
<event>
 6    0  0.4582113E+002  0.1298676E+03  0.7546771E-02  0.1227652E+00
         21   -1    0    0  506  501  0.00000000000E+00  0.00000000000E+00  0.21232024743E+04  0.21232024743E+04  0.00000000000E+00 0.  1.
         21   -1    0    0  503  502 -0.00000000000E+00 -0.00000000000E+00 -0.74045993842E+02  0.74045993842E+02  0.00000000000E+00 0. -1.
         21    1    1    2  503  501 -0.25807006843E+02  0.30268489505E+02  0.35529047375E+02  0.53333819162E+02  0.00000000000E+00 0. -1.
         21    1    1    2  504  502  0.31673015439E+02  0.92005677362E+02 -0.25507874075E+02  0.10059262505E+03  0.00000000000E+00 0. -1.
         21    1    1    2  505  504 -0.15952874227E+02 -0.62131103398E+02  0.74726805548E+03  0.75001620979E+03  0.00000000000E+00 0.  1.
         21    1    1    2  506  505  0.10086865631E+02 -0.60143063468E+02  0.12918672517E+04  0.12933058142E+04  0.00000000000E+00 0.  1.
<scales pt_clust_3="39.77666" pt_clust_4="121.48614" pt_clust_5="44.78218" pt_clust_6="44.78218"></scales>
<clustering>
<clus scale="   39.777">  2  3  1 -1</clus>
<clus scale="   44.782">  5  6 -1 -1</clus>
<clus scale="  121.486">  2  4  1 -1</clus>
<clus scale="  129.868">  1  3  2 -1</clus>
</clustering>
</event>
<event>
 6    0  0.5487758E+002  0.7764799E+02  0.7546771E-02  0.1335862E+00
         21   -1    0    0  505  501  0.00000000000E+00  0.00000000000E+00  0.14639430925E+03  0.14639430925E+03  0.00000000000E+00 0.  1.
         21   -1    0    0  504  502 -0.00000000000E+00 -0.00000000000E+00 -0.17880203130E+04  0.17880203130E+04  0.00000000000E+00 0. -1.
         21    1    1    2  503  506 -0.54298697577E+02  0.30607953001E+02 -0.18800807346E+02  0.65105035921E+02  0.00000000000E+00 0.  1.
         21    1    1    2  504  503  0.15985828463E+02  0.59271898285E+02 -0.16597036641E+04  0.16608386307E+04  0.00000000000E+00 0. -1.
         21    1    1    2  505  502  0.17404219267E+02  0.32057630097E+02 -0.46633575162E+02  0.59205479714E+02  0.00000000000E+00 0.  1.
         21    1    1    2  506  501  0.20908649847E+02 -0.12193748138E+03  0.83512042833E+02  0.14926547592E+03  0.00000000000E+00 0.  1.
<scales pt_clust_3="14000.00000" pt_clust_4="61.53351" pt_clust_5="36.47737" pt_clust_6="77.64799"></scales>
<clustering>
<clus scale="   36.477">  1  5  2 -1</clus>
<clus scale="   61.534">  2  4  1 -1</clus>
<clus scale="   77.648">  1  6  2 -1</clus>
<clus scale="   36.477">  1  3  2 -1</clus>
</clustering>
</event>
<event>
 6    0  0.4582113E+002  0.1092483E+03  0.7546771E-02  0.1261968E+00
         21   -1    0    0  503  501  0.00000000000E+00  0.00000000000E+00  0.99873541603E+02  0.99873541603E+02  0.00000000000E+00 0.  1.
         21   -1    0    0  506  502 -0.00000000000E+00 -0.00000000000E+00 -0.68580317220E+03  0.68580317220E+03  0.00000000000E+00 0.  1.
         21    1    1    2  503  505  0.84507783786E+02 -0.34502641715E+02 -0.79246657789E+02  0.12088023236E+03  0.00000000000E+00 0.  1.
         21    1    1    2  504  501 -0.22127952093E+02  0.10511995884E+03  0.11081569858E+02  0.10799376464E+03  0.00000000000E+00 0.  1.
         21    1    1    2  505  502 -0.31002569698E+02  0.60765239897E+02 -0.14299533399E+03  0.15843370617E+03  0.00000000000E+00 0.  1.
         21    1    1    2  506  504 -0.31377261995E+02 -0.13138255702E+03 -0.37476920867E+03  0.39836901062E+03  0.00000000000E+00 0.  1.
<scales pt_clust_3="82.04099" pt_clust_4="109.24829" pt_clust_5="68.21711" pt_clust_6="14000.00000"></scales>
<clustering>
<clus scale="   68.217">  2  5  1 -1</clus>
<clus scale="   82.041">  2  3  1 -1</clus>
<clus scale="  109.248">  1  4  2 -1</clus>
<clus scale="  109.248">  1  3  2 -1</clus>
</clustering>
</event>
<event>
 6    0  0.4582113E+002  0.1185982E+03  0.7546771E-02  0.1245428E+00
         21   -1    0    0  503  501  0.00000000000E+00  0.00000000000E+00  0.73862960353E+03  0.73862960353E+03  0.00000000000E+00 0.  1.
         21   -1    0    0  506  502 -0.00000000000E+00 -0.00000000000E+00 -0.18803643665E+03  0.18803643665E+03  0.00000000000E+00 0.  1.
         21    1    1    2  503  505 -0.12423276649E+03  0.90464076266E+02  0.48145525684E+03  0.50538766675E+03  0.00000000000E+00 0.  1.
         21    1    1    2  504  501  0.91392614766E+02 -0.21807449407E+02  0.21458702894E+03  0.23425577447E+03  0.00000000000E+00 0.  1.
         21    1    1    2  505  502 -0.86616282470E+00 -0.60998198728E+02 -0.13908595546E+03  0.15187637568E+03  0.00000000000E+00 0.  1.
         21    1    1    2  506  504  0.33706314545E+02 -0.76584281309E+01 -0.63631634482E+01  0.35146223278E+02  0.00000000000E+00 0. -1.
<scales pt_clust_3="118.59822" pt_clust_4="14000.00000" pt_clust_5="73.39577" pt_clust_6="34.56540"></scales>
<clustering>
<clus scale="   34.565">  2  6  1 -1</clus>
<clus scale="   73.396">  2  5  1 -1</clus>
<clus scale="  118.598">  2  3  1 -1</clus>
<clus scale="  118.598">  1  3  2 -1</clus>
</clustering>
</event>
<event>
 6    0  0.4582113E+002  0.1072586E+03  0.7546771E-02  0.1265732E+00
         21   -1    0    0  503  501  0.00000000000E+00  0.00000000000E+00  0.16820375982E+03  0.16820375982E+03  0.00000000000E+00 0. -1.
         21   -1    0    0  505  502 -0.00000000000E+00 -0.00000000000E+00 -0.99732677382E+03  0.99732677382E+03  0.00000000000E+00 0.  1.
         21    1    1    2  503  506 -0.48392912420E+02  0.76139805314E+02  0.12946753550E+03  0.15780046474E+03  0.00000000000E+00 0. -1.
         21    1    1    2  504  501  0.25986565806E+02 -0.28505545044E+02 -0.20653479129E+02  0.43754244374E+02  0.00000000000E+00 0. -1.
         21    1    1    2  505  504  0.71283338728E+01 -0.84425017611E+02 -0.13071680585E+03  0.15577316866E+03  0.00000000000E+00 0. -1.
         21    1    1    2  506  502  0.15278012741E+02  0.36790757341E+02 -0.80722026452E+03  0.80820265586E+03  0.00000000000E+00 0.  1.
<scales pt_clust_3="91.95704" pt_clust_4="37.25326" pt_clust_5="37.25326" pt_clust_6="39.83689"></scales>
<clustering>
<clus scale="   37.253">  4  5 -1 -1</clus>
<clus scale="   39.837">  2  6  1 -1</clus>
<clus scale="   91.957">  1  3  2 -1</clus>
<clus scale="   91.957">  1  3  2 -1</clus>
</clustering>
</event>
<event>
 6    0  0.4582113E+002  0.9732877E+02  0.7546771E-02  0.1286016E+00
         21   -1    0    0  505  501  0.00000000000E+00  0.00000000000E+00  0.16155262170E+04  0.16155262170E+04  0.00000000000E+00 0.  1.
         21   -1    0    0  506  502 -0.00000000000E+00 -0.00000000000E+00 -0.45949231830E+02  0.45949231830E+02  0.00000000000E+00 0.  1.
         21    1    1    2  503  501  0.12353733677E+02  0.45630026248E+02  0.39764750296E+03  0.40044756291E+03  0.00000000000E+00 0.  1.
         21    1    1    2  504  502 -0.14313434027E+02  0.65871560776E+02  0.88053679582E+02  0.11089358593E+03  0.00000000000E+00 0.  1.
         21    1    1    2  505  504 -0.58776018371E+02 -0.13695697913E+03  0.14165874389E+03  0.20561866206E+03  0.00000000000E+00 0.  1.
         21    1    1    2  506  503  0.60735718720E+02  0.25455392101E+02  0.94221705870E+03  0.94451563789E+03  0.00000000000E+00 0.  1.
<scales pt_clust_3="47.27276" pt_clust_4="70.86274" pt_clust_5="97.32877" pt_clust_6="14000.00000"></scales>
<clustering>
<clus scale="   47.273">  1  3  2 -1</clus>
<clus scale="   70.863">  2  4  1 -1</clus>
<clus scale="   97.329">  2  5  1 -1</clus>
<clus scale="   47.273">  1  3  2 -1</clus>
</clustering>
</event>
<event>
 6    0  0.4582113E+002  0.2473785E+03  0.7546771E-02  0.1114973E+00
         21   -1    0    0  504  501  0.00000000000E+00  0.00000000000E+00  0.74322487635E+03  0.74322487635E+03  0.00000000000E+00 0.  1.
         21   -1    0    0  503  502 -0.00000000000E+00 -0.00000000000E+00 -0.22945716505E+03  0.22945716505E+03  0.00000000000E+00 0.  1.
         21    1    1    2  503  506  0.10440748669E+03 -0.11723366094E+03  0.16399217729E+03  0.22702001838E+03  0.00000000000E+00 0.  1.
         21    1    1    2  504  505 -0.14782996048E+01 -0.87761265562E+02  0.40382868195E+03  0.41325758247E+03  0.00000000000E+00 0.  1.
         21    1    1    2  505  502 -0.92797668016E+02  0.24033304885E+03 -0.97529313006E+02  0.27546932398E+03  0.00000000000E+00 0.  1.
         21    1    1    2  506  501 -0.10131519065E+02 -0.35338122352E+02  0.43476165063E+02  0.56935116568E+02  0.00000000000E+00 0.  1.
<scales pt_clust_3="35.63029" pt_clust_4="87.77372" pt_clust_5="236.16695" pt_clust_6="35.63029"></scales>
<clustering>
<clus scale="   35.630">  3  6 -1 -1</clus>
<clus scale="   87.774">  1  4  2 -1</clus>
<clus scale="  236.167">  2  5  1 -1</clus>
<clus scale="   87.774">  1  3  2 -1</clus>
</clustering>
</event>
<event>
 6    0  0.4582113E+002  0.7655275E+02  0.7546771E-02  0.1339129E+00
         21   -1    0    0  505  501  0.00000000000E+00  0.00000000000E+00  0.73867553074E+02  0.73867553074E+02  0.00000000000E+00 0.  1.
         21   -1    0    0  506  502 -0.00000000000E+00 -0.00000000000E+00 -0.57541690709E+03  0.57541690709E+03  0.00000000000E+00 0.  1.
         21    1    1    2  503  504 -0.78490475087E+02 -0.58288935205E+01 -0.16752604041E+03  0.18509377325E+03  0.00000000000E+00 0.  1.
         21    1    1    2  504  501  0.34643654104E+02  0.57720999778E+02 -0.19584066250E+02  0.70110143602E+02  0.00000000000E+00 0.  1.
         21    1    1    2  505  502  0.39103232530E+02  0.12491396800E+02  0.25327703667E+02  0.48234742265E+02  0.00000000000E+00 0.  1.
         21    1    1    2  506  503  0.47435884532E+01 -0.64383503058E+02 -0.33976695102E+03  0.34584580105E+03  0.00000000000E+00 0.  1.
<scales pt_clust_3="14000.00000" pt_clust_4="76.55275" pt_clust_5="41.04994" pt_clust_6="63.85637"></scales>
<clustering>
<clus scale="   41.050">  1  5  2 -1</clus>
<clus scale="   63.856">  2  6  1 -1</clus>
<clus scale="   76.553">  1  4  2 -1</clus>
<clus scale="   41.050">  1  3  2 -1</clus>
</clustering>
</event>
<event>
 6    0  0.4582113E+002  0.1956708E+03  0.7546771E-02  0.1153444E+00
         21   -1    0    0  505  501  0.00000000000E+00  0.00000000000E+00  0.24538909659E+03  0.24538909659E+03  0.00000000000E+00 0. -1.
         21   -1    0    0  504  502 -0.00000000000E+00 -0.00000000000E+00 -0.54031917421E+03  0.54031917421E+03  0.00000000000E+00 0.  1.
         21    1    1    2  503  502 -0.11859895705E+02 -0.32174776283E+02 -0.34617409087E+03  0.34786832932E+03  0.00000000000E+00 0.  1.
         21    1    1    2  504  506  0.11944246686E+03  0.17619728570E+03  0.64344903322E+02  0.22237862523E+03  0.00000000000E+00 0. -1.
         21    1    1    2  505  503 -0.13096171507E+03 -0.12031158867E+03 -0.26048387256E+02  0.17973415830E+03  0.00000000000E+00 0.  1.
         21    1    1    2  506  501  0.23379143908E+02 -0.23710920745E+02  0.12947497181E+02  0.35727157957E+02  0.00000000000E+00 0.  1.
<scales pt_clust_3="34.34547" pt_clust_4="195.67080" pt_clust_5="14000.00000" pt_clust_6="33.29853"></scales>
<clustering>
<clus scale="   33.299">  1  6  2 -1</clus>
<clus scale="   34.345">  2  3  1 -1</clus>
<clus scale="  195.671">  1  4  2 -1</clus>
<clus scale="   33.299">  1  3  2 -1</clus>
</clustering>
</event>
<event>
 6    0  0.4582113E+002  0.9072446E+02  0.7546771E-02  0.1301107E+00
         21   -1    0    0  506  501  0.00000000000E+00  0.00000000000E+00  0.62081481854E+03  0.62081481854E+03  0.00000000000E+00 0. -1.
         21   -1    0    0  503  502 -0.00000000000E+00 -0.00000000000E+00 -0.10187976268E+03  0.10187976268E+03  0.00000000000E+00 0. -1.
         21    1    1    2  503  504  0.39511558488E+02 -0.23703948096E+02 -0.65065608515E+02  0.79728124404E+02  0.00000000000E+00 0. -1.
         21    1    1    2  504  505  0.40646922999E+02  0.37989432146E+02  0.58442659054E+02  0.80690232998E+02  0.00000000000E+00 0.  1.
         21    1    1    2  505  501 -0.70021405254E+02 -0.90368789532E+02  0.39094958486E+03  0.40732185458E+03  0.00000000000E+00 0. -1.
         21    1    1    2  506  502 -0.10137076233E+02  0.76083305482E+02  0.13460842047E+03  0.15495436925E+03  0.00000000000E+00 0. -1.
<scales pt_clust_3="46.07646" pt_clust_4="62.68949" pt_clust_5="90.72446" pt_clust_6="14000.00000"></scales>
<clustering>
<clus scale="   46.076">  2  3  1 -1</clus>
<clus scale="   62.689">  2  4  1 -1</clus>
<clus scale="   90.724">  1  5  2 -1</clus>
<clus scale="   90.724">  1  3  2 -1</clus>
</clustering>
</event>
<event>
 6    0  0.4582113E+002  0.9776588E+02  0.7546771E-02  0.1285065E+00
         21   -1    0    0  504  501  0.00000000000E+00  0.00000000000E+00  0.42159395935E+02  0.42159395935E+02  0.00000000000E+00 0. -1.
         21   -1    0    0  506  502 -0.00000000000E+00 -0.00000000000E+00 -0.15816547059E+04  0.15816547059E+04  0.00000000000E+00 0.  1.
         21    1    1    2  503  501 -0.39733914523E+01  0.36951972387E+02 -0.87424313637E+02  0.94996035274E+02  0.00000000000E+00 0. -1.
         21    1    1    2  504  502 -0.57637046904E+02  0.55412448745E+02 -0.27886933266E+02  0.84677326946E+02  0.00000000000E+00 0. -1.
         21    1    1    2  505  503 -0.47688731168E+02 -0.10128257939E+03 -0.44626487404E+03  0.46009207097E+03  0.00000000000E+00 0.  1.
         21    1    1    2  506  505  0.10929916952E+03  0.89181582574E+01 -0.97791918903E+03  0.98404866865E+03  0.00000000000E+00 0.  1.
<scales pt_clust_3="37.16498" pt_clust_4="102.55785" pt_clust_5="14000.00000" pt_clust_6="97.76588"></scales>
<clustering>
<clus scale="   37.165">  1  3  2 -1</clus>
<clus scale="  102.558">  1  4  2 -1</clus>
<clus scale="   97.766">  2  6  1 -1</clus>
<clus scale="   37.165">  1  3  2 -1</clus>
</clustering>
</event>
<event>
 6    0  0.4582113E+002  0.8280880E+02  0.7546771E-02  0.1321264E+00
         21   -1    0    0  503  501  0.00000000000E+00  0.00000000000E+00  0.93257592825E+02  0.93257592825E+02  0.00000000000E+00 0.  1.
         21   -1    0    0  506  502 -0.00000000000E+00 -0.00000000000E+00 -0.27174629973E+03  0.27174629973E+03  0.00000000000E+00 0.  1.
         21    1    1    2  503  504 -0.32036346050E+02  0.13611734536E+02 -0.24929993805E+02  0.42814849952E+02  0.00000000000E+00 0.  1.
         21    1    1    2  504  502 -0.21919588309E+02 -0.23932281888E+02 -0.76418652127E+02  0.83024290788E+02  0.00000000000E+00 0.  1.
         21    1    1    2  505  501 -0.68508501938E+02 -0.26676230295E+02  0.22636814996E+02  0.76925038146E+02  0.00000000000E+00 0.  1.
         21    1    1    2  506  505  0.12246443630E+03  0.36996777646E+02 -0.99776875973E+02  0.16223971367E+03  0.00000000000E+00 0.  1.
<scales pt_clust_3="37.11053" pt_clust_4="32.45339" pt_clust_5="82.80880" pt_clust_6="14000.00000"></scales>
<clustering>
<clus scale="   32.453">  2  4  1 -1</clus>
<clus scale="   37.111">  2  3  1 -1</clus>
<clus scale="   82.809">  1  5  2 -1</clus>
<clus scale="   82.809">  1  3  2 -1</clus>
</clustering>
</event>
<event>
 6    0  0.4582113E+002  0.8742407E+02  0.7546771E-02  0.1309212E+00
         21   -1    0    0  503  501  0.00000000000E+00  0.00000000000E+00  0.15509759466E+03  0.15509759466E+03  0.00000000000E+00 0. -1.
         21   -1    0    0  506  502 -0.00000000000E+00 -0.00000000000E+00 -0.25037269517E+03  0.25037269517E+03  0.00000000000E+00 0. -1.
         21    1    1    2  503  505 -0.54811584682E+02 -0.34086032088E+02  0.21854453659E+02  0.68145319308E+02  0.00000000000E+00 0.  1.
         21    1    1    2  504  501 -0.33173196317E+02  0.13159169415E+02  0.56929740242E+02  0.67190922137E+02  0.00000000000E+00 0. -1.
         21    1    1    2  505  502 -0.36926469185E+02  0.10897133355E+02 -0.13269929445E+03  0.13817168447E+03  0.00000000000E+00 0. -1.
         21    1    1    2  506  504  0.12491125018E+03  0.10029729319E+02 -0.41359999968E+02  0.13196236392E+03  0.00000000000E+00 0. -1.
<scales pt_clust_3="87.42407" pt_clust_4="35.68788" pt_clust_5="39.54617" pt_clust_6="14000.00000"></scales>
<clustering>
<clus scale="   35.688">  1  4  2 -1</clus>
<clus scale="   39.546">  2  5  1 -1</clus>
<clus scale="   87.424">  1  3  2 -1</clus>
<clus scale="   35.688">  1  3  2 -1</clus>
</clustering>
</event>
<event>
 6    0  0.4582113E+002  0.1338003E+03  0.7546771E-02  0.1221923E+00
         21   -1    0    0  504  501  0.00000000000E+00  0.00000000000E+00  0.12579128936E+03  0.12579128936E+03  0.00000000000E+00 0.  1.
         21   -1    0    0  505  502 -0.00000000000E+00 -0.00000000000E+00 -0.86579036584E+03  0.86579036584E+03  0.00000000000E+00 0.  1.
         21    1    1    2  503  501  0.95538208050E+01  0.36466455737E+02  0.27184038124E+02  0.46476336072E+02  0.00000000000E+00 0.  1.
         21    1    1    2  504  506  0.59316648791E+02 -0.49225141499E+02  0.40124891972E+02  0.86899863838E+02  0.00000000000E+00 0.  1.
         21    1    1    2  505  503  0.80827305600E+02  0.88272139020E+02 -0.40616996040E+03  0.42343719792E+03  0.00000000000E+00 0.  1.
         21    1    1    2  506  502 -0.14969777520E+03 -0.75513453258E+02 -0.40113804618E+03  0.43476825737E+03  0.00000000000E+00 0.  1.
<scales pt_clust_3="37.69719" pt_clust_4="70.08538" pt_clust_5="133.80027" pt_clust_6="14000.00000"></scales>
<clustering>
<clus scale="   37.697">  1  3  2 -1</clus>
<clus scale="   70.085">  1  4  2 -1</clus>
<clus scale="  133.800">  2  5  1 -1</clus>
<clus scale="   37.697">  1  3  2 -1</clus>
</clustering>
</event>
<event>
 6    0  0.4582113E+002  0.8136080E+02  0.7546771E-02  0.1325233E+00
         21   -1    0    0  504  501  0.00000000000E+00  0.00000000000E+00  0.31909031243E+04  0.31909031243E+04  0.00000000000E+00 0. -1.
         21   -1    0    0  503  502 -0.00000000000E+00 -0.00000000000E+00 -0.33692000258E+03  0.33692000258E+03  0.00000000000E+00 0. -1.
         21    1    1    2  503  505 -0.40819587314E+01  0.44673541750E+02 -0.31030070521E+03  0.31352657841E+03  0.00000000000E+00 0. -1.
         21    1    1    2  504  506 -0.78857418345E+02  0.20325663725E+02  0.28593199741E+04  0.28604793898E+04  0.00000000000E+00 0. -1.
         21    1    1    2  505  501 -0.23953830588E+01 -0.79906323210E+02  0.21285696843E+03  0.22737380535E+03  0.00000000000E+00 0.  1.
         21    1    1    2  506  502  0.85334760135E+02  0.14907117734E+02  0.92106884324E+02  0.12644335327E+03  0.00000000000E+00 0. -1.
<scales pt_clust_3="44.85964" pt_clust_4="81.36080" pt_clust_5="67.03493" pt_clust_6="14000.00000"></scales>
<clustering>
<clus scale="   44.860">  2  3  1 -1</clus>
<clus scale="   67.035">  2  5  1 -1</clus>
<clus scale="   81.361">  1  4  2 -1</clus>
<clus scale="   81.361">  1  3  2 -1</clus>
</clustering>
</event>
<event>
 6    0  0.4582113E+002  0.1147473E+03  0.7546771E-02  0.1252023E+00
         21   -1    0    0  505  501  0.00000000000E+00  0.00000000000E+00  0.34406581850E+03  0.34406581850E+03  0.00000000000E+00 0.  1.
         21   -1    0    0  506  502 -0.00000000000E+00 -0.00000000000E+00 -0.59928358311E+03  0.59928358311E+03  0.00000000000E+00 0.  1.
         21    1    1    2  503  502  0.24834107016E+02 -0.36280694056E+02 -0.41826091764E+02  0.60683140860E+02  0.00000000000E+00 0. -1.
         21    1    1    2  504  501 -0.34774527966E+02  0.18632298150E+03  0.24485293165E+03  0.30964250253E+03  0.00000000000E+00 0.  1.
         21    1    1    2  505  503  0.48316460314E+02 -0.72022464687E+02  0.18278730992E+02  0.88633107604E+02  0.00000000000E+00 0.  1.
         21    1    1    2  506  504 -0.38376039365E+02 -0.78019822761E+02 -0.47652333549E+03  0.48439065062E+03  0.00000000000E+00 0.  1.
<scales pt_clust_3="43.96614" pt_clust_4="14000.00000" pt_clust_5="89.54983" pt_clust_6="114.74729"></scales>
<clustering>
<clus scale="   43.966">  2  3  1 -1</clus>
<clus scale="   89.550">  1  5  2 -1</clus>
<clus scale="  114.747">  2  6  1 -1</clus>
<clus scale="   89.550">  1  3  2 -1</clus>
</clustering>
</event>
<event>
 6    0  0.4582113E+002  0.1110976E+03  0.7546771E-02  0.1258551E+00
         21   -1    0    0  503  501  0.00000000000E+00  0.00000000000E+00  0.42449361121E+03  0.42449361121E+03  0.00000000000E+00 0.  1.
         21   -1    0    0  504  502 -0.00000000000E+00 -0.00000000000E+00 -0.72168832160E+03  0.72168832160E+03  0.00000000000E+00 0. -1.
         21    1    1    2  503  502 -0.90029113944E+02  0.45471127165E+02  0.36085694088E+03  0.37468733171E+03  0.00000000000E+00 0.  1.
         21    1    1    2  504  505 -0.18604084024E+02 -0.95004253775E+02 -0.63194616463E+03  0.63931828941E+03  0.00000000000E+00 0. -1.
         21    1    1    2  505  506  0.75085759284E+02  0.70206552515E+01 -0.15745457547E+02  0.77039472226E+02  0.00000000000E+00 0.  1.
         21    1    1    2  506  501  0.33547438684E+02  0.42512471358E+02 -0.10360029097E+02  0.55136839464E+02  0.00000000000E+00 0.  1.
<scales pt_clust_3="99.03680" pt_clust_4="96.80868" pt_clust_5="42.66093" pt_clust_6="42.66093"></scales>
<clustering>
<clus scale="   42.661">  5  6 -1 -1</clus>
<clus scale="   96.809">  2  4  1 -1</clus>
<clus scale="   99.037">  1  3  2 -1</clus>
<clus scale="   99.037">  1  3  2 -1</clus>
</clustering>
</event>
<event>
 6    0  0.4582113E+002  0.1179375E+03  0.7546771E-02  0.1246539E+00
         21   -1    0    0  506  501  0.00000000000E+00  0.00000000000E+00  0.39246134904E+03  0.39246134904E+03  0.00000000000E+00 0.  1.
         21   -1    0    0  503  502 -0.00000000000E+00 -0.00000000000E+00 -0.25424103047E+04  0.25424103047E+04  0.00000000000E+00 0. -1.
         21    1    1    2  503  505  0.17480480494E+02 -0.15443254608E+03 -0.21317596284E+03  0.26381616634E+03  0.00000000000E+00 0. -1.
         21    1    1    2  504  501  0.24620138092E+02  0.58779120986E+02  0.26564659233E+03  0.27318354321E+03  0.00000000000E+00 0.  1.
         21    1    1    2  505  504  0.17769931641E+02  0.42964215207E+02  0.91463699572E+02  0.10260264421E+03  0.00000000000E+00 0. -1.
         21    1    1    2  506  502 -0.59870550227E+02  0.52689209883E+02 -0.22938832847E+04  0.22952693000E+04  0.00000000000E+00 0. -1.
<scales pt_clust_3="111.22219" pt_clust_4="33.50720" pt_clust_5="33.50720" pt_clust_6="79.75359"></scales>
<clustering>
<clus scale="   33.507">  4  5 -1 -1</clus>
<clus scale="   79.754">  2  6  1 -1</clus>
<clus scale="  111.222">  2  3  1 -1</clus>
<clus scale="  117.937">  1  3  2 -1</clus>
</clustering>
</event>
<event>
 6    0  0.4582113E+002  0.9238150E+02  0.7546771E-02  0.1297185E+00
         21   -1    0    0  503  501  0.00000000000E+00  0.00000000000E+00  0.62645456882E+03  0.62645456882E+03  0.00000000000E+00 0. -1.
         21   -1    0    0  506  502 -0.00000000000E+00 -0.00000000000E+00 -0.19367888877E+03  0.19367888877E+03  0.00000000000E+00 0. -1.
         21    1    1    2  503  504  0.67177829609E+02 -0.99754681981E+02  0.55385604393E+03  0.56676306757E+03  0.00000000000E+00 0. -1.
         21    1    1    2  504  502 -0.70518153773E+02  0.23073921214E+02 -0.13725519893E+03  0.15602629742E+03  0.00000000000E+00 0. -1.
         21    1    1    2  505  501 -0.62533303712E+01  0.29432613434E+02  0.34489647624E+02  0.45770281488E+02  0.00000000000E+00 0.  1.
         21    1    1    2  506  505  0.95936545351E+01  0.47248147333E+02 -0.18314812568E+02  0.51573811117E+02  0.00000000000E+00 0.  1.
<scales pt_clust_3="92.38150" pt_clust_4="14000.00000" pt_clust_5="30.08958" pt_clust_6="48.99627"></scales>
<clustering>
<clus scale="   30.090">  1  5  2 -1</clus>
<clus scale="   48.996">  2  6  1 -1</clus>
<clus scale="   92.381">  1  3  2 -1</clus>
<clus scale="   30.090">  1  3  2 -1</clus>
</clustering>
</event>
<event>
 6    0  0.4582113E+002  0.1057018E+03  0.7546771E-02  0.1268743E+00
         21   -1    0    0  506  501  0.00000000000E+00  0.00000000000E+00  0.43828785318E+03  0.43828785318E+03  0.00000000000E+00 0.  1.
         21   -1    0    0  503  502 -0.00000000000E+00 -0.00000000000E+00 -0.13766821107E+04  0.13766821107E+04  0.00000000000E+00 0.  1.
         21    1    1    2  503  501  0.12698991795E+03  0.35237452090E+01  0.33198266831E+03  0.35545934802E+03  0.00000000000E+00 0.  1.
         21    1    1    2  504  502  0.77995628867E+01 -0.46858215626E+02 -0.12128325524E+04  0.12137624668E+04  0.00000000000E+00 0.  1.
         21    1    1    2  505  504 -0.10292630112E+03 -0.13011881744E+01 -0.12297785545E+03  0.16037166048E+03  0.00000000000E+00 0.  1.
         21    1    1    2  506  505 -0.31863179712E+02  0.44635658592E+02  0.65433482027E+02  0.85376488622E+02  0.00000000000E+00 0.  1.
<scales pt_clust_3="105.70183" pt_clust_4="47.50290" pt_clust_5="14000.00000" pt_clust_6="52.25301"></scales>
<clustering>
<clus scale="   47.503">  2  4  1 -1</clus>
<clus scale="   52.253">  1  6  2 -1</clus>
<clus scale="  105.702">  1  3  2 -1</clus>
<clus scale="   52.253">  1  3  2 -1</clus>
</clustering>
</event>
<event>
 6    0  0.4582113E+002  0.1766865E+03  0.7546771E-02  0.1171049E+00
         21   -1    0    0  506  501  0.00000000000E+00  0.00000000000E+00  0.73673046617E+03  0.73673046617E+03  0.00000000000E+00 0.  1.
         21   -1    0    0  504  502 -0.00000000000E+00 -0.00000000000E+00 -0.64022933287E+02  0.64022933287E+02  0.00000000000E+00 0.  1.
         21    1    1    2  503  505  0.10943054380E+03 -0.44974015617E+01  0.20869367883E+03  0.23568691547E+03  0.00000000000E+00 0.  1.
         21    1    1    2  504  501 -0.13411027288E+03  0.48965855151E+02  0.12700066259E+03  0.19108215134E+03  0.00000000000E+00 0.  1.
         21    1    1    2  505  502 -0.43829299585E+02 -0.41560177256E+02  0.48582080273E+02  0.77514349377E+02  0.00000000000E+00 0.  1.
         21    1    1    2  506  503  0.68509028667E+02 -0.29082763331E+01  0.28843111119E+03  0.29646998328E+03  0.00000000000E+00 0.  1.
<scales pt_clust_3="52.13032" pt_clust_4="163.94368" pt_clust_5="60.40079" pt_clust_6="52.13032"></scales>
<clustering>
<clus scale="   52.130">  3  6 -1 -1</clus>
<clus scale="   60.401">  2  5  1 -1</clus>
<clus scale="  163.944">  2  4  1 -1</clus>
<clus scale="  176.686">  1  3  2 -1</clus>
</clustering>
</event>
<event>
 6    0  0.4582113E+002  0.1034375E+03  0.7546771E-02  0.1273229E+00
         21   -1    0    0  506  501  0.00000000000E+00  0.00000000000E+00  0.51017819736E+03  0.51017819736E+03  0.00000000000E+00 0.  1.
         21   -1    0    0  503  502 -0.00000000000E+00 -0.00000000000E+00 -0.71466356633E+02  0.71466356633E+02  0.00000000000E+00 0.  1.
         21    1    1    2  503  505 -0.10707682380E+02  0.85883250550E+02 -0.16089832379E+02  0.88031073451E+02  0.00000000000E+00 0.  1.
         21    1    1    2  504  501 -0.19659478614E+02 -0.33191990092E+02  0.21783924457E+03  0.22122870470E+03  0.00000000000E+00 0.  1.
         21    1    1    2  505  504  0.52009151346E+02 -0.80513186066E+02  0.19711901899E+03  0.21918766525E+03  0.00000000000E+00 0.  1.
         21    1    1    2  506  502 -0.21641990352E+02  0.27821925608E+02  0.39843409553E+02  0.53197110596E+02  0.00000000000E+00 0.  1.
<scales pt_clust_3="14000.00000" pt_clust_4="38.24919" pt_clust_5="103.43745" pt_clust_6="35.24820"></scales>
<clustering>
<clus scale="   35.248">  2  6  1 -1</clus>
<clus scale="   38.249">  1  4  2 -1</clus>
<clus scale="  103.437">  1  5  2 -1</clus>
<clus scale="   38.249">  1  3  2 -1</clus>
</clustering>
</event>
<event>
 6    0  0.4582113E+002  0.1597118E+03  0.7546771E-02  0.1189022E+00
         21   -1    0    0  505  501  0.00000000000E+00  0.00000000000E+00  0.12057992280E+03  0.12057992280E+03  0.00000000000E+00 0. -1.
         21   -1    0    0  504  502 -0.00000000000E+00 -0.00000000000E+00 -0.43689600563E+03  0.43689600563E+03  0.00000000000E+00 0. -1.
         21    1    1    2  503  502  0.13873823535E+03 -0.11449193898E+03 -0.20653868358E+03  0.27388853546E+03  0.00000000000E+00 0. -1.
         21    1    1    2  504  506 -0.29378298831E+02 -0.15872147320E+02 -0.86651651420E+02  0.92862900001E+02  0.00000000000E+00 0.  1.
         21    1    1    2  505  503 -0.28453251538E+02  0.17674530286E+02  0.27203783327E+02  0.43151157240E+02  0.00000000000E+00 0. -1.
         21    1    1    2  506  501 -0.80906684985E+02  0.11268955602E+03 -0.50329531162E+02  0.14757333573E+03  0.00000000000E+00 0. -1.
<scales pt_clust_3="159.71182" pt_clust_4="33.39176" pt_clust_5="33.88331" pt_clust_6="14000.00000"></scales>
<clustering>
<clus scale="   33.392">  2  4  1 -1</clus>
<clus scale="   33.883">  1  5  2 -1</clus>
<clus scale="  159.712">  2  3  1 -1</clus>
<clus scale="   33.883">  1  3  2 -1</clus>
</clustering>
</event>
<event>
 6    0  0.4582113E+002  0.1001276E+03  0.7546771E-02  0.1280028E+00
         21   -1    0    0  503  501  0.00000000000E+00  0.00000000000E+00  0.39937273566E+03  0.39937273566E+03  0.00000000000E+00 0. -1.
         21   -1    0    0  506  502 -0.00000000000E+00 -0.00000000000E+00 -0.11264271814E+04  0.11264271814E+04  0.00000000000E+00 0. -1.
         21    1    1    2  503  505  0.14709371086E+02  0.70567523729E+02  0.16129061652E+03  0.17666579742E+03  0.00000000000E+00 0. -1.
         21    1    1    2  504  502 -0.12539022302E+00  0.33799415144E+02 -0.10872648650E+04  0.10877901006E+04  0.00000000000E+00 0. -1.
         21    1    1    2  505  504 -0.24639074400E+02 -0.13327187068E+03  0.18016530744E+03  0.22545068974E+03  0.00000000000E+00 0. -1.
         21    1    1    2  506  501  0.10055093536E+02  0.28904931802E+02  0.18754495396E+02  0.35893329269E+02  0.00000000000E+00 0. -1.
<scales pt_clust_3="100.12755" pt_clust_4="33.82003" pt_clust_5="14000.00000" pt_clust_6="30.60392"></scales>
<clustering>
<clus scale="   30.604">  1  6  2 -1</clus>
<clus scale="   33.820">  2  4  1 -1</clus>
<clus scale="  100.128">  1  3  2 -1</clus>
<clus scale="   30.604">  1  3  2 -1</clus>
</clustering>
</event>
<event>
 6    0  0.4582113E+002  0.8976104E+02  0.7546771E-02  0.1303431E+00
         21   -1    0    0  504  501  0.00000000000E+00  0.00000000000E+00  0.20646530427E+03  0.20646530427E+03  0.00000000000E+00 0.  1.
         21   -1    0    0  503  502 -0.00000000000E+00 -0.00000000000E+00 -0.35525235924E+03  0.35525235924E+03  0.00000000000E+00 0.  1.
         21    1    1    2  503  506  0.61535063590E+01 -0.33466833110E+02 -0.25733065347E+03  0.25957072210E+03  0.00000000000E+00 0.  1.
         21    1    1    2  504  505  0.27932344675E+02 -0.40960382543E+02  0.51109443639E+02  0.71204943973E+02  0.00000000000E+00 0.  1.
         21    1    1    2  505  502 -0.81777796938E+02 -0.22922036898E+02 -0.31644913083E+02  0.90633483722E+02  0.00000000000E+00 0.  1.
         21    1    1    2  506  501  0.47691945904E+02  0.97349252551E+02  0.89079067942E+02  0.14030851372E+03  0.00000000000E+00 0.  1.
<scales pt_clust_3="34.02785" pt_clust_4="52.82707" pt_clust_5="89.76104" pt_clust_6="14000.00000"></scales>
<clustering>
<clus scale="   34.028">  2  3  1 -1</clus>
<clus scale="   52.827">  1  4  2 -1</clus>
<clus scale="   89.761">  2  5  1 -1</clus>
<clus scale="   52.827">  1  3  2 -1</clus>
</clustering>
</event>
<event>
 6    0  0.4582113E+002  0.1070317E+03  0.7546771E-02  0.1266167E+00
         21   -1    0    0  506  501  0.00000000000E+00  0.00000000000E+00  0.12390326629E+03  0.12390326629E+03  0.00000000000E+00 0.  1.
         21   -1    0    0  504  502 -0.00000000000E+00 -0.00000000000E+00 -0.63153672582E+03  0.63153672582E+03  0.00000000000E+00 0.  1.
         21    1    1    2  503  505  0.72614196221E+02  0.60264809127E+02 -0.17496931156E+03  0.19879368375E+03  0.00000000000E+00 0. -1.
         21    1    1    2  504  501 -0.90398493676E+02  0.36864695366E+02  0.62934898938E+02  0.11615375555E+03  0.00000000000E+00 0.  1.
         21    1    1    2  505  502  0.57157094297E+02 -0.50540118964E+02 -0.36377820289E+03  0.37169317716E+03  0.00000000000E+00 0.  1.
         21    1    1    2  506  503 -0.39372796842E+02 -0.46589385529E+02 -0.31820844033E+02  0.68799375652E+02  0.00000000000E+00 0. -1.
<scales pt_clust_3="14000.00000" pt_clust_4="107.03173" pt_clust_5="76.38262" pt_clust_6="60.99826"></scales>
<clustering>
<clus scale="   60.998">  1  6  2 -1</clus>
<clus scale="   76.383">  2  5  1 -1</clus>
<clus scale="  107.032">  1  4  2 -1</clus>
<clus scale="   60.998">  1  3  2 -1</clus>
</clustering>
</event>
<event>
 6    0  0.4582113E+002  0.1195956E+03  0.7546771E-02  0.1243766E+00
         21   -1    0    0  504  501  0.00000000000E+00  0.00000000000E+00  0.15667110433E+03  0.15667110433E+03  0.00000000000E+00 0.  1.
         21   -1    0    0  501  502 -0.00000000000E+00 -0.00000000000E+00 -0.72950029098E+03  0.72950029098E+03  0.00000000000E+00 0.  1.
         21    1    1    2  503  505  0.93393591746E+02 -0.36821669679E+01 -0.81706575577E+02  0.12414461658E+03  0.00000000000E+00 0.  1.
         21    1    1    2  504  506 -0.29339554702E+02  0.44434477609E+02  0.55170275732E+02  0.76674582456E+02  0.00000000000E+00 0. -1.
         21    1    1    2  505  502  0.57467175286E+01 -0.43562245385E+02 -0.59726281106E+03  0.59887691512E+03  0.00000000000E+00 0.  1.
         21    1    1    2  506  503 -0.69800754572E+02  0.28099347436E+01  0.50969924256E+02  0.86475281155E+02  0.00000000000E+00 0.  1.
<scales pt_clust_3="104.93715" pt_clust_4="48.82242" pt_clust_5="43.93966" pt_clust_6="48.82242"></scales>
<clustering>
<clus scale="   43.940">  2  5  1 -1</clus>
<clus scale="   48.822">  4  6 -1 -1</clus>
<clus scale="  104.937">  2  3  1 -1</clus>
<clus scale="  119.596">  1  3  2 -1</clus>
</clustering>
</event>
<event>
 6    0  0.4582113E+002  0.9938177E+02  0.7546771E-02  0.1281601E+00
         21   -1    0    0  502  501  0.00000000000E+00  0.00000000000E+00  0.24341625467E+03  0.24341625467E+03  0.00000000000E+00 0.  1.
         21   -1    0    0  503  502 -0.00000000000E+00 -0.00000000000E+00 -0.13091436737E+04  0.13091436737E+04  0.00000000000E+00 0. -1.
         21    1    1    2  503  504 -0.16866944053E+02  0.42151579050E+02 -0.93283629900E+03  0.93394047463E+03  0.00000000000E+00 0. -1.
         21    1    1    2  504  506 -0.60439907801E+02 -0.91653368695E+02 -0.35702968569E+03  0.37352847135E+03  0.00000000000E+00 0. -1.
         21    1    1    2  505  501  0.44201058742E+02  0.69723560859E+01  0.11415022626E+03  0.12260759152E+03  0.00000000000E+00 0.  1.
         21    1    1    2  506  505  0.33105793112E+02  0.42529433559E+02  0.10998833936E+03  0.12248339092E+03  0.00000000000E+00 0.  1.
<scales pt_clust_3="45.40098" pt_clust_4="92.04358" pt_clust_5="34.15090" pt_clust_6="34.15090"></scales>
<clustering>
<clus scale="   34.151">  5  6 -1 -1</clus>
<clus scale="   45.401">  2  3  1 -1</clus>
<clus scale="   92.044">  2  4  1 -1</clus>
<clus scale="   99.382">  1  3  2 -1</clus>
</clustering>
</event>
<event>
 6    0  0.4582113E+002  0.8262541E+02  0.7546771E-02  0.1321762E+00
         21   -1    0    0  504  501  0.00000000000E+00  0.00000000000E+00  0.14739084252E+03  0.14739084252E+03  0.00000000000E+00 0. -1.
         21   -1    0    0  505  502 -0.00000000000E+00 -0.00000000000E+00 -0.27770825868E+03  0.27770825868E+03  0.00000000000E+00 0.  1.
         21    1    1    2  503  502  0.10455553308E+03  0.31370663784E+01 -0.12357711952E+03  0.16190430862E+03  0.00000000000E+00 0.  1.
         21    1    1    2  504  506  0.60070224078E+01  0.36449788255E+02  0.41063735180E+02  0.55234968353E+02  0.00000000000E+00 0.  1.
         21    1    1    2  505  501 -0.69994467622E+02 -0.10460163923E+02 -0.10838668618E+03  0.12944618290E+03  0.00000000000E+00 0.  1.
         21    1    1    2  506  503 -0.40568087863E+02 -0.29126690711E+02  0.60582654359E+02  0.78513641323E+02  0.00000000000E+00 0. -1.
<scales pt_clust_3="14000.00000" pt_clust_4="36.94146" pt_clust_5="82.62541" pt_clust_6="36.53448"></scales>
<clustering>
<clus scale="   36.941">  1  4  2 -1</clus>
<clus scale="   36.534">  1  6  2 -1</clus>
<clus scale="   82.625">  2  5  1 -1</clus>
<clus scale="   36.941">  1  3  2 -1</clus>
</clustering>
</event>
<event>
 6    0  0.4582113E+002  0.9143050E+02  0.7546771E-02  0.1299424E+00
         21   -1    0    0  503  501  0.00000000000E+00  0.00000000000E+00  0.60869785367E+02  0.60869785367E+02  0.00000000000E+00 0. -1.
         21   -1    0    0  504  502 -0.00000000000E+00 -0.00000000000E+00 -0.16122520342E+04  0.16122520342E+04  0.00000000000E+00 0. -1.
         21    1    1    2  503  502  0.63284816420E+02 -0.53469980522E+01 -0.10420951462E+04  0.10440286644E+04  0.00000000000E+00 0. -1.
         21    1    1    2  504  506 -0.31633357082E+02 -0.57584059935E+02 -0.11917859509E+03  0.13608868713E+03  0.00000000000E+00 0.  1.
         21    1    1    2  505  501 -0.94037876147E+02 -0.55659029512E+01 -0.22453724940E+01  0.94229205258E+02  0.00000000000E+00 0. -1.
         21    1    1    2  506  505  0.62386416809E+02  0.68496960939E+02 -0.38786313506E+03  0.39877526277E+03  0.00000000000E+00 0. -1.
<scales pt_clust_3="63.51030" pt_clust_4="61.31631" pt_clust_5="14000.00000" pt_clust_6="91.43050"></scales>
<clustering>
<clus scale="   63.510">  2  3  1 -1</clus>
<clus scale="   61.316">  2  4  1 -1</clus>
<clus scale="   91.430">  2  6  1 -1</clus>
<clus scale="   91.430">  1  3  2 -1</clus>
</clustering>
</event>
<event>
 6    0  0.4582113E+002  0.9568280E+02  0.7546771E-02  0.1289646E+00
         21   -1    0    0  504  501  0.00000000000E+00  0.00000000000E+00  0.13497626337E+04  0.13497626337E+04  0.00000000000E+00 0. -1.
         21   -1    0    0  506  502 -0.00000000000E+00 -0.00000000000E+00 -0.17784432894E+03  0.17784432894E+03  0.00000000000E+00 0. -1.
         21    1    1    2  503  501 -0.89006126569E+02  0.28381183906E+02  0.29055852977E+03  0.30520786587E+03  0.00000000000E+00 0.  1.
         21    1    1    2  504  505  0.18510413257E+02  0.39780745661E+02  0.98724345631E+03  0.98821798463E+03  0.00000000000E+00 0. -1.
         21    1    1    2  505  502  0.24058759167E+02 -0.11677963448E+03 -0.11581389747E+03  0.16622023273E+03  0.00000000000E+00 0. -1.
         21    1    1    2  506  503  0.46436954145E+02  0.48617704912E+02  0.99302161899E+01  0.67960879444E+02  0.00000000000E+00 0. -1.
<scales pt_clust_3="95.68280" pt_clust_4="43.87645" pt_clust_5="14000.00000" pt_clust_6="71.71748"></scales>
<clustering>
<clus scale="   43.876">  1  4  2 -1</clus>
<clus scale="   71.717">  2  6  1 -1</clus>
<clus scale="   95.683">  1  3  2 -1</clus>
<clus scale="   43.876">  1  3  2 -1</clus>
</clustering>
</event>
<event>
 6    0  0.4582113E+002  0.1481934E+03  0.7546771E-02  0.1202711E+00
         21   -1    0    0  503  501  0.00000000000E+00  0.00000000000E+00  0.81277049731E+03  0.81277049731E+03  0.00000000000E+00 0.  1.
         21   -1    0    0  504  502 -0.00000000000E+00 -0.00000000000E+00 -0.50846089281E+03  0.50846089281E+03  0.00000000000E+00 0.  1.
         21    1    1    2  503  506 -0.33361405727E+02 -0.43662973426E+01  0.31145909904E+02  0.45848834754E+02  0.00000000000E+00 0. -1.
         21    1    1    2  504  505 -0.32704422624E+01  0.70353027178E+02 -0.13200199004E+03  0.14961540562E+03  0.00000000000E+00 0.  1.
         21    1    1    2  505  501 -0.30923740764E+02 -0.13233782610E+03  0.75305582379E+03  0.76522065557E+03  0.00000000000E+00 0.  1.
         21    1    1    2  506  502  0.67555588753E+02  0.66351096261E+02 -0.34789013915E+03  0.36054649418E+03  0.00000000000E+00 0.  1.
<scales pt_clust_3="33.64592" pt_clust_4="70.39805" pt_clust_5="14000.00000" pt_clust_6="148.19339"></scales>
<clustering>
<clus scale="   33.646">  1  3  2 -1</clus>
<clus scale="   70.398">  2  4  1 -1</clus>
<clus scale="  148.193">  2  6  1 -1</clus>
<clus scale="   33.646">  1  3  2 -1</clus>
</clustering>
</event>
<event>
 6    0  0.4582113E+002  0.1014170E+03  0.7546771E-02  0.1277344E+00
         21   -1    0    0  506  501  0.00000000000E+00  0.00000000000E+00  0.14295797540E+03  0.14295797540E+03  0.00000000000E+00 0.  1.
         21   -1    0    0  505  502 -0.00000000000E+00 -0.00000000000E+00 -0.84816294145E+03  0.84816294145E+03  0.00000000000E+00 0.  1.
         21    1    1    2  503  502  0.72196412409E+02 -0.62902358638E+02 -0.29542084202E+03  0.31055193219E+03  0.00000000000E+00 0.  1.
         21    1    1    2  504  503 -0.37747297020E+02 -0.59156325896E+02  0.71070676648E+02  0.99876776105E+02  0.00000000000E+00 0.  1.
         21    1    1    2  505  501 -0.29298668455E+01  0.12201245313E+03 -0.51788046290E+03  0.53206747381E+03  0.00000000000E+00 0.  1.
         21    1    1    2  506  504 -0.31519248544E+02  0.46231407982E-01  0.37025662216E+02  0.48624734742E+02  0.00000000000E+00 0.  1.
<scales pt_clust_3="95.75505" pt_clust_4="30.53637" pt_clust_5="90.60567" pt_clust_6="30.53637"></scales>
<clustering>
<clus scale="   30.536">  4  6 -1 -1</clus>
<clus scale="   95.755">  2  3  1 -1</clus>
<clus scale="   90.606">  2  5  1 -1</clus>
<clus scale="  101.417">  1  3  2 -1</clus>
</clustering>
</event>
<event>
 6    0  0.4582113E+002  0.8725563E+02  0.7546771E-02  0.1309637E+00
         21   -1    0    0  505  501  0.00000000000E+00  0.00000000000E+00  0.15554149470E+04  0.15554149470E+04  0.00000000000E+00 0.  1.
         21   -1    0    0  504  502 -0.00000000000E+00 -0.00000000000E+00 -0.11101571184E+03  0.11101571184E+03  0.00000000000E+00 0.  1.
         21    1    1    2  503  502 -0.45277650135E+02 -0.19339225682E+02 -0.61542228581E+02  0.78813178786E+02  0.00000000000E+00 0.  1.
         21    1    1    2  504  501  0.41361838656E+01 -0.95312624008E+02  0.14895904213E+03  0.17689092838E+03  0.00000000000E+00 0.  1.
         21    1    1    2  505  506 -0.24079449751E+02  0.83266405626E+02  0.13310080201E+04  0.13338273741E+04  0.00000000000E+00 0.  1.
         21    1    1    2  506  503  0.65220916020E+02  0.31385444064E+02  0.25974401522E+02  0.76899177629E+02  0.00000000000E+00 0.  1.
<scales pt_clust_3="49.23486" pt_clust_4="87.25563" pt_clust_5="14000.00000" pt_clust_6="41.73540"></scales>
<clustering>
<clus scale="   49.235">  2  3  1 -1</clus>
<clus scale="   41.735">  2  6  1 -1</clus>
<clus scale="   87.256">  2  4  1 -1</clus>
<clus scale="   87.256">  1  3  2 -1</clus>
</clustering>
</event>
<event>
 6    0  0.4582113E+002  0.1132349E+03  0.7546771E-02  0.1254694E+00
         21   -1    0    0  504  501  0.00000000000E+00  0.00000000000E+00  0.11565376016E+03  0.11565376016E+03  0.00000000000E+00 0. -1.
         21   -1    0    0  505  502 -0.00000000000E+00 -0.00000000000E+00 -0.52576007767E+03  0.52576007767E+03  0.00000000000E+00 0. -1.
         21    1    1    2  503  501  0.16458131864E+02 -0.39087016313E+02 -0.10528808981E+02  0.43698063656E+02  0.00000000000E+00 0. -1.
         21    1    1    2  504  502 -0.81497885682E+02  0.13327574818E+03 -0.67856429666E+02  0.17031977416E+03  0.00000000000E+00 0. -1.
         21    1    1    2  505  506  0.71128054834E+02 -0.44621602478E+02 -0.36023372168E+03  0.36989001315E+03  0.00000000000E+00 0. -1.
         21    1    1    2  506  503 -0.60883010157E+01 -0.49567129392E+02  0.28512642808E+02  0.57505986865E+02  0.00000000000E+00 0. -1.
<scales pt_clust_3="40.71243" pt_clust_4="104.26112" pt_clust_5="83.96599" pt_clust_6="40.71243"></scales>
<clustering>
<clus scale="   40.712">  3  6 -1 -1</clus>
<clus scale="   83.966">  2  5  1 -1</clus>
<clus scale="  104.261">  2  4  1 -1</clus>
<clus scale="  113.235">  1  3  2 -1</clus>
</clustering>
</event>
<event>
 6    0  0.4582113E+002  0.1446101E+03  0.7546771E-02  0.1207257E+00
         21   -1    0    0  506  501  0.00000000000E+00  0.00000000000E+00  0.44090837460E+03  0.44090837460E+03  0.00000000000E+00 0. -1.
         21   -1    0    0  505  502 -0.00000000000E+00 -0.00000000000E+00 -0.23654167217E+03  0.23654167217E+03  0.00000000000E+00 0.  1.
         21    1    1    2  503  502  0.48719891644E+02  0.69905315443E+02 -0.59627006170E+02  0.10399885016E+03  0.00000000000E+00 0.  1.
         21    1    1    2  504  501 -0.28405053909E+02 -0.47150102269E+02  0.12701129371E+03  0.13842632683E+03  0.00000000000E+00 0. -1.
         21    1    1    2  505  504  0.42419372817E+02 -0.83785369654E+02  0.26432091212E+03  0.28050835271E+03  0.00000000000E+00 0. -1.
         21    1    1    2  506  503 -0.62734210551E+02  0.61030156481E+02 -0.12733849723E+03  0.15451651708E+03  0.00000000000E+00 0.  1.
<scales pt_clust_3="85.20787" pt_clust_4="54.27036" pt_clust_5="54.27036" pt_clust_6="126.04452"></scales>
<clustering>
<clus scale="   54.270">  4  5 -1 -1</clus>
<clus scale="   85.208">  2  3  1 -1</clus>
<clus scale="  126.045">  2  6  1 -1</clus>
<clus scale="  144.610">  1  3  2 -1</clus>
</clustering>
</event>
<event>
 6    0  0.4582113E+002  0.6838855E+02  0.7546771E-02  0.1365660E+00
         21   -1    0    0  503  501  0.00000000000E+00  0.00000000000E+00  0.81419988062E+03  0.81419988062E+03  0.00000000000E+00 0. -1.
         21   -1    0    0  504  502 -0.00000000000E+00 -0.00000000000E+00 -0.31618650787E+03  0.31618650787E+03  0.00000000000E+00 0.  1.
         21    1    1    2  503  502  0.25988808475E+02 -0.41398247850E+02  0.23463549614E+03  0.23967279599E+03  0.00000000000E+00 0. -1.
         21    1    1    2  504  506 -0.24750751756E+02 -0.72837540929E+02 -0.26115589713E+03  0.27225045397E+03  0.00000000000E+00 0.  1.
         21    1    1    2  505  501 -0.36647505912E+02  0.78609910671E+02  0.55365149925E+03  0.56040390824E+03  0.00000000000E+00 0. -1.
         21    1    1    2  506  505  0.35409449193E+02  0.35625878108E+02 -0.29117725512E+02  0.58059230292E+02  0.00000000000E+00 0.  1.
<scales pt_clust_3="48.87978" pt_clust_4="68.38855" pt_clust_5="40.33970" pt_clust_6="14000.00000"></scales>
<clustering>
<clus scale="   48.880">  1  3  2 -1</clus>
<clus scale="   40.340">  1  5  2 -1</clus>
<clus scale="   68.389">  2  4  1 -1</clus>
<clus scale="   48.880">  1  3  2 -1</clus>
</clustering>
</event>
<event>
 6    0  0.4582113E+002  0.1671861E+03  0.7546771E-02  0.1180814E+00
         21   -1    0    0  506  501  0.00000000000E+00  0.00000000000E+00  0.10260689010E+04  0.10260689010E+04  0.00000000000E+00 0. -1.
         21   -1    0    0  505  502 -0.00000000000E+00 -0.00000000000E+00 -0.15754378903E+03  0.15754378903E+03  0.00000000000E+00 0. -1.
         21    1    1    2  503  501 -0.52605221795E+02 -0.14346093193E+03  0.48070227708E+03  0.50440363554E+03  0.00000000000E+00 0. -1.
         21    1    1    2  504  503  0.45113014003E+02  0.18345635977E+03  0.49562361730E+03  0.53040945504E+03  0.00000000000E+00 0. -1.
         21    1    1    2  505  504 -0.38839951563E+02 -0.14176117452E+02 -0.19316678271E+02  0.45635931051E+02  0.00000000000E+00 0.  1.
         21    1    1    2  506  502  0.46332159356E+02 -0.25819310392E+02 -0.88484104177E+02  0.10316366837E+03  0.00000000000E+00 0. -1.
<scales pt_clust_3="167.18607" pt_clust_4="14000.00000" pt_clust_5="41.34615" pt_clust_6="40.25132"></scales>
<clustering>
<clus scale="   41.346">  2  5  1 -1</clus>
<clus scale="   40.251">  2  6  1 -1</clus>
<clus scale="  167.186">  1  3  2 -1</clus>
<clus scale="  167.186">  1  3  2 -1</clus>
</clustering>
</event>
<event>
 6    0  0.5942448E+002  0.1359671E+03  0.7546771E-02  0.1218861E+00
         21   -1    0    0  503  501  0.00000000000E+00  0.00000000000E+00  0.14272091075E+04  0.14272091075E+04  0.00000000000E+00 0.  1.
         21   -1    0    0  505  502 -0.00000000000E+00 -0.00000000000E+00 -0.13756260314E+04  0.13756260314E+04  0.00000000000E+00 0. -1.
         21    1    1    2  503  506  0.51838479016E+02 -0.10096779295E+02  0.97083010312E+02  0.11051825076E+03  0.00000000000E+00 0.  1.
         21    1    1    2  504  501 -0.14462238849E+03  0.10902105294E+03  0.12937765820E+04  0.13063916218E+04  0.00000000000E+00 0.  1.
         21    1    1    2  505  504 -0.21141724278E+02 -0.87845103516E+02 -0.77703747850E+02  0.11917049613E+03  0.00000000000E+00 0.  1.
         21    1    1    2  506  502  0.11392563376E+03 -0.11079170131E+02 -0.12615727683E+04  0.12667547702E+04  0.00000000000E+00 0. -1.
<scales pt_clust_3="52.81262" pt_clust_4="135.96711" pt_clust_5="90.32093" pt_clust_6="14000.00000"></scales>
<clustering>
<clus scale="   52.813">  1  3  2 -1</clus>
<clus scale="   90.321">  2  5  1 -1</clus>
<clus scale="  135.967">  1  4  2 -1</clus>
<clus scale="   52.813">  1  3  2 -1</clus>
</clustering>
</event>
<event>
 6    0  0.4582113E+002  0.1081177E+03  0.7546771E-02  0.1264096E+00
         21   -1    0    0  505  501  0.00000000000E+00  0.00000000000E+00  0.31442145793E+03  0.31442145793E+03  0.00000000000E+00 0. -1.
         21   -1    0    0  506  502 -0.00000000000E+00 -0.00000000000E+00 -0.49645207938E+03  0.49645207938E+03  0.00000000000E+00 0. -1.
         21    1    1    2  503  502  0.85916967914E+02 -0.51046097894E+02 -0.60151263787E+02  0.11664306246E+03  0.00000000000E+00 0. -1.
         21    1    1    2  504  501 -0.19706686376E+02 -0.40453132272E+02  0.34710840812E+02  0.56830026117E+02  0.00000000000E+00 0. -1.
         21    1    1    2  505  503 -0.95083553067E+02  0.44675375403E+02  0.22687051513E+03  0.25001400334E+03  0.00000000000E+00 0. -1.
         21    1    1    2  506  504  0.28873271529E+02  0.46823854763E+02 -0.38346071361E+03  0.38738644539E+03  0.00000000000E+00 0. -1.
<scales pt_clust_3="108.11774" pt_clust_4="44.99788" pt_clust_5="14000.00000" pt_clust_6="54.68321"></scales>
<clustering>
<clus scale="   44.998">  1  4  2 -1</clus>
<clus scale="   54.683">  2  6  1 -1</clus>
<clus scale="  108.118">  2  3  1 -1</clus>
<clus scale="   44.998">  1  3  2 -1</clus>
</clustering>
</event>
<event>
 6    0  0.4582113E+002  0.7951392E+02  0.7546771E-02  0.1330437E+00
         21   -1    0    0  505  501  0.00000000000E+00  0.00000000000E+00  0.14675207504E+03  0.14675207504E+03  0.00000000000E+00 0.  1.
         21   -1    0    0  504  502 -0.00000000000E+00 -0.00000000000E+00 -0.31714422846E+03  0.31714422846E+03  0.00000000000E+00 0.  1.
         21    1    1    2  503  501  0.55009488221E+01  0.39367207020E+02  0.53392830656E+01  0.40106674883E+02  0.00000000000E+00 0. -1.
         21    1    1    2  504  503  0.77130958745E+01  0.47031027503E+02 -0.19788548400E+03  0.20354378933E+03  0.00000000000E+00 0.  1.
         21    1    1    2  505  506 -0.92168029032E+01  0.41663937034E+02  0.71238711289E+02  0.83040876025E+02  0.00000000000E+00 0.  1.
         21    1    1    2  506  502 -0.39972417934E+01 -0.12806217156E+03 -0.49084663775E+02  0.13720496326E+03  0.00000000000E+00 0.  1.
<scales pt_clust_3="39.74968" pt_clust_4="48.56576" pt_clust_5="14000.00000" pt_clust_6="79.51392"></scales>
<clustering>
<clus scale="   39.750">  1  3  2 -1</clus>
<clus scale="   48.566">  2  4  1 -1</clus>
<clus scale="   79.514">  2  6  1 -1</clus>
<clus scale="   39.750">  1  3  2 -1</clus>
</clustering>
</event>
<event>
 6    0  0.4582113E+002  0.6079313E+02  0.7546771E-02  0.1394533E+00
         21   -1    0    0  503  501  0.00000000000E+00  0.00000000000E+00  0.67579524672E+03  0.67579524672E+03  0.00000000000E+00 0.  1.
         21   -1    0    0  505  502 -0.00000000000E+00 -0.00000000000E+00 -0.37090576262E+02  0.37090576262E+02  0.00000000000E+00 0.  1.
         21    1    1    2  503  506  0.35353735404E+02  0.43872980247E+02  0.18537052199E+03  0.19374456232E+03  0.00000000000E+00 0.  1.
         21    1    1    2  504  501 -0.71096332568E+02 -0.10168394958E+02  0.31888191426E+03  0.32686963762E+03  0.00000000000E+00 0.  1.
         21    1    1    2  505  504 -0.25631190899E+02  0.35981491562E+02  0.36565928073E+02  0.57347125279E+02  0.00000000000E+00 0.  1.
         21    1    1    2  506  502  0.61373788063E+02 -0.69686076851E+02  0.97886306134E+02  0.13492449776E+03  0.00000000000E+00 0.  1.
<scales pt_clust_3="58.59714" pt_clust_4="60.79313" pt_clust_5="44.17721" pt_clust_6="14000.00000"></scales>
<clustering>
<clus scale="   44.177">  2  5  1 -1</clus>
<clus scale="   58.597">  1  3  2 -1</clus>
<clus scale="   60.793">  1  4  2 -1</clus>
<clus scale="   58.597">  1  3  2 -1</clus>
</clustering>
</event>
<event>
 6    0  0.4582113E+002  0.2206772E+03  0.7546771E-02  0.1133379E+00
         21   -1    0    0  505  501  0.00000000000E+00  0.00000000000E+00  0.19055845142E+03  0.19055845142E+03  0.00000000000E+00 0. -1.
         21   -1    0    0  503  502 -0.00000000000E+00 -0.00000000000E+00 -0.23484051415E+04  0.23484051415E+04  0.00000000000E+00 0. -1.
         21    1    1    2  503  501  0.12845290520E+03 -0.25967316082E+02 -0.20443623038E+04  0.20485584394E+04  0.00000000000E+00 0. -1.
         21    1    1    2  504  502  0.46522488790E+02 -0.18937646455E+02 -0.16439473130E+03  0.17189707413E+03  0.00000000000E+00 0.  1.
         21    1    1    2  505  506 -0.21861812917E+03  0.47753875174E+02  0.10646085903E+03  0.24780684716E+03  0.00000000000E+00 0. -1.
         21    1    1    2  506  504  0.43642735172E+02 -0.28489126369E+01 -0.55550514074E+02  0.70701232312E+02  0.00000000000E+00 0. -1.
<scales pt_clust_3="220.67722" pt_clust_4="102.36224" pt_clust_5="14000.00000" pt_clust_6="40.39043"></scales>
<clustering>
<clus scale="   40.390">  4  6 -1 -1</clus>
<clus scale="  102.362">  2  4  1 -1</clus>
<clus scale="  220.677">  2  3  1 -1</clus>
<clus scale="  220.677">  1  3  2 -1</clus>
</clustering>
</event>
<event>
 6    0  0.4582113E+002  0.1541176E+03  0.7546771E-02  0.1195503E+00
         21   -1    0    0  506  501  0.00000000000E+00  0.00000000000E+00  0.87005113685E+03  0.87005113685E+03  0.00000000000E+00 0. -1.
         21   -1    0    0  503  502 -0.00000000000E+00 -0.00000000000E+00 -0.13074729884E+03  0.13074729884E+03  0.00000000000E+00 0. -1.
         21    1    1    2  503  505 -0.50506208738E+02 -0.18410259527E+02  0.21418573393E+03  0.22082876488E+03  0.00000000000E+00 0. -1.
         21    1    1    2  504  502  0.18365644100E+02 -0.64192097119E+02 -0.85520933741E+02  0.10849770654E+03  0.00000000000E+00 0. -1.
         21    1    1    2  505  501 -0.96828006374E+02  0.46298038766E+02  0.44838024965E+03  0.46104665652E+03  0.00000000000E+00 0. -1.
         21    1    1    2  506  504  0.12896857101E+03  0.36304317880E+02  0.16225878816E+03  0.21042530775E+03  0.00000000000E+00 0. -1.
<scales pt_clust_3="41.72140" pt_clust_4="66.76767" pt_clust_5="41.72140" pt_clust_6="142.39702"></scales>
<clustering>
<clus scale="   41.721">  3  5 -1 -1</clus>
<clus scale="   66.768">  2  4  1 -1</clus>
<clus scale="  142.397">  2  6  1 -1</clus>
<clus scale="  154.118">  1  3  2 -1</clus>
</clustering>
</event>
<event>
 6    0  0.4582113E+002  0.1065765E+03  0.7546771E-02  0.1267044E+00
         21   -1    0    0  504  501  0.00000000000E+00  0.00000000000E+00  0.16225354239E+04  0.16225354239E+04  0.00000000000E+00 0. -1.
         21   -1    0    0  503  502 -0.00000000000E+00 -0.00000000000E+00 -0.62012145750E+03  0.62012145750E+03  0.00000000000E+00 0. -1.
         21    1    1    2  503  501 -0.46683231113E+02 -0.78956452734E+02  0.13494781600E+04  0.13525918638E+04  0.00000000000E+00 0. -1.
         21    1    1    2  504  505 -0.48853716417E+02  0.35159216987E+02  0.21895136344E+03  0.22707389921E+03  0.00000000000E+00 0.  1.
         21    1    1    2  505  506  0.14403832848E+03  0.58597325951E+02 -0.81002210966E+02  0.17533409497E+03  0.00000000000E+00 0. -1.
         21    1    1    2  506  502 -0.48501380948E+02 -0.14800090203E+02 -0.48501334611E+03  0.48765702346E+03  0.00000000000E+00 0. -1.
<scales pt_clust_3="106.57651" pt_clust_4="61.13502" pt_clust_5="14000.00000" pt_clust_6="50.70924"></scales>
<clustering>
<clus scale="   50.709">  2  6  1 -1</clus>
<clus scale="   61.135">  1  4  2 -1</clus>
<clus scale="  106.577">  1  3  2 -1</clus>
<clus scale="   61.135">  1  3  2 -1</clus>
</clustering>
</event>
<event>
 6    0  0.4582113E+002  0.8250739E+02  0.7546771E-02  0.1322083E+00
         21   -1    0    0  504  501  0.00000000000E+00  0.00000000000E+00  0.23120594772E+03  0.23120594772E+03  0.00000000000E+00 0.  1.
         21   -1    0    0  506  502 -0.00000000000E+00 -0.00000000000E+00 -0.80189248001E+03  0.80189248001E+03  0.00000000000E+00 0.  1.
         21    1    1    2  503  501  0.14741731037E+02 -0.41903705202E+02  0.30286475663E+02  0.53763461121E+02  0.00000000000E+00 0.  1.
         21    1    1    2  504  502  0.40636286398E+02  0.98046555225E+02  0.15599344181E+03  0.18867535253E+03  0.00000000000E+00 0.  1.
         21    1    1    2  505  503 -0.37803728781E+02 -0.13653699355E+03 -0.54946477381E+03  0.56743546785E+03  0.00000000000E+00 0.  1.
         21    1    1    2  506  505 -0.17574288654E+02  0.80394143531E+02 -0.20750167596E+03  0.22322414624E+03  0.00000000000E+00 0.  1.
<scales pt_clust_3="44.42116" pt_clust_4="14000.00000" pt_clust_5="82.50739" pt_clust_6="80.46101"></scales>
<clustering>
<clus scale="   44.421">  1  3  2 -1</clus>
<clus scale="   80.461">  2  6  1 -1</clus>
<clus scale="   82.507">  2  5  1 -1</clus>
<clus scale="   44.421">  1  3  2 -1</clus>
</clustering>
</event>
<event>
 6    0  0.4582113E+002  0.8467378E+02  0.7546771E-02  0.1316288E+00
         21   -1    0    0  505  501  0.00000000000E+00  0.00000000000E+00  0.25096121417E+03  0.25096121417E+03  0.00000000000E+00 0. -1.
         21   -1    0    0  504  502 -0.00000000000E+00 -0.00000000000E+00 -0.12792033065E+04  0.12792033065E+04  0.00000000000E+00 0. -1.
         21    1    1    2  503  506 -0.56609967142E+02 -0.48161355241E+02  0.10351718090E+03  0.12743630275E+03  0.00000000000E+00 0. -1.
         21    1    1    2  504  501  0.15430845521E+02  0.44976430531E+02 -0.11679783434E+04  0.11689458503E+04  0.00000000000E+00 0. -1.
         21    1    1    2  505  503 -0.38951779093E+02  0.48623000547E+02  0.10274253101E+03  0.12015600258E+03  0.00000000000E+00 0. -1.
         21    1    1    2  506  502  0.80130900714E+02 -0.45438075837E+02 -0.66523460828E+02  0.11362636501E+03  0.00000000000E+00 0. -1.
<scales pt_clust_3="84.67378" pt_clust_4="47.54987" pt_clust_5="64.37994" pt_clust_6="14000.00000"></scales>
<clustering>
<clus scale="   47.550">  2  4  1 -1</clus>
<clus scale="   64.380">  1  5  2 -1</clus>
<clus scale="   84.674">  1  3  2 -1</clus>
<clus scale="   64.380">  1  3  2 -1</clus>
</clustering>
</event>
<event>
 6    0  0.4582113E+002  0.1469980E+03  0.7546771E-02  0.1204211E+00
         21   -1    0    0  504  501  0.00000000000E+00  0.00000000000E+00  0.49769442296E+03  0.49769442296E+03  0.00000000000E+00 0. -1.
         21   -1    0    0  505  502 -0.00000000000E+00 -0.00000000000E+00 -0.70913651568E+02  0.70913651568E+02  0.00000000000E+00 0. -1.
         21    1    1    2  503  502  0.82049115629E+02 -0.54850620946E+02  0.66590122447E+02  0.11905835712E+03  0.00000000000E+00 0. -1.
         21    1    1    2  504  506 -0.59904587286E+02 -0.53233932261E+02  0.10448279256E+03  0.13167788372E+03  0.00000000000E+00 0. -1.
         21    1    1    2  505  501 -0.81388816938E+02  0.89377748369E+02  0.20361652282E+03  0.23679571320E+03  0.00000000000E+00 0. -1.
         21    1    1    2  506  503  0.59244288595E+02  0.18706804839E+02  0.52091333569E+02  0.81076120475E+02  0.00000000000E+00 0.  1.
<scales pt_clust_3="54.38340" pt_clust_4="80.13995" pt_clust_5="130.03877" pt_clust_6="54.38340"></scales>
<clustering>
<clus scale="   54.383">  3  6 -1 -1</clus>
<clus scale="   80.140">  1  4  2 -1</clus>
<clus scale="  130.039">  1  5  2 -1</clus>
<clus scale="   80.140">  1  3  2 -1</clus>
</clustering>
</event>
<event>
 6    0  0.4893512E+002  0.7267247E+02  0.7546771E-02  0.1351234E+00
         21   -1    0    0  506  501  0.00000000000E+00  0.00000000000E+00  0.83182743340E+03  0.83182743340E+03  0.00000000000E+00 0.  1.
         21   -1    0    0  504  502 -0.00000000000E+00 -0.00000000000E+00 -0.14446065561E+04  0.14446065561E+04  0.00000000000E+00 0. -1.
         21    1    1    2  503  505 -0.22907582043E+02 -0.77935871104E+02  0.30455544149E+02  0.86754236146E+02  0.00000000000E+00 0.  1.
         21    1    1    2  504  501  0.50174775280E+01  0.65565396381E+02  0.28852933626E+02  0.71808690714E+02  0.00000000000E+00 0.  1.
         21    1    1    2  505  502 -0.54976740846E+02  0.20206752423E+02 -0.13925046231E+04  0.13937359435E+04  0.00000000000E+00 0. -1.
         21    1    1    2  506  503  0.72866845360E+02 -0.78362776987E+01  0.72041702258E+03  0.72413511917E+03  0.00000000000E+00 0.  1.
<scales pt_clust_3="72.67247" pt_clust_4="14000.00000" pt_clust_5="58.57265" pt_clust_6="71.23713"></scales>
<clustering>
<clus scale="   58.573">  2  5  1 -1</clus>
<clus scale="   71.237">  1  6  2 -1</clus>
<clus scale="   72.672">  2  3  1 -1</clus>
<clus scale="   71.237">  1  3  2 -1</clus>
</clustering>
</event>
<event>
 6    0  0.1575055E+003  0.1238675E+03  0.7546771E-02  0.1236850E+00
         21   -1    0    0  506  501  0.00000000000E+00  0.00000000000E+00  0.11852320621E+04  0.11852320621E+04  0.00000000000E+00 0. -1.
         21   -1    0    0  504  502 -0.00000000000E+00 -0.00000000000E+00 -0.41831319363E+03  0.41831319363E+03  0.00000000000E+00 0.  1.
         21    1    1    2  503  505  0.55869654911E+02  0.12664986482E+02  0.91415251411E+02  0.10788219692E+03  0.00000000000E+00 0.  1.
         21    1    1    2  504  501 -0.70982630182E+02  0.97521187597E+02 -0.38787083650E+03  0.40619293645E+03  0.00000000000E+00 0.  1.
         21    1    1    2  505  502  0.39201818436E+02 -0.15773171638E+02  0.30753688289E+02  0.52262461247E+02  0.00000000000E+00 0.  1.
         21    1    1    2  506  503 -0.24088843165E+02 -0.94413002442E+02  0.10326207653E+04  0.10372076611E+04  0.00000000000E+00 0. -1.
<scales pt_clust_3="35.12691" pt_clust_4="116.92019" pt_clust_5="35.12691" pt_clust_6="97.43761"></scales>
<clustering>
<clus scale="   35.127">  3  5 -1 -1</clus>
<clus scale="   97.438">  1  6  2 -1</clus>
<clus scale="  116.920">  2  4  1 -1</clus>
<clus scale="   97.438">  1  3  2 -1</clus>
</clustering>
</event>
<event>
 6    0  0.4582113E+002  0.1019969E+03  0.7546771E-02  0.1276152E+00
         21   -1    0    0  504  501  0.00000000000E+00  0.00000000000E+00  0.49313232885E+02  0.49313232885E+02  0.00000000000E+00 0.  1.
         21   -1    0    0  505  502 -0.00000000000E+00 -0.00000000000E+00 -0.20458041982E+04  0.20458041982E+04  0.00000000000E+00 0.  1.
         21    1    1    2  503  506 -0.20830017894E+02 -0.82547387927E+02 -0.97996466843E+03  0.98365578953E+03  0.00000000000E+00 0.  1.
         21    1    1    2  504  503  0.33233763049E+01  0.57194591393E+02 -0.57070463790E+02  0.80865962876E+02  0.00000000000E+00 0.  1.
         21    1    1    2  505  501 -0.35372416765E+02  0.49411695671E+02  0.80929816024E+01  0.61304321936E+02  0.00000000000E+00 0.  1.
         21    1    1    2  506  502  0.52879058355E+02 -0.24058899137E+02 -0.96754881468E+03  0.96929135673E+03  0.00000000000E+00 0.  1.
<scales pt_clust_3="101.99691" pt_clust_4="57.29106" pt_clust_5="14000.00000" pt_clust_6="57.62728"></scales>
<clustering>
<clus scale="   57.291">  1  4  2 -1</clus>
<clus scale="   57.627">  2  6  1 -1</clus>
<clus scale="  101.997">  2  3  1 -1</clus>
<clus scale="   57.291">  1  3  2 -1</clus>
</clustering>
</event>
<event>
 6    0  0.4582113E+002  0.2427615E+03  0.7546771E-02  0.1117967E+00
         21   -1    0    0  503  501  0.00000000000E+00  0.00000000000E+00  0.59212298811E+03  0.59212298811E+03  0.00000000000E+00 0. -1.
         21   -1    0    0  505  502 -0.00000000000E+00 -0.00000000000E+00 -0.10749460623E+04  0.10749460623E+04  0.00000000000E+00 0. -1.
         21    1    1    2  503  502 -0.39303312193E+02  0.30819783090E+02 -0.15274095191E+03  0.16069974415E+03  0.00000000000E+00 0. -1.
         21    1    1    2  504  501  0.20846966788E+03 -0.16072085417E+03  0.48402714645E+03  0.55097465812E+03  0.00000000000E+00 0. -1.
         21    1    1    2  505  506 -0.27482527496E+02  0.26134235574E+02 -0.77441882348E+03  0.77534689123E+03  0.00000000000E+00 0. -1.
         21    1    1    2  506  504 -0.14168382819E+03  0.10376683550E+03 -0.39690445235E+02  0.18004775690E+03  0.00000000000E+00 0. -1.
<scales pt_clust_3="69.68951" pt_clust_4="14000.00000" pt_clust_5="37.92476" pt_clust_6="242.76152"></scales>
<clustering>
<clus scale="   37.925">  2  5  1 -1</clus>
<clus scale="   69.690">  2  3  1 -1</clus>
<clus scale="  242.762">  2  6  1 -1</clus>
<clus scale="  242.762">  1  3  2 -1</clus>
</clustering>
</event>
<event>
 6    0  0.4582113E+002  0.1346483E+03  0.7546771E-02  0.1220717E+00
         21   -1    0    0  506  501  0.00000000000E+00  0.00000000000E+00  0.24452572832E+03  0.24452572832E+03  0.00000000000E+00 0.  1.
         21   -1    0    0  505  502 -0.00000000000E+00 -0.00000000000E+00 -0.52241528096E+03  0.52241528096E+03  0.00000000000E+00 0.  1.
         21    1    1    2  503  504  0.11961274570E+01  0.98441364419E+02 -0.37741963052E+03  0.39004834374E+03  0.00000000000E+00 0.  1.
         21    1    1    2  504  502 -0.47845125950E+02  0.30217491727E+02 -0.87714266176E+02  0.10438412415E+03  0.00000000000E+00 0. -1.
         21    1    1    2  505  501  0.25462793051E+02 -0.15814346621E+03  0.16482783278E+03  0.22983890923E+03  0.00000000000E+00 0.  1.
         21    1    1    2  506  503  0.21186205442E+02  0.29484610065E+02  0.22416511277E+02  0.42669632170E+02  0.00000000000E+00 0.  1.
<scales pt_clust_3="134.64834" pt_clust_4="56.52116" pt_clust_5="14000.00000" pt_clust_6="36.30699"></scales>
<clustering>
<clus scale="   36.307">  1  6  2 -1</clus>
<clus scale="   56.521">  2  4  1 -1</clus>
<clus scale="  134.648">  2  3  1 -1</clus>
<clus scale="   36.307">  1  3  2 -1</clus>
</clustering>
</event>
<event>
 6    0  0.4582113E+002  0.2893178E+03  0.7546771E-02  0.1090706E+00
         21   -1    0    0  503  501  0.00000000000E+00  0.00000000000E+00  0.14758673430E+04  0.14758673430E+04  0.00000000000E+00 0. -1.
         21   -1    0    0  505  502 -0.00000000000E+00 -0.00000000000E+00 -0.21978909336E+03  0.21978909336E+03  0.00000000000E+00 0.  1.
         21    1    1    2  503  506 -0.99606972617E+02 -0.16917572388E+01  0.59042470820E+03  0.59877019556E+03  0.00000000000E+00 0. -1.
         21    1    1    2  504  502  0.23877256089E+03 -0.68514440196E+01 -0.10525404052E+03  0.26103197346E+03  0.00000000000E+00 0.  1.
         21    1    1    2  505  501  0.18835119234E+02 -0.90283959049E+02  0.86205730302E+02  0.12624334800E+03  0.00000000000E+00 0. -1.
         21    1    1    2  506  504 -0.15800070751E+03  0.98827160308E+02  0.68470185170E+03  0.70961091939E+03  0.00000000000E+00 0. -1.
<scales pt_clust_3="73.53763" pt_clust_4="271.27179" pt_clust_5="92.22773" pt_clust_6="73.53763"></scales>
<clustering>
<clus scale="   73.538">  3  6 -1 -1</clus>
<clus scale="   92.228">  2  5  1 -1</clus>
<clus scale="  271.272">  2  4  1 -1</clus>
<clus scale="  289.318">  1  3  2 -1</clus>
</clustering>
</event>
<event>
 6    0  0.4582113E+002  0.2625226E+03  0.7546771E-02  0.1105637E+00
         21   -1    0    0  502  501  0.00000000000E+00  0.00000000000E+00  0.47734088214E+03  0.47734088214E+03  0.00000000000E+00 0.  1.
         21   -1    0    0  503  502 -0.00000000000E+00 -0.00000000000E+00 -0.76426284410E+03  0.76426284410E+03  0.00000000000E+00 0.  1.
         21    1    1    2  503  505 -0.40756750708E+02  0.58245150403E+02 -0.57495009058E+03  0.57932824627E+03  0.00000000000E+00 0.  1.
         21    1    1    2  504  506 -0.65416485138E+02 -0.12251284504E+03  0.10129498879E+02  0.13925272161E+03  0.00000000000E+00 0.  1.
         21    1    1    2  505  504 -0.87469111915E+02 -0.10567559032E+03 -0.89338672661E+01  0.13746996004E+03  0.00000000000E+00 0.  1.
         21    1    1    2  506  501  0.19364234776E+03  0.16994328496E+03  0.28683249701E+03  0.38555279832E+03  0.00000000000E+00 0.  1.
<scales pt_clust_3="71.08875" pt_clust_4="33.40923" pt_clust_5="33.40923" pt_clust_6="260.36146"></scales>
<clustering>
<clus scale="   33.409">  4  5 -1 -1</clus>
<clus scale="   71.089">  2  3  1 -1</clus>
<clus scale="  260.361">  1  6  2 -1</clus>
<clus scale="  260.361">  1  3  2 -1</clus>
</clustering>
</event>
<event>
 6    0  0.4582113E+002  0.1157270E+03  0.7546771E-02  0.1250317E+00
         21   -1    0    0  505  501  0.00000000000E+00  0.00000000000E+00  0.13095842120E+03  0.13095842120E+03  0.00000000000E+00 0.  1.
         21   -1    0    0  503  502 -0.00000000000E+00 -0.00000000000E+00 -0.21479165540E+03  0.21479165540E+03  0.00000000000E+00 0.  1.
         21    1    1    2  503  504 -0.21193753449E+02  0.32933244063E+02 -0.61359809594E+02  0.72792856677E+02  0.00000000000E+00 0.  1.
         21    1    1    2  504  501 -0.34442312483E+02  0.30921841722E+01 -0.60330905851E+02  0.69538857432E+02  0.00000000000E+00 0.  1.
         21    1    1    2  505  506  0.11479752068E+03 -0.48155830614E+02  0.61141572443E+02  0.13869299426E+03  0.00000000000E+00 0.  1.
         21    1    1    2  506  502 -0.59161454745E+02  0.12130402380E+02 -0.23284091206E+02  0.64725368231E+02  0.00000000000E+00 0.  1.
<scales pt_clust_3="30.54279" pt_clust_4="30.54279" pt_clust_5="111.06874" pt_clust_6="60.39225"></scales>
<clustering>
<clus scale="   30.543">  3  4 -1 -1</clus>
<clus scale="   60.392">  2  6  1 -1</clus>
<clus scale="  111.069">  1  5  2 -1</clus>
<clus scale="  111.069">  1  3  2 -1</clus>
</clustering>
</event>
<event>
 6    0  0.4582113E+002  0.1907286E+03  0.7546771E-02  0.1157806E+00
         21   -1    0    0  505  501  0.00000000000E+00  0.00000000000E+00  0.42223927149E+03  0.42223927149E+03  0.00000000000E+00 0. -1.
         21   -1    0    0  503  502 -0.00000000000E+00 -0.00000000000E+00 -0.12277712246E+04  0.12277712246E+04  0.00000000000E+00 0. -1.
         21    1    1    2  503  501  0.62508312866E+02 -0.14749553009E+03 -0.42686547880E+03  0.45593459790E+03  0.00000000000E+00 0. -1.
         21    1    1    2  504  502  0.65695336719E+02  0.17508165461E+02 -0.76210448262E+03  0.76513113618E+03  0.00000000000E+00 0. -1.
         21    1    1    2  505  506 -0.68801071501E+02  0.29503075417E+02  0.16775394743E+03  0.18369922640E+03  0.00000000000E+00 0. -1.
         21    1    1    2  506  504 -0.59402578084E+02  0.10048428921E+03  0.21568406083E+03  0.24524553565E+03  0.00000000000E+00 0. -1.
<scales pt_clust_3="180.94578" pt_clust_4="67.98833" pt_clust_5="48.28891" pt_clust_6="48.28891"></scales>
<clustering>
<clus scale="   48.289">  5  6 -1 -1</clus>
<clus scale="   67.988">  2  4  1 -1</clus>
<clus scale="  180.946">  2  3  1 -1</clus>
<clus scale="  190.729">  1  3  2 -1</clus>
</clustering>
</event>
<event>
 6    0  0.4582113E+002  0.8215769E+02  0.7546771E-02  0.1323037E+00
         21   -1    0    0  503  501  0.00000000000E+00  0.00000000000E+00  0.52552836676E+03  0.52552836676E+03  0.00000000000E+00 0.  1.
         21   -1    0    0  504  502 -0.00000000000E+00 -0.00000000000E+00 -0.92116874284E+03  0.92116874284E+03  0.00000000000E+00 0.  1.
         21    1    1    2  503  505  0.44517535266E+02 -0.57028871412E+01  0.31229195145E+03  0.31550054962E+03  0.00000000000E+00 0.  1.
         21    1    1    2  504  506 -0.86531839425E+02 -0.83021669292E+00 -0.51367355757E+02  0.10063326354E+03  0.00000000000E+00 0. -1.
         21    1    1    2  505  502  0.17933500223E+02 -0.56385865853E+02 -0.83641713309E+03  0.83850736242E+03  0.00000000000E+00 0.  1.
         21    1    1    2  506  501  0.24080803936E+02  0.62918969687E+02  0.17985216131E+03  0.19205593402E+03  0.00000000000E+00 0.  1.
<scales pt_clust_3="44.88133" pt_clust_4="14000.00000" pt_clust_5="59.26286" pt_clust_6="82.15769"></scales>
<clustering>
<clus scale="   44.881">  1  3  2 -1</clus>
<clus scale="   59.263">  2  5  1 -1</clus>
<clus scale="   82.158">  1  6  2 -1</clus>
<clus scale="   44.881">  1  3  2 -1</clus>
</clustering>
</event>
<event>
 6    0  0.4582113E+002  0.7778374E+02  0.7546771E-02  0.1335461E+00
         21   -1    0    0  503  501  0.00000000000E+00  0.00000000000E+00  0.32882646650E+03  0.32882646650E+03  0.00000000000E+00 0.  1.
         21   -1    0    0  504  502 -0.00000000000E+00 -0.00000000000E+00 -0.99024432794E+03  0.99024432794E+03  0.00000000000E+00 0.  1.
         21    1    1    2  503  505 -0.12630377016E+02 -0.42001572286E+02  0.14120472193E+03  0.14785950086E+03  0.00000000000E+00 0.  1.
         21    1    1    2  504  501 -0.67150494484E+02  0.41698489953E+02  0.16838141091E+03  0.18601143114E+03  0.00000000000E+00 0.  1.
         21    1    1    2  505  506  0.48002861583E+02  0.62632583320E+02 -0.28778285508E+03  0.29840590961E+03  0.00000000000E+00 0.  1.
         21    1    1    2  506  502  0.31778009917E+02 -0.62329500987E+02 -0.68322113919E+03  0.68679395283E+03  0.00000000000E+00 0.  1.
<scales pt_clust_3="43.85953" pt_clust_4="14000.00000" pt_clust_5="77.78374" pt_clust_6="70.27063"></scales>
<clustering>
<clus scale="   43.860">  1  3  2 -1</clus>
<clus scale="   70.271">  2  6  1 -1</clus>
<clus scale="   77.784">  2  5  1 -1</clus>
<clus scale="   43.860">  1  3  2 -1</clus>
</clustering>
</event>
<event>
 6    0  0.4582113E+002  0.7947405E+02  0.7546771E-02  0.1330551E+00
         21   -1    0    0  506  501  0.00000000000E+00  0.00000000000E+00  0.13598361343E+04  0.13598361343E+04  0.00000000000E+00 0.  1.
         21   -1    0    0  504  502 -0.00000000000E+00 -0.00000000000E+00 -0.10770122965E+03  0.10770122965E+03  0.00000000000E+00 0.  1.
         21    1    1    2  503  502  0.36917087072E+00  0.47251576779E+02 -0.88777760230E+02  0.10057006765E+03  0.00000000000E+00 0.  1.
         21    1    1    2  504  505 -0.89138725165E+02 -0.21264464890E+02  0.22455841906E+03  0.24253736488E+03  0.00000000000E+00 0.  1.
         21    1    1    2  505  501  0.58758677132E+02  0.31795774345E+02  0.45510499563E+03  0.45998272842E+03  0.00000000000E+00 0.  1.
         21    1    1    2  506  503  0.30010877162E+02 -0.57782886234E+02  0.66124925017E+03  0.66444720297E+03  0.00000000000E+00 0.  1.
<scales pt_clust_3="47.25302" pt_clust_4="14000.00000" pt_clust_5="79.47405" pt_clust_6="60.04689"></scales>
<clustering>
<clus scale="   47.253">  2  3  1 -1</clus>
<clus scale="   60.047">  1  6  2 -1</clus>
<clus scale="   79.474">  1  5  2 -1</clus>
<clus scale="   60.047">  1  3  2 -1</clus>
</clustering>
</event>
<event>
 6    0  0.4582113E+002  0.8224132E+02  0.7546771E-02  0.1322809E+00
         21   -1    0    0  503  501  0.00000000000E+00  0.00000000000E+00  0.17346740545E+03  0.17346740545E+03  0.00000000000E+00 0. -1.
         21   -1    0    0  504  502 -0.00000000000E+00 -0.00000000000E+00 -0.20879147895E+03  0.20879147895E+03  0.00000000000E+00 0. -1.
         21    1    1    2  503  502 -0.17106120959E+02  0.79543899556E+02 -0.99743943613E+02  0.12871948422E+03  0.00000000000E+00 0. -1.
         21    1    1    2  504  506 -0.84728907611E+02 -0.46995062898E+02 -0.23502898931E+02  0.99699097187E+02  0.00000000000E+00 0. -1.
         21    1    1    2  505  501  0.40179517960E+02  0.16434680895E+02  0.13423946610E+02  0.45438912203E+02  0.00000000000E+00 0.  1.
         21    1    1    2  506  505  0.61655510610E+02 -0.48983517554E+02  0.74498822438E+02  0.10840139079E+03  0.00000000000E+00 0. -1.
<scales pt_clust_3="82.24132" pt_clust_4="82.20458" pt_clust_5="43.41074" pt_clust_6="14000.00000"></scales>
<clustering>
<clus scale="   43.411">  1  5  2 -1</clus>
<clus scale="   82.241">  2  3  1 -1</clus>
<clus scale="   82.205">  2  4  1 -1</clus>
<clus scale="   43.411">  1  3  2 -1</clus>
</clustering>
</event>
<event>
 6    0  0.4582113E+002  0.8543862E+02  0.7546771E-02  0.1314289E+00
         21   -1    0    0  505  501  0.00000000000E+00  0.00000000000E+00  0.13492863579E+03  0.13492863579E+03  0.00000000000E+00 0. -1.
         21   -1    0    0  506  502 -0.00000000000E+00 -0.00000000000E+00 -0.53595007992E+03  0.53595007992E+03  0.00000000000E+00 0. -1.
         21    1    1    2  503  504 -0.18627647775E+02 -0.85905057521E+02 -0.66439926786E+02  0.11018589765E+03  0.00000000000E+00 0. -1.
         21    1    1    2  504  501 -0.11453368225E+02  0.63994613499E+02  0.80157014044E+02  0.10320676868E+03  0.00000000000E+00 0. -1.
         21    1    1    2  505  502 -0.47351992102E+02  0.26958569325E+02 -0.24738391611E+02  0.59841153361E+02  0.00000000000E+00 0. -1.
         21    1    1    2  506  503  0.77433008102E+02 -0.50481253034E+01 -0.39000013978E+03  0.39764489603E+03  0.00000000000E+00 0. -1.
<scales pt_clust_3="85.43862" pt_clust_4="14000.00000" pt_clust_5="54.48831" pt_clust_6="76.00549"></scales>
<clustering>
<clus scale="   54.488">  1  5  2 -1</clus>
<clus scale="   76.005">  2  6  1 -1</clus>
<clus scale="   85.439">  2  3  1 -1</clus>
<clus scale="   54.488">  1  3  2 -1</clus>
</clustering>
</event>
<event>
 6    0  0.4582113E+002  0.1671910E+03  0.7546771E-02  0.1180809E+00
         21   -1    0    0  506  501  0.00000000000E+00  0.00000000000E+00  0.62054360710E+03  0.62054360710E+03  0.00000000000E+00 0. -1.
         21   -1    0    0  503  502 -0.00000000000E+00 -0.00000000000E+00 -0.45245315254E+03  0.45245315254E+03  0.00000000000E+00 0. -1.
         21    1    1    2  503  505 -0.15039392314E+03  0.13078244213E+02  0.52987496078E+03  0.55095993199E+03  0.00000000000E+00 0. -1.
         21    1    1    2  504  502  0.78252381545E+01 -0.30880571727E+02 -0.20972736997E+03  0.21213300964E+03  0.00000000000E+00 0.  1.
         21    1    1    2  505  501 -0.13459584147E+02  0.29674676732E+02  0.46698052978E+02  0.56942558745E+02  0.00000000000E+00 0. -1.
         21    1    1    2  506  504  0.15602826913E+03 -0.11872349218E+02 -0.19875518923E+03  0.25296125927E+03  0.00000000000E+00 0. -1.
<scales pt_clust_3="14000.00000" pt_clust_4="31.85662" pt_clust_5="31.91969" pt_clust_6="167.19098"></scales>
<clustering>
<clus scale="   31.857">  2  4  1 -1</clus>
<clus scale="   31.920">  1  5  2 -1</clus>
<clus scale="  167.191">  2  6  1 -1</clus>
<clus scale="   31.920">  1  3  2 -1</clus>
</clustering>
</event>
<event>
 6    0  0.4582113E+002  0.1582463E+03  0.7546771E-02  0.1190691E+00
         21   -1    0    0  503  501  0.00000000000E+00  0.00000000000E+00  0.65383049657E+02  0.65383049657E+02  0.00000000000E+00 0.  1.
         21   -1    0    0  504  502 -0.00000000000E+00 -0.00000000000E+00 -0.48537604928E+03  0.48537604928E+03  0.00000000000E+00 0.  1.
         21    1    1    2  503  505  0.26771835848E+02  0.22018365620E+02 -0.30570904553E+02  0.46218176343E+02  0.00000000000E+00 0.  1.
         21    1    1    2  504  501 -0.13824006607E+03  0.65524476197E+02 -0.27306761525E+03  0.31300111077E+03  0.00000000000E+00 0.  1.
         21    1    1    2  505  506  0.14501818171E+02 -0.40700673431E+02 -0.44836643090E+02  0.62266942366E+02  0.00000000000E+00 0.  1.
         21    1    1    2  506  502  0.96966412055E+02 -0.46842168387E+02 -0.71517836731E+02  0.12927286945E+03  0.00000000000E+00 0.  1.
<scales pt_clust_3="34.66323" pt_clust_4="148.26216" pt_clust_5="33.16776" pt_clust_6="33.16776"></scales>
<clustering>
<clus scale="   34.663">  1  3  2 -1</clus>
<clus scale="   33.168">  5  6 -1 -1</clus>
<clus scale="  148.262">  2  4  1 -1</clus>
<clus scale="   34.663">  1  3  2 -1</clus>
</clustering>
</event>
<event>
 6    0  0.4582113E+002  0.1245619E+03  0.7546771E-02  0.1235756E+00
         21   -1    0    0  504  501  0.00000000000E+00  0.00000000000E+00  0.87628170642E+02  0.87628170642E+02  0.00000000000E+00 0. -1.
         21   -1    0    0  506  502 -0.00000000000E+00 -0.00000000000E+00 -0.46398952273E+03  0.46398952273E+03  0.00000000000E+00 0. -1.
         21    1    1    2  503  502  0.12422946263E+02 -0.37747511858E+02 -0.10063794259E+03  0.10819981393E+03  0.00000000000E+00 0. -1.
         21    1    1    2  504  503  0.59037629942E+02  0.13186048398E+03 -0.23900779151E+03  0.27928006264E+03  0.00000000000E+00 0. -1.
         21    1    1    2  505  501  0.26733127313E+02 -0.18802733735E+02  0.59903156282E+01  0.33227801208E+02  0.00000000000E+00 0. -1.
         21    1    1    2  506  505 -0.98193703517E+02 -0.75310238389E+02 -0.42705933611E+02  0.13091001559E+03  0.00000000000E+00 0. -1.
<scales pt_clust_3="41.21082" pt_clust_4="14000.00000" pt_clust_5="32.68337" pt_clust_6="124.56185"></scales>
<clustering>
<clus scale="   32.683">  1  5  2 -1</clus>
<clus scale="   41.211">  2  3  1 -1</clus>
<clus scale="  124.562">  1  6  2 -1</clus>
<clus scale="   32.683">  1  3  2 -1</clus>
</clustering>
</event>
<event>
 6    0  0.4582113E+002  0.1563082E+03  0.7546771E-02  0.1192929E+00
         21   -1    0    0  506  501  0.00000000000E+00  0.00000000000E+00  0.19503430815E+04  0.19503430815E+04  0.00000000000E+00 0.  1.
         21   -1    0    0  504  502 -0.00000000000E+00 -0.00000000000E+00 -0.29844074091E+02  0.29844074091E+02  0.00000000000E+00 0.  1.
         21    1    1    2  503  505  0.43181288868E+02  0.84012832531E+01  0.14735899683E+03  0.15378517229E+03  0.00000000000E+00 0.  1.
         21    1    1    2  504  503 -0.14145583334E+03 -0.69204960632E+02  0.23915362110E+03  0.28634513065E+03  0.00000000000E+00 0.  1.
         21    1    1    2  505  501  0.72757893295E+02  0.31833939884E+02  0.59493575960E+03  0.60021301953E+03  0.00000000000E+00 0.  1.
         21    1    1    2  506  502  0.25516651179E+02  0.28969737495E+02  0.93905062991E+03  0.93984383315E+03  0.00000000000E+00 0.  1.
<scales pt_clust_3="36.84647" pt_clust_4="148.26072" pt_clust_5="36.84647" pt_clust_6="38.60499"></scales>
<clustering>
<clus scale="   36.846">  3  5 -1 -1</clus>
<clus scale="   38.605">  1  6  2 -1</clus>
<clus scale="  148.261">  2  4  1 -1</clus>
<clus scale="   38.605">  1  3  2 -1</clus>
</clustering>
</event>
<event>
 6    0  0.4582113E+002  0.7652409E+02  0.7546771E-02  0.1339215E+00
         21   -1    0    0  505  501  0.00000000000E+00  0.00000000000E+00  0.24274520463E+04  0.24274520463E+04  0.00000000000E+00 0.  1.
         21   -1    0    0  506  502 -0.00000000000E+00 -0.00000000000E+00 -0.13855076397E+03  0.13855076397E+03  0.00000000000E+00 0.  1.
         21    1    1    2  503  502 -0.38322877142E+00 -0.12240213831E+03  0.40569277852E+03  0.42375589774E+03  0.00000000000E+00 0. -1.
         21    1    1    2  504  503 -0.23455749910E+02  0.43740132993E+02  0.24309210957E+03  0.24810712439E+03  0.00000000000E+00 0.  1.
         21    1    1    2  505  504  0.32981883991E+00  0.42272466383E+02  0.17631730517E+04  0.17636797556E+04  0.00000000000E+00 0.  1.
         21    1    1    2  506  501  0.23509159841E+02  0.36389538932E+02 -0.12305665745E+03  0.13046003251E+03  0.00000000000E+00 0.  1.
<scales pt_clust_3="14000.00000" pt_clust_4="76.52409" pt_clust_5="42.27375" pt_clust_6="43.52208"></scales>
<clustering>
<clus scale="   42.274">  1  5  2 -1</clus>
<clus scale="   43.522">  2  6  1 -1</clus>
<clus scale="   76.524">  1  4  2 -1</clus>
<clus scale="   42.274">  1  3  2 -1</clus>
</clustering>
</event>
<event>
 6    0  0.4582113E+002  0.9286119E+02  0.7546771E-02  0.1296067E+00
         21   -1    0    0  504  501  0.00000000000E+00  0.00000000000E+00  0.99479267126E+03  0.99479267126E+03  0.00000000000E+00 0. -1.
         21   -1    0    0  505  502 -0.00000000000E+00 -0.00000000000E+00 -0.45413010505E+02  0.45413010505E+02  0.00000000000E+00 0. -1.
         21    1    1    2  503  501  0.34775578255E+02 -0.95899618544E+02  0.60769399905E+03  0.61619645744E+03  0.00000000000E+00 0. -1.
         21    1    1    2  504  506 -0.37019226730E+02  0.15931258470E+02  0.16020787154E+03  0.16519924409E+03  0.00000000000E+00 0. -1.
         21    1    1    2  505  503  0.82321667523E+01  0.13063079608E+03  0.14903734558E+03  0.19835398617E+03  0.00000000000E+00 0. -1.
         21    1    1    2  506  502 -0.59885182778E+01 -0.50662436004E+02  0.32440444585E+02  0.60455994061E+02  0.00000000000E+00 0. -1.
<scales pt_clust_3="14000.00000" pt_clust_4="40.30171" pt_clust_5="92.86119" pt_clust_6="50.42071"></scales>
<clustering>
<clus scale="   40.302">  1  4  2 -1</clus>
<clus scale="   50.421">  2  6  1 -1</clus>
<clus scale="   92.861">  2  5  1 -1</clus>
<clus scale="   40.302">  1  3  2 -1</clus>
</clustering>
</event>
<event>
 6    0  0.4582113E+002  0.8464055E+02  0.7546771E-02  0.1316375E+00
         21   -1    0    0  503  501  0.00000000000E+00  0.00000000000E+00  0.18634145137E+03  0.18634145137E+03  0.00000000000E+00 0.  1.
         21   -1    0    0  505  502 -0.00000000000E+00 -0.00000000000E+00 -0.69478476086E+03  0.69478476086E+03  0.00000000000E+00 0.  1.
         21    1    1    2  503  504 -0.28256057768E+02 -0.54998745836E+02  0.21090685246E+02  0.65330573610E+02  0.00000000000E+00 0.  1.
         21    1    1    2  504  502  0.42641493449E+01 -0.79311159979E+02 -0.46009586876E+03  0.46690111535E+03  0.00000000000E+00 0.  1.
         21    1    1    2  505  506  0.75558739738E+02  0.12405001272E+03 -0.17712060192E+03  0.22906164329E+03  0.00000000000E+00 0.  1.
         21    1    1    2  506  501 -0.51566831315E+02  0.10259893100E+02  0.10768247594E+03  0.11983287997E+03  0.00000000000E+00 0.  1.
<scales pt_clust_3="76.58974" pt_clust_4="14000.00000" pt_clust_5="84.64055" pt_clust_6="52.57760"></scales>
<clustering>
<clus scale="   52.578">  1  6  2 -1</clus>
<clus scale="   76.590">  1  3  2 -1</clus>
<clus scale="   84.641">  1  5  2 -1</clus>
<clus scale="   52.578">  1  3  2 -1</clus>
</clustering>
</event>
<event>
 6    0  0.4582113E+002  0.1263595E+03  0.7546771E-02  0.1232960E+00
         21   -1    0    0  503  501  0.00000000000E+00  0.00000000000E+00  0.51928370600E+02  0.51928370600E+02  0.00000000000E+00 0.  1.
         21   -1    0    0  504  502 -0.00000000000E+00 -0.00000000000E+00 -0.21029325308E+04  0.21029325308E+04  0.00000000000E+00 0. -1.
         21    1    1    2  503  502 -0.28356304331E+01  0.35272856986E+02 -0.35130527226E+02  0.49863505523E+02  0.00000000000E+00 0. -1.
         21    1    1    2  504  506  0.58174784661E+02 -0.50051637809E+01 -0.16277892225E+04  0.16288361214E+04  0.00000000000E+00 0. -1.
         21    1    1    2  505  501 -0.11379105445E+03  0.58381238676E+02 -0.81365780736E+02  0.15158220007E+03  0.00000000000E+00 0.  1.
         21    1    1    2  506  505  0.58451900226E+02 -0.88648931881E+02 -0.30671862969E+03  0.32457907444E+03  0.00000000000E+00 0. -1.
<scales pt_clust_3="35.38665" pt_clust_4="58.32244" pt_clust_5="126.35946" pt_clust_6="14000.00000"></scales>
<clustering>
<clus scale="   35.387">  1  3  2 -1</clus>
<clus scale="   58.322">  2  4  1 -1</clus>
<clus scale="  126.359">  1  5  2 -1</clus>
<clus scale="   35.387">  1  3  2 -1</clus>
</clustering>
</event>
<event>
 6    0  0.4582113E+002  0.1267795E+03  0.7546771E-02  0.1232314E+00
         21   -1    0    0  506  501  0.00000000000E+00  0.00000000000E+00  0.42544168549E+02  0.42544168549E+02  0.00000000000E+00 0. -1.
         21   -1    0    0  505  502 -0.00000000000E+00 -0.00000000000E+00 -0.79336510422E+03  0.79336510422E+03  0.00000000000E+00 0. -1.
         21    1    1    2  503  502 -0.51469732958E+02 -0.46378969070E+02 -0.81911293195E+02  0.10728281379E+03  0.00000000000E+00 0. -1.
         21    1    1    2  504  501  0.88429049724E+02  0.28163004089E+02 -0.53240799994E+03  0.54043605546E+03  0.00000000000E+00 0. -1.
         21    1    1    2  505  504  0.10670313837E+02  0.46836087787E+02 -0.12147432169E+03  0.13062727719E+03  0.00000000000E+00 0.  1.
         21    1    1    2  506  503 -0.47629630604E+02 -0.28620122806E+02 -0.15027320845E+02  0.57563126328E+02  0.00000000000E+00 0. -1.
<scales pt_clust_3="43.24308" pt_clust_4="117.22415" pt_clust_5="48.03618" pt_clust_6="43.24308"></scales>
<clustering>
<clus scale="   43.243">  3  6 -1 -1</clus>
<clus scale="   48.036">  2  5  1 -1</clus>
<clus scale="  117.224">  2  4  1 -1</clus>
<clus scale="  126.780">  1  3  2 -1</clus>
</clustering>
</event>
<event>
 6    0  0.4582113E+002  0.1321504E+03  0.7546771E-02  0.1224299E+00
         21   -1    0    0  503  501  0.00000000000E+00  0.00000000000E+00  0.62440711942E+03  0.62440711942E+03  0.00000000000E+00 0.  1.
         21   -1    0    0  506  502 -0.00000000000E+00 -0.00000000000E+00 -0.72930381271E+02  0.72930381271E+02  0.00000000000E+00 0.  1.
         21    1    1    2  503  504  0.51521648580E+01  0.31978410700E+02  0.56858573417E+02  0.65437458115E+02  0.00000000000E+00 0. -1.
         21    1    1    2  504  502 -0.10916027053E+03 -0.96803955285E+02  0.41665772270E+02  0.15173334175E+03  0.00000000000E+00 0.  1.
         21    1    1    2  505  501  0.12973657348E+00  0.38042248903E+02  0.22549218922E+03  0.22867871989E+03  0.00000000000E+00 0.  1.
         21    1    1    2  506  505  0.10387836909E+03  0.26783295682E+02  0.22746020324E+03  0.25148798093E+03  0.00000000000E+00 0.  1.
<scales pt_clust_3="32.39079" pt_clust_4="132.15044" pt_clust_5="50.98256" pt_clust_6="14000.00000"></scales>
<clustering>
<clus scale="   32.391">  1  3  2 -1</clus>
<clus scale="   50.983">  1  5  2 -1</clus>
<clus scale="  132.150">  2  4  1 -1</clus>
<clus scale="   32.391">  1  3  2 -1</clus>
</clustering>
</event>
<event>
 6    0  0.4582113E+002  0.9001864E+02  0.7546771E-02  0.1302807E+00
         21   -1    0    0  504  501  0.00000000000E+00  0.00000000000E+00  0.14252829958E+03  0.14252829958E+03  0.00000000000E+00 0.  1.
         21   -1    0    0  505  502 -0.00000000000E+00 -0.00000000000E+00 -0.17012060929E+03  0.17012060929E+03  0.00000000000E+00 0.  1.
         21    1    1    2  503  502 -0.30028810551E+02 -0.10401042304E+02 -0.17097876249E+02  0.36086680595E+02  0.00000000000E+00 0. -1.
         21    1    1    2  504  503 -0.66645170727E+02 -0.27389220991E+02  0.53005206527E+02  0.89449986734E+02  0.00000000000E+00 0.  1.
         21    1    1    2  505  506  0.82766615895E+02  0.84405606384E+02 -0.70991877130E+02  0.13789295020E+03  0.00000000000E+00 0.  1.
         21    1    1    2  506  501  0.13907365384E+02 -0.46615343089E+02  0.74922371368E+01  0.49219291345E+02  0.00000000000E+00 0.  1.
<scales pt_clust_3="31.77910" pt_clust_4="90.01864" pt_clust_5="14000.00000" pt_clust_6="49.06413"></scales>
<clustering>
<clus scale="   31.779">  2  3  1 -1</clus>
<clus scale="   49.064">  1  6  2 -1</clus>
<clus scale="   90.019">  1  4  2 -1</clus>
<clus scale="   49.064">  1  3  2 -1</clus>
</clustering>
</event>
<event>
 6    0  0.4582113E+002  0.8895900E+02  0.7546771E-02  0.1305392E+00
         21   -1    0    0  503  501  0.00000000000E+00  0.00000000000E+00  0.11746132938E+03  0.11746132938E+03  0.00000000000E+00 0.  1.
         21   -1    0    0  504  502 -0.00000000000E+00 -0.00000000000E+00 -0.26262073096E+03  0.26262073096E+03  0.00000000000E+00 0.  1.
         21    1    1    2  503  506  0.87058499329E+01  0.33103329029E+02  0.21687286204E+01  0.34297603411E+02  0.00000000000E+00 0.  1.
         21    1    1    2  504  505 -0.36457992551E+02 -0.30464772481E+02 -0.75645797104E+02  0.89328462444E+02  0.00000000000E+00 0.  1.
         21    1    1    2  505  501 -0.61676229577E+02  0.44049405482E+02  0.55632526280E+02  0.94017473900E+02  0.00000000000E+00 0.  1.
         21    1    1    2  506  502  0.89428372195E+02 -0.46687962030E+02 -0.12731485937E+03  0.16243852058E+03  0.00000000000E+00 0.  1.
<scales pt_clust_3="34.22897" pt_clust_4="45.60734" pt_clust_5="14000.00000" pt_clust_6="88.95900"></scales>
<clustering>
<clus scale="   34.229">  1  3  2 -1</clus>
<clus scale="   45.607">  2  4  1 -1</clus>
<clus scale="   88.959">  2  6  1 -1</clus>
<clus scale="   34.229">  1  3  2 -1</clus>
</clustering>
</event>
<event>
 6    0  0.4582113E+002  0.1002626E+03  0.7546771E-02  0.1279745E+00
         21   -1    0    0  506  501  0.00000000000E+00  0.00000000000E+00  0.26623189654E+03  0.26623189654E+03  0.00000000000E+00 0.  1.
         21   -1    0    0  504  502 -0.00000000000E+00 -0.00000000000E+00 -0.15308297128E+04  0.15308297128E+04  0.00000000000E+00 0.  1.
         21    1    1    2  503  502 -0.91387390112E+02  0.37258469223E+02 -0.11173398174E+04  0.11216898485E+04  0.00000000000E+00 0.  1.
         21    1    1    2  504  505  0.68307086555E+02 -0.10423566163E+03 -0.39362501396E+03  0.41288204471E+03  0.00000000000E+00 0.  1.
         21    1    1    2  505  501  0.22338378975E+02  0.26108999616E+02  0.42934470874E+02  0.54991379555E+02  0.00000000000E+00 0. -1.
         21    1    1    2  506  503  0.74192458215E+00  0.40868192794E+02  0.20343254424E+03  0.20749833660E+03  0.00000000000E+00 0.  1.
<scales pt_clust_3="100.26261" pt_clust_4="14000.00000" pt_clust_5="34.36107" pt_clust_6="69.10938"></scales>
<clustering>
<clus scale="   34.361">  1  5  2 -1</clus>
<clus scale="   69.109">  1  6  2 -1</clus>
<clus scale="  100.263">  2  3  1 -1</clus>
<clus scale="   34.361">  1  3  2 -1</clus>
</clustering>
</event>
<event>
 6    0  0.4582113E+002  0.5634098E+02  0.7546771E-02  0.1413862E+00
         21   -1    0    0  506  501  0.00000000000E+00  0.00000000000E+00  0.51635271416E+03  0.51635271416E+03  0.00000000000E+00 0. -1.
         21   -1    0    0  505  502 -0.00000000000E+00 -0.00000000000E+00 -0.85652963699E+03  0.85652963699E+03  0.00000000000E+00 0. -1.
         21    1    1    2  503  504 -0.24378005300E+02 -0.80801190550E+02 -0.43282383162E+03  0.44097572355E+03  0.00000000000E+00 0. -1.
         21    1    1    2  504  502 -0.17805068009E+02  0.45296786471E+02 -0.39158632681E+03  0.39459937995E+03  0.00000000000E+00 0. -1.
         21    1    1    2  505  501  0.39166258105E+02  0.81383002493E+02  0.48293855485E+03  0.49131134388E+03  0.00000000000E+00 0. -1.
         21    1    1    2  506  503  0.30168152038E+01 -0.45878598414E+02  0.12946807559E+01  0.45995903781E+02  0.00000000000E+00 0.  1.
<scales pt_clust_3="56.34098" pt_clust_4="48.53661" pt_clust_5="14000.00000" pt_clust_6="45.97768"></scales>
<clustering>
<clus scale="   45.978">  1  6  2 -1</clus>
<clus scale="   48.537">  2  4  1 -1</clus>
<clus scale="   56.341">  2  3  1 -1</clus>
<clus scale="   45.978">  1  3  2 -1</clus>
</clustering>
</event>
<event>
 6    0  0.4582113E+002  0.1167494E+03  0.7546771E-02  0.1248558E+00
         21   -1    0    0  506  501  0.00000000000E+00  0.00000000000E+00  0.37850597991E+03  0.37850597991E+03  0.00000000000E+00 0.  1.
         21   -1    0    0  505  502 -0.00000000000E+00 -0.00000000000E+00 -0.34020536225E+03  0.34020536225E+03  0.00000000000E+00 0. -1.
         21    1    1    2  503  502  0.23120798607E+02  0.22069880028E+02 -0.15915138357E+02  0.35706337835E+02  0.00000000000E+00 0. -1.
         21    1    1    2  504  501  0.11361482844E+03 -0.30266281871E+02  0.33222928631E+03  0.35242116245E+03  0.00000000000E+00 0.  1.
         21    1    1    2  505  504 -0.92415766471E+02  0.18760919191E+02 -0.26776326172E+03  0.28388344494E+03  0.00000000000E+00 0. -1.
         21    1    1    2  506  503 -0.44319860573E+02 -0.10564517349E+02 -0.10250268575E+02  0.46700396935E+02  0.00000000000E+00 0. -1.
<scales pt_clust_3="31.96327" pt_clust_4="14000.00000" pt_clust_5="116.74938" pt_clust_6="43.08578"></scales>
<clustering>
<clus scale="   31.963">  2  3  1 -1</clus>
<clus scale="   43.086">  2  6  1 -1</clus>
<clus scale="  116.749">  2  5  1 -1</clus>
<clus scale="  116.749">  1  3  2 -1</clus>
</clustering>
</event>
<event>
 6    0  0.4582113E+002  0.2317841E+03  0.7546771E-02  0.1125390E+00
         21   -1    0    0  506  501  0.00000000000E+00  0.00000000000E+00  0.10113983570E+04  0.10113983570E+04  0.00000000000E+00 0.  1.
         21   -1    0    0  503  502 -0.00000000000E+00 -0.00000000000E+00 -0.95625937644E+02  0.95625937644E+02  0.00000000000E+00 0.  1.
         21    1    1    2  503  505 -0.53246267806E+02 -0.24853326894E+01 -0.69672430326E+01  0.53757644938E+02  0.00000000000E+00 0.  1.
         21    1    1    2  504  501 -0.12972163665E+03  0.18948436666E+02  0.44166678430E+03  0.46071281144E+03  0.00000000000E+00 0.  1.
         21    1    1    2  505  504 -0.76439930855E+02  0.21694294258E+02  0.15461661093E+03  0.17383901118E+03  0.00000000000E+00 0.  1.
         21    1    1    2  506  502  0.25940783531E+03 -0.38157398235E+02  0.32645626718E+03  0.41871482711E+03  0.00000000000E+00 0.  1.
<scales pt_clust_3="53.30424" pt_clust_4="42.26829" pt_clust_5="42.26829" pt_clust_6="225.33572"></scales>
<clustering>
<clus scale="   42.268">  4  5 -1 -1</clus>
<clus scale="   53.304">  2  3  1 -1</clus>
<clus scale="  225.336">  2  6  1 -1</clus>
<clus scale="  231.784">  1  3  2 -1</clus>
</clustering>
</event>
<event>
 6    0  0.4582113E+002  0.1043441E+03  0.7546771E-02  0.1271417E+00
         21   -1    0    0  505  501  0.00000000000E+00  0.00000000000E+00  0.89567882972E+03  0.89567882972E+03  0.00000000000E+00 0. -1.
         21   -1    0    0  504  502 -0.00000000000E+00 -0.00000000000E+00 -0.32952518571E+03  0.32952518571E+03  0.00000000000E+00 0.  1.
         21    1    1    2  503  502  0.18486472158E+02 -0.11671749569E+03 -0.26173929396E+03  0.28717970238E+03  0.00000000000E+00 0.  1.
         21    1    1    2  504  506 -0.53626516623E+02  0.16260960078E+02 -0.34412497765E+02  0.65760490496E+02  0.00000000000E+00 0.  1.
         21    1    1    2  505  503  0.13521288503E+02  0.50539828794E+02  0.17106673955E+03  0.17888803458E+03  0.00000000000E+00 0. -1.
         21    1    1    2  506  501  0.21618755962E+02  0.49916706816E+02  0.69123869620E+03  0.69337578797E+03  0.00000000000E+00 0. -1.
<scales pt_clust_3="14000.00000" pt_clust_4="56.08675" pt_clust_5="52.31730" pt_clust_6="104.34406"></scales>
<clustering>
<clus scale="   52.317">  1  5  2 -1</clus>
<clus scale="   56.087">  2  4  1 -1</clus>
<clus scale="  104.344">  1  6  2 -1</clus>
<clus scale="   52.317">  1  3  2 -1</clus>
</clustering>
</event>
<event>
 6    0  0.4582113E+002  0.8762570E+02  0.7546771E-02  0.1308705E+00
         21   -1    0    0  503  501  0.00000000000E+00  0.00000000000E+00  0.32595056273E+03  0.32595056273E+03  0.00000000000E+00 0.  1.
         21   -1    0    0  506  502 -0.00000000000E+00 -0.00000000000E+00 -0.14847874274E+04  0.14847874274E+04  0.00000000000E+00 0.  1.
         21    1    1    2  503  502  0.16411344789E+02  0.32278636141E+02 -0.31224039470E+02  0.47814048456E+02  0.00000000000E+00 0. -1.
         21    1    1    2  504  501 -0.85479438345E+02  0.17955482138E+02  0.29691293800E+03  0.30949382299E+03  0.00000000000E+00 0.  1.
         21    1    1    2  505  504  0.81307646706E+02 -0.10333022788E+03 -0.29956118337E+03  0.32714671325E+03  0.00000000000E+00 0. -1.
         21    1    1    2  506  505 -0.12239553150E+02  0.53096109598E+02 -0.11249645798E+04  0.11262834054E+04  0.00000000000E+00 0.  1.
<scales pt_clust_3="36.21108" pt_clust_4="14000.00000" pt_clust_5="87.62570" pt_clust_6="78.23768"></scales>
<clustering>
<clus scale="   36.211">  2  3  1 -1</clus>
<clus scale="   78.238">  2  6  1 -1</clus>
<clus scale="   87.626">  2  5  1 -1</clus>
<clus scale="   87.626">  1  3  2 -1</clus>
</clustering>
</event>
<event>
 6    0  0.4582113E+002  0.1183631E+03  0.7546771E-02  0.1245822E+00
         21   -1    0    0  504  501  0.00000000000E+00  0.00000000000E+00  0.12251659237E+03  0.12251659237E+03  0.00000000000E+00 0.  1.
         21   -1    0    0  503  502 -0.00000000000E+00 -0.00000000000E+00 -0.30259140266E+03  0.30259140266E+03  0.00000000000E+00 0.  1.
         21    1    1    2  503  506  0.12698589960E+03 -0.39942998942E+02 -0.17041554930E+03  0.21624597408E+03  0.00000000000E+00 0.  1.
         21    1    1    2  504  502 -0.21546243922E+02  0.52609395842E+02 -0.59991931546E+02  0.82649990978E+02  0.00000000000E+00 0.  1.
         21    1    1    2  505  501 -0.52342137732E+02 -0.10646006057E+02  0.49867627890E+02  0.73074052431E+02  0.00000000000E+00 0.  1.
         21    1    1    2  506  505 -0.53097517951E+02 -0.20203908422E+01  0.46504266913E+00  0.53137977534E+02  0.00000000000E+00 0.  1.
<scales pt_clust_3="109.04900" pt_clust_4="56.85059" pt_clust_5="45.90338" pt_clust_6="45.90338"></scales>
<clustering>
<clus scale="   45.903">  5  6 -1 -1</clus>
<clus scale="   56.851">  2  4  1 -1</clus>
<clus scale="  109.049">  2  3  1 -1</clus>
<clus scale="  118.363">  1  3  2 -1</clus>
</clustering>
</event>
<event>
 6    0  0.4582113E+002  0.1488689E+03  0.7546771E-02  0.1201870E+00
         21   -1    0    0  505  501  0.00000000000E+00  0.00000000000E+00  0.22517792016E+03  0.22517792016E+03  0.00000000000E+00 0.  1.
         21   -1    0    0  506  502 -0.00000000000E+00 -0.00000000000E+00 -0.32948528958E+03  0.32948528958E+03  0.00000000000E+00 0.  1.
         21    1    1    2  503  501  0.26737777639E+02 -0.42194291518E+02  0.12244218894E+03  0.13223976945E+03  0.00000000000E+00 0.  1.
         21    1    1    2  504  503  0.31624323065E+02 -0.52417034585E+02  0.39767344996E+02  0.73000582546E+02  0.00000000000E+00 0.  1.
         21    1    1    2  505  502 -0.98800154155E+02  0.11501150191E+03 -0.26352653776E+03  0.30403182751E+03  0.00000000000E+00 0.  1.
         21    1    1    2  506  504  0.40438053451E+02 -0.20400175809E+02 -0.29903655914E+01  0.45391030241E+02  0.00000000000E+00 0. -1.
<scales pt_clust_3="49.95265" pt_clust_4="40.05645" pt_clust_5="141.39747" pt_clust_6="40.05645"></scales>
<clustering>
<clus scale="   40.056">  4  6 -1 -1</clus>
<clus scale="   49.953">  1  3  2 -1</clus>
<clus scale="  141.397">  2  5  1 -1</clus>
<clus scale="   49.953">  1  3  2 -1</clus>
</clustering>
</event>
<event>
 6    0  0.4582113E+002  0.1787995E+03  0.7546771E-02  0.1168970E+00
         21   -1    0    0  502  501  0.00000000000E+00  0.00000000000E+00  0.73382783022E+03  0.73382783022E+03  0.00000000000E+00 0.  1.
         21   -1    0    0  503  502 -0.00000000000E+00 -0.00000000000E+00 -0.16668084982E+03  0.16668084982E+03  0.00000000000E+00 0. -1.
         21    1    1    2  503  505  0.28382456329E+02 -0.45819797023E+02  0.12254185081E+02  0.55273706936E+02  0.00000000000E+00 0.  1.
         21    1    1    2  504  506 -0.25050112489E+02  0.53304516761E+02  0.30478771045E+03  0.31042620393E+03  0.00000000000E+00 0.  1.
         21    1    1    2  505  504  0.62397573199E+01 -0.12549713468E+03 -0.10294244743E+03  0.16243648872E+03  0.00000000000E+00 0. -1.
         21    1    1    2  506  501 -0.95721011598E+01  0.11801241494E+03  0.35304753229E+03  0.37237228046E+03  0.00000000000E+00 0.  1.
<scales pt_clust_3="53.89822" pt_clust_4="38.10150" pt_clust_5="170.44316" pt_clust_6="38.10150"></scales>
<clustering>
<clus scale="   38.101">  4  6 -1 -1</clus>
<clus scale="   53.898">  2  3  1 -1</clus>
<clus scale="  170.443">  2  5  1 -1</clus>
<clus scale="  178.799">  1  3  2 -1</clus>
</clustering>
</event>
<event>
 6    0  0.4582113E+002  0.1905894E+03  0.7546771E-02  0.1157931E+00
         21   -1    0    0  506  501  0.00000000000E+00  0.00000000000E+00  0.10002506137E+04  0.10002506137E+04  0.00000000000E+00 0.  1.
         21   -1    0    0  504  502 -0.00000000000E+00 -0.00000000000E+00 -0.66916934134E+03  0.66916934134E+03  0.00000000000E+00 0. -1.
         21    1    1    2  503  501 -0.61064516556E+02  0.47079309409E+02  0.33134163469E+03  0.34019496680E+03  0.00000000000E+00 0.  1.
         21    1    1    2  504  505 -0.28976361437E+02 -0.74702274675E+02 -0.44029445467E+03  0.44752571566E+03  0.00000000000E+00 0. -1.
         21    1    1    2  505  503 -0.51786923848E+02  0.10138201459E+03  0.62611459485E+03  0.63638014130E+03  0.00000000000E+00 0.  1.
         21    1    1    2  506  502  0.14182780184E+03 -0.73759049325E+02 -0.18608050254E+03  0.24531913125E+03  0.00000000000E+00 0. -1.
<scales pt_clust_3="38.60397" pt_clust_4="80.12527" pt_clust_5="38.60397" pt_clust_6="184.72688"></scales>
<clustering>
<clus scale="   38.604">  3  5 -1 -1</clus>
<clus scale="   80.125">  2  4  1 -1</clus>
<clus scale="  184.727">  2  6  1 -1</clus>
<clus scale="  190.589">  1  3  2 -1</clus>
</clustering>
</event>
<event>
 6    0  0.4582113E+002  0.1885791E+03  0.7546771E-02  0.1159749E+00
         21   -1    0    0  503  501  0.00000000000E+00  0.00000000000E+00  0.61207902027E+02  0.61207902027E+02  0.00000000000E+00 0.  1.
         21   -1    0    0  505  502 -0.00000000000E+00 -0.00000000000E+00 -0.16768079307E+04  0.16768079307E+04  0.00000000000E+00 0.  1.
         21    1    1    2  503  502  0.19832943425E+03 -0.14300510422E+03 -0.87433979268E+03  0.90788495824E+03  0.00000000000E+00 0.  1.
         21    1    1    2  504  501 -0.41040388145E+02  0.11846227888E+03 -0.10971421986E+03  0.16659782416E+03  0.00000000000E+00 0. -1.
         21    1    1    2  505  506  0.46025704667E+01  0.36530204054E+02 -0.17911638404E+03  0.18286147351E+03  0.00000000000E+00 0. -1.
         21    1    1    2  506  504 -0.16189161657E+03 -0.11987378716E+02 -0.45242963206E+03  0.48067157679E+03  0.00000000000E+00 0.  1.
<scales pt_clust_3="188.57914" pt_clust_4="128.42771" pt_clust_5="36.81901" pt_clust_6="14000.00000"></scales>
<clustering>
<clus scale="   36.819">  2  5  1 -1</clus>
<clus scale="  128.428">  1  4  2 -1</clus>
<clus scale="  188.579">  1  3  2 -1</clus>
<clus scale="  128.428">  1  3  2 -1</clus>
</clustering>
</event>
<event>
 6    0  0.4582113E+002  0.1493251E+03  0.7546771E-02  0.1201305E+00
         21   -1    0    0  506  501  0.00000000000E+00  0.00000000000E+00  0.13648051679E+03  0.13648051679E+03  0.00000000000E+00 0.  1.
         21   -1    0    0  505  502 -0.00000000000E+00 -0.00000000000E+00 -0.39889804321E+03  0.39889804321E+03  0.00000000000E+00 0.  1.
         21    1    1    2  503  504 -0.33986945192E+02  0.47129589685E+02 -0.11753577250E+02  0.59282857941E+02  0.00000000000E+00 0.  1.
         21    1    1    2  504  502  0.15503956695E+03 -0.66207908424E+02 -0.54203524685E+01  0.16867167717E+03  0.00000000000E+00 0.  1.
         21    1    1    2  505  501 -0.54404404974E+02 -0.62166608521E+01 -0.22745179197E+03  0.23395043026E+03  0.00000000000E+00 0.  1.
         21    1    1    2  506  503 -0.66648216782E+02  0.25294979590E+02 -0.17791804734E+02  0.73473594634E+02  0.00000000000E+00 0.  1.
<scales pt_clust_3="33.52152" pt_clust_4="144.63539" pt_clust_5="54.75843" pt_clust_6="33.52152"></scales>
<clustering>
<clus scale="   33.522">  3  6 -1 -1</clus>
<clus scale="   54.758">  2  5  1 -1</clus>
<clus scale="  144.635">  2  4  1 -1</clus>
<clus scale="  149.325">  1  3  2 -1</clus>
</clustering>
</event>
<event>
 6    0  0.4582113E+002  0.9878658E+02  0.7546771E-02  0.1282868E+00
         21   -1    0    0  505  501  0.00000000000E+00  0.00000000000E+00  0.40089300479E+03  0.40089300479E+03  0.00000000000E+00 0.  1.
         21   -1    0    0  503  502 -0.00000000000E+00 -0.00000000000E+00 -0.83415768818E+03  0.83415768818E+03  0.00000000000E+00 0.  1.
         21    1    1    2  503  506 -0.14283469760E+03 -0.80237383057E+02 -0.29548458143E+03  0.33786228902E+03  0.00000000000E+00 0.  1.
         21    1    1    2  504  502  0.87310882242E+02  0.13154535062E+02 -0.49646786380E+03  0.50425843745E+03  0.00000000000E+00 0.  1.
         21    1    1    2  505  504 -0.27570681408E+01  0.32913407838E+02  0.56774534292E+01  0.33513091736E+02  0.00000000000E+00 0. -1.
         21    1    1    2  506  501  0.58280883499E+02  0.34169440157E+02  0.35301030841E+03  0.35941687477E+03  0.00000000000E+00 0.  1.
<scales pt_clust_3="98.78658" pt_clust_4="14000.00000" pt_clust_5="33.02868" pt_clust_6="85.54159"></scales>
<clustering>
<clus scale="   33.029">  1  5  2 -1</clus>
<clus scale="   85.542">  1  6  2 -1</clus>
<clus scale="   98.787">  1  3  2 -1</clus>
<clus scale="   33.029">  1  3  2 -1</clus>
</clustering>
</event>
<event>
 6    0  0.4582113E+002  0.1267549E+03  0.7546771E-02  0.1232352E+00
         21   -1    0    0  502  501  0.00000000000E+00  0.00000000000E+00  0.95537588326E+02  0.95537588326E+02  0.00000000000E+00 0.  1.
         21   -1    0    0  506  502 -0.00000000000E+00 -0.00000000000E+00 -0.62288151628E+03  0.62288151628E+03  0.00000000000E+00 0.  1.
         21    1    1    2  503  504 -0.38642381341E+02 -0.26796594692E+02 -0.71300705400E+01  0.47561844252E+02  0.00000000000E+00 0.  1.
         21    1    1    2  504  501 -0.45936112044E+02 -0.54581282359E+02  0.40924938996E+02  0.82244108636E+02  0.00000000000E+00 0.  1.
         21    1    1    2  505  503  0.12107865432E+03  0.64372414838E+02 -0.41797705170E+03  0.43989619693E+03  0.00000000000E+00 0.  1.
         21    1    1    2  506  505 -0.36500160934E+02  0.17005462213E+02 -0.14316174471E+03  0.14871695478E+03  0.00000000000E+00 0.  1.
<scales pt_clust_3="35.68273" pt_clust_4="35.68273" pt_clust_5="118.89148" pt_clust_6="40.26720"></scales>
<clustering>
<clus scale="   35.683">  3  4 -1 -1</clus>
<clus scale="   40.267">  2  6  1 -1</clus>
<clus scale="  118.891">  2  5  1 -1</clus>
<clus scale="  126.755">  1  3  2 -1</clus>
</clustering>
</event>
<event>
 6    0  0.4582113E+002  0.1390674E+03  0.7546771E-02  0.1214589E+00
         21   -1    0    0  503  501  0.00000000000E+00  0.00000000000E+00  0.23295306897E+03  0.23295306897E+03  0.00000000000E+00 0.  1.
         21   -1    0    0  504  502 -0.00000000000E+00 -0.00000000000E+00 -0.19945053993E+03  0.19945053993E+03  0.00000000000E+00 0.  1.
         21    1    1    2  503  506 -0.19945531369E+02 -0.34086166073E+02  0.32347237165E+02  0.51049335856E+02  0.00000000000E+00 0.  1.
         21    1    1    2  504  505 -0.13159903285E+02  0.28778615204E+02 -0.13755448405E+02  0.34505131623E+02  0.00000000000E+00 0.  1.
         21    1    1    2  505  501 -0.10726954477E+03  0.79246559532E+02  0.10011309151E+03  0.16676151691E+03  0.00000000000E+00 0.  1.
         21    1    1    2  506  502  0.14037497942E+03 -0.73939008663E+02 -0.85202351223E+02  0.18008762451E+03  0.00000000000E+00 0.  1.
<scales pt_clust_3="38.54734" pt_clust_4="31.64477" pt_clust_5="14000.00000" pt_clust_6="139.06743"></scales>
<clustering>
<clus scale="   31.645">  2  4  1 -1</clus>
<clus scale="   38.547">  1  3  2 -1</clus>
<clus scale="  139.067">  2  6  1 -1</clus>
<clus scale="   38.547">  1  3  2 -1</clus>
</clustering>
</event>
<event>
 6    0  0.4582113E+002  0.1311331E+03  0.7546771E-02  0.1225784E+00
         21   -1    0    0  502  501  0.00000000000E+00  0.00000000000E+00  0.40104779927E+03  0.40104779927E+03  0.00000000000E+00 0. -1.
         21   -1    0    0  504  502 -0.00000000000E+00 -0.00000000000E+00 -0.11445704441E+03  0.11445704441E+03  0.00000000000E+00 0. -1.
         21    1    1    2  503  505  0.94399857879E+02 -0.68740670080E+02  0.17562918325E+03  0.21090809112E+03  0.00000000000E+00 0. -1.
         21    1    1    2  504  503 -0.68357752204E+02 -0.11264030191E+02 -0.56663152470E+02  0.89500689999E+02  0.00000000000E+00 0. -1.
         21    1    1    2  505  506  0.38118284267E+02  0.16110078387E+02  0.74401403456E+02  0.85135815362E+02  0.00000000000E+00 0.  1.
         21    1    1    2  506  501 -0.64160389942E+02  0.63894621885E+02  0.93223320627E+02  0.12996024720E+03  0.00000000000E+00 0. -1.
<scales pt_clust_3="41.22473" pt_clust_4="69.27958" pt_clust_5="41.22473" pt_clust_6="111.35627"></scales>
<clustering>
<clus scale="   41.225">  3  5 -1 -1</clus>
<clus scale="   69.280">  2  4  1 -1</clus>
<clus scale="  111.356">  1  6  2 -1</clus>
<clus scale="  111.356">  1  3  2 -1</clus>
</clustering>
</event>
<event>
 6    0  0.4582113E+002  0.1334282E+03  0.7546771E-02  0.1222456E+00
         21   -1    0    0  505  501  0.00000000000E+00  0.00000000000E+00  0.22451861494E+02  0.22451861494E+02  0.00000000000E+00 0. -1.
         21   -1    0    0  503  502 -0.00000000000E+00 -0.00000000000E+00 -0.14156409176E+04  0.14156409176E+04  0.00000000000E+00 0.  1.
         21    1    1    2  503  504  0.28119737131E+00 -0.13402281567E+03 -0.44518138693E+03  0.46491790831E+03  0.00000000000E+00 0. -1.
         21    1    1    2  504  506  0.11410227744E+02  0.61759799489E+02 -0.18937251005E+03  0.19951544725E+03  0.00000000000E+00 0. -1.
         21    1    1    2  505  502  0.28619579849E+02  0.25798796205E+02 -0.62890560814E+03  0.63008485317E+03  0.00000000000E+00 0.  1.
         21    1    1    2  506  501 -0.40311004965E+02  0.46464219974E+02 -0.12972955098E+03  0.14357457037E+03  0.00000000000E+00 0. -1.
<scales pt_clust_3="120.27530" pt_clust_4="54.13340" pt_clust_5="38.53126" pt_clust_6="54.13340"></scales>
<clustering>
<clus scale="   38.531">  2  5  1 -1</clus>
<clus scale="   54.133">  4  6 -1 -1</clus>
<clus scale="  120.275">  2  3  1 -1</clus>
<clus scale="  133.428">  1  3  2 -1</clus>
</clustering>
</event>
<event>
 6    0  0.4582113E+002  0.1221905E+03  0.7546771E-02  0.1239526E+00
         21   -1    0    0  503  501  0.00000000000E+00  0.00000000000E+00  0.12471978531E+03  0.12471978531E+03  0.00000000000E+00 0.  1.
         21   -1    0    0  505  502 -0.00000000000E+00 -0.00000000000E+00 -0.26045880401E+03  0.26045880401E+03  0.00000000000E+00 0. -1.
         21    1    1    2  503  504  0.49638244548E+02  0.80787799281E+02 -0.10283201566E+03  0.13987511315E+03  0.00000000000E+00 0. -1.
         21    1    1    2  504  502 -0.27142584080E+02  0.42748377592E+02 -0.89190725677E+02  0.10256280614E+03  0.00000000000E+00 0. -1.
         21    1    1    2  505  506 -0.15076756577E+01 -0.74714843598E+02  0.16956136698E+02  0.76629573348E+02  0.00000000000E+00 0.  1.
         21    1    1    2  506  501 -0.20987984810E+02 -0.48821333275E+02  0.39327585928E+02  0.66111096679E+02  0.00000000000E+00 0.  1.
<scales pt_clust_3="116.14960" pt_clust_4="50.63737" pt_clust_5="31.99781" pt_clust_6="31.99781"></scales>
<clustering>
<clus scale="   31.998">  5  6 -1 -1</clus>
<clus scale="   50.637">  2  4  1 -1</clus>
<clus scale="  116.150">  2  3  1 -1</clus>
<clus scale="  122.191">  1  3  2 -1</clus>
</clustering>
</event>
<event>
 6    0  0.4582113E+002  0.2003330E+03  0.7546771E-02  0.1149458E+00
         21   -1    0    0  506  501  0.00000000000E+00  0.00000000000E+00  0.11392757598E+04  0.11392757598E+04  0.00000000000E+00 0. -1.
         21   -1    0    0  505  502 -0.00000000000E+00 -0.00000000000E+00 -0.89388086632E+02  0.89388086632E+02  0.00000000000E+00 0.  1.
         21    1    1    2  503  501 -0.61144905886E+02 -0.26442427975E+02  0.29175176986E+03  0.29926075040E+03  0.00000000000E+00 0.  1.
         21    1    1    2  504  502 -0.97054951632E+01 -0.28641124694E+02  0.48407500925E+01  0.30625863605E+02  0.00000000000E+00 0.  1.
         21    1    1    2  505  503 -0.22396663388E+02 -0.12778160595E+03  0.66118303869E+03  0.67378984854E+03  0.00000000000E+00 0. -1.
         21    1    1    2  506  504  0.93247064438E+02  0.18286515862E+03  0.92112114527E+02  0.22498738388E+03  0.00000000000E+00 0.  1.
<scales pt_clust_3="63.88504" pt_clust_4="30.24088" pt_clust_5="63.88504" pt_clust_6="179.31770"></scales>
<clustering>
<clus scale="   30.241">  2  4  1 -1</clus>
<clus scale="   63.885">  3  5 -1 -1</clus>
<clus scale="  179.318">  2  6  1 -1</clus>
<clus scale="  200.333">  1  3  2 -1</clus>
</clustering>
</event>
<event>
 6    0  0.4582113E+002  0.1063848E+03  0.7546771E-02  0.1267415E+00
         21   -1    0    0  503  501  0.00000000000E+00  0.00000000000E+00  0.55853660698E+03  0.55853660698E+03  0.00000000000E+00 0.  1.
         21   -1    0    0  504  502 -0.00000000000E+00 -0.00000000000E+00 -0.56937114316E+03  0.56937114316E+03  0.00000000000E+00 0.  1.
         21    1    1    2  503  505 -0.11004515706E+03  0.43759290259E+01  0.52604252304E+03  0.53744750571E+03  0.00000000000E+00 0.  1.
         21    1    1    2  504  506  0.16413132153E+02 -0.34611811273E+02 -0.41489307587E+03  0.41665769259E+03  0.00000000000E+00 0.  1.
         21    1    1    2  505  502  0.30847940727E+02  0.47409950703E+02 -0.72951092121E+02  0.92310133324E+02  0.00000000000E+00 0.  1.
         21    1    1    2  506  501  0.62784084179E+02 -0.17174068455E+02 -0.49032891230E+02  0.81492418518E+02  0.00000000000E+00 0. -1.
<scales pt_clust_3="106.38479" pt_clust_4="38.30624" pt_clust_5="49.02216" pt_clust_6="14000.00000"></scales>
<clustering>
<clus scale="   38.306">  2  4  1 -1</clus>
<clus scale="   49.022">  2  5  1 -1</clus>
<clus scale="  106.385">  1  3  2 -1</clus>
<clus scale="  106.385">  1  3  2 -1</clus>
</clustering>
</event>
<event>
 6    0  0.4582113E+002  0.7917116E+02  0.7546771E-02  0.1331420E+00
         21   -1    0    0  504  501  0.00000000000E+00  0.00000000000E+00  0.10126988066E+03  0.10126988066E+03  0.00000000000E+00 0.  1.
         21   -1    0    0  503  502 -0.00000000000E+00 -0.00000000000E+00 -0.29308194262E+03  0.29308194262E+03  0.00000000000E+00 0.  1.
         21    1    1    2  503  505 -0.60349118489E+01 -0.47769976686E+02 -0.10380751237E+03  0.11443072340E+03  0.00000000000E+00 0.  1.
         21    1    1    2  504  502 -0.31361510649E+02 -0.46123846191E+01 -0.12507839718E+02  0.34077331123E+02  0.00000000000E+00 0.  1.
         21    1    1    2  505  506  0.59928100116E+02  0.10337255966E+03 -0.12381756947E+03  0.17206990958E+03  0.00000000000E+00 0.  1.
         21    1    1    2  506  501 -0.22531677619E+02 -0.50990198352E+02  0.48320859603E+02  0.73773859172E+02  0.00000000000E+00 0.  1.
<scales pt_clust_3="48.68204" pt_clust_4="31.69887" pt_clust_5="79.17116" pt_clust_6="14000.00000"></scales>
<clustering>
<clus scale="   31.699">  1  4  2 -1</clus>
<clus scale="   48.682">  2  3  1 -1</clus>
<clus scale="   79.171">  2  5  1 -1</clus>
<clus scale="   31.699">  1  3  2 -1</clus>
</clustering>
</event>
<event>
 6    0  0.4582113E+002  0.9507553E+02  0.7546771E-02  0.1291006E+00
         21   -1    0    0  506  501  0.00000000000E+00  0.00000000000E+00  0.64228836106E+03  0.64228836106E+03  0.00000000000E+00 0.  1.
         21   -1    0    0  505  502 -0.00000000000E+00 -0.00000000000E+00 -0.37499579742E+02  0.37499579742E+02  0.00000000000E+00 0.  1.
         21    1    1    2  503  504  0.17577452975E+02  0.42175303698E+02  0.19636393186E+03  0.20160981333E+03  0.00000000000E+00 0.  1.
         21    1    1    2  504  501 -0.23324992770E+02  0.33496491490E+02  0.84390509003E+02  0.93743417047E+02  0.00000000000E+00 0.  1.
         21    1    1    2  505  503  0.75655678511E+02  0.28623999971E+02  0.13897696895E+03  0.16080333630E+03  0.00000000000E+00 0.  1.
         21    1    1    2  506  502 -0.69908138716E+02 -0.10429579516E+03  0.18505737150E+03  0.22363137413E+03  0.00000000000E+00 0.  1.
<scales pt_clust_3="54.99646" pt_clust_4="40.81752" pt_clust_5="14000.00000" pt_clust_6="95.07553"></scales>
<clustering>
<clus scale="   40.818">  1  4  2 -1</clus>
<clus scale="   54.996">  1  3  2 -1</clus>
<clus scale="   95.076">  1  6  2 -1</clus>
<clus scale="   40.818">  1  3  2 -1</clus>
</clustering>
</event>
<event>
 6    0  0.4582113E+002  0.1123639E+03  0.7546771E-02  0.1256254E+00
         21   -1    0    0  506  501  0.00000000000E+00  0.00000000000E+00  0.11492793508E+04  0.11492793508E+04  0.00000000000E+00 0.  1.
         21   -1    0    0  503  502 -0.00000000000E+00 -0.00000000000E+00 -0.54952214847E+02  0.54952214847E+02  0.00000000000E+00 0.  1.
         21    1    1    2  503  505 -0.40595100793E+02  0.62425947028E+01 -0.23165574408E+02  0.47154809242E+02  0.00000000000E+00 0.  1.
         21    1    1    2  504  501  0.11422350622E+03  0.41192085659E+02  0.91674303645E+03  0.92474947536E+03  0.00000000000E+00 0.  1.
         21    1    1    2  505  504 -0.84462515515E+02 -0.19091538847E+02  0.14967522509E+03  0.17291927709E+03  0.00000000000E+00 0.  1.
         21    1    1    2  506  502  0.10834110085E+02 -0.28343141514E+02  0.51074448833E+02  0.59408003971E+02  0.00000000000E+00 0.  1.
<scales pt_clust_3="35.69684" pt_clust_4="14000.00000" pt_clust_5="112.36392" pt_clust_6="30.34323"></scales>
<clustering>
<clus scale="   30.343">  2  6  1 -1</clus>
<clus scale="   35.697">  2  3  1 -1</clus>
<clus scale="  112.364">  2  5  1 -1</clus>
<clus scale="  112.364">  1  3  2 -1</clus>
</clustering>
</event>
<event>
 6    0  0.4582113E+002  0.8663282E+02  0.7546771E-02  0.1311217E+00
         21   -1    0    0  506  501  0.00000000000E+00  0.00000000000E+00  0.15985871821E+03  0.15985871821E+03  0.00000000000E+00 0. -1.
         21   -1    0    0  505  502 -0.00000000000E+00 -0.00000000000E+00 -0.38824545668E+03  0.38824545668E+03  0.00000000000E+00 0. -1.
         21    1    1    2  503  502 -0.11485468380E+02 -0.38435908858E+02 -0.22114238892E+03  0.22475139877E+03  0.00000000000E+00 0. -1.
         21    1    1    2  504  501  0.65462381555E+02  0.32501940834E+02  0.28335008841E+02  0.78387322208E+02  0.00000000000E+00 0. -1.
         21    1    1    2  505  504  0.40021226602E+02  0.42899313516E+02 -0.10647067790E+03  0.12156502347E+03  0.00000000000E+00 0. -1.
         21    1    1    2  506  503 -0.93998139778E+02 -0.36965345491E+02  0.70891319514E+02  0.12340043043E+03  0.00000000000E+00 0. -1.
<scales pt_clust_3="40.11527" pt_clust_4="86.63282" pt_clust_5="36.04007" pt_clust_6="14000.00000"></scales>
<clustering>
<clus scale="   40.115">  2  3  1 -1</clus>
<clus scale="   36.040">  2  5  1 -1</clus>
<clus scale="   86.633">  1  4  2 -1</clus>
<clus scale="   86.633">  1  3  2 -1</clus>
</clustering>
</event>
<event>
 6    0  0.4582113E+002  0.2397492E+03  0.7546771E-02  0.1119960E+00
         21   -1    0    0  505  501  0.00000000000E+00  0.00000000000E+00  0.80132118105E+02  0.80132118105E+02  0.00000000000E+00 0.  1.
         21   -1    0    0  504  502 -0.00000000000E+00 -0.00000000000E+00 -0.11052661261E+04  0.11052661261E+04  0.00000000000E+00 0.  1.
         21    1    1    2  503  506  0.16607901057E+03  0.39163356421E+01 -0.11479947281E+03  0.20193190534E+03  0.00000000000E+00 0.  1.
         21    1    1    2  504  501 -0.25479956944E+03 -0.35253170035E+01 -0.57718141563E+03  0.63093076878E+03  0.00000000000E+00 0.  1.
         21    1    1    2  505  503  0.57750174497E+02 -0.47475965702E+01 -0.87800710931E+02  0.10519784773E+03  0.00000000000E+00 0.  1.
         21    1    1    2  506  502  0.30970384373E+02  0.43565779316E+01 -0.24535240864E+03  0.24733772237E+03  0.00000000000E+00 0. -1.
<scales pt_clust_3="33.70944" pt_clust_4="233.01939" pt_clust_5="33.70944" pt_clust_6="31.27530"></scales>
<clustering>
<clus scale="   31.275">  2  6  1 -1</clus>
<clus scale="   33.709">  3  5 -1 -1</clus>
<clus scale="  233.019">  2  4  1 -1</clus>
<clus scale="  239.749">  1  3  2 -1</clus>
</clustering>
</event>
<event>
 6    0  0.4582113E+002  0.1020264E+03  0.7546771E-02  0.1276091E+00
         21   -1    0    0  504  501  0.00000000000E+00  0.00000000000E+00  0.38436587861E+03  0.38436587861E+03  0.00000000000E+00 0.  1.
         21   -1    0    0  503  502 -0.00000000000E+00 -0.00000000000E+00 -0.16166391693E+03  0.16166391693E+03  0.00000000000E+00 0. -1.
         21    1    1    2  503  506  0.12530139996E+03  0.22949294846E+02 -0.43109862402E+02  0.13448260557E+03  0.00000000000E+00 0. -1.
         21    1    1    2  504  505 -0.42399234995E+02  0.70710049525E+01  0.20750900979E+03  0.21191433029E+03  0.00000000000E+00 0.  1.
         21    1    1    2  505  502 -0.87338855792E+02  0.37113955904E+01 -0.39613381010E+02  0.95974320229E+02  0.00000000000E+00 0.  1.
         21    1    1    2  506  501  0.44366908307E+01 -0.33731695389E+02  0.97916195296E+02  0.10365853945E+03  0.00000000000E+00 0.  1.
<scales pt_clust_3="14000.00000" pt_clust_4="43.00840" pt_clust_5="102.02641" pt_clust_6="34.02222"></scales>
<clustering>
<clus scale="   34.022">  1  6  2 -1</clus>
<clus scale="   43.008">  1  4  2 -1</clus>
<clus scale="  102.026">  2  5  1 -1</clus>
<clus scale="   34.022">  1  3  2 -1</clus>
</clustering>
</event>
<event>
 6    0  0.4582113E+002  0.9857744E+02  0.7546771E-02  0.1283316E+00
         21   -1    0    0  504  501  0.00000000000E+00  0.00000000000E+00  0.33929889749E+03  0.33929889749E+03  0.00000000000E+00 0.  1.
         21   -1    0    0  505  502 -0.00000000000E+00 -0.00000000000E+00 -0.19343736640E+03  0.19343736640E+03  0.00000000000E+00 0.  1.
         21    1    1    2  503  501  0.45261248198E+02 -0.67385019989E+02  0.63344620885E+02  0.10296534612E+03  0.00000000000E+00 0.  1.
         21    1    1    2  504  506 -0.75006568835E+02  0.80655845745E+02  0.22677739289E+03  0.25210977123E+03  0.00000000000E+00 0.  1.
         21    1    1    2  505  503  0.10877956730E+02  0.36580561563E+02 -0.21441517779E+02  0.43774491563E+02  0.00000000000E+00 0.  1.
         21    1    1    2  506  502  0.18867363907E+02 -0.49851387319E+02 -0.12281896491E+03  0.13388665497E+03  0.00000000000E+00 0.  1.
<scales pt_clust_3="98.57744" pt_clust_4="14000.00000" pt_clust_5="38.16369" pt_clust_6="34.43353"></scales>
<clustering>
<clus scale="   38.164">  2  5  1 -1</clus>
<clus scale="   34.434">  2  6  1 -1</clus>
<clus scale="   98.577">  2  3  1 -1</clus>
<clus scale="   98.577">  1  3  2 -1</clus>
</clustering>
</event>
<event>
 6    0  0.4582113E+002  0.9285660E+02  0.7546771E-02  0.1296078E+00
         21   -1    0    0  505  501  0.00000000000E+00  0.00000000000E+00  0.53462976268E+03  0.53462976268E+03  0.00000000000E+00 0.  1.
         21   -1    0    0  506  502 -0.00000000000E+00 -0.00000000000E+00 -0.62512713439E+03  0.62512713439E+03  0.00000000000E+00 0.  1.
         21    1    1    2  503  502 -0.65609646079E+02 -0.21366912174E+02 -0.10457938719E+03  0.12529173484E+03  0.00000000000E+00 0. -1.
         21    1    1    2  504  501  0.50760668915E+02 -0.38895798737E+02 -0.48595541081E+01  0.64133797129E+02  0.00000000000E+00 0.  1.
         21    1    1    2  505  503 -0.39024110435E+02 -0.53561596557E+02  0.48400454898E+03  0.48852034682E+03  0.00000000000E+00 0.  1.
         21    1    1    2  506  504  0.53873087599E+02  0.11382430747E+03 -0.46506297939E+03  0.48181101828E+03  0.00000000000E+00 0.  1.
<scales pt_clust_3="68.26698" pt_clust_4="63.94942" pt_clust_5="14000.00000" pt_clust_6="92.85660"></scales>
<clustering>
<clus scale="   63.949">  1  4  2 -1</clus>
<clus scale="   68.267">  2  3  1 -1</clus>
<clus scale="   92.857">  2  6  1 -1</clus>
<clus scale="   63.949">  1  3  2 -1</clus>
</clustering>
</event>
<event>
 6    0  0.5444595E+002  0.1097251E+03  0.7546771E-02  0.1261080E+00
         21   -1    0    0  502  501  0.00000000000E+00  0.00000000000E+00  0.19303485689E+03  0.19303485689E+03  0.00000000000E+00 0. -1.
         21   -1    0    0  505  502 -0.00000000000E+00 -0.00000000000E+00 -0.24300416302E+04  0.24300416302E+04  0.00000000000E+00 0.  1.
         21    1    1    2  503  504 -0.77979308593E+01  0.33881399627E+02 -0.55158906740E+03  0.55268368553E+03  0.00000000000E+00 0. -1.
         21    1    1    2  504  506  0.27833046887E+02  0.69317489694E+02 -0.25468511145E+03  0.26541307215E+03  0.00000000000E+00 0.  1.
         21    1    1    2  505  503  0.32405842831E+02 -0.42224924952E+01 -0.16009122924E+04  0.16012458076E+04  0.00000000000E+00 0.  1.
         21    1    1    2  506  501 -0.52440958859E+02 -0.98976396826E+02  0.17017969801E+03  0.20373392184E+03  0.00000000000E+00 0. -1.
<scales pt_clust_3="33.99031" pt_clust_4="14000.00000" pt_clust_5="32.67978" pt_clust_6="109.72512"></scales>
<clustering>
<clus scale="   32.680">  2  5  1 -1</clus>
<clus scale="   33.990">  2  3  1 -1</clus>
<clus scale="  109.725">  1  6  2 -1</clus>
<clus scale="  109.725">  1  3  2 -1</clus>
</clustering>
</event>
<event>
 6    0  0.4582113E+002  0.1628379E+03  0.7546771E-02  0.1185529E+00
         21   -1    0    0  503  501  0.00000000000E+00  0.00000000000E+00  0.10972946341E+04  0.10972946341E+04  0.00000000000E+00 0. -1.
         21   -1    0    0  505  502 -0.00000000000E+00 -0.00000000000E+00 -0.29037799749E+03  0.29037799749E+03  0.00000000000E+00 0.  1.
         21    1    1    2  503  506  0.15172043311E+03 -0.70358237773E+02  0.92843097949E+03  0.94337344414E+03  0.00000000000E+00 0. -1.
         21    1    1    2  504  501 -0.57319245801E+02  0.26050613949E+01  0.52955685555E+02  0.78080643674E+02  0.00000000000E+00 0.  1.
         21    1    1    2  505  504 -0.64089472603E+02  0.41121949511E+02  0.78901949066E+02  0.10965396845E+03  0.00000000000E+00 0.  1.
         21    1    1    2  506  502 -0.30311714709E+02  0.26631226867E+02 -0.25337197753E+03  0.25656457529E+03  0.00000000000E+00 0.  1.
<scales pt_clust_3="159.09267" pt_clust_4="30.14180" pt_clust_5="30.14180" pt_clust_6="40.34876"></scales>
<clustering>
<clus scale="   30.142">  4  5 -1 -1</clus>
<clus scale="   40.349">  2  6  1 -1</clus>
<clus scale="  159.093">  1  3  2 -1</clus>
<clus scale="  159.093">  1  3  2 -1</clus>
</clustering>
</event>
<event>
 6    0  0.4582113E+002  0.1001086E+03  0.7546771E-02  0.1280068E+00
         21   -1    0    0  504  501  0.00000000000E+00  0.00000000000E+00  0.55299382222E+03  0.55299382222E+03  0.00000000000E+00 0.  1.
         21   -1    0    0  506  502 -0.00000000000E+00 -0.00000000000E+00 -0.25188805905E+03  0.25188805905E+03  0.00000000000E+00 0.  1.
         21    1    1    2  503  505  0.60494415502E+02 -0.56715750401E+02  0.22463390598E+03  0.23945070968E+03  0.00000000000E+00 0. -1.
         21    1    1    2  504  503  0.43610251031E+02  0.59944561723E+02  0.25633888685E+03  0.26684233057E+03  0.00000000000E+00 0.  1.
         21    1    1    2  505  502  0.16092962731E+02 -0.70043708209E+02 -0.13672092465E+03  0.15445943075E+03  0.00000000000E+00 0.  1.
         21    1    1    2  506  501 -0.12019762926E+03  0.66814896886E+02 -0.43146105013E+02  0.14412941027E+03  0.00000000000E+00 0.  1.
<scales pt_clust_3="14000.00000" pt_clust_4="71.84898" pt_clust_5="71.86866" pt_clust_6="100.10863"></scales>
<clustering>
<clus scale="   71.869">  2  5  1 -1</clus>
<clus scale="   71.849">  1  4  2 -1</clus>
<clus scale="  100.109">  2  6  1 -1</clus>
<clus scale="   71.849">  1  3  2 -1</clus>
</clustering>
</event>
<event>
 6    0  0.4582113E+002  0.1024827E+03  0.7546771E-02  0.1275160E+00
         21   -1    0    0  506  501  0.00000000000E+00  0.00000000000E+00  0.12856445306E+03  0.12856445306E+03  0.00000000000E+00 0. -1.
         21   -1    0    0  503  502 -0.00000000000E+00 -0.00000000000E+00 -0.24610691838E+03  0.24610691838E+03  0.00000000000E+00 0. -1.
         21    1    1    2  503  504  0.10641837631E+03  0.52053205549E+02 -0.14045979778E+03  0.18374809337E+03  0.00000000000E+00 0. -1.
         21    1    1    2  504  505 -0.24203199029E+02 -0.41206084255E+02  0.34718788139E+02  0.59068862125E+02  0.00000000000E+00 0. -1.
         21    1    1    2  505  501 -0.50900552434E+02  0.49257263333E-01  0.43777622857E+02  0.67136792650E+02  0.00000000000E+00 0. -1.
         21    1    1    2  506  502 -0.31314624850E+02 -0.10896378557E+02 -0.55579078536E+02  0.64717623304E+02  0.00000000000E+00 0. -1.
<scales pt_clust_3="89.83869" pt_clust_4="47.69615" pt_clust_5="47.69615" pt_clust_6="33.15625"></scales>
<clustering>
<clus scale="   33.156">  2  6  1 -1</clus>
<clus scale="   47.696">  4  5 -1 -1</clus>
<clus scale="   89.839">  2  3  1 -1</clus>
<clus scale="  102.483">  1  3  2 -1</clus>
</clustering>
</event>
<event>
 6    0  0.4582113E+002  0.1463476E+03  0.7546771E-02  0.1205034E+00
         21   -1    0    0  504  501  0.00000000000E+00  0.00000000000E+00  0.38086730489E+03  0.38086730489E+03  0.00000000000E+00 0.  1.
         21   -1    0    0  505  502 -0.00000000000E+00 -0.00000000000E+00 -0.72506248559E+03  0.72506248559E+03  0.00000000000E+00 0.  1.
         21    1    1    2  503  501 -0.62411479300E+02  0.40983988226E+01  0.14996649704E+03  0.16248673747E+03  0.00000000000E+00 0.  1.
         21    1    1    2  504  506  0.14460899414E+02  0.26721210311E+02  0.12820676517E+03  0.13175779038E+03  0.00000000000E+00 0.  1.
         21    1    1    2  505  503  0.17065736462E+03  0.44770040192E+02 -0.37199242445E+01  0.17647133035E+03  0.00000000000E+00 0.  1.
         21    1    1    2  506  502 -0.12270678474E+03 -0.75589649326E+02 -0.61864851867E+03  0.63521393227E+03  0.00000000000E+00 0.  1.
<scales pt_clust_3="57.29157" pt_clust_4="30.38323" pt_clust_5="146.34761" pt_clust_6="14000.00000"></scales>
<clustering>
<clus scale="   30.383">  1  4  2 -1</clus>
<clus scale="   57.292">  1  3  2 -1</clus>
<clus scale="  146.348">  1  5  2 -1</clus>
<clus scale="   30.383">  1  3  2 -1</clus>
</clustering>
</event>
<event>
 6    0  0.4582113E+002  0.6989008E+02  0.7546771E-02  0.1360467E+00
         21   -1    0    0  503  501  0.00000000000E+00  0.00000000000E+00  0.11297208542E+03  0.11297208542E+03  0.00000000000E+00 0. -1.
         21   -1    0    0  505  502 -0.00000000000E+00 -0.00000000000E+00 -0.62450837454E+03  0.62450837454E+03  0.00000000000E+00 0. -1.
         21    1    1    2  503  502 -0.23253856752E+02  0.92361126660E+02 -0.81330259727E+02  0.12524348573E+03  0.00000000000E+00 0. -1.
         21    1    1    2  504  501  0.18346637858E+02 -0.41923491718E+02  0.71255700816E+02  0.84685023336E+02  0.00000000000E+00 0. -1.
         21    1    1    2  505  506 -0.56222443419E+02 -0.17176818191E+01 -0.37269319544E+03  0.37691395769E+03  0.00000000000E+00 0. -1.
         21    1    1    2  506  504  0.61129662313E+02 -0.48719953123E+02 -0.12876853478E+03  0.15063799320E+03  0.00000000000E+00 0. -1.
<scales pt_clust_3="69.89008" pt_clust_4="45.76219" pt_clust_5="55.27952" pt_clust_6="14000.00000"></scales>
<clustering>
<clus scale="   45.762">  1  4  2 -1</clus>
<clus scale="   55.280">  2  5  1 -1</clus>
<clus scale="   69.890">  1  3  2 -1</clus>
<clus scale="   45.762">  1  3  2 -1</clus>
</clustering>
</event>
<event>
 6    0  0.4582113E+002  0.7353431E+02  0.7546771E-02  0.1348471E+00
         21   -1    0    0  503  501  0.00000000000E+00  0.00000000000E+00  0.26254248499E+03  0.26254248499E+03  0.00000000000E+00 0.  1.
         21   -1    0    0  506  502 -0.00000000000E+00 -0.00000000000E+00 -0.18216878376E+03  0.18216878376E+03  0.00000000000E+00 0.  1.
         21    1    1    2  503  504 -0.27119225640E+02 -0.61002134491E+02  0.12659803439E+03  0.14312153969E+03  0.00000000000E+00 0.  1.
         21    1    1    2  504  505 -0.24639058084E+01  0.99394807773E+02  0.80202526561E+02  0.12774131638E+03  0.00000000000E+00 0.  1.
         21    1    1    2  505  502  0.12848234935E+01  0.37349817099E+02 -0.29418158011E+02  0.47561409037E+02  0.00000000000E+00 0.  1.
         21    1    1    2  506  501  0.28298307955E+02 -0.75742490382E+02 -0.97008701703E+02  0.12628700364E+03  0.00000000000E+00 0.  1.
<scales pt_clust_3="73.53431" pt_clust_4="14000.00000" pt_clust_5="37.37191" pt_clust_6="55.14514"></scales>
<clustering>
<clus scale="   37.372">  2  5  1 -1</clus>
<clus scale="   55.145">  2  6  1 -1</clus>
<clus scale="   73.534">  1  3  2 -1</clus>
<clus scale="   73.534">  1  3  2 -1</clus>
</clustering>
</event>
<event>
 6    0  0.4582113E+002  0.1173598E+03  0.7546771E-02  0.1247517E+00
         21   -1    0    0  505  501  0.00000000000E+00  0.00000000000E+00  0.55178293669E+02  0.55178293669E+02  0.00000000000E+00 0.  1.
         21   -1    0    0  501  502 -0.00000000000E+00 -0.00000000000E+00 -0.51628402860E+03  0.51628402860E+03  0.00000000000E+00 0.  1.
         21    1    1    2  503  506 -0.77144381362E+02  0.17627804076E+02 -0.13863707670E+03  0.15963155731E+03  0.00000000000E+00 0.  1.
         21    1    1    2  504  503  0.78968301225E+02 -0.30736219382E+02 -0.68640980010E+02  0.10905178548E+03  0.00000000000E+00 0.  1.
         21    1    1    2  505  504  0.28412841483E+02 -0.26291059616E+02  0.51773644306E+01  0.39055274667E+02  0.00000000000E+00 0. -1.
         21    1    1    2  506  502 -0.30236761346E+02  0.39399474922E+02 -0.25900504265E+03  0.26372370481E+03  0.00000000000E+00 0.  1.
<scales pt_clust_3="103.18951" pt_clust_4="37.78466" pt_clust_5="37.78466" pt_clust_6="49.66468"></scales>
<clustering>
<clus scale="   37.785">  4  5 -1 -1</clus>
<clus scale="   49.665">  2  6  1 -1</clus>
<clus scale="  103.190">  2  3  1 -1</clus>
<clus scale="  117.360">  1  3  2 -1</clus>
</clustering>
</event>
<event>
 6    0  0.4582113E+002  0.9708743E+02  0.7546771E-02  0.1286543E+00
         21   -1    0    0  504  501  0.00000000000E+00  0.00000000000E+00  0.45495486783E+03  0.45495486783E+03  0.00000000000E+00 0. -1.
         21   -1    0    0  506  502 -0.00000000000E+00 -0.00000000000E+00 -0.19728745233E+03  0.19728745233E+03  0.00000000000E+00 0. -1.
         21    1    1    2  503  505  0.57028719080E+02  0.66790141920E+01 -0.30175413156E+02  0.64864779269E+02  0.00000000000E+00 0. -1.
         21    1    1    2  504  502 -0.11286137103E+03  0.29308916028E+02  0.28077629919E+03  0.30402636698E+03  0.00000000000E+00 0. -1.
         21    1    1    2  505  501  0.53013860437E+01 -0.42763453722E+02  0.13708289180E+03  0.14369598774E+03  0.00000000000E+00 0. -1.
         21    1    1    2  506  503  0.50531265904E+02  0.67755235023E+01 -0.13001636233E+03  0.13965518618E+03  0.00000000000E+00 0. -1.
<scales pt_clust_3="14000.00000" pt_clust_4="97.08743" pt_clust_5="43.09081" pt_clust_6="50.98120"></scales>
<clustering>
<clus scale="   43.091">  1  5  2 -1</clus>
<clus scale="   50.981">  2  6  1 -1</clus>
<clus scale="   97.087">  1  4  2 -1</clus>
<clus scale="   43.091">  1  3  2 -1</clus>
</clustering>
</event>
<event>
 6    0  0.4582113E+002  0.1984640E+03  0.7546771E-02  0.1151041E+00
         21   -1    0    0  505  501  0.00000000000E+00  0.00000000000E+00  0.18587879408E+03  0.18587879408E+03  0.00000000000E+00 0. -1.
         21   -1    0    0  504  502 -0.00000000000E+00 -0.00000000000E+00 -0.13634321753E+04  0.13634321753E+04  0.00000000000E+00 0.  1.
         21    1    1    2  503  506  0.57799307013E+02  0.66800018593E+02  0.87870846786E+02  0.12459650111E+03  0.00000000000E+00 0. -1.
         21    1    1    2  504  501 -0.69370882633E+02 -0.11016801964E+03 -0.11327907411E+04  0.11402474183E+04  0.00000000000E+00 0.  1.
         21    1    1    2  505  503  0.69223702564E+02  0.78299801365E+02  0.29736587902E+02  0.10866022525E+03  0.00000000000E+00 0. -1.
         21    1    1    2  506  502 -0.57652126944E+02 -0.34931800321E+02 -0.16237007485E+03  0.17580682473E+03  0.00000000000E+00 0.  1.
<scales pt_clust_3="53.51540" pt_clust_4="189.73548" pt_clust_5="53.51540" pt_clust_6="67.40919"></scales>
<clustering>
<clus scale="   53.515">  3  5 -1 -1</clus>
<clus scale="   67.409">  2  6  1 -1</clus>
<clus scale="  189.735">  2  4  1 -1</clus>
<clus scale="  198.464">  1  3  2 -1</clus>
</clustering>
</event>
<event>
 6    0  0.4582113E+002  0.1020647E+03  0.7546771E-02  0.1276013E+00
         21   -1    0    0  503  501  0.00000000000E+00  0.00000000000E+00  0.19629260310E+03  0.19629260310E+03  0.00000000000E+00 0. -1.
         21   -1    0    0  505  502 -0.00000000000E+00 -0.00000000000E+00 -0.47643093871E+03  0.47643093871E+03  0.00000000000E+00 0. -1.
         21    1    1    2  503  504  0.32167248385E+01 -0.50529298709E+02  0.43431836191E+02  0.66707433931E+02  0.00000000000E+00 0.  1.
         21    1    1    2  504  502  0.78926205431E+02 -0.18314610294E+02 -0.12915023696E+01  0.81033566084E+02  0.00000000000E+00 0. -1.
         21    1    1    2  505  506  0.39331391055E+02  0.35795367004E+02 -0.38197265059E+03  0.38565706583E+03  0.00000000000E+00 0. -1.
         21    1    1    2  506  501 -0.12147432132E+03  0.33048541998E+02  0.59693981162E+02  0.13932547598E+03  0.00000000000E+00 0. -1.
<scales pt_clust_3="50.63158" pt_clust_4="14000.00000" pt_clust_5="52.77135" pt_clust_6="102.06468"></scales>
<clustering>
<clus scale="   50.632">  1  3  2 -1</clus>
<clus scale="   52.771">  2  5  1 -1</clus>
<clus scale="  102.065">  1  6  2 -1</clus>
<clus scale="   50.632">  1  3  2 -1</clus>
</clustering>
</event>
<event>
 6    0  0.4582113E+002  0.1057674E+03  0.7546771E-02  0.1268615E+00
         21   -1    0    0  503  501  0.00000000000E+00  0.00000000000E+00  0.63704484585E+03  0.63704484585E+03  0.00000000000E+00 0. -1.
         21   -1    0    0  506  502 -0.00000000000E+00 -0.00000000000E+00 -0.99125481823E+03  0.99125481823E+03  0.00000000000E+00 0.  1.
         21    1    1    2  503  504  0.85510973357E+02 -0.26981866785E+01  0.54379074927E+03  0.55047959614E+03  0.00000000000E+00 0. -1.
         21    1    1    2  504  502 -0.81953477030E+02  0.85278503110E+02 -0.91059196835E+02  0.14926678404E+03  0.00000000000E+00 0. -1.
         21    1    1    2  505  501  0.22186389915E+02  0.24603592138E+02  0.52495769200E+02  0.62075586404E+02  0.00000000000E+00 0.  1.
         21    1    1    2  506  505 -0.25743886242E+02 -0.10718390857E+03 -0.85943729401E+03  0.86647769750E+03  0.00000000000E+00 0.  1.
<scales pt_clust_3="108.40884" pt_clust_4="105.76743" pt_clust_5="33.12963" pt_clust_6="14000.00000"></scales>
<clustering>
<clus scale="   33.130">  1  5  2 -1</clus>
<clus scale="  108.409">  1  3  2 -1</clus>
<clus scale="  105.767">  1  4  2 -1</clus>
<clus scale="   33.130">  1  3  2 -1</clus>
</clustering>
</event>
<event>
 6    0  0.4582113E+002  0.1011338E+03  0.7546771E-02  0.1277930E+00
         21   -1    0    0  506  501  0.00000000000E+00  0.00000000000E+00  0.42107984675E+03  0.42107984675E+03  0.00000000000E+00 0. -1.
         21   -1    0    0  504  502 -0.00000000000E+00 -0.00000000000E+00 -0.11384696716E+04  0.11384696716E+04  0.00000000000E+00 0.  1.
         21    1    1    2  503  501 -0.68174664587E+02  0.36776607852E+02  0.33281748989E+02  0.84308828674E+02  0.00000000000E+00 0. -1.
         21    1    1    2  504  503  0.50783109145E+02 -0.48217995911E+02 -0.20864114603E+03  0.22007959269E+03  0.00000000000E+00 0. -1.
         21    1    1    2  505  502 -0.33774662217E+02 -0.60484358279E+02 -0.89176900380E+03  0.89445572364E+03  0.00000000000E+00 0.  1.
         21    1    1    2  506  505  0.51166217658E+02  0.71925746338E+02  0.34973857600E+03  0.36070537334E+03  0.00000000000E+00 0. -1.
<scales pt_clust_3="77.90027" pt_clust_4="14000.00000" pt_clust_5="69.27543" pt_clust_6="101.13384"></scales>
<clustering>
<clus scale="   69.275">  2  5  1 -1</clus>
<clus scale="   77.900">  1  3  2 -1</clus>
<clus scale="  101.134">  1  6  2 -1</clus>
<clus scale="   77.900">  1  3  2 -1</clus>
</clustering>
</event>
<event>
 6    0  0.4582113E+002  0.1129984E+03  0.7546771E-02  0.1255116E+00
         21   -1    0    0  505  501  0.00000000000E+00  0.00000000000E+00  0.73455526390E+03  0.73455526390E+03  0.00000000000E+00 0. -1.
         21   -1    0    0  504  502 -0.00000000000E+00 -0.00000000000E+00 -0.65378380807E+02  0.65378380807E+02  0.00000000000E+00 0. -1.
         21    1    1    2  503  501 -0.24549665466E+02  0.12834050433E+03  0.43728223405E+03  0.45638768974E+03  0.00000000000E+00 0. -1.
         21    1    1    2  504  506  0.39249548181E+02 -0.26796377587E+02 -0.24001456708E+01  0.47585014274E+02  0.00000000000E+00 0. -1.
         21    1    1    2  505  502  0.60481681338E+02 -0.14361788729E+02  0.11138245875E+03  0.12755526986E+03  0.00000000000E+00 0. -1.
         21    1    1    2  506  503 -0.75181564053E+02 -0.87182338018E+02  0.12291233596E+03  0.16840567083E+03  0.00000000000E+00 0. -1.
<scales pt_clust_3="14000.00000" pt_clust_4="47.52445" pt_clust_5="71.13084" pt_clust_6="112.99844"></scales>
<clustering>
<clus scale="   47.524">  2  4  1 -1</clus>
<clus scale="   71.131">  1  5  2 -1</clus>
<clus scale="  112.998">  2  6  1 -1</clus>
<clus scale="   71.131">  1  3  2 -1</clus>
</clustering>
</event>
<event>
 6    0  0.4582113E+002  0.6845048E+02  0.7546771E-02  0.1365443E+00
         21   -1    0    0  505  501  0.00000000000E+00  0.00000000000E+00  0.69991140611E+02  0.69991140611E+02  0.00000000000E+00 0. -1.
         21   -1    0    0  504  502 -0.00000000000E+00 -0.00000000000E+00 -0.73782834107E+03  0.73782834107E+03  0.00000000000E+00 0. -1.
         21    1    1    2  503  501 -0.96018993067E+02 -0.66977394066E+02 -0.33167306895E+02  0.12167862833E+03  0.00000000000E+00 0. -1.
         21    1    1    2  504  503  0.29589705882E+02  0.60060184395E+02 -0.59058503654E+03  0.59436811980E+03  0.00000000000E+00 0. -1.
         21    1    1    2  505  506  0.31372585835E+02  0.13592916953E+02  0.10834156141E+01  0.34207898542E+02  0.00000000000E+00 0. -1.
         21    1    1    2  506  502  0.35056701349E+02 -0.66757072817E+01 -0.45168272640E+02  0.57564835017E+02  0.00000000000E+00 0. -1.
<scales pt_clust_3="68.45048" pt_clust_4="14000.00000" pt_clust_5="34.19074" pt_clust_6="39.10115"></scales>
<clustering>
<clus scale="   34.191">  1  5  2 -1</clus>
<clus scale="   39.101">  1  6  2 -1</clus>
<clus scale="   68.450">  1  3  2 -1</clus>
<clus scale="   34.191">  1  3  2 -1</clus>
</clustering>
</event>
<event>
 6    0  0.4582113E+002  0.1045060E+03  0.7546771E-02  0.1271096E+00
         21   -1    0    0  506  501  0.00000000000E+00  0.00000000000E+00  0.14522109602E+04  0.14522109602E+04  0.00000000000E+00 0.  1.
         21   -1    0    0  504  502 -0.00000000000E+00 -0.00000000000E+00 -0.22689113634E+02  0.22689113634E+02  0.00000000000E+00 0.  1.
         21    1    1    2  503  501  0.11061664405E+03 -0.41117238353E+02  0.75715731703E+03  0.76629881375E+03  0.00000000000E+00 0.  1.
         21    1    1    2  504  503 -0.48393557595E+02  0.74578074498E+02  0.11843001133E+03  0.14808610062E+03  0.00000000000E+00 0.  1.
         21    1    1    2  505  502 -0.36973028444E+02 -0.36848550263E+01  0.14365770784E+03  0.14838503972E+03  0.00000000000E+00 0.  1.
         21    1    1    2  506  505 -0.25250058009E+02 -0.29775981119E+02  0.41027681038E+03  0.41213011976E+03  0.00000000000E+00 0.  1.
<scales pt_clust_3="104.50605" pt_clust_4="14000.00000" pt_clust_5="37.15620" pt_clust_6="40.27621"></scales>
<clustering>
<clus scale="   37.156">  2  5  1 -1</clus>
<clus scale="   40.276">  1  6  2 -1</clus>
<clus scale="  104.506">  1  3  2 -1</clus>
<clus scale="   40.276">  1  3  2 -1</clus>
</clustering>
</event>
<event>
 6    0  0.4582113E+002  0.2961665E+03  0.7546771E-02  0.1087173E+00
         21   -1    0    0  506  501  0.00000000000E+00  0.00000000000E+00  0.15487346180E+04  0.15487346180E+04  0.00000000000E+00 0.  1.
         21   -1    0    0  501  502 -0.00000000000E+00 -0.00000000000E+00 -0.76680692102E+02  0.76680692102E+02  0.00000000000E+00 0.  1.
         21    1    1    2  503  505  0.15322198047E+03 -0.98319215204E+02  0.63033517906E+03  0.65609913987E+03  0.00000000000E+00 0.  1.
         21    1    1    2  504  502 -0.27828431383E+03  0.89612355954E+02  0.36184391465E+03  0.46519195203E+03  0.00000000000E+00 0.  1.
         21    1    1    2  505  504  0.11210579413E+03 -0.27514947506E+02  0.37778274900E+03  0.39502479271E+03  0.00000000000E+00 0.  1.
         21    1    1    2  506  503  0.12956539227E+02  0.36221806757E+02  0.10209208320E+03  0.10909942551E+03  0.00000000000E+00 0. -1.
<scales pt_clust_3="38.40919" pt_clust_4="292.21211" pt_clust_5="38.40919" pt_clust_6="38.46935"></scales>
<clustering>
<clus scale="   38.409">  3  5 -1 -1</clus>
<clus scale="   38.469">  1  6  2 -1</clus>
<clus scale="  292.212">  2  4  1 -1</clus>
<clus scale="   38.469">  1  3  2 -1</clus>
</clustering>
</event>
<event>
 6    0  0.4582113E+002  0.1205627E+03  0.7546771E-02  0.1242172E+00
         21   -1    0    0  505  501  0.00000000000E+00  0.00000000000E+00  0.15633279187E+04  0.15633279187E+04  0.00000000000E+00 0.  1.
         21   -1    0    0  504  502 -0.00000000000E+00 -0.00000000000E+00 -0.16253005048E+02  0.16253005048E+02  0.00000000000E+00 0.  1.
         21    1    1    2  503  502 -0.49486538688E+02 -0.30783014092E+02  0.18926849776E+03  0.19803806632E+03  0.00000000000E+00 0.  1.
         21    1    1    2  504  506  0.36528114653E+02 -0.24309673940E+01  0.87409425739E+02  0.94766135675E+02  0.00000000000E+00 0.  1.
         21    1    1    2  505  503 -0.93598140359E+02  0.11273161979E+02  0.67042529698E+03  0.67702125143E+03  0.00000000000E+00 0.  1.
         21    1    1    2  506  501  0.10655656439E+03  0.21940819508E+02  0.59997169314E+03  0.60975547029E+03  0.00000000000E+00 0.  1.
<scales pt_clust_3="58.27960" pt_clust_4="31.79414" pt_clust_5="107.38404" pt_clust_6="31.79414"></scales>
<clustering>
<clus scale="   31.794">  4  6 -1 -1</clus>
<clus scale="   58.280">  2  3  1 -1</clus>
<clus scale="  107.384">  1  5  2 -1</clus>
<clus scale="  107.384">  1  3  2 -1</clus>
</clustering>
</event>
<event>
 6    0  0.4582113E+002  0.6374249E+02  0.7546771E-02  0.1382765E+00
         21   -1    0    0  504  501  0.00000000000E+00  0.00000000000E+00  0.15405131136E+02  0.15405131136E+02  0.00000000000E+00 0. -1.
         21   -1    0    0  506  502 -0.00000000000E+00 -0.00000000000E+00 -0.12697480993E+04  0.12697480993E+04  0.00000000000E+00 0. -1.
         21    1    1    2  503  502 -0.36476705833E+02  0.17079828984E+02 -0.22699382973E+03  0.23053951800E+03  0.00000000000E+00 0. -1.
         21    1    1    2  504  503 -0.58142878126E+02 -0.69583521023E+02 -0.42921355512E+03  0.43868751586E+03  0.00000000000E+00 0. -1.
         21    1    1    2  505  501  0.29561203979E+02  0.48198264853E+02 -0.11225618105E+03  0.12569163735E+03  0.00000000000E+00 0. -1.
         21    1    1    2  506  505  0.65058379981E+02  0.43054271861E+01 -0.48587940226E+03  0.49023455922E+03  0.00000000000E+00 0. -1.
<scales pt_clust_3="40.27742" pt_clust_4="63.74249" pt_clust_5="14000.00000" pt_clust_6="49.51205"></scales>
<clustering>
<clus scale="   40.277">  2  3  1 -1</clus>
<clus scale="   49.512">  2  6  1 -1</clus>
<clus scale="   63.742">  2  4  1 -1</clus>
<clus scale="   63.742">  1  3  2 -1</clus>
</clustering>
</event>
<event>
 6    0  0.4582113E+002  0.8253085E+02  0.7546771E-02  0.1322019E+00
         21   -1    0    0  503  501  0.00000000000E+00  0.00000000000E+00  0.67310370885E+03  0.67310370885E+03  0.00000000000E+00 0. -1.
         21   -1    0    0  504  502 -0.00000000000E+00 -0.00000000000E+00 -0.28766705959E+03  0.28766705959E+03  0.00000000000E+00 0. -1.
         21    1    1    2  503  502  0.30208469084E+02  0.12070749917E+02  0.44997478482E+02  0.55525018484E+02  0.00000000000E+00 0.  1.
         21    1    1    2  504  505 -0.73430258257E+02  0.35723952959E+02 -0.25677335917E+03  0.26944528502E+03  0.00000000000E+00 0. -1.
         21    1    1    2  505  506  0.80373037244E+02 -0.76466308456E+02  0.15230257079E+03  0.18842238326E+03  0.00000000000E+00 0. -1.
         21    1    1    2  506  501 -0.37151248070E+02  0.28671605580E+02  0.44490995916E+03  0.44737808167E+03  0.00000000000E+00 0. -1.
<scales pt_clust_3="32.53083" pt_clust_4="82.53085" pt_clust_5="14000.00000" pt_clust_6="40.41380"></scales>
<clustering>
<clus scale="   32.531">  1  3  2 -1</clus>
<clus scale="   40.414">  1  6  2 -1</clus>
<clus scale="   82.531">  2  4  1 -1</clus>
<clus scale="   32.531">  1  3  2 -1</clus>
</clustering>
</event>
<event>
 6    0  0.4582113E+002  0.9137498E+02  0.7546771E-02  0.1299556E+00
         21   -1    0    0  506  501  0.00000000000E+00  0.00000000000E+00  0.12246326385E+04  0.12246326385E+04  0.00000000000E+00 0.  1.
         21   -1    0    0  505  502 -0.00000000000E+00 -0.00000000000E+00 -0.16568827930E+03  0.16568827930E+03  0.00000000000E+00 0.  1.
         21    1    1    2  503  501  0.76766793935E+01  0.61561847005E+02  0.61501824842E+01  0.62342739415E+02  0.00000000000E+00 0.  1.
         21    1    1    2  504  502  0.33227341041E+02 -0.14923545857E+03  0.44767983938E+03  0.47306713781E+03  0.00000000000E+00 0.  1.
         21    1    1    2  505  503  0.10663333306E+02  0.32360985519E+02 -0.12057267073E+03  0.12529448906E+03  0.00000000000E+00 0.  1.
         21    1    1    2  506  504 -0.51567353740E+02  0.55312626045E+02  0.72568700807E+03  0.72961655152E+03  0.00000000000E+00 0.  1.
<scales pt_clust_3="91.37498" pt_clust_4="14000.00000" pt_clust_5="34.07257" pt_clust_6="76.38786"></scales>
<clustering>
<clus scale="   34.073">  2  5  1 -1</clus>
<clus scale="   76.388">  1  6  2 -1</clus>
<clus scale="   91.375">  2  3  1 -1</clus>
<clus scale="   76.388">  1  3  2 -1</clus>
</clustering>
</event>
<event>
 6    0  0.4582113E+002  0.9455089E+02  0.7546771E-02  0.1292191E+00
         21   -1    0    0  505  501  0.00000000000E+00  0.00000000000E+00  0.54737726002E+02  0.54737726002E+02  0.00000000000E+00 0.  1.
         21   -1    0    0  503  502 -0.00000000000E+00 -0.00000000000E+00 -0.57963488116E+03  0.57963488116E+03  0.00000000000E+00 0. -1.
         21    1    1    2  503  501 -0.56796267636E-01 -0.41063084378E+02 -0.29036271907E+03  0.29325192028E+03  0.00000000000E+00 0. -1.
         21    1    1    2  504  506 -0.37801271766E+02 -0.59884670722E+02 -0.41112348652E+02  0.81886110826E+02  0.00000000000E+00 0.  1.
         21    1    1    2  505  504  0.22376635290E+02 -0.31590827787E+02 -0.35982487423E+02  0.52852943232E+02  0.00000000000E+00 0.  1.
         21    1    1    2  506  502  0.15481432743E+02  0.13253858289E+03 -0.15743960001E+03  0.20638163282E+03  0.00000000000E+00 0. -1.
<scales pt_clust_3="42.05358" pt_clust_4="14000.00000" pt_clust_5="38.71297" pt_clust_6="94.55089"></scales>
<clustering>
<clus scale="   38.713">  1  5  2 -1</clus>
<clus scale="   42.054">  2  3  1 -1</clus>
<clus scale="   94.551">  2  6  1 -1</clus>
<clus scale="   38.713">  1  3  2 -1</clus>
</clustering>
</event>
<event>
 6    0  0.4582113E+002  0.9463156E+02  0.7546771E-02  0.1292008E+00
         21   -1    0    0  505  501  0.00000000000E+00  0.00000000000E+00  0.54288644319E+03  0.54288644319E+03  0.00000000000E+00 0.  1.
         21   -1    0    0  504  502 -0.00000000000E+00 -0.00000000000E+00 -0.21153565362E+03  0.21153565362E+03  0.00000000000E+00 0.  1.
         21    1    1    2  503  501 -0.34364782122E+02  0.19288336816E+02  0.13208640481E+03  0.13783974943E+03  0.00000000000E+00 0.  1.
         21    1    1    2  504  503  0.69570802262E+02  0.58353329670E+02 -0.12506369635E+03  0.15455140166E+03  0.00000000000E+00 0.  1.
         21    1    1    2  505  506  0.29675028062E+01  0.39408451222E+02  0.33604148832E+03  0.33835737611E+03  0.00000000000E+00 0.  1.
         21    1    1    2  506  502 -0.38173522946E+02 -0.11705011771E+03 -0.11713407200E+02  0.12367356960E+03  0.00000000000E+00 0.  1.
<scales pt_clust_3="39.40784" pt_clust_4="14000.00000" pt_clust_5="60.91858" pt_clust_6="94.63156"></scales>
<clustering>
<clus scale="   39.408">  1  3  2 -1</clus>
<clus scale="   60.919">  1  5  2 -1</clus>
<clus scale="   94.632">  1  6  2 -1</clus>
<clus scale="   39.408">  1  3  2 -1</clus>
</clustering>
</event>
<event>
 6    0  0.4582113E+002  0.6941102E+02  0.7546771E-02  0.1362107E+00
         21   -1    0    0  503  501  0.00000000000E+00  0.00000000000E+00  0.46627820177E+03  0.46627820177E+03  0.00000000000E+00 0. -1.
         21   -1    0    0  505  502 -0.00000000000E+00 -0.00000000000E+00 -0.64786237077E+03  0.64786237077E+03  0.00000000000E+00 0. -1.
         21    1    1    2  503  504 -0.34084491312E+02  0.12671429825E+02  0.78520580289E+02  0.86532070418E+02  0.00000000000E+00 0. -1.
         21    1    1    2  504  502  0.31202634362E+02  0.59727204645E+02 -0.55461091988E+03  0.55868973126E+03  0.00000000000E+00 0. -1.
         21    1    1    2  505  506 -0.72275732423E+02 -0.78634347788E+02 -0.48801371048E+02  0.11742536338E+03  0.00000000000E+00 0. -1.
         21    1    1    2  506  501  0.75157589373E+02  0.62357133180E+01  0.34330754163E+03  0.35149340748E+03  0.00000000000E+00 0. -1.
<scales pt_clust_3="36.36369" pt_clust_4="69.41102" pt_clust_5="14000.00000" pt_clust_6="47.70934"></scales>
<clustering>
<clus scale="   36.364">  1  3  2 -1</clus>
<clus scale="   47.709">  1  6  2 -1</clus>
<clus scale="   69.411">  2  4  1 -1</clus>
<clus scale="   36.364">  1  3  2 -1</clus>
</clustering>
</event>
<event>
 6    0  0.4582113E+002  0.9157200E+02  0.7546771E-02  0.1299089E+00
         21   -1    0    0  506  501  0.00000000000E+00  0.00000000000E+00  0.26804923248E+02  0.26804923248E+02  0.00000000000E+00 0.  1.
         21   -1    0    0  504  502 -0.00000000000E+00 -0.00000000000E+00 -0.10345134337E+04  0.10345134337E+04  0.00000000000E+00 0.  1.
         21    1    1    2  503  501 -0.39160255303E+02  0.10625881811E+03 -0.32000097865E+03  0.33944821160E+03  0.00000000000E+00 0.  1.
         21    1    1    2  504  503  0.48663778602E+02 -0.21196485620E+02 -0.47108603700E+03  0.47406698747E+03  0.00000000000E+00 0.  1.
         21    1    1    2  505  502  0.26975256689E+02 -0.73796451904E+02 -0.17187121846E+03  0.18897961933E+03  0.00000000000E+00 0.  1.
         21    1    1    2  506  505 -0.36478779988E+02 -0.11265880588E+02 -0.44750276346E+02  0.58823538553E+02  0.00000000000E+00 0.  1.
<scales pt_clust_3="14000.00000" pt_clust_4="50.93192" pt_clust_5="91.57200" pt_clust_6="38.17881"></scales>
<clustering>
<clus scale="   38.179">  1  6  2 -1</clus>
<clus scale="   50.932">  2  4  1 -1</clus>
<clus scale="   91.572">  1  5  2 -1</clus>
<clus scale="   38.179">  1  3  2 -1</clus>
</clustering>
</event>
<event>
 6    0  0.4582113E+002  0.1073806E+03  0.7546771E-02  0.1265499E+00
         21   -1    0    0  504  501  0.00000000000E+00  0.00000000000E+00  0.78964851277E+03  0.78964851277E+03  0.00000000000E+00 0.  1.
         21   -1    0    0  505  502 -0.00000000000E+00 -0.00000000000E+00 -0.19267023878E+03  0.19267023878E+03  0.00000000000E+00 0.  1.
         21    1    1    2  503  506 -0.45478605020E+02  0.44516936746E+02  0.20638969122E+03  0.21597862351E+03  0.00000000000E+00 0.  1.
         21    1    1    2  504  502  0.54721138926E+02 -0.96374539342E+02 -0.95974806233E+02  0.14660701999E+03  0.00000000000E+00 0.  1.
         21    1    1    2  505  503  0.28873546977E+02  0.17932882895E+02 -0.60982351258E+02  0.69814877848E+02  0.00000000000E+00 0.  1.
         21    1    1    2  506  501 -0.38116080884E+02  0.33924719701E+02  0.54754574026E+03  0.54991823020E+03  0.00000000000E+00 0.  1.
<scales pt_clust_3="14000.00000" pt_clust_4="107.38062" pt_clust_5="33.98926" pt_clust_6="50.93769"></scales>
<clustering>
<clus scale="   33.989">  2  5  1 -1</clus>
<clus scale="   50.938">  1  6  2 -1</clus>
<clus scale="  107.381">  2  4  1 -1</clus>
<clus scale="   50.938">  1  3  2 -1</clus>
</clustering>
</event>
<event>
 6    0  0.4582113E+002  0.1050136E+03  0.7546771E-02  0.1270093E+00
         21   -1    0    0  504  501  0.00000000000E+00  0.00000000000E+00  0.20918247006E+03  0.20918247006E+03  0.00000000000E+00 0.  1.
         21   -1    0    0  505  502 -0.00000000000E+00 -0.00000000000E+00 -0.12643661852E+04  0.12643661852E+04  0.00000000000E+00 0. -1.
         21    1    1    2  503  506 -0.67351535185E+02  0.18325927475E+02 -0.84918506771E+03  0.85204891182E+03  0.00000000000E+00 0. -1.
         21    1    1    2  504  502  0.33027254674E+02  0.62878878617E+02  0.11395607417E+03  0.13427784541E+03  0.00000000000E+00 0.  1.
         21    1    1    2  505  503 -0.29054072892E+02 -0.20954675345E+02 -0.37965406830E+03  0.38134033244E+03  0.00000000000E+00 0. -1.
         21    1    1    2  506  501  0.63378353403E+02 -0.60250130747E+02  0.59699346703E+02  0.10588156559E+03  0.00000000000E+00 0.  1.
<scales pt_clust_3="31.24680" pt_clust_4="71.02502" pt_clust_5="31.24680" pt_clust_6="95.52700"></scales>
<clustering>
<clus scale="   31.247">  3  5 -1 -1</clus>
<clus scale="   71.025">  1  4  2 -1</clus>
<clus scale="   95.527">  1  6  2 -1</clus>
<clus scale="   71.025">  1  3  2 -1</clus>
</clustering>
</event>
<event>
 6    0  0.4582113E+002  0.1057095E+03  0.7546771E-02  0.1268728E+00
         21   -1    0    0  505  501  0.00000000000E+00  0.00000000000E+00  0.28475512816E+03  0.28475512816E+03  0.00000000000E+00 0.  1.
         21   -1    0    0  506  502 -0.00000000000E+00 -0.00000000000E+00 -0.12458307901E+03  0.12458307901E+03  0.00000000000E+00 0. -1.
         21    1    1    2  503  501 -0.39444598593E+02 -0.97444611451E+01  0.78907726477E+02  0.88753930498E+02  0.00000000000E+00 0.  1.
         21    1    1    2  504  502 -0.81375078181E+02  0.60041203812E+02 -0.23147820082E+02  0.10374329414E+03  0.00000000000E+00 0. -1.
         21    1    1    2  505  504  0.83340539354E+02 -0.85841814094E+02  0.11289097875E+03  0.16449570095E+03  0.00000000000E+00 0.  1.
         21    1    1    2  506  503  0.37479137420E+02  0.35545071427E+02 -0.84788359876E+01  0.52345281585E+02  0.00000000000E+00 0.  1.
<scales pt_clust_3="40.63042" pt_clust_4="14000.00000" pt_clust_5="105.70948" pt_clust_6="47.84800"></scales>
<clustering>
<clus scale="   40.630">  1  3  2 -1</clus>
<clus scale="   47.848">  2  6  1 -1</clus>
<clus scale="  105.709">  1  5  2 -1</clus>
<clus scale="   40.630">  1  3  2 -1</clus>
</clustering>
</event>
<event>
 6    0  0.4582113E+002  0.1693237E+03  0.7546771E-02  0.1178555E+00
         21   -1    0    0  504  501  0.00000000000E+00  0.00000000000E+00  0.27163735296E+03  0.27163735296E+03  0.00000000000E+00 0. -1.
         21   -1    0    0  506  502 -0.00000000000E+00 -0.00000000000E+00 -0.27208140956E+03  0.27208140956E+03  0.00000000000E+00 0. -1.
         21    1    1    2  503  505 -0.39921299877E+02  0.19300351220E+03  0.12909302050E+03  0.23560363717E+03  0.00000000000E+00 0. -1.
         21    1    1    2  504  503  0.12950725331E+02 -0.40566622612E+02  0.21374476560E+02  0.47647039834E+02  0.00000000000E+00 0. -1.
         21    1    1    2  505  502  0.16186101624E+02  0.26903315229E+02 -0.33099523358E+02  0.45621888416E+02  0.00000000000E+00 0. -1.
         21    1    1    2  506  501  0.10784472922E+02 -0.17934020482E+03 -0.11781203031E+03  0.21484619710E+03  0.00000000000E+00 0. -1.
<scales pt_clust_3="169.32368" pt_clust_4="41.43632" pt_clust_5="31.39711" pt_clust_6="14000.00000"></scales>
<clustering>
<clus scale="   31.397">  2  5  1 -1</clus>
<clus scale="   41.436">  1  4  2 -1</clus>
<clus scale="  169.324">  1  3  2 -1</clus>
<clus scale="   41.436">  1  3  2 -1</clus>
</clustering>
</event>
<event>
 6    0  0.4582113E+002  0.1363308E+03  0.7546771E-02  0.1218353E+00
         21   -1    0    0  504  501  0.00000000000E+00  0.00000000000E+00  0.60240021987E+02  0.60240021987E+02  0.00000000000E+00 0. -1.
         21   -1    0    0  503  502 -0.00000000000E+00 -0.00000000000E+00 -0.12413802759E+04  0.12413802759E+04  0.00000000000E+00 0.  1.
         21    1    1    2  503  501 -0.26492947146E+02  0.15201193205E+02 -0.14005908038E+03  0.14335096274E+03  0.00000000000E+00 0.  1.
         21    1    1    2  504  505  0.31452800929E+02  0.19912783568E+02 -0.58860931057E+02  0.69644862270E+02  0.00000000000E+00 0.  1.
         21    1    1    2  505  506  0.10703468720E+03  0.15344414794E+02 -0.99060814087E+01  0.10858179303E+03  0.00000000000E+00 0. -1.
         21    1    1    2  506  502 -0.11199454098E+03 -0.50458391567E+02 -0.97231416110E+03  0.98004267987E+03  0.00000000000E+00 0.  1.
<scales pt_clust_3="30.54427" pt_clust_4="36.42774" pt_clust_5="14000.00000" pt_clust_6="136.33079"></scales>
<clustering>
<clus scale="   30.544">  2  3  1 -1</clus>
<clus scale="   36.428">  1  4  2 -1</clus>
<clus scale="  136.331">  2  6  1 -1</clus>
<clus scale="   36.428">  1  3  2 -1</clus>
</clustering>
</event>
<event>
 6    0  0.4582113E+002  0.1406282E+03  0.7546771E-02  0.1212486E+00
         21   -1    0    0  505  501  0.00000000000E+00  0.00000000000E+00  0.28948433327E+04  0.28948433327E+04  0.00000000000E+00 0. -1.
         21   -1    0    0  506  502 -0.00000000000E+00 -0.00000000000E+00 -0.13228410111E+02  0.13228410111E+02  0.00000000000E+00 0. -1.
         21    1    1    2  503  501  0.34321355079E+02 -0.13595827389E+02  0.74629677318E+03  0.74720925824E+03  0.00000000000E+00 0.  1.
         21    1    1    2  504  503  0.33408665057E+02 -0.95742795659E+02  0.13230869937E+04  0.13269672244E+04  0.00000000000E+00 0. -1.
         21    1    1    2  505  502  0.42419678267E+02  0.30775799072E+02  0.27002826439E+03  0.27506697818E+03  0.00000000000E+00 0. -1.
         21    1    1    2  506  504 -0.11014969840E+03  0.78562823976E+02  0.54220289132E+03  0.55882828196E+03  0.00000000000E+00 0. -1.
<scales pt_clust_3="34.74783" pt_clust_4="34.74783" pt_clust_5="52.40781" pt_clust_6="128.29527"></scales>
<clustering>
<clus scale="   34.748">  3  4 -1 -1</clus>
<clus scale="   52.408">  2  5  1 -1</clus>
<clus scale="  128.295">  2  6  1 -1</clus>
<clus scale="  140.628">  1  3  2 -1</clus>
</clustering>
</event>
<event>
 6    0  0.4582113E+002  0.1369157E+03  0.7546771E-02  0.1217540E+00
         21   -1    0    0  506  501  0.00000000000E+00  0.00000000000E+00  0.12073651970E+03  0.12073651970E+03  0.00000000000E+00 0. -1.
         21   -1    0    0  503  502 -0.00000000000E+00 -0.00000000000E+00 -0.31298501646E+03  0.31298501646E+03  0.00000000000E+00 0. -1.
         21    1    1    2  503  501  0.67876858062E+01 -0.15983244000E+03 -0.61143291790E+02  0.17126290808E+03  0.00000000000E+00 0. -1.
         21    1    1    2  504  505  0.17382556708E+02  0.44803543972E+02 -0.23190714668E+02  0.53360285578E+02  0.00000000000E+00 0. -1.
         21    1    1    2  505  502 -0.43230764505E+02  0.47891599661E+02 -0.12189964184E+03  0.13792036470E+03  0.00000000000E+00 0.  1.
         21    1    1    2  506  504  0.19060521991E+02  0.67137296362E+02  0.13985151539E+02  0.71177977809E+02  0.00000000000E+00 0. -1.
<scales pt_clust_3="131.07148" pt_clust_4="32.84003" pt_clust_5="64.51747" pt_clust_6="32.84003"></scales>
<clustering>
<clus scale="   32.840">  4  6 -1 -1</clus>
<clus scale="   64.517">  2  5  1 -1</clus>
<clus scale="  131.071">  2  3  1 -1</clus>
<clus scale="  136.916">  1  3  2 -1</clus>
</clustering>
</event>
<event>
 6    0  0.4582113E+002  0.7624550E+02  0.7546771E-02  0.1340057E+00
         21   -1    0    0  503  501  0.00000000000E+00  0.00000000000E+00  0.22389083315E+04  0.22389083315E+04  0.00000000000E+00 0.  1.
         21   -1    0    0  504  502 -0.00000000000E+00 -0.00000000000E+00 -0.18892710835E+02  0.18892710835E+02  0.00000000000E+00 0.  1.
         21    1    1    2  503  505 -0.22763720742E+02 -0.56952659373E+02  0.13243945906E+04  0.13258140232E+04  0.00000000000E+00 0.  1.
         21    1    1    2  504  506  0.27367297815E+02  0.67285158039E+02  0.18318151498E+03  0.19705767915E+03  0.00000000000E+00 0.  1.
         21    1    1    2  505  502 -0.62920115074E+02 -0.56254122313E+02  0.19909062762E+03  0.21624186727E+03  0.00000000000E+00 0.  1.
         21    1    1    2  506  501  0.58316538001E+02  0.45921623647E+02  0.51334888747E+03  0.51868747276E+03  0.00000000000E+00 0.  1.
<scales pt_clust_3="61.33345" pt_clust_4="14000.00000" pt_clust_5="76.24550" pt_clust_6="47.49904"></scales>
<clustering>
<clus scale="   61.333">  1  3  2 -1</clus>
<clus scale="   47.499">  1  6  2 -1</clus>
<clus scale="   76.245">  1  5  2 -1</clus>
<clus scale="   61.333">  1  3  2 -1</clus>
</clustering>
</event>
<event>
 6    0  0.4582113E+002  0.8489333E+02  0.7546771E-02  0.1315712E+00
         21   -1    0    0  506  501  0.00000000000E+00  0.00000000000E+00  0.47639126202E+03  0.47639126202E+03  0.00000000000E+00 0. -1.
         21   -1    0    0  505  502 -0.00000000000E+00 -0.00000000000E+00 -0.11041982288E+03  0.11041982288E+03  0.00000000000E+00 0. -1.
         21    1    1    2  503  504 -0.19133996171E+02  0.97315656397E+02 -0.33820295213E+01  0.99236509981E+02  0.00000000000E+00 0. -1.
         21    1    1    2  504  501 -0.26329146936E+01 -0.37085982686E+02  0.17453863637E+03  0.17845458229E+03  0.00000000000E+00 0. -1.
         21    1    1    2  505  503 -0.43382140527E+02 -0.31114692013E+02 -0.38055365786E+02  0.65561765083E+02  0.00000000000E+00 0. -1.
         21    1    1    2  506  502  0.65149051392E+02 -0.29114981698E+02  0.23287019807E+03  0.24355822755E+03  0.00000000000E+00 0. -1.
<scales pt_clust_3="84.89333" pt_clust_4="37.17933" pt_clust_5="54.49179" pt_clust_6="14000.00000"></scales>
<clustering>
<clus scale="   37.179">  1  4  2 -1</clus>
<clus scale="   54.492">  2  5  1 -1</clus>
<clus scale="   84.893">  2  3  1 -1</clus>
<clus scale="   37.179">  1  3  2 -1</clus>
</clustering>
</event>
<event>
 6    0  0.4582113E+002  0.8441852E+02  0.7546771E-02  0.1316960E+00
         21   -1    0    0  505  501  0.00000000000E+00  0.00000000000E+00  0.82537346061E+03  0.82537346061E+03  0.00000000000E+00 0. -1.
         21   -1    0    0  504  502 -0.00000000000E+00 -0.00000000000E+00 -0.49057739085E+02  0.49057739085E+02  0.00000000000E+00 0. -1.
         21    1    1    2  503  502  0.41775920202E+01  0.30543808101E+02 -0.12585386930E+02  0.33298174914E+02  0.00000000000E+00 0. -1.
         21    1    1    2  504  506  0.76252681833E+01 -0.48733087995E+02  0.27405927706E+02  0.56428215051E+02  0.00000000000E+00 0. -1.
         21    1    1    2  505  503  0.31507616120E+02  0.87443800816E+02  0.24981251937E+03  0.26654351054E+03  0.00000000000E+00 0. -1.
         21    1    1    2  506  501 -0.43310476323E+02 -0.69254520923E+02  0.51168266138E+03  0.51816129920E+03  0.00000000000E+00 0. -1.
<scales pt_clust_3="30.82818" pt_clust_4="33.28265" pt_clust_5="84.41852" pt_clust_6="14000.00000"></scales>
<clustering>
<clus scale="   30.828">  2  3  1 -1</clus>
<clus scale="   33.283">  2  4  1 -1</clus>
<clus scale="   84.419">  2  5  1 -1</clus>
<clus scale="   84.419">  1  3  2 -1</clus>
</clustering>
</event>
<event>
 6    0  0.4582113E+002  0.3045893E+03  0.7546771E-02  0.1082969E+00
         21   -1    0    0  503  501  0.00000000000E+00  0.00000000000E+00  0.26729232902E+03  0.26729232902E+03  0.00000000000E+00 0.  1.
         21   -1    0    0  504  502 -0.00000000000E+00 -0.00000000000E+00 -0.56378912488E+03  0.56378912488E+03  0.00000000000E+00 0.  1.
         21    1    1    2  503  506 -0.28577273062E+03  0.12061276264E+03  0.86674169436E+02  0.32206506132E+03  0.00000000000E+00 0.  1.
         21    1    1    2  504  501  0.29632189363E+02 -0.31892400382E+02 -0.11845892635E+03  0.12620502795E+03  0.00000000000E+00 0.  1.
         21    1    1    2  505  502  0.17455422817E+03 -0.69943257706E+02 -0.21421211234E+03  0.28504046544E+03  0.00000000000E+00 0.  1.
         21    1    1    2  506  505  0.81586313091E+02 -0.18777104552E+02 -0.50499926612E+02  0.97770899182E+02  0.00000000000E+00 0.  1.
<scales pt_clust_3="299.63617" pt_clust_4="43.53380" pt_clust_5="36.50223" pt_clust_6="36.50223"></scales>
<clustering>
<clus scale="   36.502">  5  6 -1 -1</clus>
<clus scale="   43.534">  2  4  1 -1</clus>
<clus scale="  299.636">  1  3  2 -1</clus>
<clus scale="  299.636">  1  3  2 -1</clus>
</clustering>
</event>
<event>
 6    0  0.4582113E+002  0.9410043E+02  0.7546771E-02  0.1293215E+00
         21   -1    0    0  505  501  0.00000000000E+00  0.00000000000E+00  0.22775106050E+03  0.22775106050E+03  0.00000000000E+00 0.  1.
         21   -1    0    0  506  502 -0.00000000000E+00 -0.00000000000E+00 -0.12050287257E+04  0.12050287257E+04  0.00000000000E+00 0. -1.
         21    1    1    2  503  502 -0.25670421688E+02  0.42358194300E+02 -0.10726347020E+04  0.10737776264E+04  0.00000000000E+00 0. -1.
         21    1    1    2  504  501  0.10979561506E+03 -0.34087930447E+02  0.15478443682E+03  0.19280893644E+03  0.00000000000E+00 0.  1.
         21    1    1    2  505  503 -0.27522169879E+02 -0.45894386015E+02 -0.79041204915E+02  0.95453007166E+02  0.00000000000E+00 0. -1.
         21    1    1    2  506  504 -0.56603023498E+02  0.37624122163E+02  0.19613804874E+02  0.70740216138E+02  0.00000000000E+00 0.  1.
<scales pt_clust_3="49.52966" pt_clust_4="94.10043" pt_clust_5="47.96143" pt_clust_6="14000.00000"></scales>
<clustering>
<clus scale="   49.530">  2  3  1 -1</clus>
<clus scale="   47.961">  2  5  1 -1</clus>
<clus scale="   94.100">  1  4  2 -1</clus>
<clus scale="   94.100">  1  3  2 -1</clus>
</clustering>
</event>
<event>
 6    0  0.4582113E+002  0.9480922E+02  0.7546771E-02  0.1291606E+00
         21   -1    0    0  503  501  0.00000000000E+00  0.00000000000E+00  0.68118533482E+02  0.68118533482E+02  0.00000000000E+00 0.  1.
         21   -1    0    0  505  502 -0.00000000000E+00 -0.00000000000E+00 -0.25761268963E+04  0.25761268963E+04  0.00000000000E+00 0.  1.
         21    1    1    2  503  504 -0.99975370700E+02  0.32000995020E+02 -0.16523919449E+02  0.10626466178E+03  0.00000000000E+00 0.  1.
         21    1    1    2  504  502  0.46564043110E+02 -0.52673336084E+02 -0.23012709839E+03  0.24062662334E+03  0.00000000000E+00 0.  1.
         21    1    1    2  505  506  0.26148890547E+02 -0.28538115059E+02 -0.22348140069E+04  0.22351491749E+04  0.00000000000E+00 0.  1.
         21    1    1    2  506  501  0.27262437043E+02  0.49210456123E+02 -0.26543338002E+02  0.62204969719E+02  0.00000000000E+00 0.  1.
<scales pt_clust_3="94.80922" pt_clust_4="14000.00000" pt_clust_5="38.70644" pt_clust_6="54.86682"></scales>
<clustering>
<clus scale="   38.706">  2  5  1 -1</clus>
<clus scale="   54.867">  1  6  2 -1</clus>
<clus scale="   94.809">  1  3  2 -1</clus>
<clus scale="   54.867">  1  3  2 -1</clus>
</clustering>
</event>
<event>
 6    0  0.4582113E+002  0.1090192E+03  0.7546771E-02  0.1262397E+00
         21   -1    0    0  504  501  0.00000000000E+00  0.00000000000E+00  0.67226157696E+02  0.67226157696E+02  0.00000000000E+00 0.  1.
         21   -1    0    0  503  502 -0.00000000000E+00 -0.00000000000E+00 -0.44720716015E+03  0.44720716015E+03  0.00000000000E+00 0. -1.
         21    1    1    2  503  501  0.41452927941E+02 -0.35012960959E+02 -0.57805683615E+02  0.79282720237E+02  0.00000000000E+00 0.  1.
         21    1    1    2  504  505  0.20650033451E+02  0.38555785203E+02  0.53079505274E+01  0.44058447464E+02  0.00000000000E+00 0.  1.
         21    1    1    2  505  506  0.44654684976E+02  0.87687263917E+01  0.95703695657E+00  0.45517550160E+02  0.00000000000E+00 0.  1.
         21    1    1    2  506  502 -0.10675764637E+03 -0.12311550636E+02 -0.32844030632E+03  0.34557459998E+03  0.00000000000E+00 0. -1.
<scales pt_clust_3="54.26097" pt_clust_4="37.71896" pt_clust_5="37.71896" pt_clust_6="102.00438"></scales>
<clustering>
<clus scale="   37.719">  4  5 -1 -1</clus>
<clus scale="   54.261">  1  3  2 -1</clus>
<clus scale="  102.004">  2  6  1 -1</clus>
<clus scale="   54.261">  1  3  2 -1</clus>
</clustering>
</event>
<event>
 6    0  0.4582113E+002  0.2407576E+03  0.7546771E-02  0.1119289E+00
         21   -1    0    0  503  501  0.00000000000E+00  0.00000000000E+00  0.91212562086E+03  0.91212562086E+03  0.00000000000E+00 0. -1.
         21   -1    0    0  504  502 -0.00000000000E+00 -0.00000000000E+00 -0.21593850203E+03  0.21593850203E+03  0.00000000000E+00 0.  1.
         21    1    1    2  503  502  0.96449083137E+02 -0.15743527709E+03 -0.46134839708E+01  0.18468778071E+03  0.00000000000E+00 0.  1.
         21    1    1    2  504  506  0.10309261520E+03  0.13482199836E+02 -0.74389287973E+02  0.12784218078E+03  0.00000000000E+00 0.  1.
         21    1    1    2  505  501 -0.13990187109E+03  0.12508389580E+03  0.63206546905E+03  0.65933699403E+03  0.00000000000E+00 0. -1.
         21    1    1    2  506  505 -0.59639827252E+02  0.18869181452E+02  0.14312442172E+03  0.15619716738E+03  0.00000000000E+00 0. -1.
<scales pt_clust_3="233.08150" pt_clust_4="103.97046" pt_clust_5="34.81917" pt_clust_6="34.81917"></scales>
<clustering>
<clus scale="   34.819">  5  6 -1 -1</clus>
<clus scale="  103.970">  2  4  1 -1</clus>
<clus scale="  233.081">  2  3  1 -1</clus>
<clus scale="  240.758">  1  3  2 -1</clus>
</clustering>
</event>
<event>
 6    0  0.4582113E+002  0.2666198E+03  0.7546771E-02  0.1103230E+00
         21   -1    0    0  506  501  0.00000000000E+00  0.00000000000E+00  0.21235867766E+03  0.21235867766E+03  0.00000000000E+00 0. -1.
         21   -1    0    0  505  502 -0.00000000000E+00 -0.00000000000E+00 -0.16818172783E+04  0.16818172783E+04  0.00000000000E+00 0. -1.
         21    1    1    2  503  504 -0.17674173004E+03 -0.19219163692E+03 -0.10659740097E+04  0.10974861520E+04  0.00000000000E+00 0. -1.
         21    1    1    2  504  502  0.35072468162E+02 -0.42127709669E+02 -0.43644959080E+03  0.43987846874E+03  0.00000000000E+00 0.  1.
         21    1    1    2  505  501  0.94584483418E+02 -0.18092523435E+01 -0.43583574201E+02  0.10415865705E+03  0.00000000000E+00 0. -1.
         21    1    1    2  506  503  0.47084778457E+02  0.23612859893E+03  0.76548574083E+02  0.25265267818E+03  0.00000000000E+00 0. -1.
<scales pt_clust_3="266.61984" pt_clust_4="54.81626" pt_clust_5="96.76384" pt_clust_6="14000.00000"></scales>
<clustering>
<clus scale="   54.816">  2  4  1 -1</clus>
<clus scale="   96.764">  1  5  2 -1</clus>
<clus scale="  266.620">  2  3  1 -1</clus>
<clus scale="   96.764">  1  3  2 -1</clus>
</clustering>
</event>
<event>
 6    0  0.4582113E+002  0.1875636E+03  0.7546771E-02  0.1160677E+00
         21   -1    0    0  506  501  0.00000000000E+00  0.00000000000E+00  0.17801085429E+04  0.17801085429E+04  0.00000000000E+00 0.  1.
         21   -1    0    0  505  502 -0.00000000000E+00 -0.00000000000E+00 -0.13619580249E+03  0.13619580249E+03  0.00000000000E+00 0. -1.
         21    1    1    2  503  504  0.11766957489E+03 -0.31899286277E+02  0.97900025188E+02  0.15635890845E+03  0.00000000000E+00 0. -1.
         21    1    1    2  504  501 -0.20007721951E+03  0.26998274425E+02  0.16134651569E+04  0.16260472359E+04  0.00000000000E+00 0.  1.
         21    1    1    2  505  503  0.16649127038E+02 -0.34988177234E+02 -0.23366899706E+02  0.45247961050E+02  0.00000000000E+00 0. -1.
         21    1    1    2  506  502  0.65758517577E+02  0.39889189086E+02 -0.44085542022E+02  0.88650240018E+02  0.00000000000E+00 0. -1.
<scales pt_clust_3="14000.00000" pt_clust_4="187.56358" pt_clust_5="38.74746" pt_clust_6="78.48850"></scales>
<clustering>
<clus scale="   38.747">  2  5  1 -1</clus>
<clus scale="   78.488">  2  6  1 -1</clus>
<clus scale="  187.564">  1  4  2 -1</clus>
<clus scale="  187.564">  1  3  2 -1</clus>
</clustering>
</event>
<event>
 6    0  0.4582113E+002  0.7234987E+02  0.7546771E-02  0.1352280E+00
         21   -1    0    0  503  501  0.00000000000E+00  0.00000000000E+00  0.17383542100E+03  0.17383542100E+03  0.00000000000E+00 0.  1.
         21   -1    0    0  504  502 -0.00000000000E+00 -0.00000000000E+00 -0.16191482753E+03  0.16191482753E+03  0.00000000000E+00 0.  1.
         21    1    1    2  503  505  0.58617724500E+02  0.38999383395E+02  0.33366616190E+02  0.77912262236E+02  0.00000000000E+00 0.  1.
         21    1    1    2  504  506 -0.69143140063E+02  0.34235377272E+02 -0.68609258135E+02  0.10324759163E+03  0.00000000000E+00 0.  1.
         21    1    1    2  505  502  0.30577677764E+02  0.75644720458E+01 -0.28212567671E+02  0.42286695182E+02  0.00000000000E+00 0.  1.
         21    1    1    2  506  501 -0.20052262202E+02 -0.80799232712E+02  0.75375803086E+02  0.11230369948E+03  0.00000000000E+00 0.  1.
<scales pt_clust_3="72.34987" pt_clust_4="62.38814" pt_clust_5="31.49945" pt_clust_6="14000.00000"></scales>
<clustering>
<clus scale="   31.499">  2  5  1 -1</clus>
<clus scale="   62.388">  2  4  1 -1</clus>
<clus scale="   72.350">  2  3  1 -1</clus>
<clus scale="   72.350">  1  3  2 -1</clus>
</clustering>
</event>
<event>
 6    0  0.4582113E+002  0.1156089E+03  0.7546771E-02  0.1250522E+00
         21   -1    0    0  504  501  0.00000000000E+00  0.00000000000E+00  0.23644845763E+03  0.23644845763E+03  0.00000000000E+00 0.  1.
         21   -1    0    0  505  502 -0.00000000000E+00 -0.00000000000E+00 -0.40245200097E+03  0.40245200097E+03  0.00000000000E+00 0.  1.
         21    1    1    2  503  501  0.16015097758E+02 -0.27651558951E+02  0.86248739717E+02  0.91977916759E+02  0.00000000000E+00 0.  1.
         21    1    1    2  504  502 -0.12654594173E+03  0.51633578311E+02  0.95600260020E+02  0.16679122127E+03  0.00000000000E+00 0.  1.
         21    1    1    2  505  506  0.67519911240E+01  0.33668084422E+02 -0.87161010782E+02  0.93681220601E+02  0.00000000000E+00 0.  1.
         21    1    1    2  506  503  0.10377885284E+03 -0.57650103782E+02 -0.26069153230E+03  0.28645009997E+03  0.00000000000E+00 0.  1.
<scales pt_clust_3="31.95453" pt_clust_4="14000.00000" pt_clust_5="33.81146" pt_clust_6="115.60894"></scales>
<clustering>
<clus scale="   31.955">  1  3  2 -1</clus>
<clus scale="   33.811">  2  5  1 -1</clus>
<clus scale="  115.609">  2  6  1 -1</clus>
<clus scale="   31.955">  1  3  2 -1</clus>
</clustering>
</event>
<event>
 6    0  0.4582113E+002  0.1287583E+03  0.7546771E-02  0.1229310E+00
         21   -1    0    0  503  501  0.00000000000E+00  0.00000000000E+00  0.38218094188E+03  0.38218094188E+03  0.00000000000E+00 0. -1.
         21   -1    0    0  505  502 -0.00000000000E+00 -0.00000000000E+00 -0.23039454690E+03  0.23039454690E+03  0.00000000000E+00 0.  1.
         21    1    1    2  503  504  0.64550021629E+02 -0.76873820282E+01  0.11178782639E+03  0.12931480683E+03  0.00000000000E+00 0.  1.
         21    1    1    2  504  506  0.46766738781E+02 -0.23606828730E+02  0.22627948773E+03  0.23226454053E+03  0.00000000000E+00 0. -1.
         21    1    1    2  505  501 -0.10889929109E+03  0.64985925260E+02 -0.11119033468E+03  0.16865798709E+03  0.00000000000E+00 0.  1.
         21    1    1    2  506  502 -0.24174693152E+01 -0.33691714502E+02 -0.75090584460E+02  0.82338154330E+02  0.00000000000E+00 0.  1.
<scales pt_clust_3="49.89307" pt_clust_4="49.89307" pt_clust_5="116.18660" pt_clust_6="33.77833"></scales>
<clustering>
<clus scale="   33.778">  2  6  1 -1</clus>
<clus scale="   49.893">  3  4 -1 -1</clus>
<clus scale="  116.187">  2  5  1 -1</clus>
<clus scale="  128.758">  1  3  2 -1</clus>
</clustering>
</event>
<event>
 6    0  0.4582113E+002  0.8997871E+02  0.7546771E-02  0.1302903E+00
         21   -1    0    0  503  501  0.00000000000E+00  0.00000000000E+00  0.27749096986E+03  0.27749096986E+03  0.00000000000E+00 0. -1.
         21   -1    0    0  504  502 -0.00000000000E+00 -0.00000000000E+00 -0.30369656831E+03  0.30369656831E+03  0.00000000000E+00 0. -1.
         21    1    1    2  503  505 -0.43574471160E+01 -0.96355525876E+02  0.20122063097E+03  0.22314371387E+03  0.00000000000E+00 0. -1.
         21    1    1    2  504  501 -0.57436202993E+02  0.21190038202E+02  0.32543745386E+02  0.69332751979E+02  0.00000000000E+00 0. -1.
         21    1    1    2  505  506  0.14678141229E+02  0.70542835879E+02 -0.11044509623E+03  0.13187061388E+03  0.00000000000E+00 0. -1.
         21    1    1    2  506  502  0.47115508880E+02  0.46226517947E+01 -0.14952487859E+03  0.15684045844E+03  0.00000000000E+00 0. -1.
<scales pt_clust_3="89.97871" pt_clust_4="56.07059" pt_clust_5="14000.00000" pt_clust_6="47.34174"></scales>
<clustering>
<clus scale="   47.342">  2  6  1 -1</clus>
<clus scale="   56.071">  1  4  2 -1</clus>
<clus scale="   89.979">  1  3  2 -1</clus>
<clus scale="   56.071">  1  3  2 -1</clus>
</clustering>
</event>
<event>
 6    0  0.4582113E+002  0.8207591E+02  0.7546771E-02  0.1323261E+00
         21   -1    0    0  504  501  0.00000000000E+00  0.00000000000E+00  0.63530571750E+03  0.63530571750E+03  0.00000000000E+00 0. -1.
         21   -1    0    0  505  502 -0.00000000000E+00 -0.00000000000E+00 -0.19667523972E+03  0.19667523972E+03  0.00000000000E+00 0. -1.
         21    1    1    2  503  501  0.41337209685E+02  0.81317740998E+02  0.43046401753E+03  0.44002342017E+03  0.00000000000E+00 0. -1.
         21    1    1    2  504  506  0.33049021643E+02 -0.44273988353E+02  0.15066153661E+03  0.16047218604E+03  0.00000000000E+00 0. -1.
         21    1    1    2  505  503 -0.33913750153E+02 -0.94654288011E+02 -0.12212866466E+03  0.15819288043E+03  0.00000000000E+00 0. -1.
         21    1    1    2  506  502 -0.40472481175E+02  0.57610535366E+02 -0.20366411705E+02  0.73292470578E+02  0.00000000000E+00 0. -1.
<scales pt_clust_3="82.07591" pt_clust_4="55.24875" pt_clust_5="14000.00000" pt_clust_6="67.35966"></scales>
<clustering>
<clus scale="   55.249">  1  4  2 -1</clus>
<clus scale="   67.360">  2  6  1 -1</clus>
<clus scale="   82.076">  1  3  2 -1</clus>
<clus scale="   55.249">  1  3  2 -1</clus>
</clustering>
</event>
<event>
 6    0  0.4582113E+002  0.6332593E+02  0.7546771E-02  0.1384382E+00
         21   -1    0    0  503  501  0.00000000000E+00  0.00000000000E+00  0.13892994452E+04  0.13892994452E+04  0.00000000000E+00 0.  1.
         21   -1    0    0  505  502 -0.00000000000E+00 -0.00000000000E+00 -0.20185575413E+03  0.20185575413E+03  0.00000000000E+00 0. -1.
         21    1    1    2  503  506 -0.25793242703E+02 -0.32289858429E+02  0.76706657669E+03  0.76817905426E+03  0.00000000000E+00 0.  1.
         21    1    1    2  504  501  0.78414572855E+02  0.64736664932E+02  0.59229245488E+03  0.60095759678E+03  0.00000000000E+00 0.  1.
         21    1    1    2  505  504  0.21189902136E+02 -0.37318271083E+02 -0.13021073873E+03  0.13710033475E+03  0.00000000000E+00 0. -1.
         21    1    1    2  506  502 -0.73811232289E+02  0.48714645801E+01 -0.41704601775E+02  0.84918213526E+02  0.00000000000E+00 0. -1.
<scales pt_clust_3="41.32707" pt_clust_4="63.32593" pt_clust_5="43.00017" pt_clust_6="14000.00000"></scales>
<clustering>
<clus scale="   41.327">  1  3  2 -1</clus>
<clus scale="   43.000">  2  5  1 -1</clus>
<clus scale="   63.326">  1  4  2 -1</clus>
<clus scale="   41.327">  1  3  2 -1</clus>
</clustering>
</event>
<event>
 6    0  0.4582113E+002  0.1352319E+03  0.7546771E-02  0.1219893E+00
         21   -1    0    0  503  501  0.00000000000E+00  0.00000000000E+00  0.97918354447E+03  0.97918354447E+03  0.00000000000E+00 0. -1.
         21   -1    0    0  505  502 -0.00000000000E+00 -0.00000000000E+00 -0.74777178756E+02  0.74777178756E+02  0.00000000000E+00 0. -1.
         21    1    1    2  503  504 -0.11143174212E+03 -0.61904171402E+02  0.57181124318E+03  0.58584746941E+03  0.00000000000E+00 0. -1.
         21    1    1    2  504  506 -0.14295767330E+02  0.72242612665E+02  0.97685621013E+02  0.12233496884E+03  0.00000000000E+00 0. -1.
         21    1    1    2  505  501  0.17449615227E+03  0.39690013672E+02  0.19754471500E+03  0.26654852985E+03  0.00000000000E+00 0. -1.
         21    1    1    2  506  502 -0.48768642813E+02 -0.50028454935E+02  0.37364786520E+02  0.79229755122E+02  0.00000000000E+00 0. -1.
<scales pt_clust_3="14000.00000" pt_clust_4="65.90705" pt_clust_5="135.23194" pt_clust_6="69.86578"></scales>
<clustering>
<clus scale="   69.866">  2  6  1 -1</clus>
<clus scale="   65.907">  2  4  1 -1</clus>
<clus scale="  135.232">  2  5  1 -1</clus>
<clus scale="  135.232">  1  3  2 -1</clus>
</clustering>
</event>
<event>
 6    0  0.4582113E+002  0.8748924E+02  0.7546771E-02  0.1309048E+00
         21   -1    0    0  506  501  0.00000000000E+00  0.00000000000E+00  0.75300821698E+03  0.75300821698E+03  0.00000000000E+00 0. -1.
         21   -1    0    0  503  502 -0.00000000000E+00 -0.00000000000E+00 -0.31339194819E+03  0.31339194819E+03  0.00000000000E+00 0.  1.
         21    1    1    2  503  505 -0.15101176100E+02  0.86077584609E+02 -0.27770654263E+03  0.29113282176E+03  0.00000000000E+00 0.  1.
         21    1    1    2  504  501  0.38421377583E+02 -0.32109542067E+02  0.33002536270E+03  0.33380228426E+03  0.00000000000E+00 0. -1.
         21    1    1    2  505  504  0.76012601604E+02 -0.77560868577E+02  0.17627640293E+03  0.20704341131E+03  0.00000000000E+00 0. -1.
         21    1    1    2  506  502 -0.99332803086E+02  0.23592826034E+02  0.21102104578E+03  0.23442164783E+03  0.00000000000E+00 0. -1.
<scales pt_clust_3="87.48924" pt_clust_4="50.07220" pt_clust_5="14000.00000" pt_clust_6="79.28731"></scales>
<clustering>
<clus scale="   50.072">  1  4  2 -1</clus>
<clus scale="   79.287">  1  6  2 -1</clus>
<clus scale="   87.489">  2  3  1 -1</clus>
<clus scale="   50.072">  1  3  2 -1</clus>
</clustering>
</event>
<event>
 6    0  0.4582113E+002  0.1238503E+03  0.7546771E-02  0.1236877E+00
         21   -1    0    0  506  501  0.00000000000E+00  0.00000000000E+00  0.96960809893E+03  0.96960809893E+03  0.00000000000E+00 0. -1.
         21   -1    0    0  505  502 -0.00000000000E+00 -0.00000000000E+00 -0.30718821787E+03  0.30718821787E+03  0.00000000000E+00 0.  1.
         21    1    1    2  503  501 -0.18465806943E+02 -0.49740888612E+02  0.10602166337E+03  0.11855688563E+03  0.00000000000E+00 0. -1.
         21    1    1    2  504  502  0.17231696441E+02  0.59872711310E+02 -0.10608371583E+02  0.63199766373E+02  0.00000000000E+00 0. -1.
         21    1    1    2  505  503  0.67268186188E+02  0.36280162716E+02 -0.25647070697E+03  0.26761629737E+03  0.00000000000E+00 0.  1.
         21    1    1    2  506  504 -0.66034075686E+02 -0.46411985415E+02  0.82347729624E+03  0.82742336743E+03  0.00000000000E+00 0. -1.
<scales pt_clust_3="53.05791" pt_clust_4="60.68041" pt_clust_5="14000.00000" pt_clust_6="123.85026"></scales>
<clustering>
<clus scale="   53.058">  1  3  2 -1</clus>
<clus scale="   60.680">  2  4  1 -1</clus>
<clus scale="  123.850">  1  6  2 -1</clus>
<clus scale="   53.058">  1  3  2 -1</clus>
</clustering>
</event>
<event>
 6    0  0.4582113E+002  0.1879188E+03  0.7546771E-02  0.1160352E+00
         21   -1    0    0  505  501  0.00000000000E+00  0.00000000000E+00  0.83523529035E+03  0.83523529035E+03  0.00000000000E+00 0.  1.
         21   -1    0    0  504  502 -0.00000000000E+00 -0.00000000000E+00 -0.98695027031E+03  0.98695027031E+03  0.00000000000E+00 0.  1.
         21    1    1    2  503  501  0.79281906220E+02  0.10566190632E+03  0.50144197860E+03  0.51855001399E+03  0.00000000000E+00 0.  1.
         21    1    1    2  504  506 -0.54506994137E+02 -0.25998858278E+02 -0.19010957111E+03  0.19947080505E+03  0.00000000000E+00 0.  1.
         21    1    1    2  505  502 -0.11144103449E+02 -0.13063571752E+03 -0.77589721692E+03  0.78689667236E+03  0.00000000000E+00 0.  1.
         21    1    1    2  506  503 -0.13630808635E+02  0.50972669480E+02  0.31284982947E+03  0.31726806927E+03  0.00000000000E+00 0. -1.
<scales pt_clust_3="51.63988" pt_clust_4="60.39001" pt_clust_5="169.22537" pt_clust_6="51.63988"></scales>
<clustering>
<clus scale="   51.640">  3  6 -1 -1</clus>
<clus scale="   60.390">  2  4  1 -1</clus>
<clus scale="  169.225">  2  5  1 -1</clus>
<clus scale="  187.919">  1  3  2 -1</clus>
</clustering>
</event>
<event>
 6    0  0.4582113E+002  0.8938314E+02  0.7546771E-02  0.1304352E+00
         21   -1    0    0  504  501  0.00000000000E+00  0.00000000000E+00  0.43214560611E+03  0.43214560611E+03  0.00000000000E+00 0.  1.
         21   -1    0    0  506  502 -0.00000000000E+00 -0.00000000000E+00 -0.73830181371E+02  0.73830181371E+02  0.00000000000E+00 0.  1.
         21    1    1    2  503  505 -0.57929045819E+02  0.11449604732E+03  0.28233751692E+03  0.31012834869E+03  0.00000000000E+00 0.  1.
         21    1    1    2  504  502  0.32044681341E+02 -0.17909505908E+02 -0.18637223556E+02  0.41169868909E+02  0.00000000000E+00 0.  1.
         21    1    1    2  505  501  0.12063847267E+02 -0.33602878500E+02  0.81357422369E+02  0.88846609552E+02  0.00000000000E+00 0. -1.
         21    1    1    2  506  503  0.13820517211E+02 -0.62983662913E+02  0.13257709009E+02  0.65830960331E+02  0.00000000000E+00 0.  1.
<scales pt_clust_3="14000.00000" pt_clust_4="37.59161" pt_clust_5="35.70280" pt_clust_6="89.38314"></scales>
<clustering>
<clus scale="   35.703">  1  5  2 -1</clus>
<clus scale="   37.592">  2  4  1 -1</clus>
<clus scale="   89.383">  2  6  1 -1</clus>
<clus scale="   35.703">  1  3  2 -1</clus>
</clustering>
</event>
<event>
 6    0  0.4582113E+002  0.8750611E+02  0.7546771E-02  0.1309006E+00
         21   -1    0    0  504  501  0.00000000000E+00  0.00000000000E+00  0.69343105232E+03  0.69343105232E+03  0.00000000000E+00 0.  1.
         21   -1    0    0  503  502 -0.00000000000E+00 -0.00000000000E+00 -0.51040639982E+02  0.51040639982E+02  0.00000000000E+00 0.  1.
         21    1    1    2  503  501 -0.89865181976E+02  0.60464436210E+02  0.45323834263E+03  0.46600074486E+03  0.00000000000E+00 0.  1.
         21    1    1    2  504  506  0.80072965262E+01 -0.46571486247E+02  0.13016088616E+03  0.13847337800E+03  0.00000000000E+00 0. -1.
         21    1    1    2  505  502  0.31991925718E+01  0.32692425054E+02  0.34498973085E+01  0.33029248863E+02  0.00000000000E+00 0.  1.
         21    1    1    2  506  505  0.78658692878E+02 -0.46585375017E+02  0.55541286239E+02  0.10696832058E+03  0.00000000000E+00 0.  1.
<scales pt_clust_3="87.50611" pt_clust_4="43.63433" pt_clust_5="32.84858" pt_clust_6="14000.00000"></scales>
<clustering>
<clus scale="   32.849">  2  5  1 -1</clus>
<clus scale="   43.634">  1  4  2 -1</clus>
<clus scale="   87.506">  1  3  2 -1</clus>
<clus scale="   43.634">  1  3  2 -1</clus>
</clustering>
</event>
<event>
 6    0  0.4582113E+002  0.9509047E+02  0.7546771E-02  0.1290972E+00
         21   -1    0    0  504  501  0.00000000000E+00  0.00000000000E+00  0.95386653147E+03  0.95386653147E+03  0.00000000000E+00 0. -1.
         21   -1    0    0  503  502 -0.00000000000E+00 -0.00000000000E+00 -0.83779669343E+03  0.83779669343E+03  0.00000000000E+00 0. -1.
         21    1    1    2  503  506 -0.45888086104E+02 -0.69724493629E+02  0.13179489170E+03  0.15600357348E+03  0.00000000000E+00 0. -1.
         21    1    1    2  504  505  0.11668074269E+03  0.14088482950E+02  0.67328596798E+03  0.68346680662E+03  0.00000000000E+00 0. -1.
         21    1    1    2  505  502 -0.50398708853E+02  0.28244312956E+02 -0.81734937699E+03  0.81938865939E+03  0.00000000000E+00 0. -1.
         21    1    1    2  506  501 -0.20393947738E+02  0.27391697723E+02  0.12833835534E+03  0.13280418540E+03  0.00000000000E+00 0. -1.
<scales pt_clust_3="14000.00000" pt_clust_4="95.09047" pt_clust_5="57.81207" pt_clust_6="34.14994"></scales>
<clustering>
<clus scale="   34.150">  1  6  2 -1</clus>
<clus scale="   57.812">  2  5  1 -1</clus>
<clus scale="   95.090">  1  4  2 -1</clus>
<clus scale="   34.150">  1  3  2 -1</clus>
</clustering>
</event>
<event>
 6    0  0.4582113E+002  0.1620241E+03  0.7546771E-02  0.1186430E+00
         21   -1    0    0  504  501  0.00000000000E+00  0.00000000000E+00  0.10081150003E+04  0.10081150003E+04  0.00000000000E+00 0.  1.
         21   -1    0    0  506  502 -0.00000000000E+00 -0.00000000000E+00 -0.99044032641E+02  0.99044032641E+02  0.00000000000E+00 0. -1.
         21    1    1    2  503  502  0.29196245389E+02  0.79744136047E+01 -0.41122254408E+02  0.51059297143E+02  0.00000000000E+00 0. -1.
         21    1    1    2  504  505 -0.67161036169E+02 -0.11936454006E+01  0.43943998720E+03  0.44454418444E+03  0.00000000000E+00 0.  1.
         21    1    1    2  505  503 -0.74703732802E+02 -0.61970251146E+02  0.46958954167E+03  0.47951569043E+03  0.00000000000E+00 0.  1.
         21    1    1    2  506  501  0.11266852358E+03  0.55189482942E+02  0.41163693180E+02  0.13203986091E+03  0.00000000000E+00 0. -1.
<scales pt_clust_3="30.26569" pt_clust_4="48.90619" pt_clust_5="48.90619" pt_clust_6="151.04675"></scales>
<clustering>
<clus scale="   30.266">  2  3  1 -1</clus>
<clus scale="   48.906">  4  5 -1 -1</clus>
<clus scale="  151.047">  2  6  1 -1</clus>
<clus scale="  162.024">  1  3  2 -1</clus>
</clustering>
</event>
<event>
 6    0  0.4582113E+002  0.1170298E+03  0.7546771E-02  0.1248079E+00
         21   -1    0    0  504  501  0.00000000000E+00  0.00000000000E+00  0.11882603896E+03  0.11882603896E+03  0.00000000000E+00 0.  1.
         21   -1    0    0  503  502 -0.00000000000E+00 -0.00000000000E+00 -0.10515047836E+04  0.10515047836E+04  0.00000000000E+00 0. -1.
         21    1    1    2  503  501  0.80972282521E+01 -0.10975451336E+03  0.10517011435E+02  0.11055417603E+03  0.00000000000E+00 0.  1.
         21    1    1    2  504  505  0.11397293773E+02  0.41729234338E+02  0.18486393131E+02  0.47042257969E+02  0.00000000000E+00 0.  1.
         21    1    1    2  505  506  0.13358593661E+02  0.67538200943E+02 -0.21710536232E+02  0.72188697139E+02  0.00000000000E+00 0.  1.
         21    1    1    2  506  502 -0.32853115686E+02  0.48707807947E+00 -0.93997161295E+03  0.94054569139E+03  0.00000000000E+00 0. -1.
<scales pt_clust_3="109.73866" pt_clust_4="32.23140" pt_clust_5="32.23140" pt_clust_6="32.85673"></scales>
<clustering>
<clus scale="   32.231">  4  5 -1 -1</clus>
<clus scale="   32.857">  2  6  1 -1</clus>
<clus scale="  109.739">  1  3  2 -1</clus>
<clus scale="  109.739">  1  3  2 -1</clus>
</clustering>
</event>
<event>
 6    0  0.4582113E+002  0.9369518E+02  0.7546771E-02  0.1294142E+00
         21   -1    0    0  504  501  0.00000000000E+00  0.00000000000E+00  0.40612120654E+02  0.40612120654E+02  0.00000000000E+00 0.  1.
         21   -1    0    0  503  502 -0.00000000000E+00 -0.00000000000E+00 -0.79806300046E+03  0.79806300046E+03  0.00000000000E+00 0.  1.
         21    1    1    2  503  501 -0.14226991236E+03  0.13324073732E+02 -0.44828116725E+03  0.47050426545E+03  0.00000000000E+00 0.  1.
         21    1    1    2  504  506  0.28347333413E+02 -0.13995994018E+02 -0.93170416007E+00  0.31627950184E+02  0.00000000000E+00 0.  1.
         21    1    1    2  505  502  0.47624733416E+02 -0.14890836309E+02 -0.21716793844E+03  0.22282676169E+03  0.00000000000E+00 0.  1.
         21    1    1    2  506  505  0.66297845533E+02  0.15562756596E+02 -0.91070069964E+02  0.11371614379E+03  0.00000000000E+00 0.  1.
<scales pt_clust_3="14000.00000" pt_clust_4="31.61422" pt_clust_5="53.39907" pt_clust_6="93.69518"></scales>
<clustering>
<clus scale="   31.614">  1  4  2 -1</clus>
<clus scale="   53.399">  2  5  1 -1</clus>
<clus scale="   93.695">  1  6  2 -1</clus>
<clus scale="   31.614">  1  3  2 -1</clus>
</clustering>
</event>
<event>
 6    0  0.4582113E+002  0.9482131E+02  0.7546771E-02  0.1291579E+00
         21   -1    0    0  504  501  0.00000000000E+00  0.00000000000E+00  0.10247800624E+04  0.10247800624E+04  0.00000000000E+00 0. -1.
         21   -1    0    0  506  502 -0.00000000000E+00 -0.00000000000E+00 -0.61656129326E+03  0.61656129326E+03  0.00000000000E+00 0. -1.
         21    1    1    2  503  505 -0.27364204980E+02 -0.53436612829E+02 -0.19932572274E+02  0.63258033026E+02  0.00000000000E+00 0. -1.
         21    1    1    2  504  503 -0.68322725687E+02  0.35024417552E+02  0.30033908199E+03  0.30999720780E+03  0.00000000000E+00 0. -1.
         21    1    1    2  505  502 -0.18548501017E+02 -0.38918875170E+02 -0.56345487997E+03  0.56510187356E+03  0.00000000000E+00 0. -1.
         21    1    1    2  506  501  0.11423543168E+03  0.57331070447E+02  0.69126713937E+03  0.70298424126E+03  0.00000000000E+00 0. -1.
<scales pt_clust_3="14000.00000" pt_clust_4="76.76496" pt_clust_5="43.11294" pt_clust_6="94.82131"></scales>
<clustering>
<clus scale="   43.113">  2  5  1 -1</clus>
<clus scale="   76.765">  1  4  2 -1</clus>
<clus scale="   94.821">  1  6  2 -1</clus>
<clus scale="   76.765">  1  3  2 -1</clus>
</clustering>
</event>
<event>
 6    0  0.4582113E+002  0.7726674E+02  0.7546771E-02  0.1336992E+00
         21   -1    0    0  504  501  0.00000000000E+00  0.00000000000E+00  0.70672993033E+03  0.70672993033E+03  0.00000000000E+00 0.  1.
         21   -1    0    0  505  502 -0.00000000000E+00 -0.00000000000E+00 -0.29538991928E+03  0.29538991928E+03  0.00000000000E+00 0. -1.
         21    1    1    2  503  502  0.55063087355E+01 -0.42614386406E+02 -0.27408619877E+03  0.27743386549E+03  0.00000000000E+00 0. -1.
         21    1    1    2  504  506  0.39419469507E+02 -0.48915030950E+01  0.31513507693E+03  0.31762861661E+03  0.00000000000E+00 0.  1.
         21    1    1    2  505  501 -0.85504903957E+02 -0.21030108070E+02  0.16858820740E+03  0.19019815383E+03  0.00000000000E+00 0.  1.
         21    1    1    2  506  503  0.40579125714E+02  0.68535997571E+02  0.20170292549E+03  0.21685921368E+03  0.00000000000E+00 0.  1.
<scales pt_clust_3="43.01144" pt_clust_4="39.72180" pt_clust_5="14000.00000" pt_clust_6="77.26674"></scales>
<clustering>
<clus scale="   39.722">  1  4  2 -1</clus>
<clus scale="   43.011">  2  3  1 -1</clus>
<clus scale="   77.267">  2  6  1 -1</clus>
<clus scale="   39.722">  1  3  2 -1</clus>
</clustering>
</event>
<event>
 6    0  0.4582113E+002  0.1700032E+03  0.7546771E-02  0.1177845E+00
         21   -1    0    0  505  501  0.00000000000E+00  0.00000000000E+00  0.22331367908E+03  0.22331367908E+03  0.00000000000E+00 0.  1.
         21   -1    0    0  506  502 -0.00000000000E+00 -0.00000000000E+00 -0.10121082933E+04  0.10121082933E+04  0.00000000000E+00 0. -1.
         21    1    1    2  503  501  0.63599140154E+02  0.10633306173E+03 -0.70096517274E+03  0.71183126093E+03  0.00000000000E+00 0. -1.
         21    1    1    2  504  502  0.86519561405E+02 -0.54707571631E+02 -0.18186611572E+03  0.20869556044E+03  0.00000000000E+00 0. -1.
         21    1    1    2  505  504 -0.13094024623E+03 -0.11292486692E+03  0.15060875843E+03  0.22930410325E+03  0.00000000000E+00 0.  1.
         21    1    1    2  506  503 -0.19178455334E+02  0.61299376825E+02 -0.56572084199E+02  0.85591047772E+02  0.00000000000E+00 0.  1.
<scales pt_clust_3="14000.00000" pt_clust_4="92.60501" pt_clust_5="170.00317" pt_clust_6="64.22949"></scales>
<clustering>
<clus scale="   64.229">  2  6  1 -1</clus>
<clus scale="   92.605">  2  4  1 -1</clus>
<clus scale="  170.003">  1  5  2 -1</clus>
<clus scale="  170.003">  1  3  2 -1</clus>
</clustering>
</event>
<event>
 6    0  0.4582113E+002  0.1732611E+03  0.7546771E-02  0.1174489E+00
         21   -1    0    0  504  501  0.00000000000E+00  0.00000000000E+00  0.27243606236E+03  0.27243606236E+03  0.00000000000E+00 0.  1.
         21   -1    0    0  503  502 -0.00000000000E+00 -0.00000000000E+00 -0.97853220490E+03  0.97853220490E+03  0.00000000000E+00 0.  1.
         21    1    1    2  503  506  0.71284568950E+02 -0.67420116139E+02 -0.85328271622E+03  0.85890532402E+03  0.00000000000E+00 0.  1.
         21    1    1    2  504  502 -0.33861319101E+02  0.19360886882E+03  0.15962494298E+03  0.25320170900E+03  0.00000000000E+00 0.  1.
         21    1    1    2  505  501 -0.22506141343E+02 -0.70999530944E+02 -0.28066618287E+02  0.79593937298E+02  0.00000000000E+00 0. -1.
         21    1    1    2  506  505 -0.14917108506E+02 -0.55189221735E+02  0.15628248984E+02  0.59267296954E+02  0.00000000000E+00 0.  1.
<scales pt_clust_3="98.11708" pt_clust_4="167.97555" pt_clust_5="37.20770" pt_clust_6="37.20770"></scales>
<clustering>
<clus scale="   37.208">  5  6 -1 -1</clus>
<clus scale="   98.117">  2  3  1 -1</clus>
<clus scale="  167.976">  1  4  2 -1</clus>
<clus scale="  167.976">  1  3  2 -1</clus>
</clustering>
</event>
<event>
 6    0  0.4582113E+002  0.1016769E+03  0.7546771E-02  0.1276809E+00
         21   -1    0    0  505  501  0.00000000000E+00  0.00000000000E+00  0.56658564819E+03  0.56658564819E+03  0.00000000000E+00 0.  1.
         21   -1    0    0  503  502 -0.00000000000E+00 -0.00000000000E+00 -0.54676473103E+03  0.54676473103E+03  0.00000000000E+00 0.  1.
         21    1    1    2  503  506  0.22407349999E+02  0.93556179457E+02 -0.20636601188E+03  0.22768789803E+03  0.00000000000E+00 0.  1.
         21    1    1    2  504  502 -0.99563688650E+02 -0.22863608121E+02 -0.31307110584E+03  0.32931624616E+03  0.00000000000E+00 0.  1.
         21    1    1    2  505  504  0.36661356360E+02 -0.13174535327E+02  0.57341702780E+02  0.69323115257E+02  0.00000000000E+00 0.  1.
         21    1    1    2  506  501  0.40494982291E+02 -0.57518036009E+02  0.48191633209E+03  0.48702311978E+03  0.00000000000E+00 0.  1.
<scales pt_clust_3="96.11510" pt_clust_4="101.67688" pt_clust_5="38.95669" pt_clust_6="14000.00000"></scales>
<clustering>
<clus scale="   38.957">  1  5  2 -1</clus>
<clus scale="   96.115">  2  3  1 -1</clus>
<clus scale="  101.677">  2  4  1 -1</clus>
<clus scale="   38.957">  1  3  2 -1</clus>
</clustering>
</event>
<event>
 6    0  0.4582113E+002  0.9536858E+02  0.7546771E-02  0.1290348E+00
         21   -1    0    0  504  501  0.00000000000E+00  0.00000000000E+00  0.26163099820E+02  0.26163099820E+02  0.00000000000E+00 0.  1.
         21   -1    0    0  506  502 -0.00000000000E+00 -0.00000000000E+00 -0.42951089856E+04  0.42951089856E+04  0.00000000000E+00 0. -1.
         21    1    1    2  503  505 -0.56570862667E+02 -0.26235760944E+02 -0.34141009517E+03  0.34705825266E+03  0.00000000000E+00 0.  1.
         21    1    1    2  504  503  0.95320937004E+01 -0.39732259495E+02 -0.30785152978E+02  0.51158957171E+02  0.00000000000E+00 0.  1.
         21    1    1    2  505  502 -0.48455317177E+02 -0.29073459496E+02 -0.35586521200E+04  0.35591007424E+04  0.00000000000E+00 0. -1.
         21    1    1    2  506  501  0.95494086143E+02  0.95041479935E+02 -0.33809851764E+03  0.36395413313E+03  0.00000000000E+00 0.  1.
<scales pt_clust_3="14000.00000" pt_clust_4="40.85968" pt_clust_5="56.68316" pt_clust_6="95.36858"></scales>
<clustering>
<clus scale="   40.860">  1  4  2 -1</clus>
<clus scale="   56.683">  2  5  1 -1</clus>
<clus scale="   95.369">  1  6  2 -1</clus>
<clus scale="   40.860">  1  3  2 -1</clus>
</clustering>
</event>
<event>
 6    0  0.4582113E+002  0.2173776E+03  0.7546771E-02  0.1135853E+00
         21   -1    0    0  504  501  0.00000000000E+00  0.00000000000E+00  0.18479387674E+03  0.18479387674E+03  0.00000000000E+00 0.  1.
         21   -1    0    0  503  502 -0.00000000000E+00 -0.00000000000E+00 -0.88645484545E+03  0.88645484545E+03  0.00000000000E+00 0. -1.
         21    1    1    2  503  506 -0.30416266824E+02 -0.55351146560E+02 -0.14285907988E+03  0.15619736047E+03  0.00000000000E+00 0.  1.
         21    1    1    2  504  502 -0.18440059855E+03  0.13835986426E+02 -0.64990426865E+03  0.67570006192E+03  0.00000000000E+00 0. -1.
         21    1    1    2  505  501  0.10432434220E+03  0.26053690450E+02  0.61700810063E+02  0.12397319518E+03  0.00000000000E+00 0.  1.
         21    1    1    2  506  505  0.11049252318E+03  0.15461469684E+02  0.29401569759E+02  0.11537810463E+03  0.00000000000E+00 0.  1.
<scales pt_clust_3="63.15773" pt_clust_4="214.78695" pt_clust_5="32.84903" pt_clust_6="32.84903"></scales>
<clustering>
<clus scale="   32.849">  5  6 -1 -1</clus>
<clus scale="   63.158">  2  3  1 -1</clus>
<clus scale="  214.787">  2  4  1 -1</clus>
<clus scale="  217.378">  1  3  2 -1</clus>
</clustering>
</event>
<event>
 6    0  0.4582113E+002  0.1040391E+03  0.7546771E-02  0.1272025E+00
         21   -1    0    0  504  501  0.00000000000E+00  0.00000000000E+00  0.25500595485E+03  0.25500595485E+03  0.00000000000E+00 0.  1.
         21   -1    0    0  506  502 -0.00000000000E+00 -0.00000000000E+00 -0.40822001804E+03  0.40822001804E+03  0.00000000000E+00 0.  1.
         21    1    1    2  503  501 -0.84751288003E+02  0.10903415546E+02  0.16745803399E+03  0.18799962350E+03  0.00000000000E+00 0.  1.
         21    1    1    2  504  505 -0.40378166025E+02 -0.29242323959E+02  0.38576438910E+02  0.63036905389E+02  0.00000000000E+00 0.  1.
         21    1    1    2  505  502  0.77177612512E+02  0.15828689182E+02 -0.38176061293E+02  0.87546233101E+02  0.00000000000E+00 0.  1.
         21    1    1    2  506  503  0.47951841516E+02  0.25102192303E+01 -0.32107247480E+03  0.32464321089E+03  0.00000000000E+00 0.  1.
<scales pt_clust_3="104.03907" pt_clust_4="44.23785" pt_clust_5="14000.00000" pt_clust_6="48.01750"></scales>
<clustering>
<clus scale="   48.017">  2  6  1 -1</clus>
<clus scale="   44.238">  1  4  2 -1</clus>
<clus scale="  104.039">  1  3  2 -1</clus>
<clus scale="   44.238">  1  3  2 -1</clus>
</clustering>
</event>
<event>
 6    0  0.4582113E+002  0.2724215E+03  0.7546771E-02  0.1099902E+00
         21   -1    0    0  505  501  0.00000000000E+00  0.00000000000E+00  0.19462106446E+03  0.19462106446E+03  0.00000000000E+00 0. -1.
         21   -1    0    0  501  502 -0.00000000000E+00 -0.00000000000E+00 -0.11720196960E+04  0.11720196960E+04  0.00000000000E+00 0. -1.
         21    1    1    2  503  506  0.51903082129E+02 -0.59649132256E+01  0.46503641752E+02  0.69943540234E+02  0.00000000000E+00 0. -1.
         21    1    1    2  504  502 -0.16568884947E+03 -0.94852209495E+02 -0.92903342332E+03  0.94844759377E+03  0.00000000000E+00 0. -1.
         21    1    1    2  505  503  0.17391237093E+03  0.11837913696E+03  0.26133445809E+02  0.21199549481E+03  0.00000000000E+00 0. -1.
         21    1    1    2  506  504 -0.60126603593E+02 -0.17562014244E+02 -0.12100229576E+03  0.13625413162E+03  0.00000000000E+00 0. -1.
<scales pt_clust_3="51.26763" pt_clust_4="272.03460" pt_clust_5="51.26763" pt_clust_6="58.33857"></scales>
<clustering>
<clus scale="   51.268">  3  5 -1 -1</clus>
<clus scale="   58.339">  4  6 -1 -1</clus>
<clus scale="  272.035">  2  4  1 -1</clus>
<clus scale="  272.421">  1  3  2 -1</clus>
</clustering>
</event>
<event>
 6    0  0.4582113E+002  0.9553963E+02  0.7546771E-02  0.1289965E+00
         21   -1    0    0  506  501  0.00000000000E+00  0.00000000000E+00  0.22647808069E+03  0.22647808069E+03  0.00000000000E+00 0.  1.
         21   -1    0    0  504  502 -0.00000000000E+00 -0.00000000000E+00 -0.21995948923E+03  0.21995948923E+03  0.00000000000E+00 0. -1.
         21    1    1    2  503  505 -0.33651951803E+02 -0.13452458144E+02  0.34082933088E+02  0.49750063499E+02  0.00000000000E+00 0.  1.
         21    1    1    2  504  503  0.12774891779E+03  0.35184276458E+02 -0.14509901014E+03  0.19649794414E+03  0.00000000000E+00 0. -1.
         21    1    1    2  505  501 -0.39111454578E+02 -0.27433106267E+02  0.13420172798E+03  0.14245134254E+03  0.00000000000E+00 0.  1.
         21    1    1    2  506  502 -0.54985511406E+02  0.57012879530E+01 -0.16667059461E+02  0.57738219751E+02  0.00000000000E+00 0.  1.
<scales pt_clust_3="35.43846" pt_clust_4="86.44252" pt_clust_5="35.43846" pt_clust_6="55.28030"></scales>
<clustering>
<clus scale="   35.438">  3  5 -1 -1</clus>
<clus scale="   55.280">  2  6  1 -1</clus>
<clus scale="   86.443">  2  4  1 -1</clus>
<clus scale="   95.540">  1  3  2 -1</clus>
</clustering>
</event>
<event>
 6    0  0.4582113E+002  0.1546999E+03  0.7546771E-02  0.1194814E+00
         21   -1    0    0  504  501  0.00000000000E+00  0.00000000000E+00  0.64671776212E+03  0.64671776212E+03  0.00000000000E+00 0.  1.
         21   -1    0    0  503  502 -0.00000000000E+00 -0.00000000000E+00 -0.12226274951E+04  0.12226274951E+04  0.00000000000E+00 0. -1.
         21    1    1    2  503  506 -0.73267850323E+01 -0.67018768074E+02 -0.11547254980E+04  0.11566919092E+04  0.00000000000E+00 0. -1.
         21    1    1    2  504  505  0.14779321759E+02 -0.69274244214E+02  0.31206255739E+03  0.32000060779E+03  0.00000000000E+00 0. -1.
         21    1    1    2  505  502 -0.21563163753E+02 -0.62386883706E+02  0.14471640559E+03  0.15905952136E+03  0.00000000000E+00 0.  1.
         21    1    1    2  506  501  0.14110627026E+02  0.19867989599E+03  0.12203680203E+03  0.23359321890E+03  0.00000000000E+00 0.  1.
<scales pt_clust_3="67.41808" pt_clust_4="56.87252" pt_clust_5="56.87252" pt_clust_6="143.04244"></scales>
<clustering>
<clus scale="   56.873">  4  5 -1 -1</clus>
<clus scale="   67.418">  2  3  1 -1</clus>
<clus scale="  143.042">  2  6  1 -1</clus>
<clus scale="  154.700">  1  3  2 -1</clus>
</clustering>
</event>
<event>
 6    0  0.4582113E+002  0.1019216E+03  0.7546771E-02  0.1276306E+00
         21   -1    0    0  504  501  0.00000000000E+00  0.00000000000E+00  0.30098010141E+03  0.30098010141E+03  0.00000000000E+00 0. -1.
         21   -1    0    0  505  502 -0.00000000000E+00 -0.00000000000E+00 -0.29405716957E+03  0.29405716957E+03  0.00000000000E+00 0.  1.
         21    1    1    2  503  502 -0.52248726138E+02  0.90223572392E+02 -0.21808771524E+03  0.24172809919E+03  0.00000000000E+00 0.  1.
         21    1    1    2  504  506  0.31109454146E+02  0.10087825212E+02  0.10669296859E+02  0.34400526889E+02  0.00000000000E+00 0. -1.
         21    1    1    2  505  501 -0.57563520497E+02 -0.77958443240E+02  0.83527932352E+01  0.97266885008E+02  0.00000000000E+00 0. -1.
         21    1    1    2  506  503  0.78702792489E+02 -0.22352954365E+02  0.20598855699E+03  0.22164175988E+03  0.00000000000E+00 0. -1.
<scales pt_clust_3="101.92165" pt_clust_4="32.70416" pt_clust_5="91.93459" pt_clust_6="14000.00000"></scales>
<clustering>
<clus scale="   32.704">  1  4  2 -1</clus>
<clus scale="   91.935">  1  5  2 -1</clus>
<clus scale="  101.922">  2  3  1 -1</clus>
<clus scale="   32.704">  1  3  2 -1</clus>
</clustering>
</event>
<event>
 6    0  0.4582113E+002  0.1673679E+03  0.7546771E-02  0.1180621E+00
         21   -1    0    0  506  501  0.00000000000E+00  0.00000000000E+00  0.23974189303E+03  0.23974189303E+03  0.00000000000E+00 0.  1.
         21   -1    0    0  504  502 -0.00000000000E+00 -0.00000000000E+00 -0.18068953197E+03  0.18068953197E+03  0.00000000000E+00 0.  1.
         21    1    1    2  503  502 -0.84767286882E+02 -0.51848585262E+02 -0.27299292588E+02  0.10304862976E+03  0.00000000000E+00 0.  1.
         21    1    1    2  504  505 -0.13818574368E+02 -0.52041127387E+02 -0.37862171742E+02  0.65823825369E+02  0.00000000000E+00 0.  1.
         21    1    1    2  505  501  0.14183874024E+03  0.97105284996E+02  0.11500767703E+03  0.20681980172E+03  0.00000000000E+00 0.  1.
         21    1    1    2  506  503 -0.43252878992E+02  0.67844276527E+01  0.92061483539E+01  0.44739168154E+02  0.00000000000E+00 0.  1.
<scales pt_clust_3="36.92164" pt_clust_4="53.84452" pt_clust_5="157.85468" pt_clust_6="36.92164"></scales>
<clustering>
<clus scale="   36.922">  3  6 -1 -1</clus>
<clus scale="   53.845">  2  4  1 -1</clus>
<clus scale="  157.855">  1  5  2 -1</clus>
<clus scale="  157.855">  1  3  2 -1</clus>
</clustering>
</event>
<event>
 6    0  0.4582113E+002  0.1541112E+03  0.7546771E-02  0.1195510E+00
         21   -1    0    0  505  501  0.00000000000E+00  0.00000000000E+00  0.39968845941E+03  0.39968845941E+03  0.00000000000E+00 0.  1.
         21   -1    0    0  504  502 -0.00000000000E+00 -0.00000000000E+00 -0.15752768644E+03  0.15752768644E+03  0.00000000000E+00 0.  1.
         21    1    1    2  503  502  0.25495055934E+02 -0.47645576108E+02 -0.17541341925E+00  0.54038223228E+02  0.00000000000E+00 0.  1.
         21    1    1    2  504  501 -0.46021367641E+02 -0.92934632832E+02 -0.88239062905E+02  0.13616513681E+03  0.00000000000E+00 0.  1.
         21    1    1    2  505  506 -0.24384097391E+02  0.70590697998E+02  0.18239186087E+03  0.19708988244E+03  0.00000000000E+00 0.  1.
         21    1    1    2  506  503  0.44910409099E+02  0.69989510942E+02  0.14818338843E+03  0.16992290338E+03  0.00000000000E+00 0.  1.
<scales pt_clust_3="54.03794" pt_clust_4="136.07348" pt_clust_5="68.03279" pt_clust_6="68.03279"></scales>
<clustering>
<clus scale="   54.038">  2  3  1 -1</clus>
<clus scale="   68.033">  5  6 -1 -1</clus>
<clus scale="  136.073">  2  4  1 -1</clus>
<clus scale="  154.111">  1  3  2 -1</clus>
</clustering>
</event>
<event>
 6    0  0.4582113E+002  0.1522914E+03  0.7546771E-02  0.1197685E+00
         21   -1    0    0  506  501  0.00000000000E+00  0.00000000000E+00  0.98546392204E+02  0.98546392204E+02  0.00000000000E+00 0.  1.
         21   -1    0    0  503  502 -0.00000000000E+00 -0.00000000000E+00 -0.16182715886E+04  0.16182715886E+04  0.00000000000E+00 0.  1.
         21    1    1    2  503  505  0.21733247339E+02 -0.18204741782E+03 -0.43063748968E+03  0.46804085708E+03  0.00000000000E+00 0.  1.
         21    1    1    2  504  502 -0.19667738852E+02  0.14299130265E+03 -0.10815637312E+04  0.10911523437E+04  0.00000000000E+00 0.  1.
         21    1    1    2  505  501  0.18722560478E+02 -0.40475965301E+02  0.42327990204E+02  0.61485744629E+02  0.00000000000E+00 0.  1.
         21    1    1    2  506  504 -0.20788068965E+02  0.79532080471E+02 -0.49851965721E+02  0.96139035368E+02  0.00000000000E+00 0.  1.
<scales pt_clust_3="152.29145" pt_clust_4="14000.00000" pt_clust_5="44.59639" pt_clust_6="60.54869"></scales>
<clustering>
<clus scale="   44.596">  1  5  2 -1</clus>
<clus scale="   60.549">  1  6  2 -1</clus>
<clus scale="  152.291">  1  3  2 -1</clus>
<clus scale="   44.596">  1  3  2 -1</clus>
</clustering>
</event>
<event>
 6    0  0.4582113E+002  0.8587084E+02  0.7546771E-02  0.1313171E+00
         21   -1    0    0  505  501  0.00000000000E+00  0.00000000000E+00  0.85068085819E+03  0.85068085819E+03  0.00000000000E+00 0. -1.
         21   -1    0    0  506  502 -0.00000000000E+00 -0.00000000000E+00 -0.52296791131E+02  0.52296791131E+02  0.00000000000E+00 0.  1.
         21    1    1    2  503  501 -0.35436641014E+02 -0.89187654620E+01  0.27001492153E+03  0.27247634348E+03  0.00000000000E+00 0. -1.
         21    1    1    2  504  502 -0.11539494575E+01  0.94140647018E+02  0.20265104435E+02  0.96304036666E+02  0.00000000000E+00 0.  1.
         21    1    1    2  505  504 -0.94779669954E+01 -0.70344389862E+02  0.46174536149E+03  0.46716907421E+03  0.00000000000E+00 0. -1.
         21    1    1    2  506  503  0.46068557467E+02 -0.14877491695E+02  0.46358679605E+02  0.67028194970E+02  0.00000000000E+00 0. -1.
<scales pt_clust_3="36.54176" pt_clust_4="14000.00000" pt_clust_5="85.87084" pt_clust_6="45.41961"></scales>
<clustering>
<clus scale="   36.542">  1  3  2 -1</clus>
<clus scale="   45.420">  2  6  1 -1</clus>
<clus scale="   85.871">  1  5  2 -1</clus>
<clus scale="   36.542">  1  3  2 -1</clus>
</clustering>
</event>
<event>
 6    0  0.4582113E+002  0.7848454E+02  0.7546771E-02  0.1333408E+00
         21   -1    0    0  506  501  0.00000000000E+00  0.00000000000E+00  0.68804546140E+02  0.68804546140E+02  0.00000000000E+00 0. -1.
         21   -1    0    0  505  502 -0.00000000000E+00 -0.00000000000E+00 -0.11972549370E+04  0.11972549370E+04  0.00000000000E+00 0. -1.
         21    1    1    2  503  502 -0.36528941506E+02  0.40027633458E+02 -0.91792439581E+03  0.91952257799E+03  0.00000000000E+00 0. -1.
         21    1    1    2  504  501  0.71119784376E+02  0.68962444391E+02 -0.94321721071E+02  0.13678607214E+03  0.00000000000E+00 0. -1.
         21    1    1    2  505  504 -0.37829960471E+02 -0.61377085137E+02 -0.13920950868E+03  0.15677225455E+03  0.00000000000E+00 0. -1.
         21    1    1    2  506  503  0.32391176003E+01 -0.47612992712E+02  0.23005234664E+02  0.52978578499E+02  0.00000000000E+00 0. -1.
<scales pt_clust_3="53.22704" pt_clust_4="78.48454" pt_clust_5="14000.00000" pt_clust_6="47.72304"></scales>
<clustering>
<clus scale="   47.723">  1  6  2 -1</clus>
<clus scale="   53.227">  2  3  1 -1</clus>
<clus scale="   78.485">  1  4  2 -1</clus>
<clus scale="   47.723">  1  3  2 -1</clus>
</clustering>
</event>
<event>
 6    0  0.4582113E+002  0.7249845E+02  0.7546771E-02  0.1351797E+00
         21   -1    0    0  505  501  0.00000000000E+00  0.00000000000E+00  0.29208275543E+03  0.29208275543E+03  0.00000000000E+00 0. -1.
         21   -1    0    0  504  502 -0.00000000000E+00 -0.00000000000E+00 -0.10980699164E+03  0.10980699164E+03  0.00000000000E+00 0.  1.
         21    1    1    2  503  502  0.13140780315E+02  0.34775524959E+02 -0.20640381903E+02  0.42521084282E+02  0.00000000000E+00 0.  1.
         21    1    1    2  504  506 -0.50841226893E+02  0.43467423215E+02 -0.36549048400E+02  0.76223881900E+02  0.00000000000E+00 0.  1.
         21    1    1    2  505  503 -0.33200478747E+02 -0.71960709912E+02  0.11291865244E+03  0.13795375177E+03  0.00000000000E+00 0. -1.
         21    1    1    2  506  501  0.70900925326E+02 -0.62822382621E+01  0.12654654166E+03  0.14519102912E+03  0.00000000000E+00 0. -1.
<scales pt_clust_3="37.17549" pt_clust_4="71.70244" pt_clust_5="14000.00000" pt_clust_6="72.49845"></scales>
<clustering>
<clus scale="   37.175">  2  3  1 -1</clus>
<clus scale="   72.498">  1  6  2 -1</clus>
<clus scale="   71.702">  2  4  1 -1</clus>
<clus scale="   72.498">  1  3  2 -1</clus>
</clustering>
</event>
<event>
 6    0  0.4582113E+002  0.1674982E+03  0.7546771E-02  0.1180482E+00
         21   -1    0    0  506  501  0.00000000000E+00  0.00000000000E+00  0.25841128294E+03  0.25841128294E+03  0.00000000000E+00 0.  1.
         21   -1    0    0  505  502 -0.00000000000E+00 -0.00000000000E+00 -0.79616268800E+03  0.79616268800E+03  0.00000000000E+00 0.  1.
         21    1    1    2  503  501 -0.10279354588E+03 -0.68614218321E+02  0.74626088763E+02  0.14437270225E+03  0.00000000000E+00 0.  1.
         21    1    1    2  504  502  0.13570118614E+03  0.18291191607E+03 -0.67968030176E+03  0.71682417200E+03  0.00000000000E+00 0.  1.
         21    1    1    2  505  503 -0.34209932009E+02 -0.41006268367E+02 -0.37663979543E+02  0.65348365308E+02  0.00000000000E+00 0. -1.
         21    1    1    2  506  504  0.13022917491E+01 -0.73291429377E+02  0.10496678749E+03  0.12802873138E+03  0.00000000000E+00 0.  1.
<scales pt_clust_3="167.49824" pt_clust_4="14000.00000" pt_clust_5="53.40256" pt_clust_6="73.93045"></scales>
<clustering>
<clus scale="   53.403">  2  5  1 -1</clus>
<clus scale="   73.930">  1  6  2 -1</clus>
<clus scale="  167.498">  1  3  2 -1</clus>
<clus scale="   73.930">  1  3  2 -1</clus>
</clustering>
</event>
<event>
 6    0  0.4582113E+002  0.5945722E+02  0.7546771E-02  0.1400124E+00
         21   -1    0    0  504  501  0.00000000000E+00  0.00000000000E+00  0.14604531838E+04  0.14604531838E+04  0.00000000000E+00 0. -1.
         21   -1    0    0  506  502 -0.00000000000E+00 -0.00000000000E+00 -0.66700546987E+02  0.66700546987E+02  0.00000000000E+00 0. -1.
         21    1    1    2  503  505  0.35997577698E+02  0.68870627278E+02  0.82162846651E+02  0.11309165430E+03  0.00000000000E+00 0. -1.
         21    1    1    2  504  503 -0.17661314032E+02  0.31206750583E+02  0.16011426699E+03  0.16408035163E+03  0.00000000000E+00 0. -1.
         21    1    1    2  505  502 -0.49223431019E+02 -0.14671305512E+02 -0.33635034747E+02  0.61396326675E+02  0.00000000000E+00 0. -1.
         21    1    1    2  506  501  0.30887167353E+02 -0.85406072349E+02  0.11851105580E+04  0.11885853982E+04  0.00000000000E+00 0. -1.
<scales pt_clust_3="14000.00000" pt_clust_4="35.85782" pt_clust_5="51.45036" pt_clust_6="59.45722"></scales>
<clustering>
<clus scale="   35.858">  1  4  2 -1</clus>
<clus scale="   51.450">  2  5  1 -1</clus>
<clus scale="   59.457">  1  6  2 -1</clus>
<clus scale="   35.858">  1  3  2 -1</clus>
</clustering>
</event>
<event>
 6    0  0.4582113E+002  0.7468676E+02  0.7546771E-02  0.1344844E+00
         21   -1    0    0  505  501  0.00000000000E+00  0.00000000000E+00  0.29756762030E+04  0.29756762030E+04  0.00000000000E+00 0. -1.
         21   -1    0    0  504  502 -0.00000000000E+00 -0.00000000000E+00 -0.49455420655E+02  0.49455420655E+02  0.00000000000E+00 0.  1.
         21    1    1    2  503  501 -0.23910036151E+02  0.79460649672E+02  0.21852075298E+04  0.21867824841E+04  0.00000000000E+00 0. -1.
         21    1    1    2  504  503 -0.28119198670E+02 -0.85411581513E+02  0.36290372937E+03  0.37387824807E+03  0.00000000000E+00 0.  1.
         21    1    1    2  505  506 -0.12286122421E+02 -0.32828069626E+02  0.38723371237E+03  0.38881689644E+03  0.00000000000E+00 0.  1.
         21    1    1    2  506  502  0.64315357242E+02  0.38779001467E+02 -0.91241891886E+01  0.75653995006E+02  0.00000000000E+00 0.  1.
<scales pt_clust_3="62.06082" pt_clust_4="74.68676" pt_clust_5="35.05183" pt_clust_6="14000.00000"></scales>
<clustering>
<clus scale="   35.052">  1  5  2 -1</clus>
<clus scale="   62.061">  1  3  2 -1</clus>
<clus scale="   74.687">  1  4  2 -1</clus>
<clus scale="   35.052">  1  3  2 -1</clus>
</clustering>
</event>
<event>
 6    0  0.4582113E+002  0.2948015E+03  0.7546771E-02  0.1087869E+00
         21   -1    0    0  505  501  0.00000000000E+00  0.00000000000E+00  0.17474075412E+04  0.17474075412E+04  0.00000000000E+00 0. -1.
         21   -1    0    0  504  502 -0.00000000000E+00 -0.00000000000E+00 -0.66455544578E+03  0.66455544578E+03  0.00000000000E+00 0. -1.
         21    1    1    2  503  501  0.33055669187E+02 -0.14120077591E+03  0.84359197475E+03  0.85596597844E+03  0.00000000000E+00 0. -1.
         21    1    1    2  504  506 -0.10020055627E+03  0.22864527229E+03  0.26334337612E+03  0.36286160690E+03  0.00000000000E+00 0. -1.
         21    1    1    2  505  502 -0.11247253176E+02  0.44640776967E+02 -0.59761861485E+03  0.59938911275E+03  0.00000000000E+00 0. -1.
         21    1    1    2  506  503  0.78392140258E+02 -0.13208527335E+03  0.57353535939E+03  0.59374628888E+03  0.00000000000E+00 0. -1.
<scales pt_clust_3="77.75336" pt_clust_4="283.89791" pt_clust_5="46.03585" pt_clust_6="77.75336"></scales>
<clustering>
<clus scale="   46.036">  2  5  1 -1</clus>
<clus scale="   77.753">  3  6 -1 -1</clus>
<clus scale="  283.898">  2  4  1 -1</clus>
<clus scale="  294.801">  1  3  2 -1</clus>
</clustering>
</event>
<event>
 6    0  0.4582113E+002  0.1867802E+03  0.7546771E-02  0.1161398E+00
         21   -1    0    0  505  501  0.00000000000E+00  0.00000000000E+00  0.12973978009E+03  0.12973978009E+03  0.00000000000E+00 0. -1.
         21   -1    0    0  506  502 -0.00000000000E+00 -0.00000000000E+00 -0.63930662574E+03  0.63930662574E+03  0.00000000000E+00 0. -1.
         21    1    1    2  503  504  0.26385421404E+02  0.10013591690E+03 -0.54134606409E+01  0.10369521624E+03  0.00000000000E+00 0. -1.
         21    1    1    2  504  501  0.27511894225E+02  0.71540326748E+02  0.28876934631E+02  0.81907264811E+02  0.00000000000E+00 0. -1.
         21    1    1    2  505  502  0.32793899043E+02  0.73385644552E+01 -0.12615468956E+03  0.13055382048E+03  0.00000000000E+00 0.  1.
         21    1    1    2  506  503 -0.86691214673E+02 -0.17901480810E+03 -0.40687563008E+03  0.45289010430E+03  0.00000000000E+00 0. -1.
<scales pt_clust_3="33.54305" pt_clust_4="33.54305" pt_clust_5="33.60497" pt_clust_6="182.66567"></scales>
<clustering>
<clus scale="   33.543">  3  4 -1 -1</clus>
<clus scale="   33.605">  2  5  1 -1</clus>
<clus scale="  182.666">  2  6  1 -1</clus>
<clus scale="  186.780">  1  3  2 -1</clus>
</clustering>
</event>
<event>
 6    0  0.4582113E+002  0.2138984E+03  0.7546771E-02  0.1138516E+00
         21   -1    0    0  504  501  0.00000000000E+00  0.00000000000E+00  0.20526396517E+03  0.20526396517E+03  0.00000000000E+00 0.  1.
         21   -1    0    0  506  502 -0.00000000000E+00 -0.00000000000E+00 -0.82279597482E+03  0.82279597482E+03  0.00000000000E+00 0.  1.
         21    1    1    2  503  502  0.27390933183E+02  0.27700667016E+02 -0.77055412336E+02  0.86343075832E+02  0.00000000000E+00 0.  1.
         21    1    1    2  504  505 -0.27719439734E+02  0.62054517887E+02  0.83585780089E+02  0.10772981557E+03  0.00000000000E+00 0.  1.
         21    1    1    2  505  503 -0.13149215668E+02  0.13068994841E+03  0.37446647800E+02  0.13658336619E+03  0.00000000000E+00 0. -1.
         21    1    1    2  506  501  0.13477722218E+02 -0.22044513332E+03 -0.66150902521E+03  0.69740368240E+03  0.00000000000E+00 0.  1.
<scales pt_clust_3="38.95626" pt_clust_4="56.46635" pt_clust_5="56.46635" pt_clust_6="198.82938"></scales>
<clustering>
<clus scale="   38.956">  2  3  1 -1</clus>
<clus scale="   56.466">  4  5 -1 -1</clus>
<clus scale="  198.829">  2  6  1 -1</clus>
<clus scale="  213.898">  1  3  2 -1</clus>
</clustering>
</event>
<event>
 6    0  0.4582113E+002  0.1417558E+03  0.7546771E-02  0.1210986E+00
         21   -1    0    0  503  501  0.00000000000E+00  0.00000000000E+00  0.74224565342E+02  0.74224565342E+02  0.00000000000E+00 0.  1.
         21   -1    0    0  506  502 -0.00000000000E+00 -0.00000000000E+00 -0.23037420197E+04  0.23037420197E+04  0.00000000000E+00 0.  1.
         21    1    1    2  503  505  0.74782356170E+02  0.47521459440E+02 -0.12106891924E+03  0.15002790776E+03  0.00000000000E+00 0.  1.
         21    1    1    2  504  502  0.28457138262E+02  0.58704245361E+02 -0.65501549034E+03  0.65825624929E+03  0.00000000000E+00 0.  1.
         21    1    1    2  505  504 -0.17319314323E+03 -0.11531921984E+03 -0.14798124792E+04  0.14943692184E+04  0.00000000000E+00 0.  1.
         21    1    1    2  506  501  0.69953648799E+02  0.90935150351E+01  0.26379434330E+02  0.75313209676E+02  0.00000000000E+00 0.  1.
<scales pt_clust_3="14000.00000" pt_clust_4="65.23800" pt_clust_5="141.75577" pt_clust_6="71.07844"></scales>
<clustering>
<clus scale="   65.238">  2  4  1 -1</clus>
<clus scale="   71.078">  1  6  2 -1</clus>
<clus scale="  141.756">  2  5  1 -1</clus>
<clus scale="   71.078">  1  3  2 -1</clus>
</clustering>
</event>
<event>
 6    0  0.4582113E+002  0.1371804E+03  0.7546771E-02  0.1217174E+00
         21   -1    0    0  504  501  0.00000000000E+00  0.00000000000E+00  0.18596870616E+03  0.18596870616E+03  0.00000000000E+00 0. -1.
         21   -1    0    0  506  502 -0.00000000000E+00 -0.00000000000E+00 -0.35557398355E+03  0.35557398355E+03  0.00000000000E+00 0. -1.
         21    1    1    2  503  501 -0.47374078602E+02 -0.14307990614E+03 -0.14067462482E+03  0.20616865167E+03  0.00000000000E+00 0. -1.
         21    1    1    2  504  505  0.64044687350E+02 -0.38195605752E+01  0.10217168746E+03  0.12064561633E+03  0.00000000000E+00 0. -1.
         21    1    1    2  505  502  0.15104063692E+02  0.12542933044E+03 -0.75474819971E+02  0.14716350813E+03  0.00000000000E+00 0. -1.
         21    1    1    2  506  503 -0.31774672441E+02  0.21470136268E+02 -0.55627520055E+02  0.67564913584E+02  0.00000000000E+00 0.  1.
<scales pt_clust_3="14000.00000" pt_clust_4="63.12470" pt_clust_5="137.18038" pt_clust_6="38.34836"></scales>
<clustering>
<clus scale="   38.348">  2  6  1 -1</clus>
<clus scale="   63.125">  1  4  2 -1</clus>
<clus scale="  137.180">  1  5  2 -1</clus>
<clus scale="   63.125">  1  3  2 -1</clus>
</clustering>
</event>
<event>
 6    0  0.4582113E+002  0.2738111E+03  0.7546771E-02  0.1099118E+00
         21   -1    0    0  505  501  0.00000000000E+00  0.00000000000E+00  0.27258095477E+03  0.27258095477E+03  0.00000000000E+00 0.  1.
         21   -1    0    0  504  502 -0.00000000000E+00 -0.00000000000E+00 -0.11729463331E+04  0.11729463331E+04  0.00000000000E+00 0. -1.
         21    1    1    2  503  506  0.16513041767E+03 -0.20398669651E+03  0.82500335302E+02  0.27510894663E+03  0.00000000000E+00 0.  1.
         21    1    1    2  504  503  0.41559593883E+02  0.86904148365E+02 -0.79736625057E+03  0.80316403580E+03  0.00000000000E+00 0. -1.
         21    1    1    2  505  502 -0.20689581114E+03  0.16762308072E+03 -0.15177529826E+03  0.30649488580E+03  0.00000000000E+00 0. -1.
         21    1    1    2  506  501  0.20579959337E+00 -0.50540532568E+02 -0.33724164837E+02  0.60759419678E+02  0.00000000000E+00 0.  1.
<scales pt_clust_3="273.81108" pt_clust_4="95.82143" pt_clust_5="14000.00000" pt_clust_6="50.54095"></scales>
<clustering>
<clus scale="   50.541">  1  6  2 -1</clus>
<clus scale="   95.821">  2  4  1 -1</clus>
<clus scale="  273.811">  1  3  2 -1</clus>
<clus scale="   50.541">  1  3  2 -1</clus>
</clustering>
</event>
<event>
 6    0  0.4582113E+002  0.9009732E+02  0.7546771E-02  0.1302616E+00
         21   -1    0    0  506  501  0.00000000000E+00  0.00000000000E+00  0.73152382232E+03  0.73152382232E+03  0.00000000000E+00 0.  1.
         21   -1    0    0  505  502 -0.00000000000E+00 -0.00000000000E+00 -0.52573791436E+02  0.52573791436E+02  0.00000000000E+00 0.  1.
         21    1    1    2  503  502 -0.42209600877E+02  0.15834471851E+01 -0.11116534927E+02  0.43677626538E+02  0.00000000000E+00 0.  1.
         21    1    1    2  504  501 -0.51585076542E+02 -0.38038964631E+02  0.44516275188E+03  0.44975310851E+03  0.00000000000E+00 0.  1.
         21    1    1    2  505  504  0.10047658385E+03  0.68292142116E+02  0.16946518475E+03  0.20851333151E+03  0.00000000000E+00 0.  1.
         21    1    1    2  506  503 -0.66819064311E+01 -0.31836624671E+02  0.75438629174E+02  0.82153547188E+02  0.00000000000E+00 0.  1.
<scales pt_clust_3="42.38361" pt_clust_4="90.09732" pt_clust_5="14000.00000" pt_clust_6="32.53027"></scales>
<clustering>
<clus scale="   32.530">  1  6  2 -1</clus>
<clus scale="   42.384">  2  3  1 -1</clus>
<clus scale="   90.097">  1  4  2 -1</clus>
<clus scale="   32.530">  1  3  2 -1</clus>
</clustering>
</event>
<event>
 6    0  0.4582113E+002  0.7270500E+02  0.7546771E-02  0.1351129E+00
         21   -1    0    0  505  501  0.00000000000E+00  0.00000000000E+00  0.24083771016E+03  0.24083771016E+03  0.00000000000E+00 0.  1.
         21   -1    0    0  504  502 -0.00000000000E+00 -0.00000000000E+00 -0.10151992660E+03  0.10151992660E+03  0.00000000000E+00 0.  1.
         21    1    1    2  503  502  0.66039630496E+02 -0.63787348646E+01 -0.32607714205E+02  0.73926883338E+02  0.00000000000E+00 0.  1.
         21    1    1    2  504  506 -0.90189774479E+02  0.54175150172E+02  0.47769588935E+02  0.11554685605E+03  0.00000000000E+00 0.  1.
         21    1    1    2  505  503  0.41622777310E+02 -0.16987387885E+02  0.10103853655E+03  0.11058848406E+03  0.00000000000E+00 0.  1.
         21    1    1    2  506  501 -0.17472633327E+02 -0.30809027422E+02  0.23117372273E+02  0.42295413308E+02  0.00000000000E+00 0.  1.
<scales pt_clust_3="72.70500" pt_clust_4="14000.00000" pt_clust_5="46.23801" pt_clust_6="35.41877"></scales>
<clustering>
<clus scale="   35.419">  1  6  2 -1</clus>
<clus scale="   46.238">  1  5  2 -1</clus>
<clus scale="   72.705">  2  3  1 -1</clus>
<clus scale="   35.419">  1  3  2 -1</clus>
</clustering>
</event>
<event>
 6    0  0.4582113E+002  0.9919848E+02  0.7546771E-02  0.1281991E+00
         21   -1    0    0  504  501  0.00000000000E+00  0.00000000000E+00  0.23403935209E+03  0.23403935209E+03  0.00000000000E+00 0.  1.
         21   -1    0    0  503  502 -0.00000000000E+00 -0.00000000000E+00 -0.26756226535E+03  0.26756226535E+03  0.00000000000E+00 0.  1.
         21    1    1    2  503  506 -0.22136999653E+02 -0.83320582888E+02 -0.22186390185E+03  0.23802511891E+03  0.00000000000E+00 0.  1.
         21    1    1    2  504  505  0.68787102035E+01  0.69756467526E+02  0.13457003971E+03  0.15173126574E+03  0.00000000000E+00 0.  1.
         21    1    1    2  505  502 -0.21955757357E+02  0.41854054308E+02  0.42949256321E+02  0.63862788553E+02  0.00000000000E+00 0.  1.
         21    1    1    2  506  501  0.37214046807E+02 -0.28289938946E+02  0.10821692558E+02  0.47982444238E+02  0.00000000000E+00 0. -1.
<scales pt_clust_3="86.93025" pt_clust_4="39.23888" pt_clust_5="39.23888" pt_clust_6="46.74619"></scales>
<clustering>
<clus scale="   39.239">  4  5 -1 -1</clus>
<clus scale="   46.746">  1  6  2 -1</clus>
<clus scale="   86.930">  2  3  1 -1</clus>
<clus scale="   46.746">  1  3  2 -1</clus>
</clustering>
</event>
<event>
 6    0  0.4582113E+002  0.1321665E+03  0.7546771E-02  0.1224276E+00
         21   -1    0    0  503  501  0.00000000000E+00  0.00000000000E+00  0.13707443270E+03  0.13707443270E+03  0.00000000000E+00 0. -1.
         21   -1    0    0  504  502 -0.00000000000E+00 -0.00000000000E+00 -0.22475915641E+03  0.22475915641E+03  0.00000000000E+00 0. -1.
         21    1    1    2  503  506 -0.57453167939E+00  0.90654887611E+02  0.19683966144E+02  0.92769053340E+02  0.00000000000E+00 0. -1.
         21    1    1    2  504  501  0.39895154828E+02 -0.78777001780E+01 -0.94445957135E+02  0.10282859698E+03  0.00000000000E+00 0. -1.
         21    1    1    2  505  502 -0.71463068056E+02 -0.10440280620E+03 -0.15203436429E+02  0.12742864873E+03  0.00000000000E+00 0. -1.
         21    1    1    2  506  505  0.32142444907E+02  0.21625618766E+02  0.22807037058E+01  0.38807290050E+02  0.00000000000E+00 0. -1.
<scales pt_clust_3="37.13154" pt_clust_4="40.66548" pt_clust_5="119.33788" pt_clust_6="37.13154"></scales>
<clustering>
<clus scale="   37.132">  3  6 -1 -1</clus>
<clus scale="   40.665">  2  4  1 -1</clus>
<clus scale="  119.338">  2  5  1 -1</clus>
<clus scale="  132.166">  1  3  2 -1</clus>
</clustering>
</event>
<event>
 6    0  0.4582113E+002  0.1783227E+03  0.7546771E-02  0.1169436E+00
         21   -1    0    0  505  501  0.00000000000E+00  0.00000000000E+00  0.91444135854E+03  0.91444135854E+03  0.00000000000E+00 0. -1.
         21   -1    0    0  503  502 -0.00000000000E+00 -0.00000000000E+00 -0.79384524916E+02  0.79384524916E+02  0.00000000000E+00 0. -1.
         21    1    1    2  503  504 -0.15932381458E+02  0.66475560327E+02  0.69786584750E+02  0.97688322284E+02  0.00000000000E+00 0. -1.
         21    1    1    2  504  501  0.15091393525E+03 -0.15950077427E+03  0.17119331849E+03  0.27842892296E+03  0.00000000000E+00 0. -1.
         21    1    1    2  505  506 -0.71929758557E+02  0.32980491212E+02  0.34142448112E+03  0.35047436322E+03  0.00000000000E+00 0. -1.
         21    1    1    2  506  502 -0.63051795238E+02  0.60044722731E+02  0.25265244926E+03  0.26723427498E+03  0.00000000000E+00 0. -1.
<scales pt_clust_3="68.35818" pt_clust_4="173.30933" pt_clust_5="40.02664" pt_clust_6="40.02664"></scales>
<clustering>
<clus scale="   40.027">  5  6 -1 -1</clus>
<clus scale="   68.358">  2  3  1 -1</clus>
<clus scale="  173.309">  2  4  1 -1</clus>
<clus scale="  178.323">  1  3  2 -1</clus>
</clustering>
</event>
<event>
 6    0  0.4582113E+002  0.7740627E+02  0.7546771E-02  0.1336577E+00
         21   -1    0    0  503  501  0.00000000000E+00  0.00000000000E+00  0.25078867734E+03  0.25078867734E+03  0.00000000000E+00 0. -1.
         21   -1    0    0  505  502 -0.00000000000E+00 -0.00000000000E+00 -0.30254313733E+03  0.30254313733E+03  0.00000000000E+00 0. -1.
         21    1    1    2  503  504 -0.27251795325E+02 -0.38865577947E+02  0.37640093673E+02  0.60580278551E+02  0.00000000000E+00 0. -1.
         21    1    1    2  504  502 -0.87859125951E+02  0.84958951258E+01 -0.19828164948E+03  0.21704151393E+03  0.00000000000E+00 0. -1.
         21    1    1    2  505  506  0.15995115368E+02 -0.27458829210E+02 -0.62116064383E+02  0.69772748776E+02  0.00000000000E+00 0. -1.
         21    1    1    2  506  501  0.99115805908E+02  0.57828512031E+02  0.17100316021E+03  0.20593727342E+03  0.00000000000E+00 0. -1.
<scales pt_clust_3="48.13291" pt_clust_4="77.40627" pt_clust_5="31.77784" pt_clust_6="14000.00000"></scales>
<clustering>
<clus scale="   31.778">  2  5  1 -1</clus>
<clus scale="   48.133">  1  3  2 -1</clus>
<clus scale="   77.406">  2  4  1 -1</clus>
<clus scale="   48.133">  1  3  2 -1</clus>
</clustering>
</event>
<event>
 6    0  0.4582113E+002  0.9643095E+02  0.7546771E-02  0.1287985E+00
         21   -1    0    0  502  501  0.00000000000E+00  0.00000000000E+00  0.14028481860E+03  0.14028481860E+03  0.00000000000E+00 0.  1.
         21   -1    0    0  505  502 -0.00000000000E+00 -0.00000000000E+00 -0.39456032456E+03  0.39456032456E+03  0.00000000000E+00 0. -1.
         21    1    1    2  503  504  0.86959699717E+01  0.10695675118E+03 -0.16735528675E+02  0.10860683421E+03  0.00000000000E+00 0.  1.
         21    1    1    2  504  501  0.67112707692E+02 -0.19330981493E+02  0.63514364710E+02  0.94402737798E+02  0.00000000000E+00 0.  1.
         21    1    1    2  505  506 -0.25654911685E+02 -0.21970144312E+02 -0.19237246882E+03  0.19531520293E+03  0.00000000000E+00 0. -1.
         21    1    1    2  506  503 -0.50153765979E+02 -0.65655625377E+02 -0.10868187317E+03  0.13652036823E+03  0.00000000000E+00 0. -1.
<scales pt_clust_3="14000.00000" pt_clust_4="68.44670" pt_clust_5="33.77664" pt_clust_6="96.43095"></scales>
<clustering>
<clus scale="   33.777">  2  5  1 -1</clus>
<clus scale="   68.447">  1  4  2 -1</clus>
<clus scale="   96.431">  2  6  1 -1</clus>
<clus scale="   68.447">  1  3  2 -1</clus>
</clustering>
</event>
<event>
 6    0  0.4582113E+002  0.1389375E+03  0.7546771E-02  0.1214766E+00
         21   -1    0    0  504  501  0.00000000000E+00  0.00000000000E+00  0.13938823870E+03  0.13938823870E+03  0.00000000000E+00 0.  1.
         21   -1    0    0  503  502 -0.00000000000E+00 -0.00000000000E+00 -0.57758313476E+03  0.57758313476E+03  0.00000000000E+00 0.  1.
         21    1    1    2  503  505 -0.25781365019E+02  0.12253801398E+03 -0.10167051124E+03  0.16129828427E+03  0.00000000000E+00 0.  1.
         21    1    1    2  504  506 -0.49452655973E+02 -0.21495538410E+02 -0.20123131146E+02  0.57554876087E+02  0.00000000000E+00 0.  1.
         21    1    1    2  505  501  0.10361904652E+03 -0.11116103603E+03  0.26188137818E+02  0.15420603521E+03  0.00000000000E+00 0.  1.
         21    1    1    2  506  502 -0.28385025525E+02  0.10118560456E+02 -0.34258939149E+03  0.34391217789E+03  0.00000000000E+00 0.  1.
<scales pt_clust_3="138.93747" pt_clust_4="57.66960" pt_clust_5="14000.00000" pt_clust_6="30.13461"></scales>
<clustering>
<clus scale="   30.135">  2  6  1 -1</clus>
<clus scale="   57.670">  2  4  1 -1</clus>
<clus scale="  138.937">  2  3  1 -1</clus>
<clus scale="  138.937">  1  3  2 -1</clus>
</clustering>
</event>
<event>
 6    0  0.4582113E+002  0.1589877E+03  0.7546771E-02  0.1189844E+00
         21   -1    0    0  503  501  0.00000000000E+00  0.00000000000E+00  0.38727554085E+02  0.38727554085E+02  0.00000000000E+00 0. -1.
         21   -1    0    0  504  502 -0.00000000000E+00 -0.00000000000E+00 -0.14051895043E+04  0.14051895043E+04  0.00000000000E+00 0.  1.
         21    1    1    2  503  506  0.22401538135E+02 -0.81971255450E+02 -0.17212225341E+03  0.19195620790E+03  0.00000000000E+00 0.  1.
         21    1    1    2  504  501 -0.75893130079E+02  0.16934019711E+03 -0.40899466587E+03  0.44912415462E+03  0.00000000000E+00 0. -1.
         21    1    1    2  505  502  0.82364128992E+02 -0.40301322929E+02 -0.65341277745E+03  0.65981535608E+03  0.00000000000E+00 0.  1.
         21    1    1    2  506  505 -0.28872537047E+02 -0.47067618734E+02 -0.13193225353E+03  0.14302133984E+03  0.00000000000E+00 0. -1.
<scales pt_clust_3="44.64872" pt_clust_4="149.02742" pt_clust_5="91.69540" pt_clust_6="44.64872"></scales>
<clustering>
<clus scale="   44.649">  3  6 -1 -1</clus>
<clus scale="   91.695">  2  5  1 -1</clus>
<clus scale="  149.027">  2  4  1 -1</clus>
<clus scale="  158.988">  1  3  2 -1</clus>
</clustering>
</event>
<event>
 6    0  0.4582113E+002  0.1224095E+03  0.7546771E-02  0.1239174E+00
         21   -1    0    0  506  501  0.00000000000E+00  0.00000000000E+00  0.24804530975E+03  0.24804530975E+03  0.00000000000E+00 0.  1.
         21   -1    0    0  505  502 -0.00000000000E+00 -0.00000000000E+00 -0.29756537943E+03  0.29756537943E+03  0.00000000000E+00 0.  1.
         21    1    1    2  503  501  0.41810333378E+02  0.36337511442E+02 -0.22820662906E+01  0.55441198955E+02  0.00000000000E+00 0.  1.
         21    1    1    2  504  502 -0.83991596454E+02 -0.97459268756E+02 -0.21153119767E+03  0.24758502566E+03  0.00000000000E+00 0.  1.
         21    1    1    2  505  503  0.51119578249E+02 -0.26590548839E+02  0.17253532301E+01  0.57647596756E+02  0.00000000000E+00 0.  1.
         21    1    1    2  506  504 -0.89383151736E+01  0.87712306152E+02  0.16256784106E+03  0.18493686781E+03  0.00000000000E+00 0.  1.
<scales pt_clust_3="55.39421" pt_clust_4="122.40949" pt_clust_5="60.74013" pt_clust_6="14000.00000"></scales>
<clustering>
<clus scale="   55.394">  1  3  2 -1</clus>
<clus scale="   60.740">  1  5  2 -1</clus>
<clus scale="  122.409">  2  4  1 -1</clus>
<clus scale="   55.394">  1  3  2 -1</clus>
</clustering>
</event>
<event>
 6    0  0.4582113E+002  0.7568283E+02  0.7546771E-02  0.1341769E+00
         21   -1    0    0  505  501  0.00000000000E+00  0.00000000000E+00  0.25148669886E+03  0.25148669886E+03  0.00000000000E+00 0. -1.
         21   -1    0    0  504  502 -0.00000000000E+00 -0.00000000000E+00 -0.37125253809E+03  0.37125253809E+03  0.00000000000E+00 0.  1.
         21    1    1    2  503  502  0.25447344318E+02 -0.70581712196E+02 -0.30264975640E+03  0.31181119364E+03  0.00000000000E+00 0.  1.
         21    1    1    2  504  506  0.28002744066E+02 -0.64969037098E+02  0.70456829145E+02  0.99846353113E+02  0.00000000000E+00 0. -1.
         21    1    1    2  505  503 -0.57438179041E+02  0.80459214279E+02  0.11983790900E+03  0.15535106697E+03  0.00000000000E+00 0. -1.
         21    1    1    2  506  501  0.39880906572E+01  0.55091535014E+02 -0.74108209741E+01  0.55730623223E+02  0.00000000000E+00 0. -1.
<scales pt_clust_3="75.68283" pt_clust_4="53.24905" pt_clust_5="14000.00000" pt_clust_6="55.23570"></scales>
<clustering>
<clus scale="   55.236">  1  6  2 -1</clus>
<clus scale="   53.249">  1  4  2 -1</clus>
<clus scale="   75.683">  2  3  1 -1</clus>
<clus scale="   55.236">  1  3  2 -1</clus>
</clustering>
</event>
<event>
 6    0  0.4582113E+002  0.1068388E+03  0.7546771E-02  0.1266538E+00
         21   -1    0    0  505  501  0.00000000000E+00  0.00000000000E+00  0.81328908594E+03  0.81328908594E+03  0.00000000000E+00 0.  1.
         21   -1    0    0  504  502 -0.00000000000E+00 -0.00000000000E+00 -0.29742766502E+03  0.29742766502E+03  0.00000000000E+00 0.  1.
         21    1    1    2  503  506 -0.49980669865E+02 -0.91311159004E+01  0.25404674009E+03  0.25907757677E+03  0.00000000000E+00 0.  1.
         21    1    1    2  504  503  0.15399772929E+03  0.11585454655E+03 -0.14005833836E+03  0.23823080138E+03  0.00000000000E+00 0.  1.
         21    1    1    2  505  502 -0.74018872868E+02 -0.68523905059E+02 -0.80217958662E+02  0.12887684042E+03  0.00000000000E+00 0.  1.
         21    1    1    2  506  501 -0.29998186553E+02 -0.38199525591E+02  0.48209097786E+03  0.48453153239E+03  0.00000000000E+00 0.  1.
<scales pt_clust_3="48.08781" pt_clust_4="94.84498" pt_clust_5="100.86783" pt_clust_6="48.08781"></scales>
<clustering>
<clus scale="   48.088">  3  6 -1 -1</clus>
<clus scale="  100.868">  2  5  1 -1</clus>
<clus scale="   94.845">  2  4  1 -1</clus>
<clus scale="  106.839">  1  3  2 -1</clus>
</clustering>
</event>
<event>
 6    0  0.4582113E+002  0.6836944E+02  0.7546771E-02  0.1365727E+00
         21   -1    0    0  503  501  0.00000000000E+00  0.00000000000E+00  0.50019002417E+03  0.50019002417E+03  0.00000000000E+00 0. -1.
         21   -1    0    0  504  502 -0.00000000000E+00 -0.00000000000E+00 -0.35698276019E+03  0.35698276019E+03  0.00000000000E+00 0. -1.
         21    1    1    2  503  506  0.84415945409E+02  0.38872491889E+02  0.13319221604E+03  0.16241086441E+03  0.00000000000E+00 0. -1.
         21    1    1    2  504  505 -0.90561631720E+01 -0.71059371777E+02  0.62213938693E+02  0.94878989121E+02  0.00000000000E+00 0. -1.
         21    1    1    2  505  501 -0.28061235884E+02 -0.17023990218E+02  0.26926227162E+03  0.27125526745E+03  0.00000000000E+00 0. -1.
         21    1    1    2  506  502 -0.47298546354E+02  0.49210870106E+02 -0.32146116237E+03  0.32862766338E+03  0.00000000000E+00 0. -1.
<scales pt_clust_3="67.13324" pt_clust_4="14000.00000" pt_clust_5="32.82147" pt_clust_6="68.36944"></scales>
<clustering>
<clus scale="   32.821">  1  5  2 -1</clus>
<clus scale="   68.369">  2  6  1 -1</clus>
<clus scale="   67.133">  1  3  2 -1</clus>
<clus scale="   32.821">  1  3  2 -1</clus>
</clustering>
</event>
<event>
 6    0  0.4582113E+002  0.1208733E+03  0.7546771E-02  0.1241663E+00
         21   -1    0    0  503  501  0.00000000000E+00  0.00000000000E+00  0.32740425622E+04  0.32740425622E+04  0.00000000000E+00 0. -1.
         21   -1    0    0  506  502 -0.00000000000E+00 -0.00000000000E+00 -0.31837431464E+03  0.31837431464E+03  0.00000000000E+00 0.  1.
         21    1    1    2  503  505  0.67817004719E+02 -0.35820160669E+02  0.25701801584E+04  0.25713242263E+04  0.00000000000E+00 0. -1.
         21    1    1    2  504  501  0.16054806534E+02 -0.52552555301E+02  0.67426851253E+03  0.67650392081E+03  0.00000000000E+00 0.  1.
         21    1    1    2  505  502 -0.35957065045E+02  0.29404321069E+02 -0.48789899244E+00  0.46451724075E+02  0.00000000000E+00 0. -1.
         21    1    1    2  506  504 -0.47914746208E+02  0.58968394902E+02 -0.28829252441E+03  0.29813700564E+03  0.00000000000E+00 0.  1.
<scales pt_clust_3="120.87327" pt_clust_4="54.80392" pt_clust_5="46.44916" pt_clust_6="14000.00000"></scales>
<clustering>
<clus scale="   46.449">  2  5  1 -1</clus>
<clus scale="   54.804">  1  4  2 -1</clus>
<clus scale="  120.873">  1  3  2 -1</clus>
<clus scale="   54.804">  1  3  2 -1</clus>
</clustering>
</event>
<event>
 6    0  0.4582113E+002  0.2103467E+03  0.7546771E-02  0.1141292E+00
         21   -1    0    0  504  501  0.00000000000E+00  0.00000000000E+00  0.33003904815E+03  0.33003904815E+03  0.00000000000E+00 0.  1.
         21   -1    0    0  503  502 -0.00000000000E+00 -0.00000000000E+00 -0.35233741908E+03  0.35233741908E+03  0.00000000000E+00 0.  1.
         21    1    1    2  503  505  0.17984946245E+02  0.32380474154E+02 -0.40301277161E+02  0.54737065492E+02  0.00000000000E+00 0.  1.
         21    1    1    2  504  502 -0.20251719692E+03 -0.10673269675E+03 -0.21643871729E+03  0.31504095281E+03  0.00000000000E+00 0.  1.
         21    1    1    2  505  506  0.51207904155E+02 -0.52763950517E+01  0.58405188862E+02  0.77854067836E+02  0.00000000000E+00 0. -1.
         21    1    1    2  506  501  0.13332434652E+03  0.79628617644E+02  0.17603643467E+03  0.23474438109E+03  0.00000000000E+00 0.  1.
<scales pt_clust_3="37.03989" pt_clust_4="202.66036" pt_clust_5="32.43970" pt_clust_6="32.43970"></scales>
<clustering>
<clus scale="   32.440">  5  6 -1 -1</clus>
<clus scale="   37.040">  2  3  1 -1</clus>
<clus scale="  202.660">  2  4  1 -1</clus>
<clus scale="  210.347">  1  3  2 -1</clus>
</clustering>
</event>
<event>
 6    0  0.4582113E+002  0.8859698E+02  0.7546771E-02  0.1306285E+00
         21   -1    0    0  505  501  0.00000000000E+00  0.00000000000E+00  0.10958766712E+04  0.10958766712E+04  0.00000000000E+00 0.  1.
         21   -1    0    0  503  502 -0.00000000000E+00 -0.00000000000E+00 -0.42374165067E+02  0.42374165067E+02  0.00000000000E+00 0. -1.
         21    1    1    2  503  504  0.14660075431E+02 -0.31255407482E+02 -0.13621081699E+02  0.37112695606E+02  0.00000000000E+00 0. -1.
         21    1    1    2  504  506  0.43330421145E+02 -0.43985415414E+02  0.80189794306E+02  0.10120595475E+03  0.00000000000E+00 0. -1.
         21    1    1    2  505  502 -0.87743289325E+02  0.88234233773E+02  0.85785762177E+03  0.86683554615E+03  0.00000000000E+00 0.  1.
         21    1    1    2  506  501  0.29752792749E+02 -0.12993410878E+02  0.12907617178E+03  0.13309663979E+03  0.00000000000E+00 0.  1.
<scales pt_clust_3="34.82073" pt_clust_4="88.59698" pt_clust_5="14000.00000" pt_clust_6="32.46625"></scales>
<clustering>
<clus scale="   32.466">  1  6  2 -1</clus>
<clus scale="   34.821">  2  3  1 -1</clus>
<clus scale="   88.597">  2  4  1 -1</clus>
<clus scale="   32.466">  1  3  2 -1</clus>
</clustering>
</event>
<event>
 6    0  0.4582113E+002  0.6716413E+02  0.7546771E-02  0.1370011E+00
         21   -1    0    0  503  501  0.00000000000E+00  0.00000000000E+00  0.55678285040E+03  0.55678285040E+03  0.00000000000E+00 0.  1.
         21   -1    0    0  505  502 -0.00000000000E+00 -0.00000000000E+00 -0.90995702763E+03  0.90995702763E+03  0.00000000000E+00 0. -1.
         21    1    1    2  503  506  0.38913538864E+02  0.20120664786E+02  0.41179476372E+03  0.41411837931E+03  0.00000000000E+00 0.  1.
         21    1    1    2  504  501 -0.25254193624E+02 -0.84542095696E+02  0.12382910324E+03  0.15204863383E+03  0.00000000000E+00 0.  1.
         21    1    1    2  505  504 -0.31022350325E+02  0.91776132492E+02 -0.43675978938E+03  0.44737496391E+03  0.00000000000E+00 0.  1.
         21    1    1    2  506  502  0.17363005085E+02 -0.27354701582E+02 -0.45203825480E+03  0.45319790098E+03  0.00000000000E+00 0. -1.
<scales pt_clust_3="43.81493" pt_clust_4="14000.00000" pt_clust_5="67.16413" pt_clust_6="32.39990"></scales>
<clustering>
<clus scale="   32.400">  2  6  1 -1</clus>
<clus scale="   43.815">  1  3  2 -1</clus>
<clus scale="   67.164">  2  5  1 -1</clus>
<clus scale="   43.815">  1  3  2 -1</clus>
</clustering>
</event>
<event>
 6    0  0.4582113E+002  0.1081444E+03  0.7546771E-02  0.1264045E+00
         21   -1    0    0  505  501  0.00000000000E+00  0.00000000000E+00  0.78678300133E+02  0.78678300133E+02  0.00000000000E+00 0.  1.
         21   -1    0    0  504  502 -0.00000000000E+00 -0.00000000000E+00 -0.61075974539E+03  0.61075974539E+03  0.00000000000E+00 0. -1.
         21    1    1    2  503  502 -0.49190866414E+02  0.15656584050E+02 -0.21643965133E+03  0.22251065734E+03  0.00000000000E+00 0. -1.
         21    1    1    2  504  501 -0.59772103281E+02 -0.95116339337E+02 -0.12233443226E+02  0.11300212154E+03  0.00000000000E+00 0.  1.
         21    1    1    2  505  506  0.53658362071E+02 -0.16227838862E+02 -0.41792918449E+02  0.69922890435E+02  0.00000000000E+00 0. -1.
         21    1    1    2  506  503  0.55304607624E+02  0.95687594149E+02 -0.26161543225E+03  0.28400237621E+03  0.00000000000E+00 0. -1.
<scales pt_clust_3="51.62238" pt_clust_4="14000.00000" pt_clust_5="48.69009" pt_clust_6="108.14438"></scales>
<clustering>
<clus scale="   51.622">  2  3  1 -1</clus>
<clus scale="   48.690">  1  5  2 -1</clus>
<clus scale="  108.144">  2  6  1 -1</clus>
<clus scale="   48.690">  1  3  2 -1</clus>
</clustering>
</event>
<event>
 6    0  0.4582113E+002  0.2019981E+03  0.7546771E-02  0.1148064E+00
         21   -1    0    0  503  501  0.00000000000E+00  0.00000000000E+00  0.40415403062E+02  0.40415403062E+02  0.00000000000E+00 0.  1.
         21   -1    0    0  506  502 -0.00000000000E+00 -0.00000000000E+00 -0.21495252197E+04  0.21495252197E+04  0.00000000000E+00 0.  1.
         21    1    1    2  503  504  0.57848733585E+02 -0.64336054594E+02 -0.99164513106E+02  0.13160244890E+03  0.00000000000E+00 0.  1.
         21    1    1    2  504  502  0.10019300373E+03 -0.61527392934E+02 -0.19063638486E+03  0.22397876977E+03  0.00000000000E+00 0.  1.
         21    1    1    2  505  501 -0.12187214789E+03  0.13849538114E+03 -0.12246234056E+04  0.12384410670E+04  0.00000000000E+00 0.  1.
         21    1    1    2  506  505 -0.36169589424E+02 -0.12631933611E+02 -0.59468551311E+03  0.59591833706E+03  0.00000000000E+00 0.  1.
<scales pt_clust_3="34.68230" pt_clust_4="34.68230" pt_clust_5="197.91060" pt_clust_6="38.31194"></scales>
<clustering>
<clus scale="   34.682">  3  4 -1 -1</clus>
<clus scale="   38.312">  2  6  1 -1</clus>
<clus scale="  197.911">  2  5  1 -1</clus>
<clus scale="  201.998">  1  3  2 -1</clus>
</clustering>
</event>
<event>
 6    0  0.4582113E+002  0.2752437E+03  0.7546771E-02  0.1098315E+00
         21   -1    0    0  503  501  0.00000000000E+00  0.00000000000E+00  0.13387244162E+04  0.13387244162E+04  0.00000000000E+00 0.  1.
         21   -1    0    0  505  502 -0.00000000000E+00 -0.00000000000E+00 -0.11105519019E+03  0.11105519019E+03  0.00000000000E+00 0.  1.
         21    1    1    2  503  502  0.23168129764E+03  0.15942108805E+03  0.75487702873E+03  0.80556231013E+03  0.00000000000E+00 0.  1.
         21    1    1    2  504  506 -0.13255401093E+03 -0.43047588314E+02  0.29790427960E+03  0.32889302285E+03  0.00000000000E+00 0.  1.
         21    1    1    2  505  504 -0.12507298105E+02 -0.32319717653E+02 -0.49563891898E+02  0.60477897079E+02  0.00000000000E+00 0.  1.
         21    1    1    2  506  501 -0.86619988610E+02 -0.84053782084E+02  0.22445180959E+03  0.25484637635E+03  0.00000000000E+00 0.  1.
<scales pt_clust_3="268.43115" pt_clust_4="57.34880" pt_clust_5="34.65540" pt_clust_6="57.34880"></scales>
<clustering>
<clus scale="   34.655">  2  5  1 -1</clus>
<clus scale="   57.349">  4  6 -1 -1</clus>
<clus scale="  268.431">  1  3  2 -1</clus>
<clus scale="  268.431">  1  3  2 -1</clus>
</clustering>
</event>
<event>
 6    0  0.4582113E+002  0.9460702E+02  0.7546771E-02  0.1292064E+00
         21   -1    0    0  503  501  0.00000000000E+00  0.00000000000E+00  0.18309809798E+03  0.18309809798E+03  0.00000000000E+00 0.  1.
         21   -1    0    0  504  502 -0.00000000000E+00 -0.00000000000E+00 -0.16448998323E+03  0.16448998323E+03  0.00000000000E+00 0.  1.
         21    1    1    2  503  506 -0.85950299465E+02 -0.64857064910E+02  0.76266359693E+02  0.13194866603E+03  0.00000000000E+00 0.  1.
         21    1    1    2  504  505  0.51006689148E+02  0.21098292771E+02 -0.33493675223E+02  0.64565056924E+02  0.00000000000E+00 0.  1.
         21    1    1    2  505  501  0.39441137205E+02  0.75339384250E+02  0.28341829711E+02  0.89637522470E+02  0.00000000000E+00 0.  1.
         21    1    1    2  506  502 -0.44975268872E+01 -0.31580612112E+02 -0.52506399432E+02  0.61436835781E+02  0.00000000000E+00 0.  1.
<scales pt_clust_3="14000.00000" pt_clust_4="49.41175" pt_clust_5="94.60702" pt_clust_6="31.89926"></scales>
<clustering>
<clus scale="   31.899">  2  6  1 -1</clus>
<clus scale="   49.412">  2  4  1 -1</clus>
<clus scale="   94.607">  2  5  1 -1</clus>
<clus scale="   94.607">  1  3  2 -1</clus>
</clustering>
</event>
<event>
 6    0  0.4582113E+002  0.1333484E+03  0.7546771E-02  0.1222570E+00
         21   -1    0    0  504  501  0.00000000000E+00  0.00000000000E+00  0.25883246380E+03  0.25883246380E+03  0.00000000000E+00 0. -1.
         21   -1    0    0  503  502 -0.00000000000E+00 -0.00000000000E+00 -0.12099281401E+03  0.12099281401E+03  0.00000000000E+00 0. -1.
         21    1    1    2  503  506  0.33230551840E+02 -0.21792487589E+02  0.34108599819E+01  0.39885035499E+02  0.00000000000E+00 0. -1.
         21    1    1    2  504  502 -0.51000324427E+02  0.13193553363E+03 -0.16226032998E+02  0.14237732359E+03  0.00000000000E+00 0. -1.
         21    1    1    2  505  501  0.35732238234E+02 -0.34149233888E+02  0.64968559877E+02  0.81632571912E+02  0.00000000000E+00 0. -1.
         21    1    1    2  506  505 -0.17962465647E+02 -0.75993812153E+02  0.85686262931E+02  0.11593034682E+03  0.00000000000E+00 0. -1.
<scales pt_clust_3="39.73892" pt_clust_4="117.87632" pt_clust_5="50.46719" pt_clust_6="50.46719"></scales>
<clustering>
<clus scale="   39.739">  2  3  1 -1</clus>
<clus scale="   50.467">  5  6 -1 -1</clus>
<clus scale="  117.876">  2  4  1 -1</clus>
<clus scale="  133.348">  1  3  2 -1</clus>
</clustering>
</event>
<event>
 6    0  0.4582113E+002  0.9543107E+02  0.7546771E-02  0.1290208E+00
         21   -1    0    0  506  501  0.00000000000E+00  0.00000000000E+00  0.15931344264E+03  0.15931344264E+03  0.00000000000E+00 0. -1.
         21   -1    0    0  504  502 -0.00000000000E+00 -0.00000000000E+00 -0.91203513938E+03  0.91203513938E+03  0.00000000000E+00 0. -1.
         21    1    1    2  503  501  0.72275130485E+02 -0.11198586323E+02  0.77389759754E+01  0.73545867126E+02  0.00000000000E+00 0. -1.
         21    1    1    2  504  505  0.32608016122E+02 -0.39637210103E+02 -0.76373686929E+03  0.76545959832E+03  0.00000000000E+00 0. -1.
         21    1    1    2  505  503  0.25366956908E+02  0.81611861628E+02 -0.36188170969E+02  0.92809278519E+02  0.00000000000E+00 0. -1.
         21    1    1    2  506  502 -0.13025010351E+03 -0.30776065202E+02  0.39464367547E+02  0.13953383805E+03  0.00000000000E+00 0. -1.
<scales pt_clust_3="14000.00000" pt_clust_4="51.32632" pt_clust_5="75.50870" pt_clust_6="95.43107"></scales>
<clustering>
<clus scale="   51.326">  2  4  1 -1</clus>
<clus scale="   75.509">  2  5  1 -1</clus>
<clus scale="   95.431">  2  6  1 -1</clus>
<clus scale="   95.431">  1  3  2 -1</clus>
</clustering>
</event>
<event>
 6    0  0.4582113E+002  0.1052423E+03  0.7546771E-02  0.1269643E+00
         21   -1    0    0  504  501  0.00000000000E+00  0.00000000000E+00  0.10967011043E+04  0.10967011043E+04  0.00000000000E+00 0. -1.
         21   -1    0    0  505  502 -0.00000000000E+00 -0.00000000000E+00 -0.10927692797E+03  0.10927692797E+03  0.00000000000E+00 0.  1.
         21    1    1    2  503  502  0.41200017409E+02 -0.54500960373E+02 -0.58841632642E+02  0.90167254855E+02  0.00000000000E+00 0.  1.
         21    1    1    2  504  503 -0.70084359790E+02  0.67813507362E+02  0.91216744661E+03  0.91736576126E+03  0.00000000000E+00 0. -1.
         21    1    1    2  505  506  0.56418464564E+02  0.58405040980E+01 -0.34902426749E+01  0.56827250732E+02  0.00000000000E+00 0. -1.
         21    1    1    2  506  501 -0.27534122183E+02 -0.19153051087E+02  0.13758860505E+03  0.14161776545E+03  0.00000000000E+00 0.  1.
<scales pt_clust_3="14000.00000" pt_clust_4="105.24232" pt_clust_5="55.90371" pt_clust_6="33.54053"></scales>
<clustering>
<clus scale="   33.541">  1  6  2 -1</clus>
<clus scale="   55.904">  2  5  1 -1</clus>
<clus scale="  105.242">  1  4  2 -1</clus>
<clus scale="   33.541">  1  3  2 -1</clus>
</clustering>
</event>
<event>
 6    0  0.4582113E+002  0.1175523E+03  0.7546771E-02  0.1247190E+00
         21   -1    0    0  504  501  0.00000000000E+00  0.00000000000E+00  0.33783209055E+03  0.33783209055E+03  0.00000000000E+00 0. -1.
         21   -1    0    0  506  502 -0.00000000000E+00 -0.00000000000E+00 -0.47308395580E+03  0.47308395580E+03  0.00000000000E+00 0.  1.
         21    1    1    2  503  502 -0.25058634380E+02 -0.12029144959E+03 -0.36938626554E+03  0.38928675956E+03  0.00000000000E+00 0.  1.
         21    1    1    2  504  503 -0.96053038894E+02 -0.11504353648E+01  0.10343860304E+03  0.14116321894E+03  0.00000000000E+00 0. -1.
         21    1    1    2  505  501  0.80691060349E+02  0.31164420027E+02  0.15599161148E+03  0.17836942324E+03  0.00000000000E+00 0. -1.
         21    1    1    2  506  505  0.40420612925E+02  0.90277464927E+02 -0.25295814220E+02  0.10209664461E+03  0.00000000000E+00 0.  1.
<scales pt_clust_3="117.55233" pt_clust_4="43.70189" pt_clust_5="86.50011" pt_clust_6="14000.00000"></scales>
<clustering>
<clus scale="   86.500">  1  5  2 -1</clus>
<clus scale="   43.702">  1  4  2 -1</clus>
<clus scale="  117.552">  2  3  1 -1</clus>
<clus scale="   86.500">  1  3  2 -1</clus>
</clustering>
</event>
<event>
 6    0  0.4582113E+002  0.1794424E+03  0.7546771E-02  0.1168344E+00
         21   -1    0    0  506  501  0.00000000000E+00  0.00000000000E+00  0.14094047675E+04  0.14094047675E+04  0.00000000000E+00 0.  1.
         21   -1    0    0  504  502 -0.00000000000E+00 -0.00000000000E+00 -0.60670513516E+02  0.60670513516E+02  0.00000000000E+00 0.  1.
         21    1    1    2  503  502 -0.10444088509E+02  0.67757969289E+02  0.15585524353E+03  0.17026766670E+03  0.00000000000E+00 0. -1.
         21    1    1    2  504  505 -0.22570173718E+02  0.55347286375E+02  0.27755704378E+02  0.65902306305E+02  0.00000000000E+00 0.  1.
         21    1    1    2  505  501 -0.48633703654E+02  0.43510505332E+02  0.12499505605E+02  0.66442748632E+02  0.00000000000E+00 0.  1.
         21    1    1    2  506  503  0.81647965881E+02 -0.16661576100E+03  0.11526238005E+04  0.11674625594E+04  0.00000000000E+00 0.  1.
<scales pt_clust_3="68.55816" pt_clust_4="31.03994" pt_clust_5="31.03994" pt_clust_6="176.48707"></scales>
<clustering>
<clus scale="   31.040">  4  5 -1 -1</clus>
<clus scale="   68.558">  2  3  1 -1</clus>
<clus scale="  176.487">  1  6  2 -1</clus>
<clus scale="  176.487">  1  3  2 -1</clus>
</clustering>
</event>
<event>
 6    0  0.4582113E+002  0.8776047E+02  0.7546771E-02  0.1308367E+00
         21   -1    0    0  503  501  0.00000000000E+00  0.00000000000E+00  0.23376556956E+03  0.23376556956E+03  0.00000000000E+00 0. -1.
         21   -1    0    0  504  502 -0.00000000000E+00 -0.00000000000E+00 -0.14526338733E+03  0.14526338733E+03  0.00000000000E+00 0.  1.
         21    1    1    2  503  506 -0.42792201959E+02  0.12277097461E+02  0.66557386492E+02  0.80073624667E+02  0.00000000000E+00 0.  1.
         21    1    1    2  504  505 -0.46143123312E+02  0.68927420208E+02 -0.27031715286E+02  0.87240419055E+02  0.00000000000E+00 0.  1.
         21    1    1    2  505  501 -0.12755287303E+02 -0.50514020835E+02  0.84876715636E+02  0.99591267249E+02  0.00000000000E+00 0. -1.
         21    1    1    2  506  502  0.10169061257E+03 -0.30690496835E+02 -0.35900204616E+02  0.11212364591E+03  0.00000000000E+00 0. -1.
<scales pt_clust_3="44.51853" pt_clust_4="14000.00000" pt_clust_5="57.30454" pt_clust_6="87.76047"></scales>
<clustering>
<clus scale="   44.519">  1  3  2 -1</clus>
<clus scale="   57.305">  1  5  2 -1</clus>
<clus scale="   87.760">  1  6  2 -1</clus>
<clus scale="   44.519">  1  3  2 -1</clus>
</clustering>
</event>
<event>
 6    0  0.4582113E+002  0.2026283E+03  0.7546771E-02  0.1147540E+00
         21   -1    0    0  506  501  0.00000000000E+00  0.00000000000E+00  0.19968410440E+03  0.19968410440E+03  0.00000000000E+00 0. -1.
         21   -1    0    0  505  502 -0.00000000000E+00 -0.00000000000E+00 -0.56993821061E+03  0.56993821061E+03  0.00000000000E+00 0. -1.
         21    1    1    2  503  502  0.13285322737E+03  0.88213266725E+02 -0.34659457865E+02  0.16319570604E+03  0.00000000000E+00 0. -1.
         21    1    1    2  504  501 -0.27651719590E+03 -0.13490094991E+02 -0.10423690862E+03  0.29581932900E+03  0.00000000000E+00 0. -1.
         21    1    1    2  505  504  0.77035213206E+02 -0.24845143662E+02 -0.20944440762E+03  0.22454100989E+03  0.00000000000E+00 0. -1.
         21    1    1    2  506  503  0.66628755327E+02 -0.49878028072E+02 -0.21913332104E+02  0.86066270075E+02  0.00000000000E+00 0. -1.
<scales pt_clust_3="14000.00000" pt_clust_4="202.62834" pt_clust_5="80.94260" pt_clust_6="95.02606"></scales>
<clustering>
<clus scale="   80.943">  2  5  1 -1</clus>
<clus scale="   95.026">  1  6  2 -1</clus>
<clus scale="  202.628">  2  4  1 -1</clus>
<clus scale="   95.026">  1  3  2 -1</clus>
</clustering>
</event>
<event>
 6    0  0.4582113E+002  0.9984715E+02  0.7546771E-02  0.1280618E+00
         21   -1    0    0  506  501  0.00000000000E+00  0.00000000000E+00  0.24272901288E+03  0.24272901288E+03  0.00000000000E+00 0.  1.
         21   -1    0    0  504  502 -0.00000000000E+00 -0.00000000000E+00 -0.49033297565E+03  0.49033297565E+03  0.00000000000E+00 0.  1.
         21    1    1    2  503  502 -0.47432693253E+02  0.87799495594E+02  0.64114944678E+02  0.11861424007E+03  0.00000000000E+00 0.  1.
         21    1    1    2  504  505 -0.53961081294E+02  0.12167316296E+02 -0.41941126775E+03  0.42304332331E+03  0.00000000000E+00 0.  1.
         21    1    1    2  505  501  0.85679549955E+02 -0.60628562518E+02  0.10575442666E+03  0.14899935111E+03  0.00000000000E+00 0.  1.
         21    1    1    2  506  503  0.15714224592E+02 -0.39338249372E+02  0.19379336365E+01  0.42405074048E+02  0.00000000000E+00 0.  1.
<scales pt_clust_3="99.84715" pt_clust_4="55.11912" pt_clust_5="14000.00000" pt_clust_6="42.36077"></scales>
<clustering>
<clus scale="   42.361">  1  6  2 -1</clus>
<clus scale="   55.119">  2  4  1 -1</clus>
<clus scale="   99.847">  1  3  2 -1</clus>
<clus scale="   42.361">  1  3  2 -1</clus>
</clustering>
</event>
<event>
 6    0  0.4582113E+002  0.2343001E+03  0.7546771E-02  0.1123649E+00
         21   -1    0    0  503  501  0.00000000000E+00  0.00000000000E+00  0.14710839633E+04  0.14710839633E+04  0.00000000000E+00 0. -1.
         21   -1    0    0  504  502 -0.00000000000E+00 -0.00000000000E+00 -0.62458270569E+03  0.62458270569E+03  0.00000000000E+00 0. -1.
         21    1    1    2  503  502  0.52491868004E+02 -0.58186897460E+01 -0.10878199782E+02  0.53922060304E+02  0.00000000000E+00 0. -1.
         21    1    1    2  504  505  0.17848355585E+03 -0.12611547606E+02 -0.56881584963E+03  0.59629430790E+03  0.00000000000E+00 0. -1.
         21    1    1    2  505  506 -0.97443045900E+02  0.27242616725E+02  0.58918024823E+03  0.59780487808E+03  0.00000000000E+00 0. -1.
         21    1    1    2  506  501 -0.13353237795E+03 -0.88123793732E+01  0.83701505880E+03  0.84764542272E+03  0.00000000000E+00 0. -1.
<scales pt_clust_3="52.81338" pt_clust_4="230.85135" pt_clust_5="34.82654" pt_clust_6="34.82654"></scales>
<clustering>
<clus scale="   34.827">  5  6 -1 -1</clus>
<clus scale="   52.813">  2  3  1 -1</clus>
<clus scale="  230.851">  2  4  1 -1</clus>
<clus scale="  234.300">  1  3  2 -1</clus>
</clustering>
</event>
<event>
 6    0  0.4582113E+002  0.1718645E+03  0.7546771E-02  0.1175917E+00
         21   -1    0    0  503  501  0.00000000000E+00  0.00000000000E+00  0.32945266104E+03  0.32945266104E+03  0.00000000000E+00 0.  1.
         21   -1    0    0  505  502 -0.00000000000E+00 -0.00000000000E+00 -0.23673488652E+03  0.23673488652E+03  0.00000000000E+00 0.  1.
         21    1    1    2  503  502 -0.89579392753E+02  0.16347457820E+03  0.51605351053E+02  0.19342057176E+03  0.00000000000E+00 0.  1.
         21    1    1    2  504  501  0.40440878204E+02 -0.72666398079E+02  0.13104572251E+03  0.15520583568E+03  0.00000000000E+00 0.  1.
         21    1    1    2  505  506  0.20519575926E+02 -0.26670697861E+02 -0.13164349648E+03  0.13587637502E+03  0.00000000000E+00 0.  1.
         21    1    1    2  506  504  0.28618938623E+02 -0.64137482262E+02  0.41710197436E+02  0.81684765097E+02  0.00000000000E+00 0.  1.
<scales pt_clust_3="163.55245" pt_clust_4="49.52519" pt_clust_5="33.65084" pt_clust_6="49.52519"></scales>
<clustering>
<clus scale="   33.651">  2  5  1 -1</clus>
<clus scale="   49.525">  4  6 -1 -1</clus>
<clus scale="  163.552">  2  3  1 -1</clus>
<clus scale="  171.864">  1  3  2 -1</clus>
</clustering>
</event>
<event>
 6    0  0.4582113E+002  0.1689486E+03  0.7546771E-02  0.1178949E+00
         21   -1    0    0  506  501  0.00000000000E+00  0.00000000000E+00  0.62484441389E+03  0.62484441389E+03  0.00000000000E+00 0.  1.
         21   -1    0    0  504  502 -0.00000000000E+00 -0.00000000000E+00 -0.49229484310E+03  0.49229484310E+03  0.00000000000E+00 0.  1.
         21    1    1    2  503  502 -0.20681476914E+03  0.45638346508E+02 -0.19639078659E+03  0.28883308063E+03  0.00000000000E+00 0.  1.
         21    1    1    2  504  501  0.62982330930E+02 -0.12811126821E+03 -0.21531661500E+03  0.25834185830E+03  0.00000000000E+00 0.  1.
         21    1    1    2  505  503  0.55499576929E+02  0.50817470465E+02  0.25460409180E+03  0.26549173604E+03  0.00000000000E+00 0.  1.
         21    1    1    2  506  505  0.88332861284E+02  0.31655451242E+02  0.28965288058E+03  0.30447258203E+03  0.00000000000E+00 0.  1.
<scales pt_clust_3="165.49778" pt_clust_4="142.75598" pt_clust_5="30.42287" pt_clust_6="30.42287"></scales>
<clustering>
<clus scale="   30.423">  5  6 -1 -1</clus>
<clus scale="  142.756">  2  4  1 -1</clus>
<clus scale="  165.498">  2  3  1 -1</clus>
<clus scale="  168.949">  1  3  2 -1</clus>
</clustering>
</event>
<event>
 6    0  0.4582113E+002  0.1454953E+03  0.7546771E-02  0.1206120E+00
         21   -1    0    0  505  501  0.00000000000E+00  0.00000000000E+00  0.51865654762E+02  0.51865654762E+02  0.00000000000E+00 0. -1.
         21   -1    0    0  503  502 -0.00000000000E+00 -0.00000000000E+00 -0.12921577734E+04  0.12921577734E+04  0.00000000000E+00 0. -1.
         21    1    1    2  503  506  0.99477221167E+01 -0.33507523538E+02 -0.38885006519E+03  0.39041783324E+03  0.00000000000E+00 0. -1.
         21    1    1    2  504  501  0.21584271196E+02  0.14569475753E+03 -0.16190287641E+03  0.21887298720E+03  0.00000000000E+00 0. -1.
         21    1    1    2  505  502 -0.88255215857E+02  0.32782754019E+02 -0.20028300402E+03  0.22130741919E+03  0.00000000000E+00 0. -1.
         21    1    1    2  506  504  0.56723222544E+02 -0.14496998801E+03 -0.48925617303E+03  0.51342518856E+03  0.00000000000E+00 0. -1.
<scales pt_clust_3="34.95299" pt_clust_4="145.49528" pt_clust_5="89.48246" pt_clust_6="14000.00000"></scales>
<clustering>
<clus scale="   34.953">  2  3  1 -1</clus>
<clus scale="   89.482">  2  5  1 -1</clus>
<clus scale="  145.495">  1  4  2 -1</clus>
<clus scale="  145.495">  1  3  2 -1</clus>
</clustering>
</event>
<event>
 6    0  0.4582113E+002  0.1515539E+03  0.7546771E-02  0.1198577E+00
         21   -1    0    0  504  501  0.00000000000E+00  0.00000000000E+00  0.82104279143E+03  0.82104279143E+03  0.00000000000E+00 0. -1.
         21   -1    0    0  506  502 -0.00000000000E+00 -0.00000000000E+00 -0.88610670873E+02  0.88610670873E+02  0.00000000000E+00 0.  1.
         21    1    1    2  503  502  0.28351778695E+02 -0.15418528922E+03  0.19846795891E+03  0.25291590990E+03  0.00000000000E+00 0.  1.
         21    1    1    2  504  505  0.28582725363E+02  0.40468238429E+02  0.18530812651E+03  0.19181697595E+03  0.00000000000E+00 0. -1.
         21    1    1    2  505  503 -0.84749575603E+01  0.99240018111E+02  0.38816641560E+03  0.40074127850E+03  0.00000000000E+00 0. -1.
         21    1    1    2  506  501 -0.48459546498E+02  0.14477032682E+02 -0.39510380456E+02  0.64179297953E+02  0.00000000000E+00 0.  1.
<scales pt_clust_3="143.66302" pt_clust_4="34.04065" pt_clust_5="34.04065" pt_clust_6="50.57581"></scales>
<clustering>
<clus scale="   34.041">  4  5 -1 -1</clus>
<clus scale="   50.576">  2  6  1 -1</clus>
<clus scale="  143.663">  2  3  1 -1</clus>
<clus scale="  151.554">  1  3  2 -1</clus>
</clustering>
</event>
<event>
 6    0  0.4582113E+002  0.6518246E+02  0.7546771E-02  0.1377286E+00
         21   -1    0    0  504  501  0.00000000000E+00  0.00000000000E+00  0.16294639869E+04  0.16294639869E+04  0.00000000000E+00 0. -1.
         21   -1    0    0  503  502 -0.00000000000E+00 -0.00000000000E+00 -0.76301826023E+03  0.76301826023E+03  0.00000000000E+00 0. -1.
         21    1    1    2  503  505  0.29419900299E+02  0.75211787935E+02 -0.62002458509E+03  0.62526220875E+03  0.00000000000E+00 0. -1.
         21    1    1    2  504  506  0.29667614531E+02 -0.11703310228E+02  0.59077385817E+02  0.67136222244E+02  0.00000000000E+00 0.  1.
         21    1    1    2  505  501 -0.89546858683E+02 -0.13889742458E+02  0.15561441523E+04  0.15587803526E+04  0.00000000000E+00 0. -1.
         21    1    1    2  506  502  0.30459343854E+02 -0.49618735249E+02 -0.12875122637E+03  0.14130346354E+03  0.00000000000E+00 0.  1.
<scales pt_clust_3="14000.00000" pt_clust_4="31.89255" pt_clust_5="65.18246" pt_clust_6="58.32411"></scales>
<clustering>
<clus scale="   31.893">  1  4  2 -1</clus>
<clus scale="   58.324">  2  6  1 -1</clus>
<clus scale="   65.182">  1  5  2 -1</clus>
<clus scale="   31.893">  1  3  2 -1</clus>
</clustering>
</event>
<event>
 6    0  0.4582113E+002  0.7412491E+02  0.7546771E-02  0.1346603E+00
         21   -1    0    0  506  501  0.00000000000E+00  0.00000000000E+00  0.39032172348E+04  0.39032172348E+04  0.00000000000E+00 0.  1.
         21   -1    0    0  504  502 -0.00000000000E+00 -0.00000000000E+00 -0.26674103040E+03  0.26674103040E+03  0.00000000000E+00 0. -1.
         21    1    1    2  503  505  0.79803431983E+02 -0.95415642772E+02  0.54990880659E+02  0.13600268232E+03  0.00000000000E+00 0. -1.
         21    1    1    2  504  503 -0.34211746855E+02  0.37334252203E+02 -0.22279369098E+03  0.22847607917E+03  0.00000000000E+00 0. -1.
         21    1    1    2  505  501 -0.29140746801E+02  0.12398669552E+02  0.60200027171E+03  0.60283267767E+03  0.00000000000E+00 0.  1.
         21    1    1    2  506  502 -0.16450938327E+02  0.45682721017E+02  0.32022787430E+04  0.32026468260E+04  0.00000000000E+00 0.  1.
<scales pt_clust_3="14000.00000" pt_clust_4="50.66364" pt_clust_5="31.66876" pt_clust_6="74.12491"></scales>
<clustering>
<clus scale="   31.669">  1  5  2 -1</clus>
<clus scale="   50.664">  2  4  1 -1</clus>
<clus scale="   74.125">  1  6  2 -1</clus>
<clus scale="   31.669">  1  3  2 -1</clus>
</clustering>
</event>
<event>
 6    0  0.4582113E+002  0.2074358E+03  0.7546771E-02  0.1143613E+00
         21   -1    0    0  503  501  0.00000000000E+00  0.00000000000E+00  0.22460073837E+03  0.22460073837E+03  0.00000000000E+00 0.  1.
         21   -1    0    0  504  502 -0.00000000000E+00 -0.00000000000E+00 -0.44137868554E+03  0.44137868554E+03  0.00000000000E+00 0.  1.
         21    1    1    2  503  505  0.78646343385E+02 -0.16912979469E+03 -0.68249519914E+02  0.19861553753E+03  0.00000000000E+00 0.  1.
         21    1    1    2  504  506 -0.32553701276E+02  0.28374523499E+02  0.18756060737E+02  0.47081279347E+02  0.00000000000E+00 0.  1.
         21    1    1    2  505  502 -0.23482840818E+02 -0.29002479983E+02 -0.23365377095E+03  0.23661502982E+03  0.00000000000E+00 0.  1.
         21    1    1    2  506  501 -0.22609801291E+02  0.16975775117E+03  0.66369282962E+02  0.18366757721E+03  0.00000000000E+00 0.  1.
<scales pt_clust_3="198.31866" pt_clust_4="30.54198" pt_clust_5="37.31739" pt_clust_6="30.54198"></scales>
<clustering>
<clus scale="   30.542">  4  6 -1 -1</clus>
<clus scale="   37.317">  2  5  1 -1</clus>
<clus scale="  198.319">  2  3  1 -1</clus>
<clus scale="  207.436">  1  3  2 -1</clus>
</clustering>
</event>
<event>
 6    0  0.4582113E+002  0.1805079E+03  0.7546771E-02  0.1167312E+00
         21   -1    0    0  502  501  0.00000000000E+00  0.00000000000E+00  0.63241978852E+03  0.63241978852E+03  0.00000000000E+00 0.  1.
         21   -1    0    0  504  502 -0.00000000000E+00 -0.00000000000E+00 -0.18753731711E+03  0.18753731711E+03  0.00000000000E+00 0.  1.
         21    1    1    2  503  505 -0.42622364965E+02 -0.56167195022E+02  0.41747274316E+02  0.81940555921E+02  0.00000000000E+00 0.  1.
         21    1    1    2  504  506  0.45511116477E+02 -0.16691105890E+02 -0.10253529627E+03  0.11341667302E+03  0.00000000000E+00 0.  1.
         21    1    1    2  505  501  0.32643340707E+01  0.17211392338E+03  0.49559918777E+03  0.52464503563E+03  0.00000000000E+00 0.  1.
         21    1    1    2  506  503 -0.61530855828E+01 -0.99255622466E+02  0.10071305600E+02  0.99954841052E+02  0.00000000000E+00 0.  1.
<scales pt_clust_3="48.76436" pt_clust_4="48.47530" pt_clust_5="169.46273" pt_clust_6="48.76436"></scales>
<clustering>
<clus scale="   48.475">  2  4  1 -1</clus>
<clus scale="   48.764">  3  6 -1 -1</clus>
<clus scale="  169.463">  1  5  2 -1</clus>
<clus scale="  169.463">  1  3  2 -1</clus>
</clustering>
</event>
<event>
 6    0  0.4582113E+002  0.3112056E+03  0.7546771E-02  0.1079769E+00
         21   -1    0    0  506  501  0.00000000000E+00  0.00000000000E+00  0.72230546089E+03  0.72230546089E+03  0.00000000000E+00 0.  1.
         21   -1    0    0  504  502 -0.00000000000E+00 -0.00000000000E+00 -0.59878581600E+03  0.59878581600E+03  0.00000000000E+00 0.  1.
         21    1    1    2  503  501 -0.35403054289E+02 -0.52352838290E+02  0.89797002625E+02  0.10980754806E+03  0.00000000000E+00 0. -1.
         21    1    1    2  504  505  0.68743329228E+02  0.30351816352E+03 -0.27711600866E+03  0.41670397545E+03  0.00000000000E+00 0.  1.
         21    1    1    2  505  503 -0.25074624157E+03 -0.56525774960E+01  0.38393373106E+03  0.45859648837E+03  0.00000000000E+00 0.  1.
         21    1    1    2  506  502  0.21740596663E+03 -0.24551274773E+03 -0.73095080127E+02  0.33598326501E+03  0.00000000000E+00 0.  1.
<scales pt_clust_3="58.14351" pt_clust_4="311.20559" pt_clust_5="58.14351" pt_clust_6="273.23162"></scales>
<clustering>
<clus scale="   58.144">  3  5 -1 -1</clus>
<clus scale="  311.206">  2  4  1 -1</clus>
<clus scale="  273.232">  2  6  1 -1</clus>
<clus scale="  311.206">  1  3  2 -1</clus>
</clustering>
</event>
<event>
 6    0  0.4582113E+002  0.4782166E+03  0.7546771E-02  0.1019626E+00
         21   -1    0    0  504  501  0.00000000000E+00  0.00000000000E+00  0.42785578116E+03  0.42785578116E+03  0.00000000000E+00 0.  1.
         21   -1    0    0  506  502 -0.00000000000E+00 -0.00000000000E+00 -0.10352562933E+04  0.10352562933E+04  0.00000000000E+00 0.  1.
         21    1    1    2  503  502 -0.54122685349E+02 -0.14010282985E+02 -0.29458271793E+03  0.29984084245E+03  0.00000000000E+00 0.  1.
         21    1    1    2  504  503  0.28642714747E+03  0.41519736412E+03 -0.44871832935E+03  0.67511295431E+03  0.00000000000E+00 0.  1.
         21    1    1    2  505  501 -0.11197403743E+03 -0.26162485117E+03  0.83648554156E+02  0.29661899538E+03  0.00000000000E+00 0.  1.
         21    1    1    2  506  505 -0.12033042469E+03 -0.13956222996E+03  0.52251981027E+02  0.19153928229E+03  0.00000000000E+00 0.  1.
<scales pt_clust_3="55.90665" pt_clust_4="473.05181" pt_clust_5="56.57227" pt_clust_6="56.57227"></scales>
<clustering>
<clus scale="   55.907">  2  3  1 -1</clus>
<clus scale="   56.572">  5  6 -1 -1</clus>
<clus scale="  473.052">  2  4  1 -1</clus>
<clus scale="  478.217">  1  3  2 -1</clus>
</clustering>
</event>
<event>
 6    0  0.4582113E+002  0.8252802E+02  0.7546771E-02  0.1322027E+00
         21   -1    0    0  505  501  0.00000000000E+00  0.00000000000E+00  0.15704102693E+03  0.15704102693E+03  0.00000000000E+00 0.  1.
         21   -1    0    0  506  502 -0.00000000000E+00 -0.00000000000E+00 -0.10729322055E+04  0.10729322055E+04  0.00000000000E+00 0. -1.
         21    1    1    2  503  501 -0.21933338577E+02  0.28612162942E+02  0.52118888637E+02  0.63372752521E+02  0.00000000000E+00 0.  1.
         21    1    1    2  504  503 -0.59984207458E+02 -0.31029539867E+02  0.72998792748E+02  0.99447278653E+02  0.00000000000E+00 0.  1.
         21    1    1    2  505  502 -0.35548221189E+02  0.18526448442E+01 -0.78134267997E+03  0.78215311280E+03  0.00000000000E+00 0. -1.
         21    1    1    2  506  504  0.11746576722E+03  0.56473208136E+00 -0.25966617998E+03  0.28500008845E+03  0.00000000000E+00 0. -1.
<scales pt_clust_3="36.50182" pt_clust_4="82.52802" pt_clust_5="35.59647" pt_clust_6="14000.00000"></scales>
<clustering>
<clus scale="   35.596">  2  5  1 -1</clus>
<clus scale="   36.502">  1  3  2 -1</clus>
<clus scale="   82.528">  1  4  2 -1</clus>
<clus scale="   36.502">  1  3  2 -1</clus>
</clustering>
</event>
<event>
 6    0  0.4582113E+002  0.2557952E+03  0.7546771E-02  0.1109696E+00
         21   -1    0    0  504  501  0.00000000000E+00  0.00000000000E+00  0.45025776860E+03  0.45025776860E+03  0.00000000000E+00 0. -1.
         21   -1    0    0  505  502 -0.00000000000E+00 -0.00000000000E+00 -0.12553771292E+04  0.12553771292E+04  0.00000000000E+00 0.  1.
         21    1    1    2  503  501 -0.32808759304E+02  0.79662134863E+01  0.38603399915E+02  0.51284478445E+02  0.00000000000E+00 0. -1.
         21    1    1    2  504  506 -0.68227036657E+01 -0.11674263103E+03  0.32845154467E+03  0.34864854565E+03  0.00000000000E+00 0. -1.
         21    1    1    2  505  503 -0.15140328510E+03 -0.10503940333E+03 -0.13184077992E+03  0.22657939500E+03  0.00000000000E+00 0.  1.
         21    1    1    2  506  502  0.19103474807E+03  0.21381582088E+03 -0.10403335253E+04  0.10791224787E+04  0.00000000000E+00 0.  1.
<scales pt_clust_3="33.76204" pt_clust_4="115.28661" pt_clust_5="14000.00000" pt_clust_6="255.79518"></scales>
<clustering>
<clus scale="   33.762">  1  3  2 -1</clus>
<clus scale="  115.287">  1  4  2 -1</clus>
<clus scale="  255.795">  2  6  1 -1</clus>
<clus scale="   33.762">  1  3  2 -1</clus>
</clustering>
</event>
<event>
 6    0  0.4582113E+002  0.1239012E+03  0.7546771E-02  0.1236797E+00
         21   -1    0    0  506  501  0.00000000000E+00  0.00000000000E+00  0.59708425930E+02  0.59708425930E+02  0.00000000000E+00 0.  1.
         21   -1    0    0  501  502 -0.00000000000E+00 -0.00000000000E+00 -0.54602470737E+03  0.54602470737E+03  0.00000000000E+00 0. -1.
         21    1    1    2  503  504 -0.27423335120E+02  0.25212675064E+02 -0.12615203053E+03  0.13153726886E+03  0.00000000000E+00 0. -1.
         21    1    1    2  504  502 -0.64470618936E+01  0.32361248797E+02 -0.23160742830E+03  0.23394618157E+03  0.00000000000E+00 0. -1.
         21    1    1    2  505  503 -0.54143049180E+02  0.30856784585E+02 -0.90364897535E+02  0.10976987581E+03  0.00000000000E+00 0. -1.
         21    1    1    2  506  505  0.88013446194E+02 -0.88430708446E+02 -0.38191925081E+02  0.13047980705E+03  0.00000000000E+00 0.  1.
<scales pt_clust_3="30.46562" pt_clust_4="32.99720" pt_clust_5="30.46562" pt_clust_6="117.46835"></scales>
<clustering>
<clus scale="   30.466">  3  5 -1 -1</clus>
<clus scale="   32.997">  2  4  1 -1</clus>
<clus scale="  117.468">  1  6  2 -1</clus>
<clus scale="  117.468">  1  3  2 -1</clus>
</clustering>
</event>
<event>
 6    0  0.4582113E+002  0.1427828E+03  0.7546771E-02  0.1209633E+00
         21   -1    0    0  505  501  0.00000000000E+00  0.00000000000E+00  0.13786285458E+04  0.13786285458E+04  0.00000000000E+00 0.  1.
         21   -1    0    0  503  502 -0.00000000000E+00 -0.00000000000E+00 -0.60603646969E+03  0.60603646969E+03  0.00000000000E+00 0. -1.
         21    1    1    2  503  504  0.65942015236E+02 -0.22511416016E+02  0.38700952839E+03  0.39323210485E+03  0.00000000000E+00 0.  1.
         21    1    1    2  504  501  0.53656134573E+02 -0.40700285203E+02  0.69958801535E+03  0.70282208646E+03  0.00000000000E+00 0.  1.
         21    1    1    2  505  506 -0.13203226909E+03  0.28461441377E+02  0.27081473692E+03  0.30262715585E+03  0.00000000000E+00 0. -1.
         21    1    1    2  506  502  0.12434119282E+02  0.34750259842E+02 -0.58482020456E+03  0.58598366832E+03  0.00000000000E+00 0. -1.
<scales pt_clust_3="47.17827" pt_clust_4="47.17827" pt_clust_5="134.33463" pt_clust_6="36.90783"></scales>
<clustering>
<clus scale="   36.908">  2  6  1 -1</clus>
<clus scale="   47.178">  3  4 -1 -1</clus>
<clus scale="  134.335">  2  5  1 -1</clus>
<clus scale="  142.783">  1  3  2 -1</clus>
</clustering>
</event>
<event>
 6    0  0.4582113E+002  0.5611220E+02  0.7546771E-02  0.1414911E+00
         21   -1    0    0  504  501  0.00000000000E+00  0.00000000000E+00  0.16209050290E+03  0.16209050290E+03  0.00000000000E+00 0.  1.
         21   -1    0    0  505  502 -0.00000000000E+00 -0.00000000000E+00 -0.89882628514E+03  0.89882628514E+03  0.00000000000E+00 0.  1.
         21    1    1    2  503  506  0.65366407694E+02  0.43061097784E+02  0.89337584294E+02  0.11877806769E+03  0.00000000000E+00 0.  1.
         21    1    1    2  504  503 -0.32825036265E+02  0.70526791549E-01  0.46326000422E+02  0.56776635114E+02  0.00000000000E+00 0.  1.
         21    1    1    2  505  501 -0.47759542558E+02 -0.87532503277E+02 -0.68263110097E+03  0.68987544749E+03  0.00000000000E+00 0.  1.
         21    1    1    2  506  502  0.15218171128E+02  0.44400878702E+02 -0.18976826598E+03  0.19548663774E+03  0.00000000000E+00 0.  1.
<scales pt_clust_3="14000.00000" pt_clust_4="32.82511" pt_clust_5="56.11220" pt_clust_6="46.66982"></scales>
<clustering>
<clus scale="   32.825">  1  4  2 -1</clus>
<clus scale="   46.670">  2  6  1 -1</clus>
<clus scale="   56.112">  2  5  1 -1</clus>
<clus scale="   32.825">  1  3  2 -1</clus>
</clustering>
</event>
<event>
 6    0  0.4582113E+002  0.2026709E+03  0.7546771E-02  0.1147505E+00
         21   -1    0    0  506  501  0.00000000000E+00  0.00000000000E+00  0.11577712908E+04  0.11577712908E+04  0.00000000000E+00 0.  1.
         21   -1    0    0  503  502 -0.00000000000E+00 -0.00000000000E+00 -0.49754149340E+02  0.49754149340E+02  0.00000000000E+00 0.  1.
         21    1    1    2  503  505 -0.45980592806E+02  0.33166720943E+02  0.63291458299E+02  0.84970906707E+02  0.00000000000E+00 0. -1.
         21    1    1    2  504  502  0.10141100047E+03 -0.33132107040E+01  0.19179661974E+03  0.21698182349E+03  0.00000000000E+00 0.  1.
         21    1    1    2  505  501 -0.17839778009E+03 -0.32645794718E+01  0.49474531770E+03  0.52593664524E+03  0.00000000000E+00 0.  1.
         21    1    1    2  506  504  0.12296737243E+03 -0.26588930767E+02  0.35818374568E+03  0.37963606466E+03  0.00000000000E+00 0.  1.
<scales pt_clust_3="56.69432" pt_clust_4="42.45343" pt_clust_5="197.08061" pt_clust_6="42.45343"></scales>
<clustering>
<clus scale="   42.453">  4  6 -1 -1</clus>
<clus scale="   56.694">  2  3  1 -1</clus>
<clus scale="  197.081">  1  5  2 -1</clus>
<clus scale="  197.081">  1  3  2 -1</clus>
</clustering>
</event>
<event>
 6    0  0.4582113E+002  0.8937931E+02  0.7546771E-02  0.1304362E+00
         21   -1    0    0  505  501  0.00000000000E+00  0.00000000000E+00  0.95646200188E+03  0.95646200188E+03  0.00000000000E+00 0. -1.
         21   -1    0    0  503  502 -0.00000000000E+00 -0.00000000000E+00 -0.39883911728E+03  0.39883911728E+03  0.00000000000E+00 0. -1.
         21    1    1    2  503  504 -0.27608000416E+02 -0.12849874299E+02 -0.17547292956E+02  0.35145816914E+02  0.00000000000E+00 0. -1.
         21    1    1    2  504  506  0.69701124273E+02 -0.48263879521E+02  0.76765537024E+02  0.11437043528E+03  0.00000000000E+00 0.  1.
         21    1    1    2  505  502  0.48223241048E+02  0.49368198032E+02 -0.34785682923E+03  0.35463653731E+03  0.00000000000E+00 0. -1.
         21    1    1    2  506  501 -0.90316364906E+02  0.11745555787E+02  0.84626146977E+03  0.85114832965E+03  0.00000000000E+00 0. -1.
<scales pt_clust_3="30.45195" pt_clust_4="89.37931" pt_clust_5="43.35952" pt_clust_6="14000.00000"></scales>
<clustering>
<clus scale="   30.452">  2  3  1 -1</clus>
<clus scale="   43.360">  2  5  1 -1</clus>
<clus scale="   89.379">  2  4  1 -1</clus>
<clus scale="   89.379">  1  3  2 -1</clus>
</clustering>
</event>
<event>
 6    0  0.4582113E+002  0.8762240E+02  0.7546771E-02  0.1308714E+00
         21   -1    0    0  506  501  0.00000000000E+00  0.00000000000E+00  0.40943074415E+03  0.40943074415E+03  0.00000000000E+00 0.  1.
         21   -1    0    0  503  502 -0.00000000000E+00 -0.00000000000E+00 -0.14218590895E+03  0.14218590895E+03  0.00000000000E+00 0.  1.
         21    1    1    2  503  505 -0.19779811848E+02 -0.41303513105E+02  0.11669037270E+02  0.47258730224E+02  0.00000000000E+00 0.  1.
         21    1    1    2  504  501 -0.47366171365E+02 -0.12067668923E+02  0.53281154438E+02  0.72305354167E+02  0.00000000000E+00 0.  1.
         21    1    1    2  505  504 -0.19458413923E+01 -0.61373638822E+02  0.27353661561E+03  0.28034405633E+03  0.00000000000E+00 0.  1.
         21    1    1    2  506  502  0.69091824605E+02  0.11474482085E+03 -0.71241972109E+02  0.15170851238E+03  0.00000000000E+00 0.  1.
<scales pt_clust_3="45.79543" pt_clust_4="51.19535" pt_clust_5="14000.00000" pt_clust_6="87.62240"></scales>
<clustering>
<clus scale="   45.795">  2  3  1 -1</clus>
<clus scale="   51.195">  1  4  2 -1</clus>
<clus scale="   87.622">  2  6  1 -1</clus>
<clus scale="   51.195">  1  3  2 -1</clus>
</clustering>
</event>
<event>
 6    0  0.4582113E+002  0.8014211E+02  0.7546771E-02  0.1328649E+00
         21   -1    0    0  502  501  0.00000000000E+00  0.00000000000E+00  0.82403976062E+02  0.82403976062E+02  0.00000000000E+00 0. -1.
         21   -1    0    0  503  502 -0.00000000000E+00 -0.00000000000E+00 -0.12110765061E+04  0.12110765061E+04  0.00000000000E+00 0. -1.
         21    1    1    2  503  504  0.13633576234E+02  0.31703237103E+02 -0.93990712903E+03  0.94054047273E+03  0.00000000000E+00 0. -1.
         21    1    1    2  504  506 -0.55775321444E+02 -0.10833651176E+02 -0.12514672547E+03  0.13744074132E+03  0.00000000000E+00 0. -1.
         21    1    1    2  505  501  0.20662012238E+02  0.75032657826E+02  0.26443940809E+02  0.82195501675E+02  0.00000000000E+00 0. -1.
         21    1    1    2  506  505  0.21479732972E+02 -0.95902243753E+02 -0.90062616392E+02  0.13330376648E+03  0.00000000000E+00 0. -1.
<scales pt_clust_3="34.51043" pt_clust_4="49.37519" pt_clust_5="80.14211" pt_clust_6="14000.00000"></scales>
<clustering>
<clus scale="   34.510">  2  3  1 -1</clus>
<clus scale="   49.375">  2  4  1 -1</clus>
<clus scale="   80.142">  1  5  2 -1</clus>
<clus scale="   80.142">  1  3  2 -1</clus>
</clustering>
</event>
<event>
 6    0  0.4582113E+002  0.7765953E+02  0.7546771E-02  0.1335828E+00
         21   -1    0    0  504  501  0.00000000000E+00  0.00000000000E+00  0.99173120441E+02  0.99173120441E+02  0.00000000000E+00 0. -1.
         21   -1    0    0  503  502 -0.00000000000E+00 -0.00000000000E+00 -0.57438060800E+03  0.57438060800E+03  0.00000000000E+00 0. -1.
         21    1    1    2  503  505  0.48567496268E+02 -0.27307262295E+02 -0.46203505492E+03  0.46538250960E+03  0.00000000000E+00 0. -1.
         21    1    1    2  504  502  0.56856049183E+02  0.17680222373E+02  0.11744035061E+02  0.60688738258E+02  0.00000000000E+00 0. -1.
         21    1    1    2  505  506 -0.98868632022E+02 -0.30054666365E+02 -0.73582661567E+01  0.10359745870E+03  0.00000000000E+00 0. -1.
         21    1    1    2  506  501 -0.65549134284E+01  0.39681706286E+02 -0.17558201537E+02  0.43885021876E+02  0.00000000000E+00 0. -1.
<scales pt_clust_3="55.23167" pt_clust_4="77.65953" pt_clust_5="14000.00000" pt_clust_6="40.21946"></scales>
<clustering>
<clus scale="   40.219">  1  6  2 -1</clus>
<clus scale="   55.232">  2  3  1 -1</clus>
<clus scale="   77.660">  1  4  2 -1</clus>
<clus scale="   40.219">  1  3  2 -1</clus>
</clustering>
</event>
<event>
 6    0  0.4582113E+002  0.1612679E+03  0.7546771E-02  0.1187273E+00
         21   -1    0    0  506  501  0.00000000000E+00  0.00000000000E+00  0.14279343178E+03  0.14279343178E+03  0.00000000000E+00 0.  1.
         21   -1    0    0  505  502 -0.00000000000E+00 -0.00000000000E+00 -0.96443687324E+03  0.96443687324E+03  0.00000000000E+00 0. -1.
         21    1    1    2  503  502 -0.42542357666E+02 -0.50013337804E+01 -0.80051310939E+02  0.90791397822E+02  0.00000000000E+00 0.  1.
         21    1    1    2  504  501  0.12801852640E+03  0.58723877413E+02  0.41433298047E+02  0.14681265296E+03  0.00000000000E+00 0.  1.
         21    1    1    2  505  504 -0.89888610148E+02 -0.98282516382E+02 -0.80762660489E+03  0.81853536770E+03  0.00000000000E+00 0. -1.
         21    1    1    2  506  503  0.44124414096E+01  0.44559972750E+02  0.24601176318E+02  0.51090886535E+02  0.00000000000E+00 0. -1.
<scales pt_clust_3="42.83533" pt_clust_4="161.26791" pt_clust_5="14000.00000" pt_clust_6="44.64420"></scales>
<clustering>
<clus scale="   42.835">  2  3  1 -1</clus>
<clus scale="   44.644">  1  6  2 -1</clus>
<clus scale="  161.268">  1  4  2 -1</clus>
<clus scale="   44.644">  1  3  2 -1</clus>
</clustering>
</event>
<event>
 6    0  0.4582113E+002  0.1423104E+03  0.7546771E-02  0.1210254E+00
         21   -1    0    0  504  501  0.00000000000E+00  0.00000000000E+00  0.13699602834E+04  0.13699602834E+04  0.00000000000E+00 0.  1.
         21   -1    0    0  503  502 -0.00000000000E+00 -0.00000000000E+00 -0.13662663497E+03  0.13662663497E+03  0.00000000000E+00 0.  1.
         21    1    1    2  503  505  0.11196736955E+02  0.65228193675E+02 -0.80192388268E+01  0.66666276031E+02  0.00000000000E+00 0.  1.
         21    1    1    2  504  502 -0.33304570399E+02  0.46522493631E+02  0.62935947998E+03  0.63195481790E+03  0.00000000000E+00 0.  1.
         21    1    1    2  505  506 -0.84946854023E+02  0.57261964931E+02 -0.51716330691E+02  0.11475835262E+03  0.00000000000E+00 0.  1.
         21    1    1    2  506  501  0.10705468747E+03 -0.16901265224E+03  0.66370973801E+03  0.69320747187E+03  0.00000000000E+00 0.  1.
<scales pt_clust_3="67.79659" pt_clust_4="57.21483" pt_clust_5="14000.00000" pt_clust_6="142.31042"></scales>
<clustering>
<clus scale="   57.215">  1  4  2 -1</clus>
<clus scale="   67.797">  2  3  1 -1</clus>
<clus scale="  142.310">  1  6  2 -1</clus>
<clus scale="   57.215">  1  3  2 -1</clus>
</clustering>
</event>
<event>
 6    0  0.4582113E+002  0.8755308E+02  0.7546771E-02  0.1308888E+00
         21   -1    0    0  503  501  0.00000000000E+00  0.00000000000E+00  0.32841512485E+03  0.32841512485E+03  0.00000000000E+00 0. -1.
         21   -1    0    0  506  502 -0.00000000000E+00 -0.00000000000E+00 -0.70023796948E+03  0.70023796948E+03  0.00000000000E+00 0. -1.
         21    1    1    2  503  505  0.11231790213E+03 -0.96961000742E+01  0.15982012241E+03  0.19558066629E+03  0.00000000000E+00 0. -1.
         21    1    1    2  504  501 -0.65773393777E+02  0.40349405676E+02  0.13851534509E+03  0.15855823754E+03  0.00000000000E+00 0. -1.
         21    1    1    2  505  502 -0.18144264106E+02 -0.41315745871E+02 -0.45412010050E+03  0.45635651727E+03  0.00000000000E+00 0. -1.
         21    1    1    2  506  504 -0.28400244251E+02  0.10662440269E+02 -0.21603821163E+03  0.21815767323E+03  0.00000000000E+00 0. -1.
<scales pt_clust_3="14000.00000" pt_clust_4="87.55308" pt_clust_5="54.71889" pt_clust_6="30.33581"></scales>
<clustering>
<clus scale="   30.336">  2  6  1 -1</clus>
<clus scale="   54.719">  2  5  1 -1</clus>
<clus scale="   87.553">  1  4  2 -1</clus>
<clus scale="   87.553">  1  3  2 -1</clus>
</clustering>
</event>
<event>
 6    0  0.4582113E+002  0.1604717E+03  0.7546771E-02  0.1188165E+00
         21   -1    0    0  503  501  0.00000000000E+00  0.00000000000E+00  0.83759549658E+02  0.83759549658E+02  0.00000000000E+00 0.  1.
         21   -1    0    0  505  502 -0.00000000000E+00 -0.00000000000E+00 -0.78396084602E+03  0.78396084602E+03  0.00000000000E+00 0.  1.
         21    1    1    2  503  502 -0.59093145180E+02 -0.21300849677E+03 -0.28641331441E+03  0.36179718928E+03  0.00000000000E+00 0.  1.
         21    1    1    2  504  506  0.39600503437E+02  0.37102738254E+02 -0.11621931184E+03  0.12826434229E+03  0.00000000000E+00 0.  1.
         21    1    1    2  505  504  0.35781380547E+01  0.38949311064E+02 -0.21157923033E+03  0.21516417595E+03  0.00000000000E+00 0.  1.
         21    1    1    2  506  501  0.15914503687E+02  0.13695644745E+03 -0.85989439777E+02  0.16249468815E+03  0.00000000000E+00 0.  1.
<scales pt_clust_3="160.47175" pt_clust_4="60.78606" pt_clust_5="39.11332" pt_clust_6="14000.00000"></scales>
<clustering>
<clus scale="   39.113">  2  5  1 -1</clus>
<clus scale="   60.786">  2  4  1 -1</clus>
<clus scale="  160.472">  2  3  1 -1</clus>
<clus scale="  160.472">  1  3  2 -1</clus>
</clustering>
</event>
<event>
 6    0  0.4582113E+002  0.1201189E+03  0.7546771E-02  0.1242901E+00
         21   -1    0    0  504  501  0.00000000000E+00  0.00000000000E+00  0.79789858117E+03  0.79789858117E+03  0.00000000000E+00 0. -1.
         21   -1    0    0  506  502 -0.00000000000E+00 -0.00000000000E+00 -0.52478969285E+03  0.52478969285E+03  0.00000000000E+00 0.  1.
         21    1    1    2  503  505  0.62845907217E+02  0.16105972167E+01  0.23862356625E+03  0.24676589806E+03  0.00000000000E+00 0.  1.
         21    1    1    2  504  502  0.48755465059E+02  0.30054831711E+02 -0.74056453941E+01  0.57751466354E+02  0.00000000000E+00 0.  1.
         21    1    1    2  505  501  0.10292459805E+02 -0.29320488749E+02  0.52194925677E+03  0.52287345738E+03  0.00000000000E+00 0. -1.
         21    1    1    2  506  503 -0.12189383208E+03 -0.23449401786E+01 -0.48005828931E+03  0.49529745222E+03  0.00000000000E+00 0.  1.
<scales pt_clust_3="120.11887" pt_clust_4="56.73723" pt_clust_5="31.07452" pt_clust_6="14000.00000"></scales>
<clustering>
<clus scale="   31.075">  1  5  2 -1</clus>
<clus scale="   56.737">  1  4  2 -1</clus>
<clus scale="  120.119">  1  3  2 -1</clus>
<clus scale="   31.075">  1  3  2 -1</clus>
</clustering>
</event>
<event>
 6    0  0.4582113E+002  0.1007452E+03  0.7546771E-02  0.1278737E+00
         21   -1    0    0  504  501  0.00000000000E+00  0.00000000000E+00  0.23198360517E+04  0.23198360517E+04  0.00000000000E+00 0. -1.
         21   -1    0    0  505  502 -0.00000000000E+00 -0.00000000000E+00 -0.12907798387E+03  0.12907798387E+03  0.00000000000E+00 0.  1.
         21    1    1    2  503  502  0.12440221013E+03 -0.24899511203E+02 -0.38176599269E+02  0.13248904964E+03  0.00000000000E+00 0.  1.
         21    1    1    2  504  506  0.23740265009E+01  0.39573652376E+02  0.19624440150E+04  0.19628444213E+04  0.00000000000E+00 0. -1.
         21    1    1    2  505  501 -0.50764783706E+02  0.28900409428E+02  0.25915671571E+03  0.26565861594E+03  0.00000000000E+00 0.  1.
         21    1    1    2  506  503 -0.76011452921E+02 -0.43574550601E+02  0.73339362955E+01  0.87921948663E+02  0.00000000000E+00 0.  1.
<scales pt_clust_3="14000.00000" pt_clust_4="39.64480" pt_clust_5="75.92022" pt_clust_6="100.74519"></scales>
<clustering>
<clus scale="   39.645">  1  4  2 -1</clus>
<clus scale="   75.920">  1  5  2 -1</clus>
<clus scale="  100.745">  1  6  2 -1</clus>
<clus scale="   39.645">  1  3  2 -1</clus>
</clustering>
</event>
<event>
 6    0  0.4582113E+002  0.1585637E+03  0.7546771E-02  0.1190328E+00
         21   -1    0    0  506  501  0.00000000000E+00  0.00000000000E+00  0.67408404053E+03  0.67408404053E+03  0.00000000000E+00 0.  1.
         21   -1    0    0  505  502 -0.00000000000E+00 -0.00000000000E+00 -0.23844152387E+03  0.23844152387E+03  0.00000000000E+00 0.  1.
         21    1    1    2  503  501 -0.34803293956E+02 -0.73588378876E+02  0.17435990873E+02  0.83249820141E+02  0.00000000000E+00 0.  1.
         21    1    1    2  504  503 -0.77344527324E+02 -0.90082439047E+02 -0.17883647333E+02  0.12007017354E+03  0.00000000000E+00 0.  1.
         21    1    1    2  505  504  0.63265767359E+02  0.23578492186E+02 -0.11780518489E+03  0.13578131020E+03  0.00000000000E+00 0.  1.
         21    1    1    2  506  502  0.48882053921E+02  0.14009232574E+03  0.55389535801E+03  0.57342426052E+03  0.00000000000E+00 0.  1.
<scales pt_clust_3="36.78438" pt_clust_4="36.78438" pt_clust_5="67.51668" pt_clust_6="152.21329"></scales>
<clustering>
<clus scale="   36.784">  3  4 -1 -1</clus>
<clus scale="   67.517">  2  5  1 -1</clus>
<clus scale="  152.213">  1  6  2 -1</clus>
<clus scale="  152.213">  1  3  2 -1</clus>
</clustering>
</event>
<event>
 6    0  0.4582113E+002  0.1903819E+03  0.7546771E-02  0.1158117E+00
         21   -1    0    0  505  501  0.00000000000E+00  0.00000000000E+00  0.12711465079E+03  0.12711465079E+03  0.00000000000E+00 0.  1.
         21   -1    0    0  504  502 -0.00000000000E+00 -0.00000000000E+00 -0.13354781814E+04  0.13354781814E+04  0.00000000000E+00 0.  1.
         21    1    1    2  503  502 -0.22076997344E+02 -0.62010581812E+02 -0.88344827234E+01  0.66413508817E+02  0.00000000000E+00 0.  1.
         21    1    1    2  504  506 -0.92530496584E+02 -0.24634971780E+02 -0.83238332857E+03  0.83787277096E+03  0.00000000000E+00 0.  1.
         21    1    1    2  505  503  0.21237820861E+02 -0.11636098899E+03  0.11295422487E+02  0.11882134220E+03  0.00000000000E+00 0.  1.
         21    1    1    2  506  501  0.93369673068E+02  0.20300654258E+03 -0.37844114181E+03  0.43948521021E+03  0.00000000000E+00 0.  1.
<scales pt_clust_3="37.21524" pt_clust_4="95.75372" pt_clust_5="37.21524" pt_clust_6="183.72945"></scales>
<clustering>
<clus scale="   37.215">  3  5 -1 -1</clus>
<clus scale="   95.754">  2  4  1 -1</clus>
<clus scale="  183.729">  2  6  1 -1</clus>
<clus scale="  190.382">  1  3  2 -1</clus>
</clustering>
</event>
<event>
 6    0  0.4582113E+002  0.1147997E+03  0.7546771E-02  0.1251931E+00
         21   -1    0    0  505  501  0.00000000000E+00  0.00000000000E+00  0.27524139777E+03  0.27524139777E+03  0.00000000000E+00 0.  1.
         21   -1    0    0  506  502 -0.00000000000E+00 -0.00000000000E+00 -0.31270587370E+03  0.31270587370E+03  0.00000000000E+00 0.  1.
         21    1    1    2  503  501 -0.14580657935E+03  0.82539472172E+01 -0.20262925441E+03  0.24977249842E+03  0.00000000000E+00 0.  1.
         21    1    1    2  504  502  0.66843357294E+02 -0.15146132239E+02  0.50378570446E+02  0.85061390162E+02  0.00000000000E+00 0.  1.
         21    1    1    2  505  504  0.56417288466E+02 -0.19677175475E+02  0.17424014533E+03  0.18420024408E+03  0.00000000000E+00 0.  1.
         21    1    1    2  506  503  0.22545933592E+02  0.26569360497E+02 -0.59453937307E+02  0.68913138805E+02  0.00000000000E+00 0.  1.
<scales pt_clust_3="14000.00000" pt_clust_4="114.79975" pt_clust_5="60.00512" pt_clust_6="34.84609"></scales>
<clustering>
<clus scale="   34.846">  2  6  1 -1</clus>
<clus scale="   60.005">  1  5  2 -1</clus>
<clus scale="  114.800">  1  4  2 -1</clus>
<clus scale="   60.005">  1  3  2 -1</clus>
</clustering>
</event>
<event>
 6    0  0.4582113E+002  0.2717680E+03  0.7546771E-02  0.1100272E+00
         21   -1    0    0  503  501  0.00000000000E+00  0.00000000000E+00  0.50985422799E+03  0.50985422799E+03  0.00000000000E+00 0.  1.
         21   -1    0    0  504  502 -0.00000000000E+00 -0.00000000000E+00 -0.29428445604E+03  0.29428445604E+03  0.00000000000E+00 0. -1.
         21    1    1    2  503  502  0.76926228243E+02 -0.27691455973E+03 -0.74682399360E+02  0.29694575053E+03  0.00000000000E+00 0. -1.
         21    1    1    2  504  505 -0.50023489888E+02  0.18016930339E+02 -0.51098273469E+02  0.73742747921E+02  0.00000000000E+00 0. -1.
         21    1    1    2  505  506 -0.46276641345E+02  0.17725580568E+03  0.23136338512E+03  0.29511042706E+03  0.00000000000E+00 0.  1.
         21    1    1    2  506  501  0.19373902990E+02  0.81641823710E+02  0.10998705966E+03  0.13833975852E+03  0.00000000000E+00 0.  1.
<scales pt_clust_3="265.04836" pt_clust_4="53.16916" pt_clust_5="40.64716" pt_clust_6="40.64716"></scales>
<clustering>
<clus scale="   40.647">  5  6 -1 -1</clus>
<clus scale="   53.169">  2  4  1 -1</clus>
<clus scale="  265.048">  2  3  1 -1</clus>
<clus scale="  271.768">  1  3  2 -1</clus>
</clustering>
</event>
<event>
 6    0  0.4582113E+002  0.1655705E+03  0.7546771E-02  0.1182547E+00
         21   -1    0    0  506  501  0.00000000000E+00  0.00000000000E+00  0.80674524880E+03  0.80674524880E+03  0.00000000000E+00 0. -1.
         21   -1    0    0  505  502 -0.00000000000E+00 -0.00000000000E+00 -0.87718225524E+02  0.87718225524E+02  0.00000000000E+00 0. -1.
         21    1    1    2  503  504  0.11463929116E+03 -0.98882010010E+02  0.21510700960E+03  0.26304152630E+03  0.00000000000E+00 0. -1.
         21    1    1    2  504  502  0.38574155060E+02  0.11734264158E+01 -0.18860547465E+02  0.42954192098E+02  0.00000000000E+00 0. -1.
         21    1    1    2  505  501 -0.18846349050E+03  0.39680474886E+02  0.30845278766E+03  0.36364288740E+03  0.00000000000E+00 0. -1.
         21    1    1    2  506  503  0.35250044289E+02  0.58028108709E+02  0.21432777347E+03  0.22482486852E+03  0.00000000000E+00 0. -1.
<scales pt_clust_3="165.57047" pt_clust_4="38.59200" pt_clust_5="14000.00000" pt_clust_6="69.90253"></scales>
<clustering>
<clus scale="   38.592">  2  4  1 -1</clus>
<clus scale="   69.903">  1  6  2 -1</clus>
<clus scale="  165.570">  1  3  2 -1</clus>
<clus scale="   69.903">  1  3  2 -1</clus>
</clustering>
</event>
<event>
 6    0  0.4582113E+002  0.1922290E+03  0.7546771E-02  0.1156466E+00
         21   -1    0    0  504  501  0.00000000000E+00  0.00000000000E+00  0.14531823886E+04  0.14531823886E+04  0.00000000000E+00 0. -1.
         21   -1    0    0  506  502 -0.00000000000E+00 -0.00000000000E+00 -0.10052003707E+03  0.10052003707E+03  0.00000000000E+00 0. -1.
         21    1    1    2  503  505  0.78705508025E+02 -0.10487755663E+03  0.94183342565E+03  0.95091748357E+03  0.00000000000E+00 0. -1.
         21    1    1    2  504  502 -0.12374356908E+02 -0.27729059892E+02  0.52079762601E+02  0.60285380848E+02  0.00000000000E+00 0. -1.
         21    1    1    2  505  501  0.91170410811E+02 -0.70885790993E+01  0.31429847159E+03  0.32733136269E+03  0.00000000000E+00 0. -1.
         21    1    1    2  506  503 -0.15750156193E+03  0.13969519562E+03  0.44450691724E+02  0.21516819859E+03  0.00000000000E+00 0. -1.
<scales pt_clust_3="14000.00000" pt_clust_4="30.36487" pt_clust_5="90.77761" pt_clust_6="192.22902"></scales>
<clustering>
<clus scale="   30.365">  2  4  1 -1</clus>
<clus scale="   90.778">  1  5  2 -1</clus>
<clus scale="  192.229">  2  6  1 -1</clus>
<clus scale="   90.778">  1  3  2 -1</clus>
</clustering>
</event>
<event>
 6    0  0.4582113E+002  0.1189818E+03  0.7546771E-02  0.1244786E+00
         21   -1    0    0  505  501  0.00000000000E+00  0.00000000000E+00  0.29635005573E+02  0.29635005573E+02  0.00000000000E+00 0. -1.
         21   -1    0    0  504  502 -0.00000000000E+00 -0.00000000000E+00 -0.94587847824E+03  0.94587847824E+03  0.00000000000E+00 0. -1.
         21    1    1    2  503  501 -0.23975683158E+02 -0.73632598562E+02 -0.10708236871E+03  0.13214850223E+03  0.00000000000E+00 0. -1.
         21    1    1    2  504  503  0.20108960895E+02 -0.37213567558E+02 -0.38627468607E+02  0.57282643529E+02  0.00000000000E+00 0. -1.
         21    1    1    2  505  506  0.46234724967E+02  0.96957843937E+02 -0.61388509660E+03  0.62321215097E+03  0.00000000000E+00 0. -1.
         21    1    1    2  506  502 -0.42368002703E+02  0.13888322184E+02 -0.15664853875E+03  0.16287018708E+03  0.00000000000E+00 0. -1.
<scales pt_clust_3="35.83555" pt_clust_4="35.83555" pt_clust_5="108.65396" pt_clust_6="44.58624"></scales>
<clustering>
<clus scale="   35.836">  3  4 -1 -1</clus>
<clus scale="   44.586">  2  6  1 -1</clus>
<clus scale="  108.654">  2  5  1 -1</clus>
<clus scale="  118.982">  1  3  2 -1</clus>
</clustering>
</event>
<event>
 6    0  0.4582113E+002  0.8876053E+02  0.7546771E-02  0.1305881E+00
         21   -1    0    0  506  501  0.00000000000E+00  0.00000000000E+00  0.10858573152E+03  0.10858573152E+03  0.00000000000E+00 0. -1.
         21   -1    0    0  504  502 -0.00000000000E+00 -0.00000000000E+00 -0.23593817967E+03  0.23593817967E+03  0.00000000000E+00 0. -1.
         21    1    1    2  503  505  0.67057579586E+01  0.63148631638E+02 -0.91995570334E+02  0.11178506979E+03  0.00000000000E+00 0. -1.
         21    1    1    2  504  503 -0.52346091772E+02  0.20608104005E+02 -0.57843660149E+02  0.80688885814E+02  0.00000000000E+00 0. -1.
         21    1    1    2  505  501  0.73823933221E+01  0.29587526512E+02  0.81651589468E+01  0.31568833949E+02  0.00000000000E+00 0. -1.
         21    1    1    2  506  502  0.38257940491E+02 -0.11334426216E+03  0.14321623379E+02  0.12048112163E+03  0.00000000000E+00 0. -1.
<scales pt_clust_3="88.76053" pt_clust_4="56.90100" pt_clust_5="30.49461" pt_clust_6="14000.00000"></scales>
<clustering>
<clus scale="   30.495">  1  5  2 -1</clus>
<clus scale="   56.901">  2  4  1 -1</clus>
<clus scale="   88.761">  2  3  1 -1</clus>
<clus scale="   30.495">  1  3  2 -1</clus>
</clustering>
</event>
<event>
 6    0  0.4582113E+002  0.1120349E+03  0.7546771E-02  0.1256847E+00
         21   -1    0    0  504  501  0.00000000000E+00  0.00000000000E+00  0.20361563152E+04  0.20361563152E+04  0.00000000000E+00 0.  1.
         21   -1    0    0  506  502 -0.00000000000E+00 -0.00000000000E+00 -0.24626148445E+03  0.24626148445E+03  0.00000000000E+00 0. -1.
         21    1    1    2  503  505 -0.19901924169E+02 -0.48580057268E+02  0.34241325949E+02  0.62678361119E+02  0.00000000000E+00 0. -1.
         21    1    1    2  504  503  0.60797384435E+00  0.30995673367E+02  0.15800384766E+04  0.15803425859E+04  0.00000000000E+00 0.  1.
         21    1    1    2  505  502  0.11191544542E+03 -0.12626945717E+02 -0.21182001363E+03  0.23990044781E+03  0.00000000000E+00 0. -1.
         21    1    1    2  506  501 -0.92621495100E+02  0.30211329618E+02  0.38743504192E+03  0.39949640487E+03  0.00000000000E+00 0.  1.
<scales pt_clust_3="49.44014" pt_clust_4="31.00164" pt_clust_5="112.03492" pt_clust_6="14000.00000"></scales>
<clustering>
<clus scale="   31.002">  1  4  2 -1</clus>
<clus scale="   49.440">  1  3  2 -1</clus>
<clus scale="  112.035">  2  5  1 -1</clus>
<clus scale="   31.002">  1  3  2 -1</clus>
</clustering>
</event>
<event>
 6    0  0.4582113E+002  0.1541420E+03  0.7546771E-02  0.1195474E+00
         21   -1    0    0  503  501  0.00000000000E+00  0.00000000000E+00  0.87713985930E+02  0.87713985930E+02  0.00000000000E+00 0. -1.
         21   -1    0    0  505  502 -0.00000000000E+00 -0.00000000000E+00 -0.75491140236E+03  0.75491140236E+03  0.00000000000E+00 0.  1.
         21    1    1    2  503  506  0.40108861566E+02 -0.22147540554E+02  0.71902490157E+01  0.46378163069E+02  0.00000000000E+00 0. -1.
         21    1    1    2  504  502 -0.89247038586E+02  0.75887827222E+02 -0.20347059955E+03  0.23478560667E+03  0.00000000000E+00 0.  1.
         21    1    1    2  505  501 -0.14118949575E+01  0.52081001169E+02 -0.43599572452E+03  0.43909759272E+03  0.00000000000E+00 0.  1.
         21    1    1    2  506  504  0.50550071978E+02 -0.10582128784E+03 -0.34921341380E+02  0.12236402584E+03  0.00000000000E+00 0. -1.
<scales pt_clust_3="34.85635" pt_clust_4="143.70076" pt_clust_5="52.10014" pt_clust_6="34.85635"></scales>
<clustering>
<clus scale="   34.856">  3  6 -1 -1</clus>
<clus scale="   52.100">  2  5  1 -1</clus>
<clus scale="  143.701">  2  4  1 -1</clus>
<clus scale="  154.142">  1  3  2 -1</clus>
</clustering>
</event>
<event>
 6    0  0.4582113E+002  0.8472012E+02  0.7546771E-02  0.1316166E+00
         21   -1    0    0  502  501  0.00000000000E+00  0.00000000000E+00  0.67469062998E+03  0.67469062998E+03  0.00000000000E+00 0. -1.
         21   -1    0    0  506  502 -0.00000000000E+00 -0.00000000000E+00 -0.29968323796E+03  0.29968323796E+03  0.00000000000E+00 0. -1.
         21    1    1    2  503  501 -0.25716749424E+02 -0.17910214286E+02  0.18379645638E+03  0.18644909320E+03  0.00000000000E+00 0.  1.
         21    1    1    2  504  503 -0.85882732125E+01  0.93695749464E+02  0.44994135879E+03  0.45967366495E+03  0.00000000000E+00 0. -1.
         21    1    1    2  505  504  0.51102550875E+02 -0.12464570413E+03 -0.23613408297E+03  0.27185902120E+03  0.00000000000E+00 0. -1.
         21    1    1    2  506  505 -0.16797528238E+02  0.48860168957E+02 -0.22596340177E+02  0.56392088583E+02  0.00000000000E+00 0.  1.
<scales pt_clust_3="31.33891" pt_clust_4="84.72012" pt_clust_5="14000.00000" pt_clust_6="51.38145"></scales>
<clustering>
<clus scale="   31.339">  1  3  2 -1</clus>
<clus scale="   51.381">  2  6  1 -1</clus>
<clus scale="   84.720">  1  4  2 -1</clus>
<clus scale="   31.339">  1  3  2 -1</clus>
</clustering>
</event>
<event>
 6    0  0.4582113E+002  0.1620582E+03  0.7546771E-02  0.1186392E+00
         21   -1    0    0  505  501  0.00000000000E+00  0.00000000000E+00  0.18411733046E+03  0.18411733046E+03  0.00000000000E+00 0. -1.
         21   -1    0    0  503  502 -0.00000000000E+00 -0.00000000000E+00 -0.16400514269E+03  0.16400514269E+03  0.00000000000E+00 0. -1.
         21    1    1    2  503  504 -0.94166849961E+02  0.52132481105E+02 -0.67222801631E+02  0.12690191597E+03  0.00000000000E+00 0. -1.
         21    1    1    2  504  501 -0.22094380684E+02  0.40158301447E+02  0.62249692389E+01  0.46255822065E+02  0.00000000000E+00 0. -1.
         21    1    1    2  505  506  0.28067453489E+02 -0.40109101065E+02  0.44468830333E+02  0.66136214020E+02  0.00000000000E+00 0. -1.
         21    1    1    2  506  502  0.88193777156E+02 -0.52181681487E+02  0.36641189831E+02  0.10882852110E+03  0.00000000000E+00 0. -1.
<scales pt_clust_3="42.43474" pt_clust_4="42.43474" pt_clust_5="30.90682" pt_clust_6="155.02846"></scales>
<clustering>
<clus scale="   30.907">  5  6 -1 -1</clus>
<clus scale="   42.435">  3  4 -1 -1</clus>
<clus scale="  155.028">  1  5  2 -1</clus>
<clus scale="  155.028">  1  3  2 -1</clus>
</clustering>
</event>
<event>
 6    0  0.4582113E+002  0.1709388E+03  0.7546771E-02  0.1176872E+00
         21   -1    0    0  505  501  0.00000000000E+00  0.00000000000E+00  0.79890173994E+03  0.79890173994E+03  0.00000000000E+00 0. -1.
         21   -1    0    0  504  502 -0.00000000000E+00 -0.00000000000E+00 -0.20437745359E+03  0.20437745359E+03  0.00000000000E+00 0.  1.
         21    1    1    2  503  506  0.30678371926E+02  0.15162897221E+02  0.10208011794E+03  0.10766348701E+03  0.00000000000E+00 0. -1.
         21    1    1    2  504  503 -0.32390824219E+02 -0.10208824316E+03 -0.45770613091E+01  0.10720132637E+03  0.00000000000E+00 0.  1.
         21    1    1    2  505  502 -0.21009277009E+02 -0.54892002713E+02 -0.13131685409E+03  0.14387021183E+03  0.00000000000E+00 0.  1.
         21    1    1    2  506  501  0.22721729302E+02  0.14181734865E+03  0.62833808381E+03  0.64454416833E+03  0.00000000000E+00 0. -1.
<scales pt_clust_3="33.85775" pt_clust_4="156.23324" pt_clust_5="58.77518" pt_clust_6="33.85775"></scales>
<clustering>
<clus scale="   33.858">  3  6 -1 -1</clus>
<clus scale="   58.775">  2  5  1 -1</clus>
<clus scale="  156.233">  2  4  1 -1</clus>
<clus scale="  170.939">  1  3  2 -1</clus>
</clustering>
</event>
<event>
 6    0  0.4622873E+002  0.1940991E+03  0.7546771E-02  0.1154815E+00
         21   -1    0    0  506  501  0.00000000000E+00  0.00000000000E+00  0.24744306736E+04  0.24744306736E+04  0.00000000000E+00 0.  1.
         21   -1    0    0  503  502 -0.00000000000E+00 -0.00000000000E+00 -0.17567882460E+04  0.17567882460E+04  0.00000000000E+00 0. -1.
         21    1    1    2  503  504  0.10987387584E+03 -0.21102797564E+02 -0.96944142058E+02  0.14803973567E+03  0.00000000000E+00 0. -1.
         21    1    1    2  504  501 -0.27462955904E+02  0.18587654860E+02  0.18860735628E+03  0.19150052142E+03  0.00000000000E+00 0. -1.
         21    1    1    2  505  502 -0.12318118822E+03 -0.17282221361E+03 -0.16223408719E+04  0.16361635087E+04  0.00000000000E+00 0. -1.
         21    1    1    2  506  505  0.40770268284E+02  0.17533735631E+03  0.22483200853E+04  0.22555151538E+04  0.00000000000E+00 0.  1.
<scales pt_clust_3="111.54133" pt_clust_4="33.16195" pt_clust_5="194.09915" pt_clust_6="14000.00000"></scales>
<clustering>
<clus scale="   33.162">  1  4  2 -1</clus>
<clus scale="  111.541">  2  3  1 -1</clus>
<clus scale="  194.099">  2  5  1 -1</clus>
<clus scale="   33.162">  1  3  2 -1</clus>
</clustering>
</event>
<event>
 6    0  0.4582113E+002  0.8831008E+02  0.7546771E-02  0.1306996E+00
         21   -1    0    0  504  501  0.00000000000E+00  0.00000000000E+00  0.10096186458E+04  0.10096186458E+04  0.00000000000E+00 0.  1.
         21   -1    0    0  506  502 -0.00000000000E+00 -0.00000000000E+00 -0.10597126156E+03  0.10597126156E+03  0.00000000000E+00 0.  1.
         21    1    1    2  503  501 -0.37784948430E+02  0.29095352861E+02  0.41880404170E+03  0.42151045922E+03  0.00000000000E+00 0.  1.
         21    1    1    2  504  505 -0.56689723232E+02 -0.38500721852E+02  0.50513685840E+03  0.50976394147E+03  0.00000000000E+00 0. -1.
         21    1    1    2  505  502  0.18157378080E+02  0.73650477431E+02  0.17134569605E+02  0.77766809631E+02  0.00000000000E+00 0.  1.
         21    1    1    2  506  503  0.76317293582E+02 -0.64245108440E+02 -0.37428085470E+02  0.10654869704E+03  0.00000000000E+00 0.  1.
<scales pt_clust_3="47.68901" pt_clust_4="88.31008" pt_clust_5="77.48137" pt_clust_6="14000.00000"></scales>
<clustering>
<clus scale="   47.689">  1  3  2 -1</clus>
<clus scale="   77.481">  2  5  1 -1</clus>
<clus scale="   88.310">  1  4  2 -1</clus>
<clus scale="   47.689">  1  3  2 -1</clus>
</clustering>
</event>
<event>
 6    0  0.4582113E+002  0.8218640E+02  0.7546771E-02  0.1322959E+00
         21   -1    0    0  504  501  0.00000000000E+00  0.00000000000E+00  0.65446181155E+03  0.65446181155E+03  0.00000000000E+00 0.  1.
         21   -1    0    0  503  502 -0.00000000000E+00 -0.00000000000E+00 -0.30896338711E+03  0.30896338711E+03  0.00000000000E+00 0.  1.
         21    1    1    2  503  505  0.66139560632E+02  0.57001910078E+02 -0.16785250672E+03  0.18920391974E+03  0.00000000000E+00 0.  1.
         21    1    1    2  504  506  0.30151796826E+02 -0.48536023938E+02  0.80906126478E+02  0.99048865582E+02  0.00000000000E+00 0.  1.
         21    1    1    2  505  501 -0.91483960805E+02  0.83003724331E+02  0.52832411459E+03  0.54257285538E+03  0.00000000000E+00 0.  1.
         21    1    1    2  506  502 -0.48073966531E+01 -0.91469610471E+02 -0.95879309900E+02  0.13259955795E+03  0.00000000000E+00 0.  1.
<scales pt_clust_3="14000.00000" pt_clust_4="57.13910" pt_clust_5="72.94274" pt_clust_6="82.18640"></scales>
<clustering>
<clus scale="   57.139">  1  4  2 -1</clus>
<clus scale="   72.943">  1  5  2 -1</clus>
<clus scale="   82.186">  1  6  2 -1</clus>
<clus scale="   57.139">  1  3  2 -1</clus>
</clustering>
</event>
<event>
 6    0  0.4582113E+002  0.1087953E+03  0.7546771E-02  0.1262817E+00
         21   -1    0    0  503  501  0.00000000000E+00  0.00000000000E+00  0.50569628448E+02  0.50569628448E+02  0.00000000000E+00 0.  1.
         21   -1    0    0  505  502 -0.00000000000E+00 -0.00000000000E+00 -0.13948373054E+04  0.13948373054E+04  0.00000000000E+00 0.  1.
         21    1    1    2  503  504  0.34403741647E+02  0.22009863995E+02 -0.28413179729E+02  0.49752993224E+02  0.00000000000E+00 0. -1.
         21    1    1    2  504  502 -0.58248409271E+02  0.47006592589E+02 -0.10418186441E+04  0.10445039895E+04  0.00000000000E+00 0.  1.
         21    1    1    2  505  506 -0.55676257535E+01  0.47024774262E+02 -0.21022905916E+03  0.21549613725E+03  0.00000000000E+00 0. -1.
         21    1    1    2  506  501  0.29412293378E+02 -0.11604123085E+03 -0.63806793955E+02  0.13565381385E+03  0.00000000000E+00 0.  1.
<scales pt_clust_3="40.84179" pt_clust_4="14000.00000" pt_clust_5="48.58949" pt_clust_6="108.79530"></scales>
<clustering>
<clus scale="   40.842">  1  3  2 -1</clus>
<clus scale="   48.589">  2  5  1 -1</clus>
<clus scale="  108.795">  1  6  2 -1</clus>
<clus scale="   40.842">  1  3  2 -1</clus>
</clustering>
</event>
<event>
 6    0  0.4582113E+002  0.9059416E+02  0.7546771E-02  0.1301419E+00
         21   -1    0    0  506  501  0.00000000000E+00  0.00000000000E+00  0.23989141654E+03  0.23989141654E+03  0.00000000000E+00 0.  1.
         21   -1    0    0  504  502 -0.00000000000E+00 -0.00000000000E+00 -0.58164565286E+03  0.58164565286E+03  0.00000000000E+00 0.  1.
         21    1    1    2  503  501 -0.52214961601E+02 -0.76244486768E+02  0.97973750072E+02  0.13467917315E+03  0.00000000000E+00 0.  1.
         21    1    1    2  504  503  0.72527913221E+01 -0.38868788042E+02 -0.49880828230E+03  0.50037294906E+03  0.00000000000E+00 0.  1.
         21    1    1    2  505  502 -0.16124714999E+02  0.49985446971E+02 -0.29891725539E+02  0.60432330738E+02  0.00000000000E+00 0.  1.
         21    1    1    2  506  505  0.61086885278E+02  0.65127827839E+02  0.88972021443E+02  0.12605261644E+03  0.00000000000E+00 0.  1.
<scales pt_clust_3="90.59416" pt_clust_4="39.53967" pt_clust_5="31.06029" pt_clust_6="14000.00000"></scales>
<clustering>
<clus scale="   39.540">  2  4  1 -1</clus>
<clus scale="   31.060">  2  5  1 -1</clus>
<clus scale="   90.594">  1  3  2 -1</clus>
<clus scale="   90.594">  1  3  2 -1</clus>
</clustering>
</event>
<event>
 6    0  0.4582113E+002  0.1560723E+03  0.7546771E-02  0.1193204E+00
         21   -1    0    0  503  501  0.00000000000E+00  0.00000000000E+00  0.67892495704E+03  0.67892495704E+03  0.00000000000E+00 0.  1.
         21   -1    0    0  501  502 -0.00000000000E+00 -0.00000000000E+00 -0.19490592967E+03  0.19490592967E+03  0.00000000000E+00 0. -1.
         21    1    1    2  503  506 -0.82809272168E+02  0.56878463978E+02  0.31138132826E+03  0.32718628763E+03  0.00000000000E+00 0.  1.
         21    1    1    2  504  505  0.17077639648E+03 -0.57198438733E+02  0.11635682110E+03  0.21441816342E+03  0.00000000000E+00 0.  1.
         21    1    1    2  505  502 -0.84688985572E+02 -0.51886238173E+02 -0.11569066839E+03  0.15247536438E+03  0.00000000000E+00 0. -1.
         21    1    1    2  506  504 -0.32781387366E+01  0.52206212928E+02  0.17197154639E+03  0.17975107129E+03  0.00000000000E+00 0.  1.
<scales pt_clust_3="45.89298" pt_clust_4="142.52579" pt_clust_5="99.31972" pt_clust_6="45.89298"></scales>
<clustering>
<clus scale="   45.893">  3  6 -1 -1</clus>
<clus scale="   99.320">  2  5  1 -1</clus>
<clus scale="  142.526">  2  4  1 -1</clus>
<clus scale="  156.072">  1  3  2 -1</clus>
</clustering>
</event>
<event>
 6    0  0.4582113E+002  0.2689140E+03  0.7546771E-02  0.1101903E+00
         21   -1    0    0  506  501  0.00000000000E+00  0.00000000000E+00  0.23868134990E+03  0.23868134990E+03  0.00000000000E+00 0.  1.
         21   -1    0    0  503  502 -0.00000000000E+00 -0.00000000000E+00 -0.44607305708E+03  0.44607305708E+03  0.00000000000E+00 0.  1.
         21    1    1    2  503  505  0.52852441822E+02  0.30935909164E+02 -0.14697257467E+03  0.15922106892E+03  0.00000000000E+00 0.  1.
         21    1    1    2  504  501  0.12467762431E+03  0.61980543162E+02 -0.12325774193E+03  0.18595313571E+03  0.00000000000E+00 0.  1.
         21    1    1    2  505  504  0.25283186169E+02  0.46300359555E+02 -0.46552878731E+02  0.70357183826E+02  0.00000000000E+00 0.  1.
         21    1    1    2  506  502 -0.20281325230E+03 -0.13921681188E+03  0.10939148816E+03  0.26922301852E+03  0.00000000000E+00 0.  1.
<scales pt_clust_3="50.32853" pt_clust_4="50.32853" pt_clust_5="31.66479" pt_clust_6="245.99702"></scales>
<clustering>
<clus scale="   31.665">  4  5 -1 -1</clus>
<clus scale="   50.329">  3  4 -1 -1</clus>
<clus scale="  245.997">  1  6  2 -1</clus>
<clus scale="  245.997">  1  3  2 -1</clus>
</clustering>
</event>
<event>
 6    0  0.4582113E+002  0.1807675E+03  0.7546771E-02  0.1167062E+00
         21   -1    0    0  503  501  0.00000000000E+00  0.00000000000E+00  0.33017462270E+03  0.33017462270E+03  0.00000000000E+00 0.  1.
         21   -1    0    0  504  502 -0.00000000000E+00 -0.00000000000E+00 -0.31727759839E+03  0.31727759839E+03  0.00000000000E+00 0.  1.
         21    1    1    2  503  502 -0.46407776408E+02  0.20765067096E+02 -0.35002205796E+02  0.61725392937E+02  0.00000000000E+00 0. -1.
         21    1    1    2  504  506  0.11555932389E+03 -0.16575188789E+03 -0.19790309480E+03  0.28283083391E+03  0.00000000000E+00 0.  1.
         21    1    1    2  505  501 -0.61560809259E+02  0.52978830431E+02  0.14506435896E+03  0.16625329455E+03  0.00000000000E+00 0.  1.
         21    1    1    2  506  505 -0.75907382226E+01  0.92007990358E+02  0.10073796595E+03  0.13664269970E+03  0.00000000000E+00 0.  1.
<scales pt_clust_3="50.84161" pt_clust_4="164.78104" pt_clust_5="69.89768" pt_clust_6="69.89768"></scales>
<clustering>
<clus scale="   50.842">  2  3  1 -1</clus>
<clus scale="   69.898">  5  6 -1 -1</clus>
<clus scale="  164.781">  2  4  1 -1</clus>
<clus scale="  180.767">  1  3  2 -1</clus>
</clustering>
</event>
<event>
 6    0  0.4582113E+002  0.1436749E+03  0.7546771E-02  0.1208468E+00
         21   -1    0    0  504  501  0.00000000000E+00  0.00000000000E+00  0.15178664216E+04  0.15178664216E+04  0.00000000000E+00 0. -1.
         21   -1    0    0  506  502 -0.00000000000E+00 -0.00000000000E+00 -0.16926588165E+03  0.16926588165E+03  0.00000000000E+00 0.  1.
         21    1    1    2  503  505 -0.55716612930E+02 -0.39154071969E+02 -0.60310896493E+02  0.90965853725E+02  0.00000000000E+00 0.  1.
         21    1    1    2  504  502  0.73622858754E+02  0.12017573519E+03  0.53713260826E+03  0.55531429975E+03  0.00000000000E+00 0. -1.
         21    1    1    2  505  501  0.57749238842E+02 -0.98027609898E+02  0.93432581610E+03  0.94122745259E+03  0.00000000000E+00 0. -1.
         21    1    1    2  506  503 -0.75655484666E+02  0.17005946680E+02 -0.62546987936E+02  0.99624697151E+02  0.00000000000E+00 0.  1.
<scales pt_clust_3="55.29443" pt_clust_4="130.99984" pt_clust_5="113.77340" pt_clust_6="55.29443"></scales>
<clustering>
<clus scale="   55.294">  3  6 -1 -1</clus>
<clus scale="  113.773">  1  5  2 -1</clus>
<clus scale="  131.000">  1  4  2 -1</clus>
<clus scale="  113.773">  1  3  2 -1</clus>
</clustering>
</event>
<event>
 6    0  0.4582113E+002  0.9388999E+02  0.7546771E-02  0.1293696E+00
         21   -1    0    0  506  501  0.00000000000E+00  0.00000000000E+00  0.74914305924E+03  0.74914305924E+03  0.00000000000E+00 0. -1.
         21   -1    0    0  505  502 -0.00000000000E+00 -0.00000000000E+00 -0.17585074940E+03  0.17585074940E+03  0.00000000000E+00 0.  1.
         21    1    1    2  503  502  0.11433390431E+02  0.29138677023E+02 -0.54322531269E+02  0.62695472873E+02  0.00000000000E+00 0. -1.
         21    1    1    2  504  503  0.68716866455E+02 -0.68633049670E+02 -0.85857391256E+02  0.12963022362E+03  0.00000000000E+00 0.  1.
         21    1    1    2  505  501 -0.16191423390E+02 -0.29111144858E+02  0.37249218738E+02  0.49971244161E+02  0.00000000000E+00 0.  1.
         21    1    1    2  506  504 -0.63958833495E+02  0.68605517505E+02  0.67622301362E+03  0.68269686799E+03  0.00000000000E+00 0. -1.
<scales pt_clust_3="31.30152" pt_clust_4="93.88999" pt_clust_5="31.63008" pt_clust_6="14000.00000"></scales>
<clustering>
<clus scale="   31.302">  2  3  1 -1</clus>
<clus scale="   31.630">  2  5  1 -1</clus>
<clus scale="   93.890">  2  4  1 -1</clus>
<clus scale="   93.890">  1  3  2 -1</clus>
</clustering>
</event>
<event>
 6    0  0.4582113E+002  0.8571041E+02  0.7546771E-02  0.1313585E+00
         21   -1    0    0  505  501  0.00000000000E+00  0.00000000000E+00  0.89523780264E+03  0.89523780264E+03  0.00000000000E+00 0.  1.
         21   -1    0    0  503  502 -0.00000000000E+00 -0.00000000000E+00 -0.17129961586E+03  0.17129961586E+03  0.00000000000E+00 0. -1.
         21    1    1    2  503  506 -0.59090979671E+02 -0.24621793999E+00  0.66364346381E+01  0.59462986524E+02  0.00000000000E+00 0.  1.
         21    1    1    2  504  501  0.16363167549E+02 -0.41379673320E+02  0.59762749726E+03  0.59928178356E+03  0.00000000000E+00 0.  1.
         21    1    1    2  505  502  0.40330272699E+02  0.91852497993E+02 -0.12370787697E+03  0.15927037109E+03  0.00000000000E+00 0. -1.
         21    1    1    2  506  504  0.23975394232E+01 -0.50226606733E+02  0.24338213185E+03  0.24852227732E+03  0.00000000000E+00 0.  1.
<scales pt_clust_3="57.47414" pt_clust_4="44.49753" pt_clust_5="85.71041" pt_clust_6="14000.00000"></scales>
<clustering>
<clus scale="   44.498">  1  4  2 -1</clus>
<clus scale="   57.474">  2  3  1 -1</clus>
<clus scale="   85.710">  2  5  1 -1</clus>
<clus scale="   44.498">  1  3  2 -1</clus>
</clustering>
</event>
<event>
 6    0  0.4582113E+002  0.1995458E+03  0.7546771E-02  0.1150123E+00
         21   -1    0    0  505  501  0.00000000000E+00  0.00000000000E+00  0.26740320374E+04  0.26740320374E+04  0.00000000000E+00 0.  1.
         21   -1    0    0  504  502 -0.00000000000E+00 -0.00000000000E+00 -0.68970136789E+02  0.68970136789E+02  0.00000000000E+00 0. -1.
         21    1    1    2  503  502 -0.95078218856E+02  0.44453358690E+02  0.18887300442E+03  0.21607633049E+03  0.00000000000E+00 0.  1.
         21    1    1    2  504  501  0.11516916285E+03 -0.23174914942E+03  0.27786671771E+03  0.37971241373E+03  0.00000000000E+00 0. -1.
         21    1    1    2  505  506 -0.34764023242E+02  0.85014840193E+02  0.98887507805E+03  0.99313140135E+03  0.00000000000E+00 0. -1.
         21    1    1    2  506  503  0.14673079250E+02  0.10228095053E+03  0.11494471005E+04  0.11540820287E+04  0.00000000000E+00 0.  1.
<scales pt_clust_3="104.95699" pt_clust_4="192.86817" pt_clust_5="48.26261" pt_clust_6="48.26261"></scales>
<clustering>
<clus scale="   48.263">  5  6 -1 -1</clus>
<clus scale="  104.957">  2  3  1 -1</clus>
<clus scale="  192.868">  2  4  1 -1</clus>
<clus scale="  199.546">  1  3  2 -1</clus>
</clustering>
</event>
<event>
 6    0  0.4582113E+002  0.1262355E+03  0.7546771E-02  0.1233151E+00
         21   -1    0    0  503  501  0.00000000000E+00  0.00000000000E+00  0.11031422198E+04  0.11031422198E+04  0.00000000000E+00 0. -1.
         21   -1    0    0  506  502 -0.00000000000E+00 -0.00000000000E+00 -0.17619770253E+03  0.17619770253E+03  0.00000000000E+00 0. -1.
         21    1    1    2  503  505 -0.84300969837E+02  0.26086200990E+02  0.28924165976E+03  0.30240350715E+03  0.00000000000E+00 0. -1.
         21    1    1    2  504  502  0.55658487098E+02 -0.37973490896E+02 -0.12943382152E+02  0.68610380690E+02  0.00000000000E+00 0. -1.
         21    1    1    2  505  504  0.49380842825E+02 -0.57990272102E+02 -0.11570056846E+03  0.13852061521E+03  0.00000000000E+00 0. -1.
         21    1    1    2  506  501 -0.20738360086E+02  0.69877562008E+02  0.76634680813E+03  0.76980541930E+03  0.00000000000E+00 0. -1.
<scales pt_clust_3="14000.00000" pt_clust_4="67.37843" pt_clust_5="126.23551" pt_clust_6="72.22496"></scales>
<clustering>
<clus scale="   67.378">  2  4  1 -1</clus>
<clus scale="   72.225">  1  6  2 -1</clus>
<clus scale="  126.236">  2  5  1 -1</clus>
<clus scale="   72.225">  1  3  2 -1</clus>
</clustering>
</event>
<event>
 6    0  0.4582113E+002  0.9959335E+02  0.7546771E-02  0.1281153E+00
         21   -1    0    0  506  501  0.00000000000E+00  0.00000000000E+00  0.13403933500E+03  0.13403933500E+03  0.00000000000E+00 0. -1.
         21   -1    0    0  504  502 -0.00000000000E+00 -0.00000000000E+00 -0.66813430197E+03  0.66813430197E+03  0.00000000000E+00 0.  1.
         21    1    1    2  503  501  0.12804704681E+03 -0.95244061385E+02 -0.30215641161E+02  0.16242063415E+03  0.00000000000E+00 0. -1.
         21    1    1    2  504  503 -0.55361830643E+02  0.14398374681E+02 -0.43189985939E+03  0.43567158965E+03  0.00000000000E+00 0.  1.
         21    1    1    2  505  502  0.11586427581E+02  0.79571960556E+02 -0.87003266672E+02  0.11847156040E+03  0.00000000000E+00 0. -1.
         21    1    1    2  506  505 -0.84271643749E+02  0.12737261479E+01  0.15023800252E+02  0.85609852776E+02  0.00000000000E+00 0. -1.
<scales pt_clust_3="14000.00000" pt_clust_4="57.20354" pt_clust_5="86.81572" pt_clust_6="99.59335"></scales>
<clustering>
<clus scale="   57.204">  2  4  1 -1</clus>
<clus scale="   86.816">  2  5  1 -1</clus>
<clus scale="   99.593">  1  6  2 -1</clus>
<clus scale="   99.593">  1  3  2 -1</clus>
</clustering>
</event>
<event>
 6    0  0.4582113E+002  0.1169938E+03  0.7546771E-02  0.1248140E+00
         21   -1    0    0  503  501  0.00000000000E+00  0.00000000000E+00  0.98520718627E+02  0.98520718627E+02  0.00000000000E+00 0. -1.
         21   -1    0    0  506  502 -0.00000000000E+00 -0.00000000000E+00 -0.10659019036E+04  0.10659019036E+04  0.00000000000E+00 0. -1.
         21    1    1    2  503  505 -0.68629033150E+02 -0.99146344616E+02  0.28644526203E+02  0.12393728544E+03  0.00000000000E+00 0. -1.
         21    1    1    2  504  501  0.22603514690E+02  0.27440763208E+02 -0.16719610408E+02  0.39286890103E+02  0.00000000000E+00 0. -1.
         21    1    1    2  505  502  0.85471049784E+02  0.79821358520E+02 -0.93095921525E+03  0.93827597757E+03  0.00000000000E+00 0. -1.
         21    1    1    2  506  504 -0.39445531324E+02 -0.81157771107E+01 -0.48346885519E+02  0.62922469110E+02  0.00000000000E+00 0.  1.
<scales pt_clust_3="116.99383" pt_clust_4="35.55157" pt_clust_5="14000.00000" pt_clust_6="38.00602"></scales>
<clustering>
<clus scale="   35.552">  1  4  2 -1</clus>
<clus scale="   38.006">  1  6  2 -1</clus>
<clus scale="  116.994">  1  3  2 -1</clus>
<clus scale="   35.552">  1  3  2 -1</clus>
</clustering>
</event>
<event>
 6    0  0.4582113E+002  0.1606808E+03  0.7546771E-02  0.1187930E+00
         21   -1    0    0  506  501  0.00000000000E+00  0.00000000000E+00  0.10924902303E+03  0.10924902303E+03  0.00000000000E+00 0. -1.
         21   -1    0    0  504  502 -0.00000000000E+00 -0.00000000000E+00 -0.49177931647E+03  0.49177931647E+03  0.00000000000E+00 0.  1.
         21    1    1    2  503  501 -0.13091620935E+02 -0.65880330755E+02 -0.86446173158E+01  0.67722506803E+02  0.00000000000E+00 0. -1.
         21    1    1    2  504  503  0.90858630096E+02 -0.94222777756E+02 -0.29342801989E+03  0.32129927695E+03  0.00000000000E+00 0.  1.
         21    1    1    2  505  502 -0.29427744373E+02  0.10688122730E+03 -0.85401458466E+02  0.13993926538E+03  0.00000000000E+00 0. -1.
         21    1    1    2  506  505 -0.48339264788E+02  0.53221881216E+02  0.49438022255E+01  0.72067290367E+02  0.00000000000E+00 0. -1.
<scales pt_clust_3="67.16851" pt_clust_4="137.93362" pt_clust_5="66.37303" pt_clust_6="66.37303"></scales>
<clustering>
<clus scale="   66.373">  5  6 -1 -1</clus>
<clus scale="   67.169">  1  3  2 -1</clus>
<clus scale="  137.934">  2  4  1 -1</clus>
<clus scale="   67.169">  1  3  2 -1</clus>
</clustering>
</event>
<event>
 6    0  0.4582113E+002  0.1887564E+03  0.7546771E-02  0.1159588E+00
         21   -1    0    0  503  501  0.00000000000E+00  0.00000000000E+00  0.10575336744E+03  0.10575336744E+03  0.00000000000E+00 0.  1.
         21   -1    0    0  504  502 -0.00000000000E+00 -0.00000000000E+00 -0.10236228294E+04  0.10236228294E+04  0.00000000000E+00 0.  1.
         21    1    1    2  503  502 -0.30524042040E+02 -0.25246835297E+02 -0.64548676721E+03  0.64670107970E+03  0.00000000000E+00 0.  1.
         21    1    1    2  504  505 -0.25258465809E+02 -0.40718991748E+02 -0.35924127464E+02  0.59887973066E+02  0.00000000000E+00 0.  1.
         21    1    1    2  505  506 -0.89682715125E+02 -0.57332325198E+02 -0.20295862289E+03  0.22917719675E+03  0.00000000000E+00 0.  1.
         21    1    1    2  506  501  0.14546522297E+03  0.12329815224E+03 -0.33499944431E+02  0.19360994736E+03  0.00000000000E+00 0.  1.
<scales pt_clust_3="39.61212" pt_clust_4="38.71699" pt_clust_5="38.71699" pt_clust_6="178.77591"></scales>
<clustering>
<clus scale="   39.612">  2  3  1 -1</clus>
<clus scale="   38.717">  4  5 -1 -1</clus>
<clus scale="  178.776">  1  6  2 -1</clus>
<clus scale="  178.776">  1  3  2 -1</clus>
</clustering>
</event>
<event>
 6    0  0.4582113E+002  0.1171915E+03  0.7546771E-02  0.1247803E+00
         21   -1    0    0  506  501  0.00000000000E+00  0.00000000000E+00  0.28981516789E+03  0.28981516789E+03  0.00000000000E+00 0. -1.
         21   -1    0    0  504  502 -0.00000000000E+00 -0.00000000000E+00 -0.16023727329E+03  0.16023727329E+03  0.00000000000E+00 0.  1.
         21    1    1    2  503  501 -0.15295071253E+02  0.41772177004E+02  0.22650260895E+02  0.49918817042E+02  0.00000000000E+00 0. -1.
         21    1    1    2  504  505  0.47424440901E+02 -0.15077341516E+02 -0.70936542521E+02  0.86651006265E+02  0.00000000000E+00 0.  1.
         21    1    1    2  505  503  0.69407749065E+02 -0.67618954826E+02 -0.85742164776E+01  0.97279370219E+02  0.00000000000E+00 0. -1.
         21    1    1    2  506  502 -0.10153711871E+03  0.40924119338E+02  0.18643839271E+03  0.21620324766E+03  0.00000000000E+00 0. -1.
<scales pt_clust_3="44.48431" pt_clust_4="48.93166" pt_clust_5="117.19148" pt_clust_6="14000.00000"></scales>
<clustering>
<clus scale="   44.484">  1  3  2 -1</clus>
<clus scale="   48.932">  2  4  1 -1</clus>
<clus scale="  117.191">  2  5  1 -1</clus>
<clus scale="   44.484">  1  3  2 -1</clus>
</clustering>
</event>
<event>
 6    0  0.4582113E+002  0.7288738E+02  0.7546771E-02  0.1350541E+00
         21   -1    0    0  503  501  0.00000000000E+00  0.00000000000E+00  0.46970230535E+03  0.46970230535E+03  0.00000000000E+00 0.  1.
         21   -1    0    0  505  502 -0.00000000000E+00 -0.00000000000E+00 -0.57997920228E+02  0.57997920228E+02  0.00000000000E+00 0.  1.
         21    1    1    2  503  506  0.73947414939E+02 -0.61720964363E+02  0.11259928579E+03  0.14817657297E+03  0.00000000000E+00 0.  1.
         21    1    1    2  504  501  0.16445878256E+02  0.39986847428E+02  0.84693970485E+02  0.95091973979E+02  0.00000000000E+00 0. -1.
         21    1    1    2  505  504 -0.73973329056E+02 -0.45407222402E+02  0.19372746224E+03  0.21228329864E+03  0.00000000000E+00 0.  1.
         21    1    1    2  506  502 -0.16419964139E+02  0.67141339337E+02  0.20683666619E+02  0.72148379990E+02  0.00000000000E+00 0.  1.
<scales pt_clust_3="14000.00000" pt_clust_4="43.23673" pt_clust_5="69.47301" pt_clust_6="72.88738"></scales>
<clustering>
<clus scale="   43.237">  1  4  2 -1</clus>
<clus scale="   69.473">  1  5  2 -1</clus>
<clus scale="   72.887">  2  6  1 -1</clus>
<clus scale="   43.237">  1  3  2 -1</clus>
</clustering>
</event>
<event>
 6    0  0.4582113E+002  0.7492765E+02  0.7546771E-02  0.1344095E+00
         21   -1    0    0  503  501  0.00000000000E+00  0.00000000000E+00  0.21788854560E+03  0.21788854560E+03  0.00000000000E+00 0.  1.
         21   -1    0    0  506  502 -0.00000000000E+00 -0.00000000000E+00 -0.16799057891E+04  0.16799057891E+04  0.00000000000E+00 0.  1.
         21    1    1    2  503  505  0.15975086563E+02  0.57351451898E+02  0.54341496718E+02  0.80606393612E+02  0.00000000000E+00 0.  1.
         21    1    1    2  504  502 -0.10932502994E+02  0.56715422747E+02 -0.90178481805E+03  0.90363267806E+03  0.00000000000E+00 0.  1.
         21    1    1    2  505  504 -0.35662593815E+02 -0.84621836827E+02  0.13472973541E+03  0.16304838996E+03  0.00000000000E+00 0.  1.
         21    1    1    2  506  501  0.30620010246E+02 -0.29445037818E+02 -0.74930365754E+03  0.75050687305E+03  0.00000000000E+00 0.  1.
<scales pt_clust_3="74.92765" pt_clust_4="33.83154" pt_clust_5="14000.00000" pt_clust_6="42.48053"></scales>
<clustering>
<clus scale="   42.481">  2  6  1 -1</clus>
<clus scale="   33.832">  2  4  1 -1</clus>
<clus scale="   74.928">  1  3  2 -1</clus>
<clus scale="   74.928">  1  3  2 -1</clus>
</clustering>
</event>
<event>
 6    0  0.4582113E+002  0.9598316E+02  0.7546771E-02  0.1288977E+00
         21   -1    0    0  503  501  0.00000000000E+00  0.00000000000E+00  0.76914206189E+03  0.76914206189E+03  0.00000000000E+00 0.  1.
         21   -1    0    0  505  502 -0.00000000000E+00 -0.00000000000E+00 -0.10389439238E+03  0.10389439238E+03  0.00000000000E+00 0.  1.
         21    1    1    2  503  504  0.93118756910E+02 -0.10017998348E+03  0.23265712442E+03  0.26988232533E+03  0.00000000000E+00 0.  1.
         21    1    1    2  504  502 -0.52826621592E+02  0.65796592957E+02  0.33818677361E+02  0.90904051241E+02  0.00000000000E+00 0.  1.
         21    1    1    2  505  506  0.31736232075E+02  0.22974937645E+02 -0.46637275275E+02  0.60910357340E+02  0.00000000000E+00 0.  1.
         21    1    1    2  506  501 -0.72028367393E+02  0.11408452880E+02  0.44540914300E+03  0.45133972036E+03  0.00000000000E+00 0.  1.
<scales pt_clust_3="14000.00000" pt_clust_4="95.98316" pt_clust_5="39.17954" pt_clust_6="71.30318"></scales>
<clustering>
<clus scale="   39.180">  2  5  1 -1</clus>
<clus scale="   71.303">  1  6  2 -1</clus>
<clus scale="   95.983">  2  4  1 -1</clus>
<clus scale="   71.303">  1  3  2 -1</clus>
</clustering>
</event>
<event>
 6    0  0.4582113E+002  0.1126194E+03  0.7546771E-02  0.1255795E+00
         21   -1    0    0  505  501  0.00000000000E+00  0.00000000000E+00  0.80375903014E+02  0.80375903014E+02  0.00000000000E+00 0.  1.
         21   -1    0    0  506  502 -0.00000000000E+00 -0.00000000000E+00 -0.12329171452E+04  0.12329171452E+04  0.00000000000E+00 0.  1.
         21    1    1    2  503  501 -0.46659403946E+02 -0.64696087176E+01 -0.77858464115E+01  0.47744897297E+02  0.00000000000E+00 0.  1.
         21    1    1    2  504  503  0.29066529487E+02  0.87477278596E+02 -0.51964234153E+03  0.52775496257E+03  0.00000000000E+00 0.  1.
         21    1    1    2  505  502 -0.21774441579E+02 -0.91761574624E+02  0.15764029062E+02  0.95618081428E+02  0.00000000000E+00 0.  1.
         21    1    1    2  506  504  0.39367316037E+02  0.10753904746E+02 -0.64087708331E+03  0.64217510692E+03  0.00000000000E+00 0.  1.
<scales pt_clust_3="45.20637" pt_clust_4="14000.00000" pt_clust_5="112.61941" pt_clust_6="40.80971"></scales>
<clustering>
<clus scale="   40.810">  2  6  1 -1</clus>
<clus scale="   45.206">  1  3  2 -1</clus>
<clus scale="  112.619">  1  5  2 -1</clus>
<clus scale="   45.206">  1  3  2 -1</clus>
</clustering>
</event>
<event>
 6    0  0.4582113E+002  0.2299756E+03  0.7546771E-02  0.1126657E+00
         21   -1    0    0  506  501  0.00000000000E+00  0.00000000000E+00  0.43147624085E+03  0.43147624085E+03  0.00000000000E+00 0. -1.
         21   -1    0    0  504  502 -0.00000000000E+00 -0.00000000000E+00 -0.34288470368E+03  0.34288470368E+03  0.00000000000E+00 0. -1.
         21    1    1    2  503  501  0.12249495734E+03  0.26398598365E+03  0.16299640102E+03  0.33355875177E+03  0.00000000000E+00 0. -1.
         21    1    1    2  504  503 -0.17370232003E+03 -0.11301104496E+03 -0.12720931293E+03  0.24315879907E+03  0.00000000000E+00 0. -1.
         21    1    1    2  505  502  0.49299643407E+02 -0.71018764550E+02 -0.20833008251E+02  0.88927689676E+02  0.00000000000E+00 0. -1.
         21    1    1    2  506  505  0.19077192855E+01 -0.79956174140E+02  0.73637457338E+02  0.10871570401E+03  0.00000000000E+00 0.  1.
<scales pt_clust_3="229.97562" pt_clust_4="14000.00000" pt_clust_5="93.23748" pt_clust_6="79.97893"></scales>
<clustering>
<clus scale="   79.979">  1  6  2 -1</clus>
<clus scale="   93.237">  2  5  1 -1</clus>
<clus scale="  229.976">  1  3  2 -1</clus>
<clus scale="   79.979">  1  3  2 -1</clus>
</clustering>
</event>
<event>
 6    0  0.4582113E+002  0.2218754E+03  0.7546771E-02  0.1132493E+00
         21   -1    0    0  505  501  0.00000000000E+00  0.00000000000E+00  0.45889230412E+02  0.45889230412E+02  0.00000000000E+00 0.  1.
         21   -1    0    0  504  502 -0.00000000000E+00 -0.00000000000E+00 -0.27080160101E+04  0.27080160101E+04  0.00000000000E+00 0. -1.
         21    1    1    2  503  501 -0.22272937650E+02 -0.30469033283E+02 -0.46364529366E+02  0.59783905226E+02  0.00000000000E+00 0.  1.
         21    1    1    2  504  506 -0.69344503276E+02 -0.38564650803E+01 -0.37797627326E+03  0.38430404058E+03  0.00000000000E+00 0. -1.
         21    1    1    2  505  502 -0.12100374818E+03  0.13838996978E+03 -0.18229209767E+04  0.18321666349E+04  0.00000000000E+00 0. -1.
         21    1    1    2  506  503  0.21262118911E+03 -0.10406447142E+03 -0.41486500033E+03  0.47765065976E+03  0.00000000000E+00 0.  1.
<scales pt_clust_3="37.74183" pt_clust_4="71.42302" pt_clust_5="221.87544" pt_clust_6="14000.00000"></scales>
<clustering>
<clus scale="   37.742">  1  3  2 -1</clus>
<clus scale="   71.423">  2  4  1 -1</clus>
<clus scale="  221.875">  2  5  1 -1</clus>
<clus scale="   37.742">  1  3  2 -1</clus>
</clustering>
</event>
<event>
 6    0  0.4818351E+002  0.3290770E+03  0.7546771E-02  0.1071546E+00
         21   -1    0    0  503  501  0.00000000000E+00  0.00000000000E+00  0.37929379392E+03  0.37929379392E+03  0.00000000000E+00 0.  1.
         21   -1    0    0  505  502 -0.00000000000E+00 -0.00000000000E+00 -0.91860919125E+03  0.91860919125E+03  0.00000000000E+00 0. -1.
         21    1    1    2  503  502 -0.88272223507E+02 -0.31155367169E+03  0.25762336033E+03  0.41379641320E+03  0.00000000000E+00 0.  1.
         21    1    1    2  504  506  0.96746622961E+01  0.42891083984E+02 -0.14245484159E+03  0.14908596872E+03  0.00000000000E+00 0. -1.
         21    1    1    2  505  504  0.17013796212E+02  0.32885505493E+02 -0.31478524214E+03  0.31695531925E+03  0.00000000000E+00 0. -1.
         21    1    1    2  506  501  0.61583765000E+02  0.23577708222E+03 -0.33969867394E+03  0.41806528400E+03  0.00000000000E+00 0. -1.
<scales pt_clust_3="319.11887" pt_clust_4="34.12695" pt_clust_5="37.02601" pt_clust_6="34.12695"></scales>
<clustering>
<clus scale="   34.127">  4  6 -1 -1</clus>
<clus scale="   37.026">  2  5  1 -1</clus>
<clus scale="  319.119">  1  3  2 -1</clus>
<clus scale="  319.119">  1  3  2 -1</clus>
</clustering>
</event>
<event>
 6    0  0.6659938E+002  0.8252929E+02  0.7546771E-02  0.1322023E+00
         21   -1    0    0  503  501  0.00000000000E+00  0.00000000000E+00  0.12355933233E+04  0.12355933233E+04  0.00000000000E+00 0. -1.
         21   -1    0    0  505  502 -0.00000000000E+00 -0.00000000000E+00 -0.25582660716E+04  0.25582660716E+04  0.00000000000E+00 0. -1.
         21    1    1    2  503  506  0.81870912144E+02 -0.96503815985E+01  0.11666924067E+04  0.11696012774E+04  0.00000000000E+00 0. -1.
         21    1    1    2  504  501 -0.89054676292E+02 -0.36410412907E+02  0.32179754476E+02  0.10144944621E+03  0.00000000000E+00 0.  1.
         21    1    1    2  505  504  0.29609792210E+02  0.71952484851E+01 -0.63556609717E+03  0.63629613803E+03  0.00000000000E+00 0. -1.
         21    1    1    2  506  502 -0.22426028062E+02  0.38865546021E+02 -0.18859788124E+04  0.18865125333E+04  0.00000000000E+00 0. -1.
<scales pt_clust_3="14000.00000" pt_clust_4="82.52929" pt_clust_5="30.47148" pt_clust_6="46.40151"></scales>
<clustering>
<clus scale="   30.471">  2  5  1 -1</clus>
<clus scale="   46.402">  2  6  1 -1</clus>
<clus scale="   82.529">  2  4  1 -1</clus>
<clus scale="   82.529">  1  3  2 -1</clus>
</clustering>
</event>
<event>
 6    0  0.4582113E+002  0.1169764E+03  0.7546771E-02  0.1248170E+00
         21   -1    0    0  503  501  0.00000000000E+00  0.00000000000E+00  0.86195770322E+03  0.86195770322E+03  0.00000000000E+00 0.  1.
         21   -1    0    0  506  502 -0.00000000000E+00 -0.00000000000E+00 -0.25247827519E+03  0.25247827519E+03  0.00000000000E+00 0.  1.
         21    1    1    2  503  504  0.41136873656E+02 -0.58432643260E+02  0.22208101157E+03  0.23329507469E+03  0.00000000000E+00 0. -1.
         21    1    1    2  504  505  0.26413206378E+02  0.86881295315E+02 -0.18742684771E+03  0.20826627232E+03  0.00000000000E+00 0.  1.
         21    1    1    2  505  502 -0.21338096923E+02  0.33652090802E+02 -0.38070285189E+02  0.55110109871E+02  0.00000000000E+00 0.  1.
         21    1    1    2  506  501 -0.46211983111E+02 -0.62100742857E+02  0.61289554935E+03  0.61776452153E+03  0.00000000000E+00 0.  1.
<scales pt_clust_3="70.37671" pt_clust_4="116.97635" pt_clust_5="39.84693" pt_clust_6="14000.00000"></scales>
<clustering>
<clus scale="   39.847">  2  5  1 -1</clus>
<clus scale="   70.377">  1  3  2 -1</clus>
<clus scale="  116.976">  2  4  1 -1</clus>
<clus scale="   70.377">  1  3  2 -1</clus>
</clustering>
</event>
<event>
 6    0  0.4582113E+002  0.1711946E+03  0.7546771E-02  0.1176608E+00
         21   -1    0    0  504  501  0.00000000000E+00  0.00000000000E+00  0.49675469001E+03  0.49675469001E+03  0.00000000000E+00 0.  1.
         21   -1    0    0  506  502 -0.00000000000E+00 -0.00000000000E+00 -0.89883083815E+02  0.89883083815E+02  0.00000000000E+00 0.  1.
         21    1    1    2  503  505 -0.48900172634E+02  0.12262344736E+02  0.97963784586E+02  0.11017483865E+03  0.00000000000E+00 0.  1.
         21    1    1    2  504  503 -0.75577932167E+02  0.69067656699E+02  0.11008898416E+03  0.15033944747E+03  0.00000000000E+00 0.  1.
         21    1    1    2  505  502  0.14235345023E+03 -0.11640312646E+03  0.21556706862E+03  0.28334317306E+03  0.00000000000E+00 0.  1.
         21    1    1    2  506  501 -0.17875345433E+02  0.35073125030E+02 -0.16748231171E+02  0.42780314644E+02  0.00000000000E+00 0.  1.
<scales pt_clust_3="34.89140" pt_clust_4="34.89140" pt_clust_5="163.81463" pt_clust_6="39.36562"></scales>
<clustering>
<clus scale="   34.891">  3  4 -1 -1</clus>
<clus scale="   39.366">  2  6  1 -1</clus>
<clus scale="  163.815">  2  5  1 -1</clus>
<clus scale="  171.195">  1  3  2 -1</clus>
</clustering>
</event>
<event>
 6    0  0.4582113E+002  0.9614627E+02  0.7546771E-02  0.1288615E+00
         21   -1    0    0  506  501  0.00000000000E+00  0.00000000000E+00  0.25204262777E+03  0.25204262777E+03  0.00000000000E+00 0.  1.
         21   -1    0    0  505  502 -0.00000000000E+00 -0.00000000000E+00 -0.37791317844E+03  0.37791317844E+03  0.00000000000E+00 0.  1.
         21    1    1    2  503  502  0.27213836061E+02  0.58770427676E+02  0.10754993882E+03  0.12554499346E+03  0.00000000000E+00 0.  1.
         21    1    1    2  504  501 -0.11905866638E+02 -0.65577494631E+02  0.58426427379E+02  0.88632978505E+02  0.00000000000E+00 0.  1.
         21    1    1    2  505  504 -0.34019045285E+02 -0.49585783217E+02 -0.33626162039E+03  0.34159613974E+03  0.00000000000E+00 0.  1.
         21    1    1    2  506  503  0.18711075863E+02  0.56392850172E+02  0.44414703527E+02  0.74181694506E+02  0.00000000000E+00 0.  1.
<scales pt_clust_3="36.16699" pt_clust_4="88.42107" pt_clust_5="60.13356" pt_clust_6="36.16699"></scales>
<clustering>
<clus scale="   36.167">  3  6 -1 -1</clus>
<clus scale="   60.134">  2  5  1 -1</clus>
<clus scale="   88.421">  1  4  2 -1</clus>
<clus scale="   88.421">  1  3  2 -1</clus>
</clustering>
</event>
<event>
 6    0  0.4582113E+002  0.8459278E+02  0.7546771E-02  0.1316501E+00
         21   -1    0    0  506  501  0.00000000000E+00  0.00000000000E+00  0.37891753292E+03  0.37891753292E+03  0.00000000000E+00 0. -1.
         21   -1    0    0  504  502 -0.00000000000E+00 -0.00000000000E+00 -0.72784474933E+02  0.72784474933E+02  0.00000000000E+00 0. -1.
         21    1    1    2  503  502  0.30244929730E+02  0.40787289099E+01 -0.13406384065E+02  0.33333510730E+02  0.00000000000E+00 0. -1.
         21    1    1    2  504  501  0.78148389979E+01  0.61653914128E+02  0.53859982932E+02  0.82238522587E+02  0.00000000000E+00 0. -1.
         21    1    1    2  505  503 -0.55789390522E+02 -0.10408572684E+03  0.72918892292E+02  0.13879286538E+03  0.00000000000E+00 0. -1.
         21    1    1    2  506  505  0.17729621794E+02  0.38353083805E+02  0.19276056683E+03  0.19733710916E+03  0.00000000000E+00 0. -1.
<scales pt_clust_3="30.51871" pt_clust_4="84.59278" pt_clust_5="14000.00000" pt_clust_6="43.02844"></scales>
<clustering>
<clus scale="   30.519">  2  3  1 -1</clus>
<clus scale="   43.028">  1  6  2 -1</clus>
<clus scale="   84.593">  2  4  1 -1</clus>
<clus scale="   43.028">  1  3  2 -1</clus>
</clustering>
</event>
<event>
 6    0  0.4582113E+002  0.1082441E+03  0.7546771E-02  0.1263857E+00
         21   -1    0    0  505  501  0.00000000000E+00  0.00000000000E+00  0.67317510540E+03  0.67317510540E+03  0.00000000000E+00 0. -1.
         21   -1    0    0  506  502 -0.00000000000E+00 -0.00000000000E+00 -0.10306376732E+03  0.10306376732E+03  0.00000000000E+00 0. -1.
         21    1    1    2  503  502 -0.34439986598E+02  0.57750576310E+01 -0.72134810536E+02  0.80142965122E+02  0.00000000000E+00 0. -1.
         21    1    1    2  504  503  0.86562234735E+02 -0.67280118760E+02  0.26279008895E+03  0.28474245506E+03  0.00000000000E+00 0. -1.
         21    1    1    2  505  504 -0.44919328602E+02  0.10459704653E+03  0.29638712505E+03  0.31749585213E+03  0.00000000000E+00 0. -1.
         21    1    1    2  506  501 -0.72029195348E+01 -0.43091985400E+02  0.83068934616E+02  0.93857600405E+02  0.00000000000E+00 0. -1.
<scales pt_clust_3="34.92082" pt_clust_4="108.24410" pt_clust_5="14000.00000" pt_clust_6="44.24288"></scales>
<clustering>
<clus scale="   34.921">  2  3  1 -1</clus>
<clus scale="   44.243">  2  6  1 -1</clus>
<clus scale="  108.244">  2  4  1 -1</clus>
<clus scale="  108.244">  1  3  2 -1</clus>
</clustering>
</event>
<event>
 6    0  0.4582113E+002  0.1484202E+03  0.7546771E-02  0.1202428E+00
         21   -1    0    0  504  501  0.00000000000E+00  0.00000000000E+00  0.10449223747E+03  0.10449223747E+03  0.00000000000E+00 0.  1.
         21   -1    0    0  503  502 -0.00000000000E+00 -0.00000000000E+00 -0.24538558944E+04  0.24538558944E+04  0.00000000000E+00 0.  1.
         21    1    1    2  503  505  0.68956443939E+02 -0.37147254771E+02 -0.55078678303E+03  0.55632813164E+03  0.00000000000E+00 0.  1.
         21    1    1    2  504  502  0.77885594684E+02  0.97858198871E+02  0.48086594993E+02  0.13399519978E+03  0.00000000000E+00 0.  1.
         21    1    1    2  505  506 -0.18090452716E+03 -0.60869768829E+02 -0.18008445708E+04  0.18109314578E+04  0.00000000000E+00 0.  1.
         21    1    1    2  506  501  0.34062488536E+02  0.15882473023E+00 -0.45818898054E+02  0.57093342602E+02  0.00000000000E+00 0. -1.
<scales pt_clust_3="79.16536" pt_clust_4="14000.00000" pt_clust_5="148.42023" pt_clust_6="34.06286"></scales>
<clustering>
<clus scale="   34.063">  1  6  2 -1</clus>
<clus scale="   79.165">  2  3  1 -1</clus>
<clus scale="  148.420">  2  5  1 -1</clus>
<clus scale="   34.063">  1  3  2 -1</clus>
</clustering>
</event>
<event>
 6    0  0.4582113E+002  0.2863189E+03  0.7546771E-02  0.1092287E+00
         21   -1    0    0  503  501  0.00000000000E+00  0.00000000000E+00  0.11734434019E+04  0.11734434019E+04  0.00000000000E+00 0. -1.
         21   -1    0    0  504  502 -0.00000000000E+00 -0.00000000000E+00 -0.15029059458E+04  0.15029059458E+04  0.00000000000E+00 0. -1.
         21    1    1    2  503  505  0.15754159478E+03 -0.24398017272E+03  0.95413803986E+03  0.99735905164E+03  0.00000000000E+00 0. -1.
         21    1    1    2  504  506 -0.20388286187E+03  0.24825184634E+03 -0.36817642113E+03  0.48862160989E+03  0.00000000000E+00 0. -1.
         21    1    1    2  505  502  0.21467234632E+02 -0.30362781347E+02 -0.10501985583E+04  0.10508566755E+04  0.00000000000E+00 0. -1.
         21    1    1    2  506  501  0.24874032459E+02  0.26091107735E+02  0.13477439568E+03  0.13951201068E+03  0.00000000000E+00 0. -1.
<scales pt_clust_3="286.31891" pt_clust_4="14000.00000" pt_clust_5="37.18302" pt_clust_6="36.04807"></scales>
<clustering>
<clus scale="   36.048">  1  6  2 -1</clus>
<clus scale="   37.183">  2  5  1 -1</clus>
<clus scale="  286.319">  1  3  2 -1</clus>
<clus scale="   36.048">  1  3  2 -1</clus>
</clustering>
</event>
<event>
 6    0  0.4582113E+002  0.1457012E+03  0.7546771E-02  0.1205857E+00
         21   -1    0    0  504  501  0.00000000000E+00  0.00000000000E+00  0.12328671960E+03  0.12328671960E+03  0.00000000000E+00 0. -1.
         21   -1    0    0  506  502 -0.00000000000E+00 -0.00000000000E+00 -0.10727640481E+04  0.10727640481E+04  0.00000000000E+00 0.  1.
         21    1    1    2  503  505  0.93365679477E+02  0.12664721883E+03 -0.92207836290E+03  0.93540642261E+03  0.00000000000E+00 0.  1.
         21    1    1    2  504  503 -0.18023832251E+02 -0.39780110621E+02 -0.17693743365E+02  0.47120953771E+02  0.00000000000E+00 0.  1.
         21    1    1    2  505  502 -0.29608705356E+02  0.79107971244E+01 -0.80871592926E+02  0.86483933111E+02  0.00000000000E+00 0.  1.
         21    1    1    2  506  501 -0.45733141870E+02 -0.94777905337E+02  0.71166370730E+02  0.12703945816E+03  0.00000000000E+00 0. -1.
<scales pt_clust_3="145.70122" pt_clust_4="43.84830" pt_clust_5="30.64729" pt_clust_6="14000.00000"></scales>
<clustering>
<clus scale="   30.647">  2  5  1 -1</clus>
<clus scale="   43.848">  1  4  2 -1</clus>
<clus scale="  145.701">  2  3  1 -1</clus>
<clus scale="   43.848">  1  3  2 -1</clus>
</clustering>
</event>
<event>
 6    0  0.4582113E+002  0.3158922E+03  0.7546771E-02  0.1077556E+00
         21   -1    0    0  502  501  0.00000000000E+00  0.00000000000E+00  0.16411635727E+04  0.16411635727E+04  0.00000000000E+00 0.  1.
         21   -1    0    0  503  502 -0.00000000000E+00 -0.00000000000E+00 -0.24926045810E+03  0.24926045810E+03  0.00000000000E+00 0.  1.
         21    1    1    2  503  505 -0.25747181444E+02  0.19364476322E+02 -0.58722947958E+02  0.66979735088E+02  0.00000000000E+00 0.  1.
         21    1    1    2  504  501  0.39662128061E+02 -0.24365628425E+03  0.10265899171E+04  0.10558543115E+04  0.00000000000E+00 0.  1.
         21    1    1    2  505  506  0.25609349649E+01  0.28359099692E+03 -0.51369278743E+02  0.28821730469E+03  0.00000000000E+00 0.  1.
         21    1    1    2  506  504 -0.16475881582E+02 -0.59299189000E+02  0.47540542415E+03  0.47937267945E+03  0.00000000000E+00 0.  1.
<scales pt_clust_3="32.21646" pt_clust_4="46.46176" pt_clust_5="301.95296" pt_clust_6="46.46176"></scales>
<clustering>
<clus scale="   32.216">  2  3  1 -1</clus>
<clus scale="   46.462">  4  6 -1 -1</clus>
<clus scale="  301.953">  2  5  1 -1</clus>
<clus scale="  315.892">  1  3  2 -1</clus>
</clustering>
</event>
<event>
 6    0  0.4582113E+002  0.1752376E+03  0.7546771E-02  0.1172493E+00
         21   -1    0    0  505  501  0.00000000000E+00  0.00000000000E+00  0.89859104282E+02  0.89859104282E+02  0.00000000000E+00 0. -1.
         21   -1    0    0  501  502 -0.00000000000E+00 -0.00000000000E+00 -0.23651664074E+04  0.23651664074E+04  0.00000000000E+00 0.  1.
         21    1    1    2  503  506 -0.62506601861E+02  0.19487953024E+02 -0.10126912727E+03  0.12059142477E+03  0.00000000000E+00 0. -1.
         21    1    1    2  504  503 -0.12820686928E+03  0.26926820485E+02 -0.52966036871E+02  0.14130624917E+03  0.00000000000E+00 0. -1.
         21    1    1    2  505  504  0.13354590221E+03 -0.28811036849E+01 -0.90643620298E+02  0.16142823377E+03  0.00000000000E+00 0. -1.
         21    1    1    2  506  502  0.57167568926E+02 -0.43533669824E+02 -0.20304285187E+04  0.20316996040E+04  0.00000000000E+00 0.  1.
<scales pt_clust_3="56.00567" pt_clust_4="56.00567" pt_clust_5="156.30820" pt_clust_6="71.85619"></scales>
<clustering>
<clus scale="   56.006">  3  4 -1 -1</clus>
<clus scale="   71.856">  2  6  1 -1</clus>
<clus scale="  156.308">  1  5  2 -1</clus>
<clus scale="  156.308">  1  3  2 -1</clus>
</clustering>
</event>
<event>
 6    0  0.4582113E+002  0.2193012E+03  0.7546771E-02  0.1134405E+00
         21   -1    0    0  505  501  0.00000000000E+00  0.00000000000E+00  0.17947236915E+03  0.17947236915E+03  0.00000000000E+00 0.  1.
         21   -1    0    0  501  502 -0.00000000000E+00 -0.00000000000E+00 -0.11544025065E+04  0.11544025065E+04  0.00000000000E+00 0.  1.
         21    1    1    2  503  502 -0.26880850504E+02 -0.20471585499E+02 -0.41674754137E+03  0.41811503103E+03  0.00000000000E+00 0.  1.
         21    1    1    2  504  503 -0.11038810091E+03  0.17046020540E+03 -0.64759721438E+03  0.67869313133E+03  0.00000000000E+00 0.  1.
         21    1    1    2  505  506  0.95292505011E+02 -0.10458446087E+03  0.10141352180E+03  0.17407835412E+03  0.00000000000E+00 0.  1.
         21    1    1    2  506  504  0.41976446405E+02 -0.45404159024E+02 -0.11998903419E+02  0.62988359185E+02  0.00000000000E+00 0. -1.
<scales pt_clust_3="33.78855" pt_clust_4="203.04362" pt_clust_5="54.74423" pt_clust_6="54.74423"></scales>
<clustering>
<clus scale="   33.789">  2  3  1 -1</clus>
<clus scale="   54.744">  5  6 -1 -1</clus>
<clus scale="  203.044">  2  4  1 -1</clus>
<clus scale="  219.301">  1  3  2 -1</clus>
</clustering>
</event>
<event>
 6    0  0.4582113E+002  0.1130061E+03  0.7546771E-02  0.1255102E+00
         21   -1    0    0  505  501  0.00000000000E+00  0.00000000000E+00  0.12324798436E+04  0.12324798436E+04  0.00000000000E+00 0.  1.
         21   -1    0    0  503  502 -0.00000000000E+00 -0.00000000000E+00 -0.10994507438E+04  0.10994507438E+04  0.00000000000E+00 0.  1.
         21    1    1    2  503  506 -0.60287174421E+02 -0.90026188571E+02 -0.45488171733E+03  0.46760735109E+03  0.00000000000E+00 0.  1.
         21    1    1    2  504  502  0.33062063668E+02  0.10503715655E+02 -0.59282813713E+03  0.59384225874E+03  0.00000000000E+00 0.  1.
         21    1    1    2  505  504  0.11243710062E+03 -0.17654342787E+02  0.11232923435E+04  0.11290436069E+04  0.00000000000E+00 0.  1.
         21    1    1    2  506  501 -0.85211989866E+02  0.97176815702E+02  0.57446610739E+02  0.14143737064E+03  0.00000000000E+00 0. -1.
<scales pt_clust_3="85.91974" pt_clust_4="34.69046" pt_clust_5="113.00613" pt_clust_6="14000.00000"></scales>
<clustering>
<clus scale="   34.690">  2  4  1 -1</clus>
<clus scale="   85.920">  2  3  1 -1</clus>
<clus scale="  113.006">  1  5  2 -1</clus>
<clus scale="  113.006">  1  3  2 -1</clus>
</clustering>
</event>
<event>
 6    0  0.4582113E+002  0.2093324E+03  0.7546771E-02  0.1142096E+00
         21   -1    0    0  505  501  0.00000000000E+00  0.00000000000E+00  0.95769264646E+03  0.95769264646E+03  0.00000000000E+00 0. -1.
         21   -1    0    0  506  502 -0.00000000000E+00 -0.00000000000E+00 -0.43930109758E+03  0.43930109758E+03  0.00000000000E+00 0.  1.
         21    1    1    2  503  502 -0.74162059510E+02 -0.10967367697E-01 -0.32410553229E+02  0.80934882168E+02  0.00000000000E+00 0. -1.
         21    1    1    2  504  501 -0.96281396342E+02 -0.18510609799E+03  0.85683601511E+03  0.88187432868E+03  0.00000000000E+00 0. -1.
         21    1    1    2  505  503  0.18827586827E+03  0.15931110636E+03 -0.31638088979E+03  0.40115420801E+03  0.00000000000E+00 0.  1.
         21    1    1    2  506  504 -0.17832412419E+02  0.25805959002E+02  0.10346976785E+02  0.33030325177E+02  0.00000000000E+00 0.  1.
<scales pt_clust_3="76.59930" pt_clust_4="209.33243" pt_clust_5="14000.00000" pt_clust_6="31.36786"></scales>
<clustering>
<clus scale="   31.368">  2  6  1 -1</clus>
<clus scale="   76.599">  2  3  1 -1</clus>
<clus scale="  209.332">  1  4  2 -1</clus>
<clus scale="  209.332">  1  3  2 -1</clus>
</clustering>
</event>
<event>
 6    0  0.4582113E+002  0.1287063E+03  0.7546771E-02  0.1229388E+00
         21   -1    0    0  503  501  0.00000000000E+00  0.00000000000E+00  0.13464572154E+04  0.13464572154E+04  0.00000000000E+00 0.  1.
         21   -1    0    0  504  502 -0.00000000000E+00 -0.00000000000E+00 -0.72325269686E+03  0.72325269686E+03  0.00000000000E+00 0. -1.
         21    1    1    2  503  506 -0.14502761101E+02 -0.59322726540E+02  0.94097910195E+03  0.94295874049E+03  0.00000000000E+00 0.  1.
         21    1    1    2  504  501  0.10442462398E+03  0.37743340946E+02  0.36847288422E+03  0.38483935386E+03  0.00000000000E+00 0.  1.
         21    1    1    2  505  502 -0.13427123653E+03 -0.71931586623E+02 -0.55065353235E+03  0.57133372979E+03  0.00000000000E+00 0. -1.
         21    1    1    2  506  505  0.44349373650E+02  0.93510972217E+02 -0.13559393526E+03  0.17057808813E+03  0.00000000000E+00 0.  1.
<scales pt_clust_3="61.06976" pt_clust_4="92.58816" pt_clust_5="128.70626" pt_clust_6="14000.00000"></scales>
<clustering>
<clus scale="   61.070">  1  3  2 -1</clus>
<clus scale="   92.588">  1  4  2 -1</clus>
<clus scale="  128.706">  2  5  1 -1</clus>
<clus scale="   61.070">  1  3  2 -1</clus>
</clustering>
</event>
<event>
 6    0  0.4582113E+002  0.1242160E+03  0.7546771E-02  0.1236300E+00
         21   -1    0    0  505  501  0.00000000000E+00  0.00000000000E+00  0.17094230670E+03  0.17094230670E+03  0.00000000000E+00 0.  1.
         21   -1    0    0  504  502 -0.00000000000E+00 -0.00000000000E+00 -0.36372758844E+03  0.36372758844E+03  0.00000000000E+00 0.  1.
         21    1    1    2  503  506 -0.12479644509E+03 -0.82441139674E+02 -0.18212623924E+03  0.23567066266E+03  0.00000000000E+00 0.  1.
         21    1    1    2  504  503  0.31281233217E+02 -0.59758497578E+01 -0.11369137712E+03  0.11806758896E+03  0.00000000000E+00 0.  1.
         21    1    1    2  505  502  0.57378324936E+02  0.60524400143E+02  0.10636255070E+03  0.13516089441E+03  0.00000000000E+00 0.  1.
         21    1    1    2  506  501  0.36136886937E+02  0.27892589288E+02 -0.33302160888E+01  0.45770749108E+02  0.00000000000E+00 0.  1.
<scales pt_clust_3="124.21597" pt_clust_4="31.84692" pt_clust_5="14000.00000" pt_clust_6="47.79901"></scales>
<clustering>
<clus scale="   31.847">  2  4  1 -1</clus>
<clus scale="   47.799">  1  6  2 -1</clus>
<clus scale="  124.216">  2  3  1 -1</clus>
<clus scale="   47.799">  1  3  2 -1</clus>
</clustering>
</event>
<event>
 6    0  0.4582113E+002  0.7975802E+02  0.7546771E-02  0.1329740E+00
         21   -1    0    0  503  501  0.00000000000E+00  0.00000000000E+00  0.17465966803E+03  0.17465966803E+03  0.00000000000E+00 0. -1.
         21   -1    0    0  505  502 -0.00000000000E+00 -0.00000000000E+00 -0.16045270324E+03  0.16045270324E+03  0.00000000000E+00 0. -1.
         21    1    1    2  503  504  0.33411098310E+02  0.26500199682E+02  0.35565932605E+02  0.55529250270E+02  0.00000000000E+00 0. -1.
         21    1    1    2  504  506  0.60619389503E+02 -0.48032362111E+02  0.55495912499E+02  0.95192512824E+02  0.00000000000E+00 0. -1.
         21    1    1    2  505  501 -0.23706746148E+02  0.74802896704E+02 -0.26582629954E+02  0.82849981192E+02  0.00000000000E+00 0. -1.
         21    1    1    2  506  502 -0.70323741665E+02 -0.53270734275E+02 -0.50272250366E+02  0.10154062699E+03  0.00000000000E+00 0. -1.
<scales pt_clust_3="42.64460" pt_clust_4="76.33401" pt_clust_5="14000.00000" pt_clust_6="79.75802"></scales>
<clustering>
<clus scale="   42.645">  1  3  2 -1</clus>
<clus scale="   79.758">  2  6  1 -1</clus>
<clus scale="   76.334">  1  4  2 -1</clus>
<clus scale="   42.645">  1  3  2 -1</clus>
</clustering>
</event>
<event>
 6    0  0.4582113E+002  0.1065139E+03  0.7546771E-02  0.1267165E+00
         21   -1    0    0  504  501  0.00000000000E+00  0.00000000000E+00  0.32847501074E+03  0.32847501074E+03  0.00000000000E+00 0. -1.
         21   -1    0    0  503  502 -0.00000000000E+00 -0.00000000000E+00 -0.21715007178E+03  0.21715007178E+03  0.00000000000E+00 0. -1.
         21    1    1    2  503  506 -0.57223565368E+02  0.90542357176E+02 -0.17161879810E+03  0.20230043682E+03  0.00000000000E+00 0. -1.
         21    1    1    2  504  505  0.31841234200E+02 -0.11589704175E+02  0.75093180886E+02  0.82384290091E+02  0.00000000000E+00 0. -1.
         21    1    1    2  505  502  0.21494931393E+02  0.34401591567E+02  0.31918787214E+02  0.51616959957E+02  0.00000000000E+00 0. -1.
         21    1    1    2  506  501  0.38873997756E+01 -0.11335424457E+03  0.17593176896E+03  0.20932339565E+03  0.00000000000E+00 0. -1.
<scales pt_clust_3="14000.00000" pt_clust_4="33.88489" pt_clust_5="42.10927" pt_clust_6="106.51388"></scales>
<clustering>
<clus scale="   33.885">  1  4  2 -1</clus>
<clus scale="   42.109">  1  5  2 -1</clus>
<clus scale="  106.514">  1  6  2 -1</clus>
<clus scale="   33.885">  1  3  2 -1</clus>
</clustering>
</event>
<event>
 6    0  0.4582113E+002  0.1097878E+03  0.7546771E-02  0.1260963E+00
         21   -1    0    0  504  501  0.00000000000E+00  0.00000000000E+00  0.36455157871E+04  0.36455157871E+04  0.00000000000E+00 0. -1.
         21   -1    0    0  503  502 -0.00000000000E+00 -0.00000000000E+00 -0.78807140255E+02  0.78807140255E+02  0.00000000000E+00 0. -1.
         21    1    1    2  503  506 -0.76083816567E+01  0.10118271966E+03 -0.29649826364E+01  0.10151168086E+03  0.00000000000E+00 0. -1.
         21    1    1    2  504  505 -0.18358268504E+02 -0.28096502333E+02  0.59348560280E+03  0.59443384846E+03  0.00000000000E+00 0. -1.
         21    1    1    2  505  502  0.52119848589E+02 -0.14320962051E+03  0.20130856517E+03  0.25248883626E+03  0.00000000000E+00 0. -1.
         21    1    1    2  506  501 -0.26153198429E+02  0.70123403188E+02  0.27748794615E+04  0.27758885618E+04  0.00000000000E+00 0. -1.
<scales pt_clust_3="14000.00000" pt_clust_4="33.56247" pt_clust_5="109.78776" pt_clust_6="61.82702"></scales>
<clustering>
<clus scale="   33.562">  1  4  2 -1</clus>
<clus scale="   61.827">  1  6  2 -1</clus>
<clus scale="  109.788">  1  5  2 -1</clus>
<clus scale="   33.562">  1  3  2 -1</clus>
</clustering>
</event>
<event>
 6    0  0.4582113E+002  0.7680708E+02  0.7546771E-02  0.1338365E+00
         21   -1    0    0  503  501  0.00000000000E+00  0.00000000000E+00  0.94024191266E+02  0.94024191266E+02  0.00000000000E+00 0. -1.
         21   -1    0    0  504  502 -0.00000000000E+00 -0.00000000000E+00 -0.21417424385E+04  0.21417424385E+04  0.00000000000E+00 0.  1.
         21    1    1    2  503  506  0.44564229098E+02  0.58929348924E+02  0.39140182875E+02  0.83609763756E+02  0.00000000000E+00 0. -1.
         21    1    1    2  504  505 -0.43249261486E+02 -0.35941222046E+02 -0.37900876269E+03  0.38315781638E+03  0.00000000000E+00 0.  1.
         21    1    1    2  505  501 -0.10339584490E+03 -0.27934327443E+02 -0.69967761689E+02  0.12793168126E+03  0.00000000000E+00 0. -1.
         21    1    1    2  506  502  0.10208087729E+03  0.49462005643E+01 -0.16378819057E+04  0.16410673683E+04  0.00000000000E+00 0.  1.
<scales pt_clust_3="14000.00000" pt_clust_4="56.23406" pt_clust_5="76.80708" pt_clust_6="68.07159"></scales>
<clustering>
<clus scale="   56.234">  2  4  1 -1</clus>
<clus scale="   68.072">  2  6  1 -1</clus>
<clus scale="   76.807">  2  5  1 -1</clus>
<clus scale="   76.807">  1  3  2 -1</clus>
</clustering>
</event>
<event>
 6    0  0.4582113E+002  0.1340110E+03  0.7546771E-02  0.1221623E+00
         21   -1    0    0  505  501  0.00000000000E+00  0.00000000000E+00  0.26597256514E+03  0.26597256514E+03  0.00000000000E+00 0.  1.
         21   -1    0    0  504  502 -0.00000000000E+00 -0.00000000000E+00 -0.40943559590E+03  0.40943559590E+03  0.00000000000E+00 0.  1.
         21    1    1    2  503  502  0.39518463358E+01  0.12967438607E+03 -0.31461970921E+03  0.34031841695E+03  0.00000000000E+00 0.  1.
         21    1    1    2  504  501  0.69348342491E+02 -0.33020813593E+02 -0.38461893829E+02  0.85900430811E+02  0.00000000000E+00 0. -1.
         21    1    1    2  505  506 -0.36658915763E+02 -0.15489543518E+02  0.10209511079E+03  0.10957743249E+03  0.00000000000E+00 0.  1.
         21    1    1    2  506  503 -0.36641273063E+02 -0.81164028960E+02  0.10752346149E+03  0.13961188080E+03  0.00000000000E+00 0.  1.
<scales pt_clust_3="120.49241" pt_clust_4="76.80864" pt_clust_5="39.21187" pt_clust_6="39.21187"></scales>
<clustering>
<clus scale="   39.212">  5  6 -1 -1</clus>
<clus scale="   76.809">  2  4  1 -1</clus>
<clus scale="  120.492">  2  3  1 -1</clus>
<clus scale="  134.011">  1  3  2 -1</clus>
</clustering>
</event>
<event>
 6    0  0.4582113E+002  0.8278373E+02  0.7546771E-02  0.1321332E+00
         21   -1    0    0  505  501  0.00000000000E+00  0.00000000000E+00  0.10253624626E+04  0.10253624626E+04  0.00000000000E+00 0. -1.
         21   -1    0    0  506  502 -0.00000000000E+00 -0.00000000000E+00 -0.10318184146E+03  0.10318184146E+03  0.00000000000E+00 0.  1.
         21    1    1    2  503  504 -0.73383401819E+01  0.61471224482E+02  0.13847806611E+03  0.15168631273E+03  0.00000000000E+00 0.  1.
         21    1    1    2  504  501  0.63875373965E+02  0.99160671906E+01  0.77170644539E+03  0.77440895504E+03  0.00000000000E+00 0. -1.
         21    1    1    2  505  502  0.16232194618E+02  0.51005550200E+02  0.25743956460E+02  0.59395299372E+02  0.00000000000E+00 0. -1.
         21    1    1    2  506  503 -0.72769228401E+02 -0.12239284187E+03 -0.13747846863E+02  0.14305373689E+03  0.00000000000E+00 0.  1.
<scales pt_clust_3="82.78373" pt_clust_4="65.01822" pt_clust_5="53.52616" pt_clust_6="14000.00000"></scales>
<clustering>
<clus scale="   53.526">  2  5  1 -1</clus>
<clus scale="   65.018">  1  4  2 -1</clus>
<clus scale="   82.784">  1  3  2 -1</clus>
<clus scale="   65.018">  1  3  2 -1</clus>
</clustering>
</event>
<event>
 6    0  0.4582113E+002  0.1096972E+03  0.7546771E-02  0.1261132E+00
         21   -1    0    0  506  501  0.00000000000E+00  0.00000000000E+00  0.23100581866E+03  0.23100581866E+03  0.00000000000E+00 0. -1.
         21   -1    0    0  504  502 -0.00000000000E+00 -0.00000000000E+00 -0.15490407951E+04  0.15490407951E+04  0.00000000000E+00 0.  1.
         21    1    1    2  503  505 -0.63798047831E+02  0.16612787414E+02  0.11345664364E+03  0.13121960829E+03  0.00000000000E+00 0. -1.
         21    1    1    2  504  501 -0.69339664682E+01 -0.34112619663E+02 -0.54873443993E+03  0.54983746350E+03  0.00000000000E+00 0.  1.
         21    1    1    2  505  502  0.10999648712E+03  0.34197608828E+02 -0.98316613824E+03  0.98989108442E+03  0.00000000000E+00 0.  1.
         21    1    1    2  506  503 -0.39264472821E+02 -0.16697776579E+02  0.10040895811E+03  0.10909845754E+03  0.00000000000E+00 0. -1.
<scales pt_clust_3="30.01938" pt_clust_4="34.81021" pt_clust_5="103.15565" pt_clust_6="30.01938"></scales>
<clustering>
<clus scale="   30.019">  3  6 -1 -1</clus>
<clus scale="   34.810">  2  4  1 -1</clus>
<clus scale="  103.156">  2  5  1 -1</clus>
<clus scale="  109.697">  1  3  2 -1</clus>
</clustering>
</event>
<event>
 6    0  0.4582113E+002  0.1028932E+03  0.7546771E-02  0.1274327E+00
         21   -1    0    0  503  501  0.00000000000E+00  0.00000000000E+00  0.59709274479E+03  0.59709274479E+03  0.00000000000E+00 0.  1.
         21   -1    0    0  505  502 -0.00000000000E+00 -0.00000000000E+00 -0.59545078119E+02  0.59545078119E+02  0.00000000000E+00 0.  1.
         21    1    1    2  503  504  0.65180159579E+01 -0.35625844164E+02  0.63275410799E+02  0.72907221290E+02  0.00000000000E+00 0.  1.
         21    1    1    2  504  502  0.67868583562E+02 -0.30291235391E+02  0.27121879377E+02  0.79115737481E+02  0.00000000000E+00 0.  1.
         21    1    1    2  505  506  0.60227820749E+02  0.52427156662E+02  0.78712136688E+02  0.11212313593E+03  0.00000000000E+00 0.  1.
         21    1    1    2  506  501 -0.13461442027E+03  0.13489922893E+02  0.36843823980E+03  0.39249172821E+03  0.00000000000E+00 0.  1.
<scales pt_clust_3="36.21720" pt_clust_4="76.43619" pt_clust_5="14000.00000" pt_clust_6="102.89321"></scales>
<clustering>
<clus scale="   36.217">  1  3  2 -1</clus>
<clus scale="   76.436">  2  4  1 -1</clus>
<clus scale="  102.893">  1  6  2 -1</clus>
<clus scale="   36.217">  1  3  2 -1</clus>
</clustering>
</event>
<event>
 6    0  0.4582113E+002  0.6783043E+02  0.7546771E-02  0.1367630E+00
         21   -1    0    0  504  501  0.00000000000E+00  0.00000000000E+00  0.21661824619E+03  0.21661824619E+03  0.00000000000E+00 0. -1.
         21   -1    0    0  506  502 -0.00000000000E+00 -0.00000000000E+00 -0.11660343727E+04  0.11660343727E+04  0.00000000000E+00 0.  1.
         21    1    1    2  503  502 -0.67003968158E+02  0.78042776248E+01 -0.10135885366E+04  0.10158307733E+04  0.00000000000E+00 0.  1.
         21    1    1    2  504  503  0.36514360631E+02 -0.48681871000E+01 -0.97770533673E+00  0.36850423141E+02  0.00000000000E+00 0.  1.
         21    1    1    2  505  501 -0.34019527126E+02  0.68894059576E+02  0.17053697918E+03  0.18704700195E+03  0.00000000000E+00 0. -1.
         21    1    1    2  506  505  0.64509134652E+02 -0.71830150101E+02 -0.10538686379E+03  0.14292442051E+03  0.00000000000E+00 0.  1.
<scales pt_clust_3="14000.00000" pt_clust_4="36.83745" pt_clust_5="64.52366" pt_clust_6="67.83043"></scales>
<clustering>
<clus scale="   36.837">  1  4  2 -1</clus>
<clus scale="   64.524">  1  5  2 -1</clus>
<clus scale="   67.830">  1  6  2 -1</clus>
<clus scale="   36.837">  1  3  2 -1</clus>
</clustering>
</event>
<event>
 6    0  0.4582113E+002  0.6479589E+02  0.7546771E-02  0.1378741E+00
         21   -1    0    0  504  501  0.00000000000E+00  0.00000000000E+00  0.19005470080E+04  0.19005470080E+04  0.00000000000E+00 0. -1.
         21   -1    0    0  503  502 -0.00000000000E+00 -0.00000000000E+00 -0.82997755222E+02  0.82997755222E+02  0.00000000000E+00 0.  1.
         21    1    1    2  503  501 -0.63624598740E+02 -0.39761759556E+02  0.21239112080E+03  0.22525335798E+03  0.00000000000E+00 0. -1.
         21    1    1    2  504  505  0.33367244140E+02 -0.33460605900E+02  0.35706517914E+03  0.36017846588E+03  0.00000000000E+00 0. -1.
         21    1    1    2  505  506 -0.33221454778E+02  0.89711599847E+02  0.13066758544E+04  0.13101731278E+04  0.00000000000E+00 0. -1.
         21    1    1    2  506  502  0.63478809378E+02 -0.16489234391E+02 -0.58582901629E+02  0.87939811543E+02  0.00000000000E+00 0.  1.
<scales pt_clust_3="64.79589" pt_clust_4="47.25447" pt_clust_5="61.51413" pt_clust_6="14000.00000"></scales>
<clustering>
<clus scale="   47.254">  1  4  2 -1</clus>
<clus scale="   61.514">  1  5  2 -1</clus>
<clus scale="   64.796">  1  3  2 -1</clus>
<clus scale="   47.254">  1  3  2 -1</clus>
</clustering>
</event>
<event>
 6    0  0.4582113E+002  0.1668365E+03  0.7546771E-02  0.1181188E+00
         21   -1    0    0  506  501  0.00000000000E+00  0.00000000000E+00  0.37484947782E+03  0.37484947782E+03  0.00000000000E+00 0. -1.
         21   -1    0    0  505  502 -0.00000000000E+00 -0.00000000000E+00 -0.14044293313E+03  0.14044293313E+03  0.00000000000E+00 0. -1.
         21    1    1    2  503  502 -0.15470231055E+01 -0.82041732022E+02 -0.28846580410E+02  0.86979102518E+02  0.00000000000E+00 0. -1.
         21    1    1    2  504  503 -0.44954594614E+02 -0.61639900647E+02  0.51211455878E+02  0.91885832106E+02  0.00000000000E+00 0. -1.
         21    1    1    2  505  501  0.10842750980E+03  0.16149296793E+03  0.17743324274E+03  0.26328512909E+03  0.00000000000E+00 0. -1.
         21    1    1    2  506  504 -0.61925892083E+02 -0.17811335259E+02  0.34608426481E+02  0.73142347224E+02  0.00000000000E+00 0. -1.
<scales pt_clust_3="82.05632" pt_clust_4="42.44777" pt_clust_5="160.31568" pt_clust_6="42.44777"></scales>
<clustering>
<clus scale="   42.448">  4  6 -1 -1</clus>
<clus scale="   82.056">  2  3  1 -1</clus>
<clus scale="  160.316">  2  5  1 -1</clus>
<clus scale="  166.837">  1  3  2 -1</clus>
</clustering>
</event>
<event>
 6    0  0.4582113E+002  0.1023939E+03  0.7546771E-02  0.1275341E+00
         21   -1    0    0  503  501  0.00000000000E+00  0.00000000000E+00  0.19589954367E+03  0.19589954367E+03  0.00000000000E+00 0.  1.
         21   -1    0    0  504  502 -0.00000000000E+00 -0.00000000000E+00 -0.58679173024E+03  0.58679173024E+03  0.00000000000E+00 0. -1.
         21    1    1    2  503  506 -0.17074033510E+02 -0.38959674996E+02  0.11220272753E+03  0.11999512891E+03  0.00000000000E+00 0.  1.
         21    1    1    2  504  501  0.16372123991E+02 -0.40558963842E+02  0.47660040808E+02  0.64688140194E+02  0.00000000000E+00 0.  1.
         21    1    1    2  505  502  0.67664355575E+02  0.10272150310E+03 -0.48827451024E+03  0.50352971070E+03  0.00000000000E+00 0. -1.
         21    1    1    2  506  505 -0.66962446056E+02 -0.23202864256E+02 -0.62480444671E+02  0.94478294109E+02  0.00000000000E+00 0.  1.
<scales pt_clust_3="42.53679" pt_clust_4="68.12310" pt_clust_5="14000.00000" pt_clust_6="102.39385"></scales>
<clustering>
<clus scale="   42.537">  1  3  2 -1</clus>
<clus scale="   68.123">  1  4  2 -1</clus>
<clus scale="  102.394">  1  6  2 -1</clus>
<clus scale="   42.537">  1  3  2 -1</clus>
</clustering>
</event>
<event>
 6    0  0.4582113E+002  0.2179748E+03  0.7546771E-02  0.1135402E+00
         21   -1    0    0  502  501  0.00000000000E+00  0.00000000000E+00  0.39015655041E+03  0.39015655041E+03  0.00000000000E+00 0.  1.
         21   -1    0    0  504  502 -0.00000000000E+00 -0.00000000000E+00 -0.61959173162E+03  0.61959173162E+03  0.00000000000E+00 0. -1.
         21    1    1    2  503  505  0.12630563655E+02 -0.14673671271E+03  0.25418521749E+03  0.29377086103E+03  0.00000000000E+00 0.  1.
         21    1    1    2  504  506  0.16709677151E+02  0.10494291886E+03 -0.23556296966E+03  0.25842241042E+03  0.00000000000E+00 0.  1.
         21    1    1    2  505  501  0.42767134506E+02 -0.40250363100E+02  0.87098782576E+02  0.10504911922E+03  0.00000000000E+00 0.  1.
         21    1    1    2  506  503 -0.72107375313E+02  0.82044156950E+02 -0.33515621161E+03  0.35250589136E+03  0.00000000000E+00 0. -1.
<scales pt_clust_3="206.35554" pt_clust_4="96.03531" pt_clust_5="42.59315" pt_clust_6="96.03531"></scales>
<clustering>
<clus scale="   42.593">  3  5 -1 -1</clus>
<clus scale="   96.035">  4  6 -1 -1</clus>
<clus scale="  206.356">  1  3  2 -1</clus>
<clus scale="  206.356">  1  3  2 -1</clus>
</clustering>
</event>
<event>
 6    0  0.4582113E+002  0.1720525E+03  0.7546771E-02  0.1175724E+00
         21   -1    0    0  503  501  0.00000000000E+00  0.00000000000E+00  0.41447616791E+02  0.41447616791E+02  0.00000000000E+00 0. -1.
         21   -1    0    0  505  502 -0.00000000000E+00 -0.00000000000E+00 -0.11735525906E+04  0.11735525906E+04  0.00000000000E+00 0. -1.
         21    1    1    2  503  502 -0.11653855528E+03  0.12526217559E+03 -0.42016640185E+03  0.45366469197E+03  0.00000000000E+00 0. -1.
         21    1    1    2  504  506 -0.44300921974E+01 -0.83233636392E+02 -0.20689421255E+03  0.22305308590E+03  0.00000000000E+00 0. -1.
         21    1    1    2  505  504  0.74276679373E+02  0.28403271937E+02 -0.37395702059E+03  0.38231874686E+03  0.00000000000E+00 0. -1.
         21    1    1    2  506  501  0.46691968108E+02 -0.70431811132E+02 -0.13108733878E+03  0.15596368261E+03  0.00000000000E+00 0. -1.
<scales pt_clust_3="159.93442" pt_clust_4="62.99378" pt_clust_5="79.52214" pt_clust_6="62.99378"></scales>
<clustering>
<clus scale="   62.994">  4  6 -1 -1</clus>
<clus scale="   79.522">  2  5  1 -1</clus>
<clus scale="  159.934">  2  3  1 -1</clus>
<clus scale="  172.053">  1  3  2 -1</clus>
</clustering>
</event>
<event>
 6    0  0.4582113E+002  0.1041805E+03  0.7546771E-02  0.1271743E+00
         21   -1    0    0  504  501  0.00000000000E+00  0.00000000000E+00  0.45611212142E+02  0.45611212142E+02  0.00000000000E+00 0.  1.
         21   -1    0    0  503  502 -0.00000000000E+00 -0.00000000000E+00 -0.23133055114E+04  0.23133055114E+04  0.00000000000E+00 0.  1.
         21    1    1    2  503  505  0.11107185491E+03  0.17314096304E+02 -0.18855277040E+04  0.18888757126E+04  0.00000000000E+00 0.  1.
         21    1    1    2  504  502  0.37894543421E+01 -0.54231559191E+02 -0.93345632320E+02  0.10802235440E+03  0.00000000000E+00 0.  1.
         21    1    1    2  505  506 -0.71334319995E+02  0.66816694500E+02 -0.29316953988E+03  0.30903306455E+03  0.00000000000E+00 0. -1.
         21    1    1    2  506  501 -0.43526989258E+02 -0.29899231613E+02  0.43485769274E+01  0.52985592062E+02  0.00000000000E+00 0.  1.
<scales pt_clust_3="104.18054" pt_clust_4="68.84837" pt_clust_5="14000.00000" pt_clust_6="52.80684"></scales>
<clustering>
<clus scale="   52.807">  1  6  2 -1</clus>
<clus scale="   68.848">  1  4  2 -1</clus>
<clus scale="  104.181">  2  3  1 -1</clus>
<clus scale="   52.807">  1  3  2 -1</clus>
</clustering>
</event>
<event>
 6    0  0.4582113E+002  0.1896064E+03  0.7546771E-02  0.1158817E+00
         21   -1    0    0  505  501  0.00000000000E+00  0.00000000000E+00  0.57269809794E+03  0.57269809794E+03  0.00000000000E+00 0.  1.
         21   -1    0    0  501  502 -0.00000000000E+00 -0.00000000000E+00 -0.81570381116E+02  0.81570381116E+02  0.00000000000E+00 0. -1.
         21    1    1    2  503  502  0.34862568529E+01 -0.10822165491E+03  0.26829548861E+02  0.11155225354E+03  0.00000000000E+00 0. -1.
         21    1    1    2  504  506  0.21158579487E+02  0.37318857939E+02  0.46441048119E+02  0.63223046385E+02  0.00000000000E+00 0.  1.
         21    1    1    2  505  504  0.45858007743E+01  0.13665307102E+03  0.36626317380E+03  0.39095243172E+03  0.00000000000E+00 0.  1.
         21    1    1    2  506  503 -0.29230637114E+02 -0.65750274042E+02  0.51593946044E+02  0.88540747405E+02  0.00000000000E+00 0. -1.
<scales pt_clust_3="184.08412" pt_clust_4="39.69315" pt_clust_5="39.69315" pt_clust_6="44.33605"></scales>
<clustering>
<clus scale="   39.693">  4  5 -1 -1</clus>
<clus scale="   44.336">  3  6 -1 -1</clus>
<clus scale="  184.084">  2  3  1 -1</clus>
<clus scale="  189.606">  1  3  2 -1</clus>
</clustering>
</event>
<event>
 6    0  0.4582113E+002  0.1633032E+03  0.7546771E-02  0.1185017E+00
         21   -1    0    0  503  501  0.00000000000E+00  0.00000000000E+00  0.58708328304E+02  0.58708328304E+02  0.00000000000E+00 0.  1.
         21   -1    0    0  506  502 -0.00000000000E+00 -0.00000000000E+00 -0.24473434509E+04  0.24473434509E+04  0.00000000000E+00 0.  1.
         21    1    1    2  503  505  0.22745674383E+02 -0.24856308240E+02  0.56929469285E+01  0.34170329340E+02  0.00000000000E+00 0.  1.
         21    1    1    2  504  501  0.12111387470E+03  0.44728983870E+01 -0.82784641783E+02  0.14677150398E+03  0.00000000000E+00 0.  1.
         21    1    1    2  505  502  0.11483186825E+02 -0.45510081345E+02 -0.15439355853E+03  0.16137038762E+03  0.00000000000E+00 0.  1.
         21    1    1    2  506  504 -0.15534273591E+03  0.65893491198E+02 -0.21571498692E+04  0.21637395583E+04  0.00000000000E+00 0.  1.
<scales pt_clust_3="33.69276" pt_clust_4="14000.00000" pt_clust_5="49.62605" pt_clust_6="163.30315"></scales>
<clustering>
<clus scale="   33.693">  1  3  2 -1</clus>
<clus scale="   49.626">  1  5  2 -1</clus>
<clus scale="  163.303">  2  6  1 -1</clus>
<clus scale="   33.693">  1  3  2 -1</clus>
</clustering>
</event>
<event>
 6    0  0.4582113E+002  0.1671183E+03  0.7546771E-02  0.1180887E+00
         21   -1    0    0  506  501  0.00000000000E+00  0.00000000000E+00  0.14671747620E+04  0.14671747620E+04  0.00000000000E+00 0. -1.
         21   -1    0    0  504  502 -0.00000000000E+00 -0.00000000000E+00 -0.74172262329E+02  0.74172262329E+02  0.00000000000E+00 0. -1.
         21    1    1    2  503  502 -0.64617217477E+02  0.20209636168E+02 -0.30942732887E+02  0.74439686371E+02  0.00000000000E+00 0. -1.
         21    1    1    2  504  505 -0.53332429130E+02 -0.53832717809E+02  0.16951906260E+03  0.18568527699E+03  0.00000000000E+00 0. -1.
         21    1    1    2  505  501 -0.25862614748E+02 -0.68169533743E+02  0.21649913339E+03  0.22844656910E+03  0.00000000000E+00 0. -1.
         21    1    1    2  506  503  0.14381226135E+03  0.10179261538E+03  0.10379270365E+04  0.10527754918E+04  0.00000000000E+00 0. -1.
<scales pt_clust_3="67.70387" pt_clust_4="35.88979" pt_clust_5="35.88979" pt_clust_6="163.06372"></scales>
<clustering>
<clus scale="   35.890">  4  5 -1 -1</clus>
<clus scale="   67.704">  2  3  1 -1</clus>
<clus scale="  163.064">  1  6  2 -1</clus>
<clus scale="  163.064">  1  3  2 -1</clus>
</clustering>
</event>
<event>
 6    0  0.4582113E+002  0.7518430E+02  0.7546771E-02  0.1343301E+00
         21   -1    0    0  503  501  0.00000000000E+00  0.00000000000E+00  0.17311858884E+03  0.17311858884E+03  0.00000000000E+00 0. -1.
         21   -1    0    0  504  502 -0.00000000000E+00 -0.00000000000E+00 -0.73074341597E+03  0.73074341597E+03  0.00000000000E+00 0.  1.
         21    1    1    2  503  506  0.53253818849E+02 -0.21582083264E+00  0.56520616703E+02  0.77656911560E+02  0.00000000000E+00 0.  1.
         21    1    1    2  504  505  0.28489167991E+02 -0.30758231364E+02 -0.64413276707E+03  0.64549571889E+03  0.00000000000E+00 0.  1.
         21    1    1    2  505  501 -0.28932190533E+02  0.85958808381E+02  0.47648775128E+02  0.10245191144E+03  0.00000000000E+00 0. -1.
         21    1    1    2  506  502 -0.52810796306E+02 -0.54984756184E+02 -0.17661451898E+02  0.78257462917E+02  0.00000000000E+00 0.  1.
<scales pt_clust_3="56.89829" pt_clust_4="41.92495" pt_clust_5="14000.00000" pt_clust_6="75.18430"></scales>
<clustering>
<clus scale="   41.925">  2  4  1 -1</clus>
<clus scale="   56.898">  1  3  2 -1</clus>
<clus scale="   75.184">  2  6  1 -1</clus>
<clus scale="   56.898">  1  3  2 -1</clus>
</clustering>
</event>
<event>
 6    0  0.4582113E+002  0.1832995E+03  0.7546771E-02  0.1164647E+00
         21   -1    0    0  506  501  0.00000000000E+00  0.00000000000E+00  0.18097029375E+04  0.18097029375E+04  0.00000000000E+00 0. -1.
         21   -1    0    0  504  502 -0.00000000000E+00 -0.00000000000E+00 -0.27523225305E+03  0.27523225305E+03  0.00000000000E+00 0. -1.
         21    1    1    2  503  501  0.72449951720E+02  0.34038902353E+02  0.89993552005E+03  0.90348856253E+03  0.00000000000E+00 0. -1.
         21    1    1    2  504  505 -0.28102739703E+02  0.12876083618E+02 -0.21887124549E+03  0.22104338853E+03  0.00000000000E+00 0. -1.
         21    1    1    2  505  503  0.83216295600E+02  0.57889762170E+02  0.76774334646E+03  0.77440688430E+03  0.00000000000E+00 0. -1.
         21    1    1    2  506  502 -0.12756350762E+03 -0.10480474814E+03  0.85663063444E+02  0.18599635520E+03  0.00000000000E+00 0. -1.
<scales pt_clust_3="34.40879" pt_clust_4="30.91209" pt_clust_5="34.40879" pt_clust_6="179.16816"></scales>
<clustering>
<clus scale="   30.912">  2  4  1 -1</clus>
<clus scale="   34.409">  3  5 -1 -1</clus>
<clus scale="  179.168">  2  6  1 -1</clus>
<clus scale="  183.299">  1  3  2 -1</clus>
</clustering>
</event>
<event>
 6    0  0.4582113E+002  0.1270245E+03  0.7546771E-02  0.1231939E+00
         21   -1    0    0  504  501  0.00000000000E+00  0.00000000000E+00  0.22392028679E+03  0.22392028679E+03  0.00000000000E+00 0.  1.
         21   -1    0    0  506  502 -0.00000000000E+00 -0.00000000000E+00 -0.25201473157E+03  0.25201473157E+03  0.00000000000E+00 0. -1.
         21    1    1    2  503  502 -0.78705631020E+01 -0.31346940537E+02 -0.14267848609E+03  0.14629329048E+03  0.00000000000E+00 0. -1.
         21    1    1    2  504  505 -0.19765902893E+02 -0.51225012920E+02 -0.10007501800E+02  0.55810778154E+02  0.00000000000E+00 0. -1.
         21    1    1    2  505  503 -0.90118119286E+00 -0.40261752178E+02 -0.46354144966E+02  0.61404621744E+02  0.00000000000E+00 0. -1.
         21    1    1    2  506  501  0.28537647188E+02  0.12283370564E+03  0.17094568808E+03  0.21242632798E+03  0.00000000000E+00 0.  1.
<scales pt_clust_3="32.31991" pt_clust_4="39.14635" pt_clust_5="39.14635" pt_clust_6="119.87230"></scales>
<clustering>
<clus scale="   32.320">  2  3  1 -1</clus>
<clus scale="   39.146">  4  5 -1 -1</clus>
<clus scale="  119.872">  1  6  2 -1</clus>
<clus scale="  119.872">  1  3  2 -1</clus>
</clustering>
</event>
<event>
 6    0  0.4582113E+002  0.1121714E+03  0.7546771E-02  0.1256601E+00
         21   -1    0    0  503  501  0.00000000000E+00  0.00000000000E+00  0.14167462684E+03  0.14167462684E+03  0.00000000000E+00 0. -1.
         21   -1    0    0  505  502 -0.00000000000E+00 -0.00000000000E+00 -0.13628163110E+03  0.13628163110E+03  0.00000000000E+00 0. -1.
         21    1    1    2  503  506 -0.22585471129E+02 -0.33670235158E+02  0.37850546163E+02  0.55465774010E+02  0.00000000000E+00 0. -1.
         21    1    1    2  504  501  0.75309161070E+02  0.96874119958E+02 -0.61502346145E+00  0.12270469882E+03  0.00000000000E+00 0. -1.
         21    1    1    2  505  504 -0.30600746761E+02 -0.14142177880E+02 -0.31244857203E+02  0.45963550767E+02  0.00000000000E+00 0. -1.
         21    1    1    2  506  502 -0.22122943179E+02 -0.49061706921E+02 -0.59766976236E+00  0.53822234346E+02  0.00000000000E+00 0. -1.
<scales pt_clust_3="34.75048" pt_clust_4="104.25807" pt_clust_5="33.71063" pt_clust_6="34.75048"></scales>
<clustering>
<clus scale="   33.711">  2  5  1 -1</clus>
<clus scale="   34.750">  3  6 -1 -1</clus>
<clus scale="  104.258">  2  4  1 -1</clus>
<clus scale="  112.171">  1  3  2 -1</clus>
</clustering>
</event>
<event>
 6    0  0.4582113E+002  0.7010671E+02  0.7546771E-02  0.1359731E+00
         21   -1    0    0  503  501  0.00000000000E+00  0.00000000000E+00  0.46785736283E+02  0.46785736283E+02  0.00000000000E+00 0. -1.
         21   -1    0    0  505  502 -0.00000000000E+00 -0.00000000000E+00 -0.84298150983E+03  0.84298150983E+03  0.00000000000E+00 0.  1.
         21    1    1    2  503  506 -0.14327167542E+02 -0.28654968240E+02  0.24182011705E+00  0.32037999494E+02  0.00000000000E+00 0. -1.
         21    1    1    2  504  502 -0.41344282815E+02 -0.23286792915E+02 -0.25025729591E+03  0.25471619227E+03  0.00000000000E+00 0.  1.
         21    1    1    2  505  501  0.11022747783E+03  0.25486112937E+02 -0.52760599994E+03  0.53959960155E+03  0.00000000000E+00 0.  1.
         21    1    1    2  506  504 -0.54556027477E+02  0.26455648219E+02 -0.18574297812E+02  0.63413452800E+02  0.00000000000E+00 0. -1.
<scales pt_clust_3="32.03709" pt_clust_4="49.39969" pt_clust_5="14000.00000" pt_clust_6="70.10671"></scales>
<clustering>
<clus scale="   32.037">  1  3  2 -1</clus>
<clus scale="   49.400">  2  4  1 -1</clus>
<clus scale="   70.107">  1  6  2 -1</clus>
<clus scale="   32.037">  1  3  2 -1</clus>
</clustering>
</event>
<event>
 6    0  0.4582113E+002  0.2562507E+03  0.7546771E-02  0.1109417E+00
         21   -1    0    0  503  501  0.00000000000E+00  0.00000000000E+00  0.38679246084E+03  0.38679246084E+03  0.00000000000E+00 0. -1.
         21   -1    0    0  505  502 -0.00000000000E+00 -0.00000000000E+00 -0.13786915663E+04  0.13786915663E+04  0.00000000000E+00 0. -1.
         21    1    1    2  503  504  0.23772692471E+03 -0.43268437723E+02 -0.88132110406E+02  0.25720326071E+03  0.00000000000E+00 0. -1.
         21    1    1    2  504  502 -0.10945566754E+03 -0.16755398914E+03 -0.11340623052E+04  0.11515868159E+04  0.00000000000E+00 0. -1.
         21    1    1    2  505  506 -0.73119792949E+01  0.11643194970E+03  0.76840115688E+02  0.13969347634E+03  0.00000000000E+00 0. -1.
         21    1    1    2  506  501 -0.12095927787E+03  0.94390477158E+02  0.15345519449E+03  0.21700047418E+03  0.00000000000E+00 0. -1.
<scales pt_clust_3="228.84359" pt_clust_4="200.13716" pt_clust_5="100.54333" pt_clust_6="100.54333"></scales>
<clustering>
<clus scale="  100.543">  5  6 -1 -1</clus>
<clus scale="  200.137">  2  4  1 -1</clus>
<clus scale="  228.844">  2  3  1 -1</clus>
<clus scale="  256.251">  1  3  2 -1</clus>
</clustering>
</event>
<event>
 6    0  0.4582113E+002  0.1121283E+03  0.7546771E-02  0.1256679E+00
         21   -1    0    0  504  501  0.00000000000E+00  0.00000000000E+00  0.39166514231E+03  0.39166514231E+03  0.00000000000E+00 0. -1.
         21   -1    0    0  503  502 -0.00000000000E+00 -0.00000000000E+00 -0.98455085096E+03  0.98455085096E+03  0.00000000000E+00 0.  1.
         21    1    1    2  503  501 -0.24278679229E+02  0.14157477971E+03  0.27356073807E+03  0.30897952995E+03  0.00000000000E+00 0. -1.
         21    1    1    2  504  506  0.36317910298E+02 -0.25911943092E+02  0.83730387612E+02  0.94874639462E+02  0.00000000000E+00 0. -1.
         21    1    1    2  505  502 -0.30874353628E+02 -0.42061247764E+02 -0.81984140959E+03  0.82150003722E+03  0.00000000000E+00 0.  1.
         21    1    1    2  506  505  0.18835122558E+02 -0.73601588857E+02 -0.13033542474E+03  0.15086178663E+03  0.00000000000E+00 0.  1.
<scales pt_clust_3="112.12832" pt_clust_4="44.61412" pt_clust_5="52.17487" pt_clust_6="14000.00000"></scales>
<clustering>
<clus scale="   44.614">  1  4  2 -1</clus>
<clus scale="   52.175">  2  5  1 -1</clus>
<clus scale="  112.128">  1  3  2 -1</clus>
<clus scale="   44.614">  1  3  2 -1</clus>
</clustering>
</event>
<event>
 6    0  0.4582113E+002  0.1859298E+03  0.7546771E-02  0.1162184E+00
         21   -1    0    0  503  501  0.00000000000E+00  0.00000000000E+00  0.38682073830E+03  0.38682073830E+03  0.00000000000E+00 0.  1.
         21   -1    0    0  504  502 -0.00000000000E+00 -0.00000000000E+00 -0.49116912945E+03  0.49116912945E+03  0.00000000000E+00 0. -1.
         21    1    1    2  503  505 -0.17909980546E+03 -0.29389890337E+02  0.24028759030E+03  0.30112892924E+03  0.00000000000E+00 0.  1.
         21    1    1    2  504  506 -0.57065413347E+02 -0.83509791295E+01 -0.14629597315E+03  0.15725365500E+03  0.00000000000E+00 0. -1.
         21    1    1    2  505  502  0.35360546394E+02  0.32094776797E+02 -0.21290605250E+03  0.21819585269E+03  0.00000000000E+00 0. -1.
         21    1    1    2  506  501  0.20080467241E+03  0.56460926701E+01  0.14566044192E+02  0.20141143083E+03  0.00000000000E+00 0. -1.
<scales pt_clust_3="185.92977" pt_clust_4="38.73211" pt_clust_5="47.75398" pt_clust_6="14000.00000"></scales>
<clustering>
<clus scale="   47.754">  2  5  1 -1</clus>
<clus scale="   38.732">  2  4  1 -1</clus>
<clus scale="  185.930">  1  3  2 -1</clus>
<clus scale="  185.930">  1  3  2 -1</clus>
</clustering>
</event>
<event>
 6    0  0.4582113E+002  0.1998650E+03  0.7546771E-02  0.1149853E+00
         21   -1    0    0  506  501  0.00000000000E+00  0.00000000000E+00  0.29279147293E+03  0.29279147293E+03  0.00000000000E+00 0.  1.
         21   -1    0    0  503  502 -0.00000000000E+00 -0.00000000000E+00 -0.31271276604E+03  0.31271276604E+03  0.00000000000E+00 0.  1.
         21    1    1    2  503  505 -0.32946667229E+02  0.10369899090E+02 -0.12569784254E+03  0.13035706850E+03  0.00000000000E+00 0.  1.
         21    1    1    2  504  502 -0.19629365207E+02 -0.77434368680E+02 -0.50380760484E+02  0.94443710527E+02  0.00000000000E+00 0.  1.
         21    1    1    2  505  501  0.86233258308E+02  0.17679670907E+03  0.17632619836E+03  0.26416695366E+03  0.00000000000E+00 0.  1.
         21    1    1    2  506  504 -0.33657225872E+02 -0.10973223948E+03 -0.20168888448E+02  0.11653650628E+03  0.00000000000E+00 0.  1.
<scales pt_clust_3="34.54009" pt_clust_4="34.03725" pt_clust_5="195.65638" pt_clust_6="34.03725"></scales>
<clustering>
<clus scale="   34.037">  4  6 -1 -1</clus>
<clus scale="   34.540">  2  3  1 -1</clus>
<clus scale="  195.656">  1  5  2 -1</clus>
<clus scale="  195.656">  1  3  2 -1</clus>
</clustering>
</event>
<event>
 6    0  0.4582113E+002  0.1378382E+03  0.7546771E-02  0.1216268E+00
         21   -1    0    0  504  501  0.00000000000E+00  0.00000000000E+00  0.13131066859E+03  0.13131066859E+03  0.00000000000E+00 0. -1.
         21   -1    0    0  506  502 -0.00000000000E+00 -0.00000000000E+00 -0.46281992959E+03  0.46281992959E+03  0.00000000000E+00 0. -1.
         21    1    1    2  503  501  0.30023123134E+02 -0.14361798174E+03  0.44694369829E+02  0.15337894020E+03  0.00000000000E+00 0. -1.
         21    1    1    2  504  505 -0.21336425635E+02  0.11385510806E+03 -0.10978283187E+03  0.15959479585E+03  0.00000000000E+00 0. -1.
         21    1    1    2  505  502  0.27355525739E+02  0.14689916429E+02 -0.36410084830E+02  0.47851987529E+02  0.00000000000E+00 0. -1.
         21    1    1    2  506  503 -0.36042223238E+02  0.15072957257E+02 -0.23001071413E+03  0.23330487460E+03  0.00000000000E+00 0. -1.
<scales pt_clust_3="137.83819" pt_clust_4="14000.00000" pt_clust_5="31.05026" pt_clust_6="31.25036"></scales>
<clustering>
<clus scale="   31.050">  2  5  1 -1</clus>
<clus scale="   31.250">  2  6  1 -1</clus>
<clus scale="  137.838">  1  3  2 -1</clus>
<clus scale="  137.838">  1  3  2 -1</clus>
</clustering>
</event>
<event>
 6    0  0.4582113E+002  0.1043216E+03  0.7546771E-02  0.1271462E+00
         21   -1    0    0  504  501  0.00000000000E+00  0.00000000000E+00  0.33574880201E+03  0.33574880201E+03  0.00000000000E+00 0. -1.
         21   -1    0    0  505  502 -0.00000000000E+00 -0.00000000000E+00 -0.45584788937E+03  0.45584788937E+03  0.00000000000E+00 0. -1.
         21    1    1    2  503  502 -0.53257517940E+02  0.71243294831E+02 -0.50971050110E+02  0.10251837994E+03  0.00000000000E+00 0.  1.
         21    1    1    2  504  503  0.25395232024E+01  0.49362167219E+02  0.43234068899E+02  0.65667780869E+02  0.00000000000E+00 0. -1.
         21    1    1    2  505  506  0.95565041387E+01 -0.17104454702E+03 -0.34319333591E+03  0.38357428179E+03  0.00000000000E+00 0. -1.
         21    1    1    2  506  501  0.41161490599E+02  0.50439084969E+02  0.23083122976E+03  0.23983624879E+03  0.00000000000E+00 0. -1.
<scales pt_clust_3="92.47772" pt_clust_4="49.42745" pt_clust_5="14000.00000" pt_clust_6="104.32162"></scales>
<clustering>
<clus scale="   49.427">  1  4  2 -1</clus>
<clus scale="   92.478">  2  3  1 -1</clus>
<clus scale="  104.322">  1  6  2 -1</clus>
<clus scale="   49.427">  1  3  2 -1</clus>
</clustering>
</event>
<event>
 6    0  0.4582113E+002  0.8465197E+02  0.7546771E-02  0.1316345E+00
         21   -1    0    0  505  501  0.00000000000E+00  0.00000000000E+00  0.37449083157E+03  0.37449083157E+03  0.00000000000E+00 0.  1.
         21   -1    0    0  503  502 -0.00000000000E+00 -0.00000000000E+00 -0.93826128262E+02  0.93826128262E+02  0.00000000000E+00 0.  1.
         21    1    1    2  503  506 -0.57794511572E+02  0.80050007516E+02 -0.75938974694E+01  0.99024625977E+02  0.00000000000E+00 0.  1.
         21    1    1    2  504  502  0.65040841861E+01 -0.30678616044E+02 -0.14114707110E+02  0.34390486334E+02  0.00000000000E+00 0.  1.
         21    1    1    2  505  504  0.29476555832E+02  0.31361243011E+02  0.37312639484E+02  0.56961635968E+02  0.00000000000E+00 0.  1.
         21    1    1    2  506  501  0.21813871554E+02 -0.80732634483E+02  0.26506066840E+03  0.27794021155E+03  0.00000000000E+00 0.  1.
<scales pt_clust_3="14000.00000" pt_clust_4="31.36049" pt_clust_5="40.67467" pt_clust_6="84.65197"></scales>
<clustering>
<clus scale="   31.360">  2  4  1 -1</clus>
<clus scale="   40.675">  2  5  1 -1</clus>
<clus scale="   84.652">  1  6  2 -1</clus>
<clus scale="   84.652">  1  3  2 -1</clus>
</clustering>
</event>
<event>
 6    0  0.4582113E+002  0.1340100E+03  0.7546771E-02  0.1221624E+00
         21   -1    0    0  506  501  0.00000000000E+00  0.00000000000E+00  0.65518777819E+03  0.65518777819E+03  0.00000000000E+00 0. -1.
         21   -1    0    0  504  502 -0.00000000000E+00 -0.00000000000E+00 -0.79952089162E+02  0.79952089162E+02  0.00000000000E+00 0. -1.
         21    1    1    2  503  501  0.51349862304E+02 -0.63442238933E+02  0.27673659793E+03  0.28852187209E+03  0.00000000000E+00 0.  1.
         21    1    1    2  504  505 -0.12432257767E+03 -0.74850264030E+02  0.73957208643E+02  0.16287521006E+03  0.00000000000E+00 0. -1.
         21    1    1    2  505  503  0.39112136232E+02  0.13369175753E+03  0.18020077597E+03  0.22776207958E+03  0.00000000000E+00 0. -1.
         21    1    1    2  506  502  0.33860579132E+02  0.46007454314E+01  0.44341106477E+02  0.55980705616E+02  0.00000000000E+00 0. -1.
<scales pt_clust_3="90.93014" pt_clust_4="14000.00000" pt_clust_5="134.00999" pt_clust_6="34.17171"></scales>
<clustering>
<clus scale="   34.172">  1  6  2 -1</clus>
<clus scale="   90.930">  1  3  2 -1</clus>
<clus scale="  134.010">  1  5  2 -1</clus>
<clus scale="   34.172">  1  3  2 -1</clus>
</clustering>
</event>
<event>
 6    0  0.4582113E+002  0.1221487E+03  0.7546771E-02  0.1239594E+00
         21   -1    0    0  505  501  0.00000000000E+00  0.00000000000E+00  0.13473395897E+03  0.13473395897E+03  0.00000000000E+00 0. -1.
         21   -1    0    0  504  502 -0.00000000000E+00 -0.00000000000E+00 -0.13460669139E+04  0.13460669139E+04  0.00000000000E+00 0. -1.
         21    1    1    2  503  506 -0.95646719209E+02 -0.62407449028E+02 -0.26665816587E+02  0.11727766353E+03  0.00000000000E+00 0. -1.
         21    1    1    2  504  503  0.64993389863E+02  0.37822929035E+01 -0.88528515276E+03  0.88767575621E+03  0.00000000000E+00 0. -1.
         21    1    1    2  505  502  0.73044031651E+02  0.26908488100E+02 -0.37530244314E+03  0.38329025701E+03  0.00000000000E+00 0. -1.
         21    1    1    2  506  501 -0.42390702304E+02  0.31716668024E+02  0.75920457575E+02  0.92557196105E+02  0.00000000000E+00 0. -1.
<scales pt_clust_3="122.14866" pt_clust_4="64.15029" pt_clust_5="14000.00000" pt_clust_6="52.94260"></scales>
<clustering>
<clus scale="   52.943">  1  6  2 -1</clus>
<clus scale="   64.150">  2  4  1 -1</clus>
<clus scale="  122.149">  1  3  2 -1</clus>
<clus scale="   52.943">  1  3  2 -1</clus>
</clustering>
</event>
<event>
 6    0  0.4582113E+002  0.1358211E+03  0.7546771E-02  0.1219065E+00
         21   -1    0    0  505  501  0.00000000000E+00  0.00000000000E+00  0.12950033198E+03  0.12950033198E+03  0.00000000000E+00 0.  1.
         21   -1    0    0  504  502 -0.00000000000E+00 -0.00000000000E+00 -0.25908981607E+03  0.25908981607E+03  0.00000000000E+00 0.  1.
         21    1    1    2  503  506 -0.75808111140E+02  0.63554900467E+01 -0.64201798008E+02  0.99544627358E+02  0.00000000000E+00 0.  1.
         21    1    1    2  504  503 -0.22418381111E+02 -0.54957950403E+02 -0.71520930255E+02  0.92941936652E+02  0.00000000000E+00 0.  1.
         21    1    1    2  505  502  0.13625460090E+03  0.16426556920E+02  0.30591205404E+02  0.14060928094E+03  0.00000000000E+00 0.  1.
         21    1    1    2  506  501 -0.38028108648E+02  0.32175903436E+02 -0.24457961227E+02  0.55494303101E+02  0.00000000000E+00 0.  1.
<scales pt_clust_3="33.68813" pt_clust_4="59.35453" pt_clust_5="129.28344" pt_clust_6="33.68813"></scales>
<clustering>
<clus scale="   33.688">  3  6 -1 -1</clus>
<clus scale="   59.355">  2  4  1 -1</clus>
<clus scale="  129.283">  1  5  2 -1</clus>
<clus scale="  129.283">  1  3  2 -1</clus>
</clustering>
</event>
<event>
 6    0  0.4582113E+002  0.1876176E+03  0.7546771E-02  0.1160628E+00
         21   -1    0    0  503  501  0.00000000000E+00  0.00000000000E+00  0.32197809510E+04  0.32197809510E+04  0.00000000000E+00 0. -1.
         21   -1    0    0  501  502 -0.00000000000E+00 -0.00000000000E+00 -0.76326849049E+02  0.76326849049E+02  0.00000000000E+00 0.  1.
         21    1    1    2  503  506 -0.41739319399E+02  0.92850527192E+02  0.20459045657E+04  0.20484357161E+04  0.00000000000E+00 0. -1.
         21    1    1    2  504  502  0.22203614146E+02 -0.89330438372E+02 -0.16599998260E+02  0.93533350432E+02  0.00000000000E+00 0.  1.
         21    1    1    2  505  504  0.57317629025E+02 -0.85553427580E+02  0.12996074953E+03  0.16581464346E+03  0.00000000000E+00 0. -1.
         21    1    1    2  506  505 -0.37781923772E+02  0.82033338760E+02  0.98418878498E+03  0.98832409002E+03  0.00000000000E+00 0. -1.
<scales pt_clust_3="56.01287" pt_clust_4="92.04851" pt_clust_5="177.94369" pt_clust_6="56.01287"></scales>
<clustering>
<clus scale="   56.013">  3  6 -1 -1</clus>
<clus scale="   92.049">  2  4  1 -1</clus>
<clus scale="  177.944">  2  5  1 -1</clus>
<clus scale="  187.618">  1  3  2 -1</clus>
</clustering>
</event>
<event>
 6    0  0.4582113E+002  0.2453332E+03  0.7546771E-02  0.1116290E+00
         21   -1    0    0  505  501  0.00000000000E+00  0.00000000000E+00  0.93877740581E+02  0.93877740581E+02  0.00000000000E+00 0. -1.
         21   -1    0    0  504  502 -0.00000000000E+00 -0.00000000000E+00 -0.12226469283E+04  0.12226469283E+04  0.00000000000E+00 0.  1.
         21    1    1    2  503  501 -0.51644293996E+02  0.15370476924E+02 -0.50298409321E+02  0.73711021180E+02  0.00000000000E+00 0. -1.
         21    1    1    2  504  506  0.21411623256E+03  0.18143111030E+02 -0.54145092685E+03  0.58253243661E+03  0.00000000000E+00 0.  1.
         21    1    1    2  505  502  0.32343589473E+02  0.11828243313E+00 -0.43796319779E+03  0.43915587710E+03  0.00000000000E+00 0.  1.
         21    1    1    2  506  503 -0.19481552804E+03 -0.33631870387E+02 -0.99056653731E+02  0.22112533396E+03  0.00000000000E+00 0. -1.
<scales pt_clust_3="31.08650" pt_clust_4="237.99743" pt_clust_5="32.34381" pt_clust_6="31.08650"></scales>
<clustering>
<clus scale="   31.087">  3  6 -1 -1</clus>
<clus scale="   32.344">  2  5  1 -1</clus>
<clus scale="  237.997">  2  4  1 -1</clus>
<clus scale="  245.333">  1  3  2 -1</clus>
</clustering>
</event>
<event>
 6    0  0.4582113E+002  0.2109353E+03  0.7546771E-02  0.1140827E+00
         21   -1    0    0  505  501  0.00000000000E+00  0.00000000000E+00  0.72763853788E+03  0.72763853788E+03  0.00000000000E+00 0. -1.
         21   -1    0    0  506  502 -0.00000000000E+00 -0.00000000000E+00 -0.10721750184E+04  0.10721750184E+04  0.00000000000E+00 0. -1.
         21    1    1    2  503  502  0.12726582826E+03  0.11614956802E+03 -0.40894692488E+03  0.44376221174E+03  0.00000000000E+00 0. -1.
         21    1    1    2  504  501  0.28112641056E+02 -0.67960163174E+02  0.27456752594E+03  0.28424677776E+03  0.00000000000E+00 0. -1.
         21    1    1    2  505  503  0.10994689838E+03  0.78281612736E+02  0.38502822715E+03  0.40799885669E+03  0.00000000000E+00 0. -1.
         21    1    1    2  506  504 -0.26532536770E+03 -0.12647101758E+03 -0.59518530873E+03  0.66380571010E+03  0.00000000000E+00 0. -1.
<scales pt_clust_3="210.93532" pt_clust_4="73.54525" pt_clust_5="136.03382" pt_clust_6="14000.00000"></scales>
<clustering>
<clus scale="   73.545">  1  4  2 -1</clus>
<clus scale="  136.034">  1  5  2 -1</clus>
<clus scale="  210.935">  2  3  1 -1</clus>
<clus scale="   73.545">  1  3  2 -1</clus>
</clustering>
</event>
<event>
 6    0  0.8158734E+002  0.1658871E+03  0.7546771E-02  0.1182206E+00
         21   -1    0    0  503  501  0.00000000000E+00  0.00000000000E+00  0.24140856232E+03  0.24140856232E+03  0.00000000000E+00 0.  1.
         21   -1    0    0  504  502 -0.00000000000E+00 -0.00000000000E+00 -0.93720854713E+03  0.93720854713E+03  0.00000000000E+00 0.  1.
         21    1    1    2  503  505 -0.10151069209E+03  0.42853553218E+02  0.16614124020E+03  0.19935836909E+03  0.00000000000E+00 0.  1.
         21    1    1    2  504  506 -0.69317079769E+01  0.32111945717E+02 -0.11285895788E+02  0.34736106243E+02  0.00000000000E+00 0.  1.
         21    1    1    2  505  502  0.12221349152E+03 -0.11620034103E+03 -0.87741454963E+03  0.89347352992E+03  0.00000000000E+00 0.  1.
         21    1    1    2  506  501 -0.13771091448E+02  0.41234842096E+02  0.26759220415E+02  0.51049104199E+02  0.00000000000E+00 0.  1.
<scales pt_clust_3="165.88714" pt_clust_4="31.47892" pt_clust_5="14000.00000" pt_clust_6="84.37819"></scales>
<clustering>
<clus scale="   31.479">  4  6 -1 -1</clus>
<clus scale="   84.378">  1  4  2 -1</clus>
<clus scale="  165.887">  1  3  2 -1</clus>
<clus scale="   84.378">  1  3  2 -1</clus>
</clustering>
</event>
<event>
 6    0  0.4582113E+002  0.1150449E+03  0.7546771E-02  0.1251503E+00
         21   -1    0    0  505  501  0.00000000000E+00  0.00000000000E+00  0.27033243768E+03  0.27033243768E+03  0.00000000000E+00 0. -1.
         21   -1    0    0  503  502 -0.00000000000E+00 -0.00000000000E+00 -0.16894219874E+03  0.16894219874E+03  0.00000000000E+00 0. -1.
         21    1    1    2  503  504  0.35189838323E+02 -0.10735849826E+01  0.10074277228E+03  0.10671730634E+03  0.00000000000E+00 0. -1.
         21    1    1    2  504  501  0.78288847949E+01  0.31772924206E+02  0.34633023147E+02  0.47647208124E+02  0.00000000000E+00 0. -1.
         21    1    1    2  505  506 -0.14699771456E+03 -0.43185719236E+02  0.37971919865E+02  0.15784549765E+03  0.00000000000E+00 0. -1.
         21    1    1    2  506  502  0.10397899144E+03  0.12486380013E+02 -0.71957476347E+02  0.12706462430E+03  0.00000000000E+00 0. -1.
<scales pt_clust_3="40.95506" pt_clust_4="32.72324" pt_clust_5="115.04490" pt_clust_6="14000.00000"></scales>
<clustering>
<clus scale="   32.723">  1  4  2 -1</clus>
<clus scale="   40.955">  1  3  2 -1</clus>
<clus scale="  115.045">  1  5  2 -1</clus>
<clus scale="   32.723">  1  3  2 -1</clus>
</clustering>
</event>
<event>
 6    0  0.4582113E+002  0.9377208E+02  0.7546771E-02  0.1293966E+00
         21   -1    0    0  506  501  0.00000000000E+00  0.00000000000E+00  0.15019951345E+04  0.15019951345E+04  0.00000000000E+00 0. -1.
         21   -1    0    0  503  502 -0.00000000000E+00 -0.00000000000E+00 -0.53909341275E+02  0.53909341275E+02  0.00000000000E+00 0.  1.
         21    1    1    2  503  505  0.82397930531E+02 -0.52552688320E+01  0.32885383129E+02  0.88873422516E+02  0.00000000000E+00 0.  1.
         21    1    1    2  504  502 -0.12327089217E+03  0.19422284944E+01  0.13606909722E+03  0.18361449923E+03  0.00000000000E+00 0.  1.
         21    1    1    2  505  501  0.25384002805E+02  0.40525064436E+02  0.33179347506E+03  0.33522162600E+03  0.00000000000E+00 0. -1.
         21    1    1    2  506  504  0.15488958836E+02 -0.37212024098E+02  0.94733783784E+03  0.94819492805E+03  0.00000000000E+00 0. -1.
<scales pt_clust_3="93.77208" pt_clust_4="14000.00000" pt_clust_5="39.15606" pt_clust_6="40.30686"></scales>
<clustering>
<clus scale="   40.307">  1  6  2 -1</clus>
<clus scale="   39.156">  1  5  2 -1</clus>
<clus scale="   93.772">  2  3  1 -1</clus>
<clus scale="   40.307">  1  3  2 -1</clus>
</clustering>
</event>
<event>
 6    0  0.4582113E+002  0.1618386E+03  0.7546771E-02  0.1186636E+00
         21   -1    0    0  503  501  0.00000000000E+00  0.00000000000E+00  0.58188905545E+03  0.58188905545E+03  0.00000000000E+00 0.  1.
         21   -1    0    0  506  502 -0.00000000000E+00 -0.00000000000E+00 -0.23765733140E+03  0.23765733140E+03  0.00000000000E+00 0.  1.
         21    1    1    2  503  504 -0.15322168382E+03  0.43243983886E+01  0.53166552770E+03  0.55332071907E+03  0.00000000000E+00 0.  1.
         21    1    1    2  504  502  0.29935913504E+02 -0.37165058961E+01  0.53497591155E+01  0.30636436737E+02  0.00000000000E+00 0.  1.
         21    1    1    2  505  501  0.46641767186E+02 -0.21566379978E+02 -0.10676552767E+03  0.11848814747E+03  0.00000000000E+00 0.  1.
         21    1    1    2  506  505  0.76644003129E+02  0.20958487485E+02 -0.86018035081E+02  0.11710108357E+03  0.00000000000E+00 0.  1.
<scales pt_clust_3="151.83778" pt_clust_4="30.16573" pt_clust_5="47.36345" pt_clust_6="47.36345"></scales>
<clustering>
<clus scale="   30.166">  2  4  1 -1</clus>
<clus scale="   47.363">  5  6 -1 -1</clus>
<clus scale="  151.838">  1  3  2 -1</clus>
<clus scale="  151.838">  1  3  2 -1</clus>
</clustering>
</event>
<event>
 6    0  0.4582113E+002  0.9203246E+02  0.7546771E-02  0.1298003E+00
         21   -1    0    0  506  501  0.00000000000E+00  0.00000000000E+00  0.18922119084E+03  0.18922119084E+03  0.00000000000E+00 0. -1.
         21   -1    0    0  503  502 -0.00000000000E+00 -0.00000000000E+00 -0.13786879033E+04  0.13786879033E+04  0.00000000000E+00 0. -1.
         21    1    1    2  503  501  0.78046008975E+02  0.54032270022E+02 -0.10644134637E+04  0.10686377719E+04  0.00000000000E+00 0. -1.
         21    1    1    2  504  502 -0.83905715928E+02 -0.22991578970E+02 -0.28655551309E+03  0.29947094008E+03  0.00000000000E+00 0. -1.
         21    1    1    2  505  504  0.42696463662E+02 -0.31502174215E+02  0.25448543052E+02  0.58847288239E+02  0.00000000000E+00 0. -1.
         21    1    1    2  506  505 -0.36836756709E+02  0.46148316313E+00  0.13605372131E+03  0.14095309395E+03  0.00000000000E+00 0. -1.
<scales pt_clust_3="14000.00000" pt_clust_4="92.03246" pt_clust_5="33.38258" pt_clust_6="36.83965"></scales>
<clustering>
<clus scale="   36.840">  1  6  2 -1</clus>
<clus scale="   33.383">  1  5  2 -1</clus>
<clus scale="   92.032">  1  4  2 -1</clus>
<clus scale="   36.840">  1  3  2 -1</clus>
</clustering>
</event>
<event>
 6    0  0.4582113E+002  0.9103471E+02  0.7546771E-02  0.1300365E+00
         21   -1    0    0  503  501  0.00000000000E+00  0.00000000000E+00  0.90249239111E+03  0.90249239111E+03  0.00000000000E+00 0.  1.
         21   -1    0    0  506  502 -0.00000000000E+00 -0.00000000000E+00 -0.90005088028E+02  0.90005088028E+02  0.00000000000E+00 0. -1.
         21    1    1    2  503  505 -0.11223773192E+02 -0.38764779510E+02  0.15024295519E+03  0.15556872050E+03  0.00000000000E+00 0. -1.
         21    1    1    2  504  501  0.89419568190E+02 -0.10663615150E+02  0.66881083330E+03  0.67484628072E+03  0.00000000000E+00 0.  1.
         21    1    1    2  505  502 -0.31750684874E+02 -0.42379059843E+02  0.18664707133E+02  0.56146789717E+02  0.00000000000E+00 0. -1.
         21    1    1    2  506  504 -0.46445110124E+02  0.91807454503E+02 -0.25231192540E+02  0.10593568820E+03  0.00000000000E+00 0. -1.
<scales pt_clust_3="40.35692" pt_clust_4="91.03471" pt_clust_5="54.84224" pt_clust_6="14000.00000"></scales>
<clustering>
<clus scale="   40.357">  1  3  2 -1</clus>
<clus scale="   54.842">  2  5  1 -1</clus>
<clus scale="   91.035">  1  4  2 -1</clus>
<clus scale="   40.357">  1  3  2 -1</clus>
</clustering>
</event>
<event>
 6    0  0.4582113E+002  0.9676994E+02  0.7546771E-02  0.1287239E+00
         21   -1    0    0  504  501  0.00000000000E+00  0.00000000000E+00  0.55151701812E+02  0.55151701812E+02  0.00000000000E+00 0.  1.
         21   -1    0    0  505  502 -0.00000000000E+00 -0.00000000000E+00 -0.89168424306E+03  0.89168424306E+03  0.00000000000E+00 0.  1.
         21    1    1    2  503  502 -0.79942029045E+02  0.75274003149E+02 -0.48624288578E+03  0.49848675763E+03  0.00000000000E+00 0.  1.
         21    1    1    2  504  506 -0.65418527828E+02 -0.60573505205E+02 -0.16526568171E+03  0.18778040064E+03  0.00000000000E+00 0.  1.
         21    1    1    2  505  501  0.74352421165E+02  0.20792913928E+02 -0.23683765894E+02  0.80756105464E+02  0.00000000000E+00 0.  1.
         21    1    1    2  506  503  0.71008135708E+02 -0.35493411872E+02 -0.16134020787E+03  0.17981268114E+03  0.00000000000E+00 0.  1.
<scales pt_clust_3="14000.00000" pt_clust_4="61.92765" pt_clust_5="77.20510" pt_clust_6="96.76994"></scales>
<clustering>
<clus scale="   77.205">  1  5  2 -1</clus>
<clus scale="   61.928">  1  4  2 -1</clus>
<clus scale="   96.770">  1  6  2 -1</clus>
<clus scale="   77.205">  1  3  2 -1</clus>
</clustering>
</event>
<event>
 6    0  0.4582113E+002  0.7925827E+02  0.7546771E-02  0.1331170E+00
         21   -1    0    0  506  501  0.00000000000E+00  0.00000000000E+00  0.29256323428E+02  0.29256323428E+02  0.00000000000E+00 0. -1.
         21   -1    0    0  504  502 -0.00000000000E+00 -0.00000000000E+00 -0.21807131910E+04  0.21807131910E+04  0.00000000000E+00 0. -1.
         21    1    1    2  503  505  0.63773924549E+02  0.41861156840E+02 -0.22528981293E+03  0.23785493418E+03  0.00000000000E+00 0. -1.
         21    1    1    2  504  501 -0.13063116196E+02  0.33031177951E+02 -0.18519276175E+03  0.18856845634E+03  0.00000000000E+00 0. -1.
         21    1    1    2  505  502 -0.10808900535E+02 -0.11060983545E+03 -0.17236958291E+04  0.17272749287E+04  0.00000000000E+00 0. -1.
         21    1    1    2  506  503 -0.39901907819E+02  0.35717500654E+02 -0.17278463797E+02  0.56271195222E+02  0.00000000000E+00 0. -1.
<scales pt_clust_3="14000.00000" pt_clust_4="35.52047" pt_clust_5="79.25827" pt_clust_6="54.13945"></scales>
<clustering>
<clus scale="   35.520">  2  4  1 -1</clus>
<clus scale="   54.139">  1  6  2 -1</clus>
<clus scale="   79.258">  2  5  1 -1</clus>
<clus scale="   54.139">  1  3  2 -1</clus>
</clustering>
</event>
<event>
 6    0  0.4582113E+002  0.1582091E+03  0.7546771E-02  0.1190734E+00
         21   -1    0    0  505  501  0.00000000000E+00  0.00000000000E+00  0.47496281958E+03  0.47496281958E+03  0.00000000000E+00 0.  1.
         21   -1    0    0  503  502 -0.00000000000E+00 -0.00000000000E+00 -0.27074477251E+03  0.27074477251E+03  0.00000000000E+00 0. -1.
         21    1    1    2  503  501  0.55348587415E+02 -0.88550063186E+02  0.25124058518E+03  0.27207795107E+03  0.00000000000E+00 0.  1.
         21    1    1    2  504  502 -0.16480833306E+03  0.71685521692E+02 -0.19567025051E+03  0.26568298327E+03  0.00000000000E+00 0. -1.
         21    1    1    2  505  506  0.23552721645E+02  0.48365997046E+02  0.59129933491E+02  0.79939661006E+02  0.00000000000E+00 0.  1.
         21    1    1    2  506  504  0.85907023998E+02 -0.31501455552E+02  0.89517778903E+02  0.12800699674E+03  0.00000000000E+00 0.  1.
<scales pt_clust_3="90.90939" pt_clust_4="14000.00000" pt_clust_5="53.79591" pt_clust_6="158.20907"></scales>
<clustering>
<clus scale="   53.796">  1  5  2 -1</clus>
<clus scale="   90.909">  1  3  2 -1</clus>
<clus scale="  158.209">  1  6  2 -1</clus>
<clus scale="   53.796">  1  3  2 -1</clus>
</clustering>
</event>
<event>
 6    0  0.4582113E+002  0.1130713E+03  0.7546771E-02  0.1254986E+00
         21   -1    0    0  505  501  0.00000000000E+00  0.00000000000E+00  0.21440802943E+03  0.21440802943E+03  0.00000000000E+00 0.  1.
         21   -1    0    0  503  502 -0.00000000000E+00 -0.00000000000E+00 -0.28288267961E+03  0.28288267961E+03  0.00000000000E+00 0.  1.
         21    1    1    2  503  506 -0.40053436632E+02 -0.53435220380E+02  0.60863680463E+02  0.90354790480E+02  0.00000000000E+00 0.  1.
         21    1    1    2  504  502  0.50777976084E+02  0.22816743401E+02 -0.20605842582E+03  0.21344573429E+03  0.00000000000E+00 0.  1.
         21    1    1    2  505  504  0.34338178338E+02  0.65375985939E+02 -0.24132662175E+02  0.77688579680E+02  0.00000000000E+00 0.  1.
         21    1    1    2  506  501 -0.45062717790E+02 -0.34757508960E+02  0.10085275735E+03  0.11580160460E+03  0.00000000000E+00 0. -1.
<scales pt_clust_3="33.60977" pt_clust_4="55.66872" pt_clust_5="107.04948" pt_clust_6="33.60977"></scales>
<clustering>
<clus scale="   33.610">  3  6 -1 -1</clus>
<clus scale="   55.669">  2  4  1 -1</clus>
<clus scale="  107.049">  2  5  1 -1</clus>
<clus scale="  113.071">  1  3  2 -1</clus>
</clustering>
</event>
<event>
 6    0  0.4582113E+002  0.1711921E+03  0.7546771E-02  0.1176610E+00
         21   -1    0    0  506  501  0.00000000000E+00  0.00000000000E+00  0.39315903039E+03  0.39315903039E+03  0.00000000000E+00 0.  1.
         21   -1    0    0  503  502 -0.00000000000E+00 -0.00000000000E+00 -0.83205077461E+03  0.83205077461E+03  0.00000000000E+00 0.  1.
         21    1    1    2  503  505 -0.24351091239E+01 -0.36026207014E+02  0.10391988610E+02  0.37574070521E+02  0.00000000000E+00 0.  1.
         21    1    1    2  504  501  0.20074554352E+02 -0.39049851743E+02  0.23803842870E+03  0.24205406873E+03  0.00000000000E+00 0.  1.
         21    1    1    2  505  504  0.44634556382E+02 -0.78149711198E+02  0.10378387142E+03  0.13737071358E+03  0.00000000000E+00 0.  1.
         21    1    1    2  506  502 -0.62274001610E+02  0.15322576995E+03 -0.79110603293E+03  0.80821095216E+03  0.00000000000E+00 0.  1.
<scales pt_clust_3="33.23234" pt_clust_4="43.90761" pt_clust_5="33.23234" pt_clust_6="162.95431"></scales>
<clustering>
<clus scale="   33.232">  3  5 -1 -1</clus>
<clus scale="   43.908">  1  4  2 -1</clus>
<clus scale="  162.954">  2  6  1 -1</clus>
<clus scale="   43.908">  1  3  2 -1</clus>
</clustering>
</event>
<event>
 6    0  0.4582113E+002  0.1696644E+03  0.7546771E-02  0.1178198E+00
         21   -1    0    0  504  501  0.00000000000E+00  0.00000000000E+00  0.31221242355E+03  0.31221242355E+03  0.00000000000E+00 0. -1.
         21   -1    0    0  505  502 -0.00000000000E+00 -0.00000000000E+00 -0.10496672082E+04  0.10496672082E+04  0.00000000000E+00 0. -1.
         21    1    1    2  503  502 -0.56552998725E+01  0.55957397535E+02 -0.40952438993E+02  0.69572372498E+02  0.00000000000E+00 0. -1.
         21    1    1    2  504  503  0.35487302199E+02 -0.22599164157E+03  0.11352790547E+03  0.25538237214E+03  0.00000000000E+00 0. -1.
         21    1    1    2  505  506  0.95605109179E+01  0.11201685162E+03 -0.90883557769E+03  0.91576267979E+03  0.00000000000E+00 0. -1.
         21    1    1    2  506  501 -0.39392513244E+02  0.58017392412E+02  0.98805326574E+02  0.12116220732E+03  0.00000000000E+00 0. -1.
<scales pt_clust_3="56.24245" pt_clust_4="169.66441" pt_clust_5="14000.00000" pt_clust_6="70.68371"></scales>
<clustering>
<clus scale="   56.242">  2  3  1 -1</clus>
<clus scale="   70.684">  1  6  2 -1</clus>
<clus scale="  169.664">  1  4  2 -1</clus>
<clus scale="   70.684">  1  3  2 -1</clus>
</clustering>
</event>
<event>
 6    0  0.4582113E+002  0.1484272E+03  0.7546771E-02  0.1202419E+00
         21   -1    0    0  506  501  0.00000000000E+00  0.00000000000E+00  0.10781647311E+04  0.10781647311E+04  0.00000000000E+00 0.  1.
         21   -1    0    0  503  502 -0.00000000000E+00 -0.00000000000E+00 -0.41918322177E+03  0.41918322177E+03  0.00000000000E+00 0.  1.
         21    1    1    2  503  504 -0.34712121958E+02 -0.45661593448E+02  0.18591191403E+02  0.60295480136E+02  0.00000000000E+00 0. -1.
         21    1    1    2  504  505 -0.24926069947E+02 -0.60959948202E+02 -0.12390037840E+02  0.67014455795E+02  0.00000000000E+00 0.  1.
         21    1    1    2  505  501  0.49265780822E+02  0.13768515280E+03  0.10053605876E+04  0.10159400718E+04  0.00000000000E+00 0.  1.
         21    1    1    2  506  502  0.10372411083E+02 -0.31063611151E+02 -0.35258023183E+03  0.35409794510E+03  0.00000000000E+00 0.  1.
<scales pt_clust_3="31.14095" pt_clust_4="31.14095" pt_clust_5="144.17400" pt_clust_6="32.74958"></scales>
<clustering>
<clus scale="   32.750">  2  6  1 -1</clus>
<clus scale="   31.141">  3  4 -1 -1</clus>
<clus scale="  144.174">  1  5  2 -1</clus>
<clus scale="  144.174">  1  3  2 -1</clus>
</clustering>
</event>
<event>
 6    0  0.4582113E+002  0.1032857E+03  0.7546771E-02  0.1273534E+00
         21   -1    0    0  506  501  0.00000000000E+00  0.00000000000E+00  0.19312541104E+03  0.19312541104E+03  0.00000000000E+00 0.  1.
         21   -1    0    0  503  502 -0.00000000000E+00 -0.00000000000E+00 -0.41489051791E+04  0.41489051791E+04  0.00000000000E+00 0.  1.
         21    1    1    2  503  505  0.95818232140E+02  0.33989836950E+01 -0.48794006055E+03  0.49727074054E+03  0.00000000000E+00 0.  1.
         21    1    1    2  504  502 -0.15038651130E+02 -0.77299711205E+02 -0.36016451916E+04  0.36025060017E+04  0.00000000000E+00 0.  1.
         21    1    1    2  505  501 -0.41382516893E+02  0.38659344705E+02  0.16934170801E+03  0.17855999470E+03  0.00000000000E+00 0.  1.
         21    1    1    2  506  504 -0.39397064118E+02  0.35241382805E+02 -0.35536223955E+02  0.63693853205E+02  0.00000000000E+00 0. -1.
<scales pt_clust_3="103.28575" pt_clust_4="78.68401" pt_clust_5="14000.00000" pt_clust_6="52.85909"></scales>
<clustering>
<clus scale="   52.859">  1  6  2 -1</clus>
<clus scale="   78.684">  2  4  1 -1</clus>
<clus scale="  103.286">  2  3  1 -1</clus>
<clus scale="   52.859">  1  3  2 -1</clus>
</clustering>
</event>
<event>
 6    0  0.4582113E+002  0.1677697E+03  0.7546771E-02  0.1180194E+00
         21   -1    0    0  506  501  0.00000000000E+00  0.00000000000E+00  0.39665416904E+03  0.39665416904E+03  0.00000000000E+00 0.  1.
         21   -1    0    0  504  502 -0.00000000000E+00 -0.00000000000E+00 -0.16257951133E+03  0.16257951133E+03  0.00000000000E+00 0. -1.
         21    1    1    2  503  502 -0.32094484749E+02  0.17569538617E+02 -0.74718457732E+02  0.83196109070E+02  0.00000000000E+00 0.  1.
         21    1    1    2  504  501 -0.14240061545E+03 -0.19867639810E+02  0.32044201984E+02  0.14730746509E+03  0.00000000000E+00 0. -1.
         21    1    1    2  505  503  0.84248526060E+02  0.96310387362E+01  0.10894290252E+03  0.13805479731E+03  0.00000000000E+00 0.  1.
         21    1    1    2  506  505  0.90246574136E+02 -0.73329375426E+01  0.16780601094E+03  0.19067530890E+03  0.00000000000E+00 0.  1.
<scales pt_clust_3="36.58886" pt_clust_4="164.70268" pt_clust_5="30.90276" pt_clust_6="30.90276"></scales>
<clustering>
<clus scale="   30.903">  5  6 -1 -1</clus>
<clus scale="   36.589">  2  3  1 -1</clus>
<clus scale="  164.703">  2  4  1 -1</clus>
<clus scale="  167.770">  1  3  2 -1</clus>
</clustering>
</event>
<event>
 6    0  0.4582113E+002  0.1309376E+03  0.7546771E-02  0.1226071E+00
         21   -1    0    0  503  501  0.00000000000E+00  0.00000000000E+00  0.19524158420E+03  0.19524158420E+03  0.00000000000E+00 0. -1.
         21   -1    0    0  504  502 -0.00000000000E+00 -0.00000000000E+00 -0.28539715648E+03  0.28539715648E+03  0.00000000000E+00 0. -1.
         21    1    1    2  503  502  0.39654865571E+02 -0.13087563373E+03  0.12286090531E+03  0.18383618230E+03  0.00000000000E+00 0. -1.
         21    1    1    2  504  506 -0.38059710142E+02  0.32939726658E+02 -0.17824846516E+03  0.18521901215E+03  0.00000000000E+00 0. -1.
         21    1    1    2  505  501  0.19292897953E+02  0.47768043469E+02 -0.13774055734E+02  0.53326602177E+02  0.00000000000E+00 0. -1.
         21    1    1    2  506  505 -0.20888053382E+02  0.50167863606E+02 -0.20993956696E+02  0.58256944055E+02  0.00000000000E+00 0.  1.
<scales pt_clust_3="124.48526" pt_clust_4="50.33455" pt_clust_5="39.52709" pt_clust_6="39.52709"></scales>
<clustering>
<clus scale="   39.527">  5  6 -1 -1</clus>
<clus scale="   50.335">  2  4  1 -1</clus>
<clus scale="  124.485">  1  3  2 -1</clus>
<clus scale="  124.485">  1  3  2 -1</clus>
</clustering>
</event>
<event>
 6    0  0.4582113E+002  0.1479254E+03  0.7546771E-02  0.1203046E+00
         21   -1    0    0  506  501  0.00000000000E+00  0.00000000000E+00  0.27765520915E+03  0.27765520915E+03  0.00000000000E+00 0.  1.
         21   -1    0    0  503  502 -0.00000000000E+00 -0.00000000000E+00 -0.38693742142E+03  0.38693742142E+03  0.00000000000E+00 0.  1.
         21    1    1    2  503  501  0.45487892062E+02 -0.17978074956E+02  0.15535549594E+01  0.48936418304E+02  0.00000000000E+00 0.  1.
         21    1    1    2  504  505  0.99693864137E+02  0.68194543751E+02  0.64678511516E+02  0.13701340152E+03  0.00000000000E+00 0.  1.
         21    1    1    2  505  502 -0.11708507674E+03 -0.98357383123E+02 -0.30305776513E+03  0.33945117325E+03  0.00000000000E+00 0.  1.
         21    1    1    2  506  504 -0.28096679464E+02  0.48140914329E+02  0.12754348639E+03  0.13919163750E+03  0.00000000000E+00 0.  1.
<scales pt_clust_3="48.91175" pt_clust_4="14000.00000" pt_clust_5="147.92537" pt_clust_6="38.85463"></scales>
<clustering>
<clus scale="   48.912">  1  3  2 -1</clus>
<clus scale="   38.855">  1  6  2 -1</clus>
<clus scale="  147.925">  2  5  1 -1</clus>
<clus scale="   48.912">  1  3  2 -1</clus>
</clustering>
</event>
<event>
 6    0  0.4582113E+002  0.1073268E+03  0.7546771E-02  0.1265602E+00
         21   -1    0    0  504  501  0.00000000000E+00  0.00000000000E+00  0.55459464464E+02  0.55459464464E+02  0.00000000000E+00 0. -1.
         21   -1    0    0  506  502 -0.00000000000E+00 -0.00000000000E+00 -0.97283966826E+03  0.97283966826E+03  0.00000000000E+00 0. -1.
         21    1    1    2  503  505 -0.50261391920E+02 -0.51266932789E+02 -0.19300629101E+03  0.20592701203E+03  0.00000000000E+00 0. -1.
         21    1    1    2  504  502 -0.29343663369E+02  0.14062553380E+02 -0.10957003135E+02  0.34334558468E+02  0.00000000000E+00 0. -1.
         21    1    1    2  505  501  0.11121176201E+03  0.81950036241E+02 -0.96072028777E+02  0.16826675002E+03  0.00000000000E+00 0. -1.
         21    1    1    2  506  503 -0.31606706721E+02 -0.44745656832E+02 -0.61734488087E+03  0.61977081220E+03  0.00000000000E+00 0. -1.
<scales pt_clust_3="14000.00000" pt_clust_4="32.53930" pt_clust_5="107.32684" pt_clust_6="54.94087"></scales>
<clustering>
<clus scale="   32.539">  1  4  2 -1</clus>
<clus scale="   54.941">  2  6  1 -1</clus>
<clus scale="  107.327">  1  5  2 -1</clus>
<clus scale="   32.539">  1  3  2 -1</clus>
</clustering>
</event>
<event>
 6    0  0.4582113E+002  0.8334695E+02  0.7546771E-02  0.1319813E+00
         21   -1    0    0  503  501  0.00000000000E+00  0.00000000000E+00  0.21474920853E+04  0.21474920853E+04  0.00000000000E+00 0.  1.
         21   -1    0    0  506  502 -0.00000000000E+00 -0.00000000000E+00 -0.26872980758E+03  0.26872980758E+03  0.00000000000E+00 0.  1.
         21    1    1    2  503  504  0.43170667528E+02 -0.45334369581E+02  0.20541714888E+04  0.20551251585E+04  0.00000000000E+00 0.  1.
         21    1    1    2  504  502 -0.77397425439E+02 -0.51108095454E+02 -0.20133838120E+03  0.22167440680E+03  0.00000000000E+00 0.  1.
         21    1    1    2  505  501  0.23786487207E+02  0.19320160576E+02  0.49401371958E+02  0.58133992893E+02  0.00000000000E+00 0. -1.
         21    1    1    2  506  505  0.10440270705E+02  0.77122304459E+02 -0.23472201868E+02  0.81288334698E+02  0.00000000000E+00 0.  1.
<scales pt_clust_3="71.55164" pt_clust_4="14000.00000" pt_clust_5="30.64418" pt_clust_6="83.34695"></scales>
<clustering>
<clus scale="   30.644">  1  5  2 -1</clus>
<clus scale="   71.552">  1  3  2 -1</clus>
<clus scale="   83.347">  1  6  2 -1</clus>
<clus scale="   30.644">  1  3  2 -1</clus>
</clustering>
</event>
<event>
 6    0  0.4582113E+002  0.1683771E+03  0.7546771E-02  0.1179551E+00
         21   -1    0    0  506  501  0.00000000000E+00  0.00000000000E+00  0.87662710795E+03  0.87662710795E+03  0.00000000000E+00 0. -1.
         21   -1    0    0  503  502 -0.00000000000E+00 -0.00000000000E+00 -0.21782394069E+04  0.21782394069E+04  0.00000000000E+00 0.  1.
         21    1    1    2  503  501  0.12618925584E+03  0.76288082131E+02 -0.19376124627E+04  0.19432152880E+04  0.00000000000E+00 0.  1.
         21    1    1    2  504  502  0.30747407727E+02 -0.51334492361E+02 -0.22577196310E+03  0.23356714776E+03  0.00000000000E+00 0.  1.
         21    1    1    2  505  504 -0.85838183452E+02  0.20039329157E+01  0.33386239469E+03  0.34472642497E+03  0.00000000000E+00 0. -1.
         21    1    1    2  506  505 -0.71098480113E+02 -0.26957522686E+02  0.52790973218E+03  0.53335765414E+03  0.00000000000E+00 0. -1.
<scales pt_clust_3="158.81495" pt_clust_4="59.83839" pt_clust_5="52.63725" pt_clust_6="52.63725"></scales>
<clustering>
<clus scale="   52.637">  5  6 -1 -1</clus>
<clus scale="   59.838">  2  4  1 -1</clus>
<clus scale="  158.815">  2  3  1 -1</clus>
<clus scale="  168.377">  1  3  2 -1</clus>
</clustering>
</event>
<event>
 6    0  0.4582113E+002  0.1615668E+03  0.7546771E-02  0.1186939E+00
         21   -1    0    0  506  501  0.00000000000E+00  0.00000000000E+00  0.41540825415E+02  0.41540825415E+02  0.00000000000E+00 0.  1.
         21   -1    0    0  505  502 -0.00000000000E+00 -0.00000000000E+00 -0.81131099353E+03  0.81131099353E+03  0.00000000000E+00 0.  1.
         21    1    1    2  503  501 -0.49532702439E+02  0.11944046680E+02 -0.30844423865E+02  0.59561122769E+02  0.00000000000E+00 0. -1.
         21    1    1    2  504  502  0.93564194128E+02 -0.82963705773E+02 -0.50548508625E+03  0.52072296600E+03  0.00000000000E+00 0.  1.
         21    1    1    2  505  503 -0.78023989288E+02  0.64469793775E+02 -0.13871549917E+03  0.17171513307E+03  0.00000000000E+00 0.  1.
         21    1    1    2  506  504  0.33992497599E+02  0.65498653181E+01 -0.94725158828E+02  0.10085259711E+03  0.00000000000E+00 0.  1.
<scales pt_clust_3="36.37525" pt_clust_4="33.25192" pt_clust_5="157.28363" pt_clust_6="33.25192"></scales>
<clustering>
<clus scale="   33.252">  4  6 -1 -1</clus>
<clus scale="   36.375">  3  5 -1 -1</clus>
<clus scale="  157.284">  1  3  2 -1</clus>
<clus scale="  157.284">  1  3  2 -1</clus>
</clustering>
</event>
<event>
 6    0  0.4582113E+002  0.2159220E+03  0.7546771E-02  0.1136960E+00
         21   -1    0    0  505  501  0.00000000000E+00  0.00000000000E+00  0.46930533086E+03  0.46930533086E+03  0.00000000000E+00 0.  1.
         21   -1    0    0  504  502 -0.00000000000E+00 -0.00000000000E+00 -0.50899735313E+03  0.50899735313E+03  0.00000000000E+00 0. -1.
         21    1    1    2  503  506  0.11152182154E+03 -0.92998632708E+02  0.24928051585E+03  0.28849027358E+03  0.00000000000E+00 0.  1.
         21    1    1    2  504  501  0.29219670650E+02  0.13601123723E+02 -0.15883566048E+03  0.16207265889E+03  0.00000000000E+00 0. -1.
         21    1    1    2  505  503  0.27731193495E+02 -0.62857991084E+02  0.15367829424E+03  0.16833646146E+03  0.00000000000E+00 0.  1.
         21    1    1    2  506  502 -0.16847268568E+03  0.14225550007E+03 -0.28381517188E+03  0.35940329006E+03  0.00000000000E+00 0. -1.
<scales pt_clust_3="35.19250" pt_clust_4="32.23011" pt_clust_5="35.19250" pt_clust_6="209.73824"></scales>
<clustering>
<clus scale="   32.230">  2  4  1 -1</clus>
<clus scale="   35.193">  3  5 -1 -1</clus>
<clus scale="  209.738">  2  6  1 -1</clus>
<clus scale="  215.922">  1  3  2 -1</clus>
</clustering>
</event>
<event>
 6    0  0.4582113E+002  0.1460285E+03  0.7546771E-02  0.1205440E+00
         21   -1    0    0  506  501  0.00000000000E+00  0.00000000000E+00  0.43710310789E+03  0.43710310789E+03  0.00000000000E+00 0. -1.
         21   -1    0    0  505  502 -0.00000000000E+00 -0.00000000000E+00 -0.27817419816E+03  0.27817419816E+03  0.00000000000E+00 0.  1.
         21    1    1    2  503  502 -0.35823524385E+02 -0.17537661916E+02 -0.29494624828E+02  0.49606727151E+02  0.00000000000E+00 0.  1.
         21    1    1    2  504  503 -0.28362979370E+02  0.41073661320E+02  0.17236763291E+03  0.17944945007E+03  0.00000000000E+00 0. -1.
         21    1    1    2  505  501  0.15612818911E+03 -0.33285631705E+02 -0.19724092595E+03  0.25374776370E+03  0.00000000000E+00 0.  1.
         21    1    1    2  506  504 -0.91941685359E+02  0.97496323000E+01  0.21329682760E+03  0.23247336514E+03  0.00000000000E+00 0. -1.
<scales pt_clust_3="39.88602" pt_clust_4="45.51792" pt_clust_5="132.04999" pt_clust_6="45.51792"></scales>
<clustering>
<clus scale="   39.886">  2  3  1 -1</clus>
<clus scale="   45.518">  4  6 -1 -1</clus>
<clus scale="  132.050">  2  5  1 -1</clus>
<clus scale="  146.028">  1  3  2 -1</clus>
</clustering>
</event>
<event>
 6    0  0.4582113E+002  0.1189435E+03  0.7546771E-02  0.1244850E+00
         21   -1    0    0  503  501  0.00000000000E+00  0.00000000000E+00  0.16316197426E+04  0.16316197426E+04  0.00000000000E+00 0.  1.
         21   -1    0    0  505  502 -0.00000000000E+00 -0.00000000000E+00 -0.82510207607E+02  0.82510207607E+02  0.00000000000E+00 0.  1.
         21    1    1    2  503  502 -0.12056604476E+03  0.85691896165E+02  0.63940498030E+01  0.14805457133E+03  0.00000000000E+00 0.  1.
         21    1    1    2  504  506  0.39171392205E+02 -0.68430945051E+02  0.11577212703E+04  0.11604032626E+04  0.00000000000E+00 0.  1.
         21    1    1    2  505  504  0.46759645553E+02 -0.62851985414E+01  0.50121136974E+02  0.68833832848E+02  0.00000000000E+00 0. -1.
         21    1    1    2  506  501  0.34635007004E+02 -0.10975752573E+02  0.33487307791E+03  0.33683828340E+03  0.00000000000E+00 0.  1.
<scales pt_clust_3="109.57189" pt_clust_4="31.41328" pt_clust_5="47.18017" pt_clust_6="31.41328"></scales>
<clustering>
<clus scale="   31.413">  4  6 -1 -1</clus>
<clus scale="   47.180">  2  5  1 -1</clus>
<clus scale="  109.572">  2  3  1 -1</clus>
<clus scale="  118.943">  1  3  2 -1</clus>
</clustering>
</event>
<event>
 6    0  0.4582113E+002  0.1492248E+03  0.7546771E-02  0.1201429E+00
         21   -1    0    0  502  501  0.00000000000E+00  0.00000000000E+00  0.14600162448E+04  0.14600162448E+04  0.00000000000E+00 0. -1.
         21   -1    0    0  505  502 -0.00000000000E+00 -0.00000000000E+00 -0.12281092147E+03  0.12281092147E+03  0.00000000000E+00 0.  1.
         21    1    1    2  503  501  0.11271405090E+03  0.77340869972E+02  0.12958733336E+04  0.13030632234E+04  0.00000000000E+00 0. -1.
         21    1    1    2  504  503 -0.62664370105E+02 -0.88695111203E+02  0.51063987825E+02  0.12000490359E+03  0.00000000000E+00 0. -1.
         21    1    1    2  505  506 -0.21273571358E+02  0.34995832840E+02 -0.74518468369E+02  0.85031025412E+02  0.00000000000E+00 0.  1.
         21    1    1    2  506  504 -0.28776109442E+02 -0.23641591609E+02  0.64786470338E+02  0.74728013939E+02  0.00000000000E+00 0.  1.
<scales pt_clust_3="136.92829" pt_clust_4="34.73733" pt_clust_5="40.95453" pt_clust_6="34.73733"></scales>
<clustering>
<clus scale="   34.737">  4  6 -1 -1</clus>
<clus scale="   40.955">  2  5  1 -1</clus>
<clus scale="  136.928">  1  3  2 -1</clus>
<clus scale="  136.928">  1  3  2 -1</clus>
</clustering>
</event>
<event>
 6    0  0.4582113E+002  0.6172804E+02  0.7546771E-02  0.1390720E+00
         21   -1    0    0  506  501  0.00000000000E+00  0.00000000000E+00  0.48980703611E+02  0.48980703611E+02  0.00000000000E+00 0.  1.
         21   -1    0    0  503  502 -0.00000000000E+00 -0.00000000000E+00 -0.14996861467E+04  0.14996861467E+04  0.00000000000E+00 0.  1.
         21    1    1    2  503  504 -0.48299288324E+02  0.24049742666E+02 -0.12354700234E+04  0.12366476418E+04  0.00000000000E+00 0.  1.
         21    1    1    2  504  501  0.49182306740E+02 -0.45873205862E+02 -0.12359735411E+03  0.14071089600E+03  0.00000000000E+00 0.  1.
         21    1    1    2  505  502  0.56953775033E+02  0.38573712545E+02 -0.87011432504E+02  0.11091732586E+03  0.00000000000E+00 0.  1.
         21    1    1    2  506  505 -0.57836793448E+02 -0.16750249350E+02 -0.46266330918E+01  0.60390986608E+02  0.00000000000E+00 0.  1.
<scales pt_clust_3="53.95564" pt_clust_4="42.03716" pt_clust_5="61.72804" pt_clust_6="14000.00000"></scales>
<clustering>
<clus scale="   53.956">  2  3  1 -1</clus>
<clus scale="   42.037">  2  4  1 -1</clus>
<clus scale="   61.728">  2  5  1 -1</clus>
<clus scale="   61.728">  1  3  2 -1</clus>
</clustering>
</event>
<event>
 6    0  0.4582113E+002  0.1048623E+03  0.7546771E-02  0.1270391E+00
         21   -1    0    0  505  501  0.00000000000E+00  0.00000000000E+00  0.80275057493E+02  0.80275057493E+02  0.00000000000E+00 0.  1.
         21   -1    0    0  503  502 -0.00000000000E+00 -0.00000000000E+00 -0.34836304357E+04  0.34836304357E+04  0.00000000000E+00 0. -1.
         21    1    1    2  503  504  0.29192526371E+02  0.16471416287E+02 -0.12177687013E+03  0.12630565011E+03  0.00000000000E+00 0. -1.
         21    1    1    2  504  501  0.93886535635E+02 -0.43098811981E+02  0.35800677428E+02  0.10933379017E+03  0.00000000000E+00 0.  1.
         21    1    1    2  505  506 -0.17971788034E+03  0.28717544013E+02 -0.16654224022E+04  0.16753372769E+04  0.00000000000E+00 0. -1.
         21    1    1    2  506  502  0.56638818334E+02 -0.20901483190E+01 -0.16519567834E+04  0.16529287760E+04  0.00000000000E+00 0. -1.
<scales pt_clust_3="33.51882" pt_clust_4="14000.00000" pt_clust_5="104.86234" pt_clust_6="71.25146"></scales>
<clustering>
<clus scale="   33.519">  2  3  1 -1</clus>
<clus scale="   71.251">  2  6  1 -1</clus>
<clus scale="  104.862">  2  5  1 -1</clus>
<clus scale="  104.862">  1  3  2 -1</clus>
</clustering>
</event>
<event>
 6    0  0.4582113E+002  0.9735952E+02  0.7546771E-02  0.1285949E+00
         21   -1    0    0  504  501  0.00000000000E+00  0.00000000000E+00  0.84005488132E+02  0.84005488132E+02  0.00000000000E+00 0. -1.
         21   -1    0    0  505  502 -0.00000000000E+00 -0.00000000000E+00 -0.17901400123E+04  0.17901400123E+04  0.00000000000E+00 0. -1.
         21    1    1    2  503  501  0.97001092207E+02 -0.84783050190E+01  0.45313401741E+02  0.10739831434E+03  0.00000000000E+00 0. -1.
         21    1    1    2  504  506 -0.95966491445E+02  0.14730579596E+02 -0.12800187079E+04  0.12836956221E+04  0.00000000000E+00 0. -1.
         21    1    1    2  505  503 -0.12656113928E+02  0.42481691315E+02 -0.11730184981E+03  0.12539774833E+03  0.00000000000E+00 0. -1.
         21    1    1    2  506  502  0.11621513166E+02 -0.48733965892E+02 -0.35412736822E+03  0.35765381575E+03  0.00000000000E+00 0. -1.
<scales pt_clust_3="97.35952" pt_clust_4="14000.00000" pt_clust_5="44.32687" pt_clust_6="40.66513"></scales>
<clustering>
<clus scale="   44.327">  2  5  1 -1</clus>
<clus scale="   40.665">  2  6  1 -1</clus>
<clus scale="   97.360">  1  3  2 -1</clus>
<clus scale="   97.360">  1  3  2 -1</clus>
</clustering>
</event>
<event>
 6    0  0.4582113E+002  0.1217189E+03  0.7546771E-02  0.1240288E+00
         21   -1    0    0  504  501  0.00000000000E+00  0.00000000000E+00  0.35393561984E+02  0.35393561984E+02  0.00000000000E+00 0. -1.
         21   -1    0    0  505  502 -0.00000000000E+00 -0.00000000000E+00 -0.13784687753E+04  0.13784687753E+04  0.00000000000E+00 0. -1.
         21    1    1    2  503  502  0.13517247372E+03  0.54482758115E+02 -0.94667612316E+03  0.95782861241E+03  0.00000000000E+00 0. -1.
         21    1    1    2  504  503 -0.30871666209E+02 -0.87406225109E+02 -0.18191052434E+03  0.20416744801E+03  0.00000000000E+00 0. -1.
         21    1    1    2  505  506 -0.85417838252E+02 -0.70587726873E+00 -0.18344008348E+03  0.20235357566E+03  0.00000000000E+00 0. -1.
         21    1    1    2  506  501 -0.18882969262E+02  0.33629344262E+02 -0.31048482287E+02  0.49512701158E+02  0.00000000000E+00 0. -1.
<scales pt_clust_3="14000.00000" pt_clust_4="82.80878" pt_clust_5="121.71887" pt_clust_6="38.56811"></scales>
<clustering>
<clus scale="   38.568">  1  6  2 -1</clus>
<clus scale="   82.809">  1  4  2 -1</clus>
<clus scale="  121.719">  1  5  2 -1</clus>
<clus scale="   38.568">  1  3  2 -1</clus>
</clustering>
</event>
<event>
 6    0  0.4582113E+002  0.1304137E+03  0.7546771E-02  0.1226843E+00
         21   -1    0    0  502  501  0.00000000000E+00  0.00000000000E+00  0.42399799023E+02  0.42399799023E+02  0.00000000000E+00 0. -1.
         21   -1    0    0  503  502 -0.00000000000E+00 -0.00000000000E+00 -0.24819654803E+04  0.24819654803E+04  0.00000000000E+00 0. -1.
         21    1    1    2  503  504 -0.33211830468E+02 -0.10829055101E+01 -0.13025262911E+04  0.13029500901E+04  0.00000000000E+00 0.  1.
         21    1    1    2  504  506  0.14239095889E+03 -0.32832344946E+02 -0.10644802665E+04  0.10744633013E+04  0.00000000000E+00 0. -1.
         21    1    1    2  505  501 -0.68387246997E+02  0.97152921307E+01 -0.12128157101E+02  0.70130554309E+02  0.00000000000E+00 0. -1.
         21    1    1    2  506  505 -0.40791881429E+02  0.24199958325E+02 -0.60430966568E+02  0.76821333585E+02  0.00000000000E+00 0. -1.
<scales pt_clust_3="33.22948" pt_clust_4="117.25202" pt_clust_5="47.72936" pt_clust_6="47.72936"></scales>
<clustering>
<clus scale="   33.229">  2  3  1 -1</clus>
<clus scale="   47.729">  5  6 -1 -1</clus>
<clus scale="  117.252">  2  4  1 -1</clus>
<clus scale="  130.414">  1  3  2 -1</clus>
</clustering>
</event>
<event>
 6    0  0.4582113E+002  0.1273658E+03  0.7546771E-02  0.1231418E+00
         21   -1    0    0  504  501  0.00000000000E+00  0.00000000000E+00  0.25807494534E+03  0.25807494534E+03  0.00000000000E+00 0.  1.
         21   -1    0    0  503  502 -0.00000000000E+00 -0.00000000000E+00 -0.76841418236E+03  0.76841418236E+03  0.00000000000E+00 0.  1.
         21    1    1    2  503  505 -0.44781603078E+02  0.12339256316E+03 -0.67457837512E+03  0.68723147541E+03  0.00000000000E+00 0.  1.
         21    1    1    2  504  502  0.26977875121E+02  0.35662178326E+02  0.99797835687E+01  0.45816948710E+02  0.00000000000E+00 0.  1.
         21    1    1    2  505  506  0.42475836533E+02 -0.92807549903E+02 -0.21227768819E+02  0.10424996967E+03  0.00000000000E+00 0.  1.
         21    1    1    2  506  501 -0.24672108576E+02 -0.66247191583E+02  0.17548712335E+03  0.18919073391E+03  0.00000000000E+00 0.  1.
<scales pt_clust_3="127.36578" pt_clust_4="44.71685" pt_clust_5="14000.00000" pt_clust_6="38.13982"></scales>
<clustering>
<clus scale="   44.717">  1  4  2 -1</clus>
<clus scale="   38.140">  1  6  2 -1</clus>
<clus scale="  127.366">  2  3  1 -1</clus>
<clus scale="   44.717">  1  3  2 -1</clus>
</clustering>
</event>
<event>
 6    0  0.4582113E+002  0.1352179E+03  0.7546771E-02  0.1219912E+00
         21   -1    0    0  505  501  0.00000000000E+00  0.00000000000E+00  0.15841852041E+04  0.15841852041E+04  0.00000000000E+00 0. -1.
         21   -1    0    0  506  502 -0.00000000000E+00 -0.00000000000E+00 -0.10631879607E+03  0.10631879607E+03  0.00000000000E+00 0. -1.
         21    1    1    2  503  502  0.10173124769E+03 -0.14911820906E+03  0.29711662949E+02  0.18294335173E+03  0.00000000000E+00 0. -1.
         21    1    1    2  504  501 -0.57972615307E+02  0.10785793551E+01  0.31471442766E+03  0.32001118486E+03  0.00000000000E+00 0. -1.
         21    1    1    2  505  503 -0.34290711947E+02  0.47023374395E+02  0.10616889536E+04  0.10632828810E+04  0.00000000000E+00 0. -1.
         21    1    1    2  506  504 -0.94679204322E+01  0.10101625531E+03  0.71751363789E+02  0.12426658263E+03  0.00000000000E+00 0. -1.
<scales pt_clust_3="135.21785" pt_clust_4="57.98265" pt_clust_5="95.76828" pt_clust_6="14000.00000"></scales>
<clustering>
<clus scale="   57.983">  1  4  2 -1</clus>
<clus scale="   95.768">  1  5  2 -1</clus>
<clus scale="  135.218">  1  3  2 -1</clus>
<clus scale="   57.983">  1  3  2 -1</clus>
</clustering>
</event>
<event>
 6    0  0.4582113E+002  0.2147563E+03  0.7546771E-02  0.1137854E+00
         21   -1    0    0  505  501  0.00000000000E+00  0.00000000000E+00  0.12603056947E+03  0.12603056947E+03  0.00000000000E+00 0. -1.
         21   -1    0    0  504  502 -0.00000000000E+00 -0.00000000000E+00 -0.15205928448E+04  0.15205928448E+04  0.00000000000E+00 0.  1.
         21    1    1    2  503  502 -0.69178491098E+02 -0.76111720585E+01 -0.11124098710E+04  0.11145848172E+04  0.00000000000E+00 0.  1.
         21    1    1    2  504  506 -0.43357515304E+02 -0.37322533498E+02 -0.11667859022E+03  0.12994898636E+03  0.00000000000E+00 0.  1.
         21    1    1    2  505  503  0.20591356521E+03  0.10780069600E+03 -0.44139066059E+02  0.23657904292E+03  0.00000000000E+00 0. -1.
         21    1    1    2  506  501 -0.93377558807E+02 -0.62866990443E+02 -0.12133474808E+03  0.16551056784E+03  0.00000000000E+00 0. -1.
<scales pt_clust_3="69.59593" pt_clust_4="31.16874" pt_clust_5="210.25866" pt_clust_6="31.16874"></scales>
<clustering>
<clus scale="   31.169">  4  6 -1 -1</clus>
<clus scale="   69.596">  2  3  1 -1</clus>
<clus scale="  210.259">  1  5  2 -1</clus>
<clus scale="  210.259">  1  3  2 -1</clus>
</clustering>
</event>
<event>
 6    0  0.4582113E+002  0.6016795E+02  0.7546771E-02  0.1397128E+00
         21   -1    0    0  505  501  0.00000000000E+00  0.00000000000E+00  0.14881660417E+04  0.14881660417E+04  0.00000000000E+00 0. -1.
         21   -1    0    0  506  502 -0.00000000000E+00 -0.00000000000E+00 -0.12973712300E+04  0.12973712300E+04  0.00000000000E+00 0.  1.
         21    1    1    2  503  504  0.88700597584E+02  0.64288423502E+02  0.75060502481E+03  0.75855698578E+03  0.00000000000E+00 0. -1.
         21    1    1    2  504  501 -0.33141647223E+02 -0.41552743920E+02  0.73015485051E+03  0.73208681523E+03  0.00000000000E+00 0. -1.
         21    1    1    2  505  502 -0.16161376654E+02  0.25717925425E+02 -0.14109666393E+03  0.14432903504E+03  0.00000000000E+00 0.  1.
         21    1    1    2  506  503 -0.39397573707E+02 -0.48453605007E+02 -0.11488683997E+04  0.11505644356E+04  0.00000000000E+00 0.  1.
<scales pt_clust_3="14000.00000" pt_clust_4="53.14234" pt_clust_5="30.37436" pt_clust_6="60.16795"></scales>
<clustering>
<clus scale="   30.374">  2  5  1 -1</clus>
<clus scale="   53.142">  1  4  2 -1</clus>
<clus scale="   60.168">  2  6  1 -1</clus>
<clus scale="   53.142">  1  3  2 -1</clus>
</clustering>
</event>
<event>
 6    0  0.4582113E+002  0.6978432E+02  0.7546771E-02  0.1360828E+00
         21   -1    0    0  504  501  0.00000000000E+00  0.00000000000E+00  0.12623996507E+03  0.12623996507E+03  0.00000000000E+00 0.  1.
         21   -1    0    0  503  502 -0.00000000000E+00 -0.00000000000E+00 -0.42535313407E+03  0.42535313407E+03  0.00000000000E+00 0.  1.
         21    1    1    2  503  506 -0.43289447098E+02  0.56316444399E+01 -0.69381135967E+02  0.81972151840E+02  0.00000000000E+00 0. -1.
         21    1    1    2  504  505 -0.46865961496E+02  0.33302600712E+02  0.86943367686E+02  0.10423353945E+03  0.00000000000E+00 0.  1.
         21    1    1    2  505  502  0.10986637276E+03  0.21404462445E+01 -0.29526069113E+03  0.31504615074E+03  0.00000000000E+00 0.  1.
         21    1    1    2  506  501 -0.19710964162E+02 -0.41074691396E+02 -0.21414709589E+02  0.50341257118E+02  0.00000000000E+00 0.  1.
<scales pt_clust_3="43.65423" pt_clust_4="69.78432" pt_clust_5="14000.00000" pt_clust_6="47.15235"></scales>
<clustering>
<clus scale="   43.654">  2  3  1 -1</clus>
<clus scale="   47.152">  1  6  2 -1</clus>
<clus scale="   69.784">  1  4  2 -1</clus>
<clus scale="   47.152">  1  3  2 -1</clus>
</clustering>
</event>
<event>
 6    0  0.4582113E+002  0.8548411E+02  0.7546771E-02  0.1314171E+00
         21   -1    0    0  505  501  0.00000000000E+00  0.00000000000E+00  0.10169601364E+03  0.10169601364E+03  0.00000000000E+00 0.  1.
         21   -1    0    0  506  502 -0.00000000000E+00 -0.00000000000E+00 -0.14107947837E+04  0.14107947837E+04  0.00000000000E+00 0. -1.
         21    1    1    2  503  502  0.31444497365E+02  0.51022920030E+01 -0.81105805718E+03  0.81168341237E+03  0.00000000000E+00 0. -1.
         21    1    1    2  504  501 -0.26332808525E+02  0.48396938498E+02 -0.23773532919E+02  0.60007177306E+02  0.00000000000E+00 0.  1.
         21    1    1    2  505  503 -0.48848245478E+02 -0.95819496733E+02  0.46006425094E+02  0.11697913571E+03  0.00000000000E+00 0.  1.
         21    1    1    2  506  504  0.43736556638E+02  0.42320266232E+02 -0.52027360503E+03  0.52382107194E+03  0.00000000000E+00 0. -1.
<scales pt_clust_3="31.85577" pt_clust_4="54.40054" pt_clust_5="85.48411" pt_clust_6="14000.00000"></scales>
<clustering>
<clus scale="   31.856">  2  3  1 -1</clus>
<clus scale="   54.401">  1  4  2 -1</clus>
<clus scale="   85.484">  1  5  2 -1</clus>
<clus scale="   54.401">  1  3  2 -1</clus>
</clustering>
</event>
<event>
 6    0  0.4582113E+002  0.1270631E+03  0.7546771E-02  0.1231880E+00
         21   -1    0    0  503  501  0.00000000000E+00  0.00000000000E+00  0.36397123129E+03  0.36397123129E+03  0.00000000000E+00 0.  1.
         21   -1    0    0  504  502 -0.00000000000E+00 -0.00000000000E+00 -0.57426908487E+03  0.57426908487E+03  0.00000000000E+00 0.  1.
         21    1    1    2  503  506 -0.92127736880E+01  0.60895397219E+02  0.15378725121E+03  0.16566123034E+03  0.00000000000E+00 0.  1.
         21    1    1    2  504  501 -0.15284324346E+02 -0.27353196534E+02 -0.20172963499E+03  0.20414860657E+03  0.00000000000E+00 0.  1.
         21    1    1    2  505  502  0.82054330993E+02 -0.64855570506E+02 -0.35230229482E+03  0.36749974857E+03  0.00000000000E+00 0.  1.
         21    1    1    2  506  505 -0.57557232958E+02  0.31313369821E+02  0.18994682502E+03  0.20093073068E+03  0.00000000000E+00 0.  1.
<scales pt_clust_3="55.30855" pt_clust_4="31.33381" pt_clust_5="113.44242" pt_clust_6="55.30855"></scales>
<clustering>
<clus scale="   31.334">  2  4  1 -1</clus>
<clus scale="   55.309">  3  6 -1 -1</clus>
<clus scale="  113.442">  2  5  1 -1</clus>
<clus scale="  127.063">  1  3  2 -1</clus>
</clustering>
</event>
<event>
 6    0  0.4582113E+002  0.7517857E+02  0.7546771E-02  0.1343319E+00
         21   -1    0    0  505  501  0.00000000000E+00  0.00000000000E+00  0.13503139776E+03  0.13503139776E+03  0.00000000000E+00 0.  1.
         21   -1    0    0  503  502 -0.00000000000E+00 -0.00000000000E+00 -0.16858094265E+04  0.16858094265E+04  0.00000000000E+00 0.  1.
         21    1    1    2  503  506 -0.71455335177E+02 -0.44120676337E+01 -0.14900540518E+04  0.14917729078E+04  0.00000000000E+00 0.  1.
         21    1    1    2  504  502  0.73376756287E+02  0.45899851439E+01 -0.10183566351E+03  0.12560142789E+03  0.00000000000E+00 0.  1.
         21    1    1    2  505  504 -0.91129916114E+01  0.74653992260E+02 -0.46188230220E+02  0.88258811386E+02  0.00000000000E+00 0.  1.
         21    1    1    2  506  501  0.71915705013E+01 -0.74831909770E+02  0.87299916777E+02  0.11520767715E+03  0.00000000000E+00 0.  1.
<scales pt_clust_3="71.59142" pt_clust_4="31.74780" pt_clust_5="75.17857" pt_clust_6="14000.00000"></scales>
<clustering>
<clus scale="   71.591">  2  3  1 -1</clus>
<clus scale="   31.748">  2  4  1 -1</clus>
<clus scale="   75.179">  2  5  1 -1</clus>
<clus scale="   75.179">  1  3  2 -1</clus>
</clustering>
</event>
<event>
 6    0  0.4582113E+002  0.9335440E+02  0.7546771E-02  0.1294926E+00
         21   -1    0    0  505  501  0.00000000000E+00  0.00000000000E+00  0.15124458216E+03  0.15124458216E+03  0.00000000000E+00 0. -1.
         21   -1    0    0  503  502 -0.00000000000E+00 -0.00000000000E+00 -0.80716045946E+03  0.80716045946E+03  0.00000000000E+00 0. -1.
         21    1    1    2  503  506 -0.12482334235E+03  0.43932664008E+02 -0.62965233551E+03  0.64340734327E+03  0.00000000000E+00 0. -1.
         21    1    1    2  504  502  0.40507204072E+02 -0.31347066081E+01 -0.14750217495E+03  0.15299526654E+03  0.00000000000E+00 0. -1.
         21    1    1    2  505  504  0.31213769864E+02  0.14579817405E+01  0.12148184188E+02  0.33526161709E+02  0.00000000000E+00 0. -1.
         21    1    1    2  506  501  0.53102368412E+02 -0.42255939140E+02  0.10909044897E+03  0.12847627010E+03  0.00000000000E+00 0. -1.
<scales pt_clust_3="14000.00000" pt_clust_4="41.29164" pt_clust_5="31.24780" pt_clust_6="93.35440"></scales>
<clustering>
<clus scale="   31.248">  1  5  2 -1</clus>
<clus scale="   41.292">  2  4  1 -1</clus>
<clus scale="   93.354">  1  6  2 -1</clus>
<clus scale="   31.248">  1  3  2 -1</clus>
</clustering>
</event>
<event>
 6    0  0.4582113E+002  0.1069453E+03  0.7546771E-02  0.1266334E+00
         21   -1    0    0  505  501  0.00000000000E+00  0.00000000000E+00  0.12176871551E+03  0.12176871551E+03  0.00000000000E+00 0.  1.
         21   -1    0    0  503  502 -0.00000000000E+00 -0.00000000000E+00 -0.10322330253E+04  0.10322330253E+04  0.00000000000E+00 0.  1.
         21    1    1    2  503  506 -0.33729487135E+02  0.88180553172E+02 -0.86672017415E+03  0.87184709011E+03  0.00000000000E+00 0.  1.
         21    1    1    2  504  502 -0.56281164965E+02 -0.76566467740E+01  0.11157728627E+02  0.57885133478E+02  0.00000000000E+00 0.  1.
         21    1    1    2  505  504 -0.36308693034E+02 -0.23628306021E+02  0.37866807246E+02  0.57537058721E+02  0.00000000000E+00 0.  1.
         21    1    1    2  506  501  0.12631934513E+03 -0.56895600377E+02 -0.92768671492E+02  0.16673245847E+03  0.00000000000E+00 0.  1.
<scales pt_clust_3="94.41127" pt_clust_4="32.29200" pt_clust_5="32.29200" pt_clust_6="100.34966"></scales>
<clustering>
<clus scale="   32.292">  4  5 -1 -1</clus>
<clus scale="   94.411">  2  3  1 -1</clus>
<clus scale="  100.350">  2  6  1 -1</clus>
<clus scale="  106.945">  1  3  2 -1</clus>
</clustering>
</event>
<event>
 6    0  0.4582113E+002  0.3499292E+03  0.7546771E-02  0.1062644E+00
         21   -1    0    0  503  501  0.00000000000E+00  0.00000000000E+00  0.44439896236E+03  0.44439896236E+03  0.00000000000E+00 0. -1.
         21   -1    0    0  504  502 -0.00000000000E+00 -0.00000000000E+00 -0.50885751894E+03  0.50885751894E+03  0.00000000000E+00 0. -1.
         21    1    1    2  503  505 -0.17084357597E+03 -0.34517165338E+03 -0.22671574750E+03  0.44691277438E+03  0.00000000000E+00 0. -1.
         21    1    1    2  504  506  0.50078880328E+02  0.29997844800E+03  0.62257142490E+02  0.31043665265E+03  0.00000000000E+00 0. -1.
         21    1    1    2  505  502  0.34426824436E+02 -0.80240802131E+01 -0.18526948648E+02  0.39910398773E+02  0.00000000000E+00 0.  1.
         21    1    1    2  506  501  0.86337871203E+02  0.53217285589E+02  0.11852699707E+03  0.15599665549E+03  0.00000000000E+00 0. -1.
<scales pt_clust_3="349.92920" pt_clust_4="14000.00000" pt_clust_5="35.34957" pt_clust_6="102.40633"></scales>
<clustering>
<clus scale="   35.350">  2  5  1 -1</clus>
<clus scale="  102.406">  1  6  2 -1</clus>
<clus scale="  349.929">  2  3  1 -1</clus>
<clus scale="  102.406">  1  3  2 -1</clus>
</clustering>
</event>
<event>
 6    0  0.4582113E+002  0.9157153E+02  0.7546771E-02  0.1299090E+00
         21   -1    0    0  504  501  0.00000000000E+00  0.00000000000E+00  0.88245681961E+02  0.88245681961E+02  0.00000000000E+00 0.  1.
         21   -1    0    0  501  502 -0.00000000000E+00 -0.00000000000E+00 -0.28802216643E+04  0.28802216643E+04  0.00000000000E+00 0. -1.
         21    1    1    2  503  505 -0.64835047854E+02  0.31644747986E+02 -0.22002799142E+03  0.23155407686E+03  0.00000000000E+00 0.  1.
         21    1    1    2  504  506  0.72729741825E+02  0.60394215811E+02  0.47531782216E+02  0.10581279209E+03  0.00000000000E+00 0.  1.
         21    1    1    2  505  502  0.22944200162E+02 -0.24939058763E+02 -0.23855641125E+04  0.23858047967E+04  0.00000000000E+00 0. -1.
         21    1    1    2  506  503 -0.30838894133E+02 -0.67099905034E+02 -0.23391566066E+03  0.24529568066E+03  0.00000000000E+00 0.  1.
<scales pt_clust_3="58.01159" pt_clust_4="14000.00000" pt_clust_5="33.88795" pt_clust_6="91.57153"></scales>
<clustering>
<clus scale="   33.888">  2  5  1 -1</clus>
<clus scale="   58.012">  2  3  1 -1</clus>
<clus scale="   91.572">  2  6  1 -1</clus>
<clus scale="   91.572">  1  3  2 -1</clus>
</clustering>
</event>
<event>
 6    0  0.4582113E+002  0.1112646E+03  0.7546771E-02  0.1258246E+00
         21   -1    0    0  503  501  0.00000000000E+00  0.00000000000E+00  0.17416458665E+03  0.17416458665E+03  0.00000000000E+00 0. -1.
         21   -1    0    0  506  502 -0.00000000000E+00 -0.00000000000E+00 -0.32556407600E+03  0.32556407600E+03  0.00000000000E+00 0. -1.
         21    1    1    2  503  505 -0.25069314540E+02  0.19973407069E+02  0.84359089214E+02  0.90243356844E+02  0.00000000000E+00 0. -1.
         21    1    1    2  504  501  0.60122766695E+01  0.30594362963E+02  0.39931803120E+02  0.50662722156E+02  0.00000000000E+00 0. -1.
         21    1    1    2  505  502  0.35101333827E+02 -0.13573520240E+03 -0.19676532349E+03  0.24160451431E+03  0.00000000000E+00 0. -1.
         21    1    1    2  506  504 -0.16044295956E+02  0.85167432364E+02 -0.78925058194E+02  0.11721806934E+03  0.00000000000E+00 0.  1.
<scales pt_clust_3="45.79628" pt_clust_4="31.17952" pt_clust_5="111.26458" pt_clust_6="14000.00000"></scales>
<clustering>
<clus scale="   31.180">  1  4  2 -1</clus>
<clus scale="   45.796">  1  3  2 -1</clus>
<clus scale="  111.265">  1  5  2 -1</clus>
<clus scale="   31.180">  1  3  2 -1</clus>
</clustering>
</event>
<event>
 6    0  0.4582113E+002  0.1519424E+03  0.7546771E-02  0.1198106E+00
         21   -1    0    0  503  501  0.00000000000E+00  0.00000000000E+00  0.27394280690E+03  0.27394280690E+03  0.00000000000E+00 0.  1.
         21   -1    0    0  504  502 -0.00000000000E+00 -0.00000000000E+00 -0.56610113303E+03  0.56610113303E+03  0.00000000000E+00 0.  1.
         21    1    1    2  503  505  0.21062609956E+02  0.26609644968E+02  0.20629207700E+03  0.20906488891E+03  0.00000000000E+00 0.  1.
         21    1    1    2  504  506  0.13075032181E+02  0.12891181057E+03 -0.17454883145E+03  0.21738561574E+03  0.00000000000E+00 0.  1.
         21    1    1    2  505  502 -0.65196901023E+02 -0.16560497383E+03 -0.33480161389E+03  0.37916719784E+03  0.00000000000E+00 0.  1.
         21    1    1    2  506  501  0.31059258886E+02  0.10083518286E+02  0.10900042210E+02  0.34426237433E+02  0.00000000000E+00 0.  1.
<scales pt_clust_3="58.35222" pt_clust_4="14000.00000" pt_clust_5="151.94235" pt_clust_6="32.65509"></scales>
<clustering>
<clus scale="   32.655">  1  6  2 -1</clus>
<clus scale="   58.352">  1  3  2 -1</clus>
<clus scale="  151.942">  1  5  2 -1</clus>
<clus scale="   32.655">  1  3  2 -1</clus>
</clustering>
</event>
<event>
 6    0  0.4582113E+002  0.1975613E+03  0.7546771E-02  0.1151813E+00
         21   -1    0    0  505  501  0.00000000000E+00  0.00000000000E+00  0.21704642806E+04  0.21704642806E+04  0.00000000000E+00 0.  1.
         21   -1    0    0  503  502 -0.00000000000E+00 -0.00000000000E+00 -0.55470999171E+02  0.55470999171E+02  0.00000000000E+00 0. -1.
         21    1    1    2  503  504 -0.75205465327E+02 -0.89499057111E+02  0.13164155142E+03  0.17605522230E+03  0.00000000000E+00 0. -1.
         21    1    1    2  504  506 -0.36552519094E+02 -0.57365403432E+02  0.22007175685E+02  0.71492600628E+02  0.00000000000E+00 0. -1.
         21    1    1    2  505  502 -0.22158460911E+02 -0.28313099611E+02  0.19003453267E+03  0.19340566849E+03  0.00000000000E+00 0.  1.
         21    1    1    2  506  501  0.13391644533E+03  0.17517756015E+03  0.17713100216E+04  0.17849817883E+04  0.00000000000E+00 0.  1.
<scales pt_clust_3="45.59306" pt_clust_4="45.59306" pt_clust_5="35.95315" pt_clust_6="188.19533"></scales>
<clustering>
<clus scale="   35.953">  1  5  2 -1</clus>
<clus scale="   45.593">  3  4 -1 -1</clus>
<clus scale="  188.195">  1  6  2 -1</clus>
<clus scale="   35.953">  1  3  2 -1</clus>
</clustering>
</event>
<event>
 6    0  0.4582113E+002  0.1016282E+03  0.7546771E-02  0.1276909E+00
         21   -1    0    0  505  501  0.00000000000E+00  0.00000000000E+00  0.22811508468E+03  0.22811508468E+03  0.00000000000E+00 0.  1.
         21   -1    0    0  504  502 -0.00000000000E+00 -0.00000000000E+00 -0.18146093711E+03  0.18146093711E+03  0.00000000000E+00 0.  1.
         21    1    1    2  503  506  0.57940901416E+02 -0.21754783336E+01  0.57125779931E+02  0.81395549605E+02  0.00000000000E+00 0.  1.
         21    1    1    2  504  501 -0.77943968764E+02  0.86286909054E+02 -0.51815112666E+02  0.12730082027E+03  0.00000000000E+00 0.  1.
         21    1    1    2  505  503  0.35515826014E+02  0.16451865544E+02  0.82346916178E+02  0.91175941900E+02  0.00000000000E+00 0.  1.
         21    1    1    2  506  502 -0.15512758665E+02 -0.10056329626E+03 -0.41003435874E+02  0.10970371001E+03  0.00000000000E+00 0.  1.
<scales pt_clust_3="101.62818" pt_clust_4="14000.00000" pt_clust_5="30.63570" pt_clust_6="98.14831"></scales>
<clustering>
<clus scale="   30.636">  3  5 -1 -1</clus>
<clus scale="  101.628">  1  3  2 -1</clus>
<clus scale="   98.148">  2  6  1 -1</clus>
<clus scale="  101.628">  1  3  2 -1</clus>
</clustering>
</event>
<event>
 6    0  0.4582113E+002  0.8557539E+02  0.7546771E-02  0.1313935E+00
         21   -1    0    0  504  501  0.00000000000E+00  0.00000000000E+00  0.34211415539E+02  0.34211415539E+02  0.00000000000E+00 0. -1.
         21   -1    0    0  505  502 -0.00000000000E+00 -0.00000000000E+00 -0.10743626113E+04  0.10743626113E+04  0.00000000000E+00 0. -1.
         21    1    1    2  503  501 -0.16903352234E+02 -0.52245790425E+02 -0.12590677138E+03  0.13736033275E+03  0.00000000000E+00 0. -1.
         21    1    1    2  504  506 -0.48317674414E+02  0.63668675524E+02 -0.63732031416E+02  0.10222558257E+03  0.00000000000E+00 0. -1.
         21    1    1    2  505  503  0.18663793845E+02  0.61342002595E+02 -0.14945153157E+03  0.16262514803E+03  0.00000000000E+00 0.  1.
         21    1    1    2  506  502  0.46557232803E+02 -0.72764887693E+02 -0.70106086136E+03  0.70636296345E+03  0.00000000000E+00 0. -1.
<scales pt_clust_3="54.91217" pt_clust_4="85.57539" pt_clust_5="51.42298" pt_clust_6="14000.00000"></scales>
<clustering>
<clus scale="   54.912">  1  3  2 -1</clus>
<clus scale="   51.423">  1  5  2 -1</clus>
<clus scale="   85.575">  1  4  2 -1</clus>
<clus scale="   54.912">  1  3  2 -1</clus>
</clustering>
</event>
<event>
 6    0  0.4582113E+002  0.2005529E+03  0.7546771E-02  0.1149273E+00
         21   -1    0    0  504  501  0.00000000000E+00  0.00000000000E+00  0.31314107154E+03  0.31314107154E+03  0.00000000000E+00 0.  1.
         21   -1    0    0  505  502 -0.00000000000E+00 -0.00000000000E+00 -0.26433420761E+03  0.26433420761E+03  0.00000000000E+00 0. -1.
         21    1    1    2  503  502  0.52165198845E+02  0.37388320856E+01 -0.12220872074E+03  0.13292914752E+03  0.00000000000E+00 0. -1.
         21    1    1    2  504  503 -0.20150725188E+03 -0.10090184223E+03  0.70729192171E+02  0.23619689446E+03  0.00000000000E+00 0.  1.
         21    1    1    2  505  506  0.63238404416E+02  0.21478916379E+02  0.25581661180E+02  0.71518256624E+02  0.00000000000E+00 0. -1.
         21    1    1    2  506  501  0.86103648620E+02  0.75684093765E+02  0.74704731326E+02  0.13683098055E+03  0.00000000000E+00 0. -1.
<scales pt_clust_3="52.29901" pt_clust_4="196.50227" pt_clust_5="30.61042" pt_clust_6="30.61042"></scales>
<clustering>
<clus scale="   30.610">  5  6 -1 -1</clus>
<clus scale="   52.299">  2  3  1 -1</clus>
<clus scale="  196.502">  2  4  1 -1</clus>
<clus scale="  200.553">  1  3  2 -1</clus>
</clustering>
</event>
<event>
 6    0  0.4582113E+002  0.1343476E+03  0.7546771E-02  0.1221144E+00
         21   -1    0    0  506  501  0.00000000000E+00  0.00000000000E+00  0.11067932695E+04  0.11067932695E+04  0.00000000000E+00 0.  1.
         21   -1    0    0  503  502 -0.00000000000E+00 -0.00000000000E+00 -0.57044361813E+03  0.57044361813E+03  0.00000000000E+00 0.  1.
         21    1    1    2  503  501 -0.75437007036E+02  0.47213129325E+02  0.26412688995E+03  0.27871640714E+03  0.00000000000E+00 0.  1.
         21    1    1    2  504  502 -0.94541276559E+02 -0.90788944812E+02 -0.28917357136E+03  0.31749336977E+03  0.00000000000E+00 0.  1.
         21    1    1    2  505  504  0.21206837503E+03  0.12906697887E+02 -0.21536291933E+03  0.30252399171E+03  0.00000000000E+00 0.  1.
         21    1    1    2  506  505 -0.42090091434E+02  0.30669117601E+02  0.77675925216E+03  0.77850311906E+03  0.00000000000E+00 0.  1.
<scales pt_clust_3="14000.00000" pt_clust_4="131.48575" pt_clust_5="134.34757" pt_clust_6="52.07850"></scales>
<clustering>
<clus scale="   52.079">  1  6  2 -1</clus>
<clus scale="  131.486">  2  4  1 -1</clus>
<clus scale="  134.348">  2  5  1 -1</clus>
<clus scale="   52.079">  1  3  2 -1</clus>
</clustering>
</event>
<event>
 6    0  0.4582113E+002  0.9382278E+02  0.7546771E-02  0.1293850E+00
         21   -1    0    0  503  501  0.00000000000E+00  0.00000000000E+00  0.22359402120E+04  0.22359402120E+04  0.00000000000E+00 0.  1.
         21   -1    0    0  504  502 -0.00000000000E+00 -0.00000000000E+00 -0.15859903778E+03  0.15859903778E+03  0.00000000000E+00 0. -1.
         21    1    1    2  503  506 -0.23680252526E+02  0.22538510533E+02  0.33604479664E+03  0.33763122510E+03  0.00000000000E+00 0.  1.
         21    1    1    2  504  501  0.46692932450E+02 -0.75376026543E+02 -0.13100488755E+03  0.15818993609E+03  0.00000000000E+00 0. -1.
         21    1    1    2  505  502 -0.11456397003E+03  0.92773760555E+01  0.27303829955E+03  0.29624463870E+03  0.00000000000E+00 0.  1.
         21    1    1    2  506  505  0.91551290111E+02  0.43560139955E+02  0.15992629656E+04  0.16024734499E+04  0.00000000000E+00 0.  1.
<scales pt_clust_3="32.69157" pt_clust_4="88.44028" pt_clust_5="93.82278" pt_clust_6="14000.00000"></scales>
<clustering>
<clus scale="   32.692">  1  3  2 -1</clus>
<clus scale="   88.440">  2  4  1 -1</clus>
<clus scale="   93.823">  2  5  1 -1</clus>
<clus scale="   32.692">  1  3  2 -1</clus>
</clustering>
</event>
<event>
 6    0  0.4582113E+002  0.9427110E+02  0.7546771E-02  0.1292826E+00
         21   -1    0    0  505  501  0.00000000000E+00  0.00000000000E+00  0.19912400847E+02  0.19912400847E+02  0.00000000000E+00 0. -1.
         21   -1    0    0  506  502 -0.00000000000E+00 -0.00000000000E+00 -0.39683730813E+04  0.39683730813E+04  0.00000000000E+00 0. -1.
         21    1    1    2  503  501  0.34670358470E+02 -0.14469657319E+02 -0.22002621327E+03  0.22321052678E+03  0.00000000000E+00 0.  1.
         21    1    1    2  504  502 -0.54278441528E+02  0.76553443461E+02 -0.18971021999E+04  0.18994218425E+04  0.00000000000E+00 0. -1.
         21    1    1    2  505  504 -0.16814168428E+02 -0.81645125766E+02 -0.85779755498E+02  0.11961107505E+03  0.00000000000E+00 0. -1.
         21    1    1    2  506  503  0.36422251485E+02  0.19561339624E+02 -0.17455525118E+04  0.17460420379E+04  0.00000000000E+00 0. -1.
<scales pt_clust_3="37.56867" pt_clust_4="94.27110" pt_clust_5="14000.00000" pt_clust_6="41.66122"></scales>
<clustering>
<clus scale="   37.569">  1  3  2 -1</clus>
<clus scale="   41.661">  2  6  1 -1</clus>
<clus scale="   94.271">  2  4  1 -1</clus>
<clus scale="   37.569">  1  3  2 -1</clus>
</clustering>
</event>
<event>
 6    0  0.4582113E+002  0.1232202E+03  0.7546771E-02  0.1237877E+00
         21   -1    0    0  505  501  0.00000000000E+00  0.00000000000E+00  0.27954224204E+03  0.27954224204E+03  0.00000000000E+00 0.  1.
         21   -1    0    0  506  502 -0.00000000000E+00 -0.00000000000E+00 -0.39443754026E+03  0.39443754026E+03  0.00000000000E+00 0. -1.
         21    1    1    2  503  501  0.46782887808E+02 -0.96980557002E+01  0.31518284542E+02  0.57237165692E+02  0.00000000000E+00 0.  1.
         21    1    1    2  504  502 -0.12483040963E+03 -0.47292870099E+02 -0.27387152116E+03  0.30467171978E+03  0.00000000000E+00 0. -1.
         21    1    1    2  505  504  0.30988782431E+02  0.11049662066E+03  0.18687082575E+03  0.21929549319E+03  0.00000000000E+00 0.  1.
         21    1    1    2  506  503  0.47058739393E+02 -0.53505694863E+02 -0.59412887360E+02  0.92775403639E+02  0.00000000000E+00 0. -1.
<scales pt_clust_3="47.77751" pt_clust_4="14000.00000" pt_clust_5="123.22021" pt_clust_6="73.99200"></scales>
<clustering>
<clus scale="   47.778">  1  3  2 -1</clus>
<clus scale="   73.992">  2  6  1 -1</clus>
<clus scale="  123.220">  1  5  2 -1</clus>
<clus scale="   47.778">  1  3  2 -1</clus>
</clustering>
</event>
<event>
 6    0  0.4582113E+002  0.1671945E+03  0.7546771E-02  0.1180806E+00
         21   -1    0    0  504  501  0.00000000000E+00  0.00000000000E+00  0.81334152769E+02  0.81334152769E+02  0.00000000000E+00 0. -1.
         21   -1    0    0  506  502 -0.00000000000E+00 -0.00000000000E+00 -0.87641765439E+03  0.87641765439E+03  0.00000000000E+00 0. -1.
         21    1    1    2  503  505 -0.12665035458E+02  0.64371728100E+02 -0.15229168477E+02  0.67350204708E+02  0.00000000000E+00 0.  1.
         21    1    1    2  504  502 -0.11569392806E+03 -0.16517365502E+03 -0.56260030126E+03  0.59765083475E+03  0.00000000000E+00 0. -1.
         21    1    1    2  505  501  0.37600291966E+02  0.50935239214E+01  0.74968934051E+00  0.37951126149E+02  0.00000000000E+00 0. -1.
         21    1    1    2  506  503  0.90758671553E+02  0.95708402998E+02 -0.21800372123E+03  0.25479964155E+03  0.00000000000E+00 0. -1.
<scales pt_clust_3="66.58750" pt_clust_4="14000.00000" pt_clust_5="37.94372" pt_clust_6="167.19447"></scales>
<clustering>
<clus scale="   37.944">  1  5  2 -1</clus>
<clus scale="   66.588">  1  3  2 -1</clus>
<clus scale="  167.194">  1  6  2 -1</clus>
<clus scale="   37.944">  1  3  2 -1</clus>
</clustering>
</event>
<event>
 6    0  0.4582113E+002  0.8220665E+02  0.7546771E-02  0.1322903E+00
         21   -1    0    0  503  501  0.00000000000E+00  0.00000000000E+00  0.13829196719E+04  0.13829196719E+04  0.00000000000E+00 0.  1.
         21   -1    0    0  505  502 -0.00000000000E+00 -0.00000000000E+00 -0.17406559509E+03  0.17406559509E+03  0.00000000000E+00 0.  1.
         21    1    1    2  503  502 -0.42923708788E+02  0.85874507593E+02  0.10644773207E+04  0.10687978490E+04  0.00000000000E+00 0.  1.
         21    1    1    2  504  501 -0.18945520560E+02 -0.38653789621E+02  0.22385043881E+03  0.22795189658E+03  0.00000000000E+00 0. -1.
         21    1    1    2  505  506 -0.39659980821E+02  0.38149378196E+02 -0.11099787105E+03  0.12389034068E+03  0.00000000000E+00 0.  1.
         21    1    1    2  506  504  0.10152921017E+03 -0.85370096168E+02  0.31524188300E+02  0.13634518065E+03  0.00000000000E+00 0.  1.
<scales pt_clust_3="14000.00000" pt_clust_4="43.04705" pt_clust_5="54.95714" pt_clust_6="82.20665"></scales>
<clustering>
<clus scale="   43.047">  1  4  2 -1</clus>
<clus scale="   54.957">  2  5  1 -1</clus>
<clus scale="   82.207">  2  6  1 -1</clus>
<clus scale="   43.047">  1  3  2 -1</clus>
</clustering>
</event>
<event>
 6    0  0.4582113E+002  0.2639422E+03  0.7546771E-02  0.1104798E+00
         21   -1    0    0  503  501  0.00000000000E+00  0.00000000000E+00  0.15694196454E+03  0.15694196454E+03  0.00000000000E+00 0. -1.
         21   -1    0    0  506  502 -0.00000000000E+00 -0.00000000000E+00 -0.13368296387E+04  0.13368296387E+04  0.00000000000E+00 0.  1.
         21    1    1    2  503  505  0.79999099775E+02  0.14514278785E+03 -0.58078300390E+02  0.17561142846E+03  0.00000000000E+00 0. -1.
         21    1    1    2  504  502  0.19952662740E+03 -0.82673939066E+02 -0.47566137426E+03  0.52239793089E+03  0.00000000000E+00 0. -1.
         21    1    1    2  505  504  0.77651408315E+02  0.50218856607E+01 -0.36445175004E+02  0.85925615098E+02  0.00000000000E+00 0.  1.
         21    1    1    2  506  501 -0.35717713549E+03 -0.67490734447E+02 -0.60970282448E+03  0.70983662876E+03  0.00000000000E+00 0.  1.
<scales pt_clust_3="75.26107" pt_clust_4="215.97652" pt_clust_5="75.26107" pt_clust_6="240.00341"></scales>
<clustering>
<clus scale="   75.261">  3  5 -1 -1</clus>
<clus scale="  215.977">  2  4  1 -1</clus>
<clus scale="  240.003">  2  6  1 -1</clus>
<clus scale="  263.942">  1  3  2 -1</clus>
</clustering>
</event>
<event>
 6    0  0.4582113E+002  0.1004092E+03  0.7546771E-02  0.1279438E+00
         21   -1    0    0  505  501  0.00000000000E+00  0.00000000000E+00  0.59487144712E+03  0.59487144712E+03  0.00000000000E+00 0. -1.
         21   -1    0    0  503  502 -0.00000000000E+00 -0.00000000000E+00 -0.87840568648E+02  0.87840568648E+02  0.00000000000E+00 0. -1.
         21    1    1    2  503  506  0.59937415573E+02 -0.80764242906E+02  0.15831431113E+03  0.18756006458E+03  0.00000000000E+00 0. -1.
         21    1    1    2  504  501  0.26442346730E+02  0.23369869229E+02  0.67098716284E+02  0.75812836744E+02  0.00000000000E+00 0. -1.
         21    1    1    2  505  502 -0.70774260761E+02 -0.41896254225E+02 -0.33329999452E+02  0.88742216378E+02  0.00000000000E+00 0. -1.
         21    1    1    2  506  504 -0.15605501542E+02  0.99290627902E+02  0.31494785052E+03  0.33059689807E+03  0.00000000000E+00 0. -1.
<scales pt_clust_3="100.40925" pt_clust_4="35.28950" pt_clust_5="80.41147" pt_clust_6="14000.00000"></scales>
<clustering>
<clus scale="   35.289">  1  4  2 -1</clus>
<clus scale="   80.411">  2  5  1 -1</clus>
<clus scale="  100.409">  2  3  1 -1</clus>
<clus scale="   35.289">  1  3  2 -1</clus>
</clustering>
</event>
<event>
 6    0  0.4582113E+002  0.2421396E+03  0.7546771E-02  0.1118376E+00
         21   -1    0    0  504  501  0.00000000000E+00  0.00000000000E+00  0.17834829040E+04  0.17834829040E+04  0.00000000000E+00 0. -1.
         21   -1    0    0  506  502 -0.00000000000E+00 -0.00000000000E+00 -0.28938408080E+03  0.28938408080E+03  0.00000000000E+00 0.  1.
         21    1    1    2  503  501  0.51851254737E+02 -0.79245117256E+02  0.63415413110E+03  0.64118624690E+03  0.00000000000E+00 0. -1.
         21    1    1    2  504  502 -0.14200585312E+03 -0.89446169196E+02  0.15830168475E+03  0.23070696326E+03  0.00000000000E+00 0.  1.
         21    1    1    2  505  503  0.15042840837E+03 -0.17913091129E+01  0.91157322355E+03  0.92390348886E+03  0.00000000000E+00 0. -1.
         21    1    1    2  506  505 -0.60273809987E+02  0.17048259556E+03 -0.20993021623E+03  0.27707028575E+03  0.00000000000E+00 0.  1.
<scales pt_clust_3="89.58461" pt_clust_4="167.82812" pt_clust_5="89.58461" pt_clust_6="214.20249"></scales>
<clustering>
<clus scale="   89.585">  3  5 -1 -1</clus>
<clus scale="  167.828">  2  4  1 -1</clus>
<clus scale="  214.202">  2  6  1 -1</clus>
<clus scale="  242.140">  1  3  2 -1</clus>
</clustering>
</event>
<event>
 6    0  0.4582113E+002  0.1017477E+03  0.7546771E-02  0.1276663E+00
         21   -1    0    0  505  501  0.00000000000E+00  0.00000000000E+00  0.92448628213E+02  0.92448628213E+02  0.00000000000E+00 0.  1.
         21   -1    0    0  504  502 -0.00000000000E+00 -0.00000000000E+00 -0.12931085685E+04  0.12931085685E+04  0.00000000000E+00 0.  1.
         21    1    1    2  503  501  0.69043821545E+02 -0.75903950260E+01 -0.11683888130E+03  0.13592640499E+03  0.00000000000E+00 0.  1.
         21    1    1    2  504  503  0.37178562950E+02 -0.86214436141E+02 -0.10984039011E+04  0.11024093180E+04  0.00000000000E+00 0.  1.
         21    1    1    2  505  506 -0.58167224952E+02  0.61946177712E+02  0.25119564171E+02  0.88610086874E+02  0.00000000000E+00 0.  1.
         21    1    1    2  506  502 -0.48055159544E+02  0.31858653455E+02 -0.10536722124E+02  0.58611386879E+02  0.00000000000E+00 0. -1.
<scales pt_clust_3="69.45980" pt_clust_4="94.72922" pt_clust_5="30.58825" pt_clust_6="30.58825"></scales>
<clustering>
<clus scale="   30.588">  5  6 -1 -1</clus>
<clus scale="   69.460">  1  3  2 -1</clus>
<clus scale="   94.729">  2  4  1 -1</clus>
<clus scale="   69.460">  1  3  2 -1</clus>
</clustering>
</event>
<event>
 6    0  0.4582113E+002  0.8340126E+02  0.7546771E-02  0.1319667E+00
         21   -1    0    0  504  501  0.00000000000E+00  0.00000000000E+00  0.10282310733E+04  0.10282310733E+04  0.00000000000E+00 0.  1.
         21   -1    0    0  506  502 -0.00000000000E+00 -0.00000000000E+00 -0.41168238817E+02  0.41168238817E+02  0.00000000000E+00 0.  1.
         21    1    1    2  503  505 -0.13167632537E+02  0.47056620736E+02  0.11680429415E+03  0.12661340858E+03  0.00000000000E+00 0. -1.
         21    1    1    2  504  503 -0.59129899653E+02  0.56972524886E+02  0.75917725304E+03  0.76360481609E+03  0.00000000000E+00 0.  1.
         21    1    1    2  505  502 -0.29119368957E+00 -0.35007594770E+02  0.52624604563E+02  0.63205739381E+02  0.00000000000E+00 0.  1.
         21    1    1    2  506  501  0.72588725880E+02 -0.69021550852E+02  0.58456682776E+02  0.11597534810E+03  0.00000000000E+00 0.  1.
<scales pt_clust_3="44.28628" pt_clust_4="14000.00000" pt_clust_5="35.00881" pt_clust_6="83.40126"></scales>
<clustering>
<clus scale="   35.009">  2  5  1 -1</clus>
<clus scale="   44.286">  2  3  1 -1</clus>
<clus scale="   83.401">  2  6  1 -1</clus>
<clus scale="   83.401">  1  3  2 -1</clus>
</clustering>
</event>
<event>
 6    0  0.4582113E+002  0.1077419E+03  0.7546771E-02  0.1264810E+00
         21   -1    0    0  503  501  0.00000000000E+00  0.00000000000E+00  0.36508712792E+03  0.36508712792E+03  0.00000000000E+00 0. -1.
         21   -1    0    0  504  502 -0.00000000000E+00 -0.00000000000E+00 -0.84364832832E+02  0.84364832832E+02  0.00000000000E+00 0. -1.
         21    1    1    2  503  505  0.63195003701E+02  0.37068846786E+02  0.13917974179E+03  0.15728543614E+03  0.00000000000E+00 0. -1.
         21    1    1    2  504  506 -0.29719284923E+02  0.61344461895E+01  0.13711397925E+02  0.33299696086E+02  0.00000000000E+00 0. -1.
         21    1    1    2  505  502  0.54296990237E+01  0.88040718434E+02  0.50987450102E+02  0.10188409985E+03  0.00000000000E+00 0. -1.
         21    1    1    2  506  501 -0.38905417802E+02 -0.13124401141E+03  0.76843705269E+02  0.15698272868E+03  0.00000000000E+00 0. -1.
<scales pt_clust_3="70.57257" pt_clust_4="30.34580" pt_clust_5="107.74192" pt_clust_6="14000.00000"></scales>
<clustering>
<clus scale="   30.346">  2  4  1 -1</clus>
<clus scale="   70.573">  1  3  2 -1</clus>
<clus scale="  107.742">  2  5  1 -1</clus>
<clus scale="   70.573">  1  3  2 -1</clus>
</clustering>
</event>
<event>
 6    0  0.4582113E+002  0.1178016E+03  0.7546771E-02  0.1246768E+00
         21   -1    0    0  503  501  0.00000000000E+00  0.00000000000E+00  0.34486535423E+03  0.34486535423E+03  0.00000000000E+00 0.  1.
         21   -1    0    0  505  502 -0.00000000000E+00 -0.00000000000E+00 -0.35689081567E+03  0.35689081567E+03  0.00000000000E+00 0. -1.
         21    1    1    2  503  504  0.35416571081E+02  0.71841778627E+01  0.19474366642E+02  0.41051149494E+02  0.00000000000E+00 0. -1.
         21    1    1    2  504  502  0.10116746569E+02  0.66780221166E+02 -0.28416364669E+03  0.29208033929E+03  0.00000000000E+00 0. -1.
         21    1    1    2  505  506  0.42609299199E+02  0.41292438334E+02 -0.17586494817E+02  0.61886207201E+02  0.00000000000E+00 0.  1.
         21    1    1    2  506  501 -0.88142616849E+02 -0.11525683736E+03  0.27025031343E+03  0.30673847390E+03  0.00000000000E+00 0.  1.
<scales pt_clust_3="36.13787" pt_clust_4="14000.00000" pt_clust_5="61.49275" pt_clust_6="117.80158"></scales>
<clustering>
<clus scale="   36.138">  1  3  2 -1</clus>
<clus scale="   61.493">  2  5  1 -1</clus>
<clus scale="  117.802">  1  6  2 -1</clus>
<clus scale="   36.138">  1  3  2 -1</clus>
</clustering>
</event>
<event>
 6    0  0.4582113E+002  0.1072973E+03  0.7546771E-02  0.1265658E+00
         21   -1    0    0  504  501  0.00000000000E+00  0.00000000000E+00  0.57540406355E+03  0.57540406355E+03  0.00000000000E+00 0. -1.
         21   -1    0    0  505  502 -0.00000000000E+00 -0.00000000000E+00 -0.35913429114E+03  0.35913429114E+03  0.00000000000E+00 0. -1.
         21    1    1    2  503  502 -0.24546848932E+02  0.69471018890E+02  0.41690991705E+02  0.84657598876E+02  0.00000000000E+00 0.  1.
         21    1    1    2  504  503  0.11577168723E+01  0.56330615170E+02  0.11864237034E+03  0.13134112285E+03  0.00000000000E+00 0.  1.
         21    1    1    2  505  506 -0.42007318073E+02 -0.10739819965E+03 -0.31811294451E+03  0.33837085206E+03  0.00000000000E+00 0. -1.
         21    1    1    2  506  501  0.65396450133E+02 -0.18403434406E+02  0.37404935488E+03  0.38016878090E+03  0.00000000000E+00 0. -1.
<scales pt_clust_3="14000.00000" pt_clust_4="56.34251" pt_clust_5="107.29728" pt_clust_6="72.32928"></scales>
<clustering>
<clus scale="   56.343">  1  4  2 -1</clus>
<clus scale="   72.329">  1  6  2 -1</clus>
<clus scale="  107.297">  2  5  1 -1</clus>
<clus scale="   56.343">  1  3  2 -1</clus>
</clustering>
</event>
<event>
 6    0  0.4582113E+002  0.1169597E+03  0.7546771E-02  0.1248199E+00
         21   -1    0    0  503  501  0.00000000000E+00  0.00000000000E+00  0.82004740504E+03  0.82004740504E+03  0.00000000000E+00 0. -1.
         21   -1    0    0  505  502 -0.00000000000E+00 -0.00000000000E+00 -0.10149080749E+03  0.10149080749E+03  0.00000000000E+00 0. -1.
         21    1    1    2  503  506  0.37840083611E+02 -0.38038663822E+02  0.34564412141E+03  0.34978374825E+03  0.00000000000E+00 0. -1.
         21    1    1    2  504  502 -0.11160439321E+03  0.10897019037E+03  0.14658293118E+03  0.21404812236E+03  0.00000000000E+00 0. -1.
         21    1    1    2  505  501  0.65768013740E+02 -0.14711315047E+02 -0.44648977181E+02  0.80841731705E+02  0.00000000000E+00 0. -1.
         21    1    1    2  506  504  0.79962958589E+01 -0.56220211502E+02  0.27097852214E+03  0.27686461022E+03  0.00000000000E+00 0. -1.
<scales pt_clust_3="37.38199" pt_clust_4="110.45630" pt_clust_5="67.39328" pt_clust_6="37.38199"></scales>
<clustering>
<clus scale="   37.382">  3  6 -1 -1</clus>
<clus scale="   67.393">  2  5  1 -1</clus>
<clus scale="  110.456">  2  4  1 -1</clus>
<clus scale="  116.960">  1  3  2 -1</clus>
</clustering>
</event>
<event>
 6    0  0.4582113E+002  0.1164406E+03  0.7546771E-02  0.1249087E+00
         21   -1    0    0  506  501  0.00000000000E+00  0.00000000000E+00  0.59148729348E+03  0.59148729348E+03  0.00000000000E+00 0.  1.
         21   -1    0    0  505  502 -0.00000000000E+00 -0.00000000000E+00 -0.27218520002E+03  0.27218520002E+03  0.00000000000E+00 0.  1.
         21    1    1    2  503  504  0.28506932348E+02  0.11965255459E+03  0.21146178456E+02  0.12480600897E+03  0.00000000000E+00 0.  1.
         21    1    1    2  504  502  0.35489112975E+02 -0.16821176841E+02 -0.20813220821E+03  0.21180520585E+03  0.00000000000E+00 0.  1.
         21    1    1    2  505  501 -0.30925754883E+02 -0.16761396478E+02  0.47540517713E+02  0.59139221769E+02  0.00000000000E+00 0.  1.
         21    1    1    2  506  503 -0.33070290440E+02 -0.86069981274E+02  0.45874760551E+03  0.46792205691E+03  0.00000000000E+00 0.  1.
<scales pt_clust_3="14000.00000" pt_clust_4="39.20302" pt_clust_5="35.17594" pt_clust_6="116.44058"></scales>
<clustering>
<clus scale="   35.176">  1  5  2 -1</clus>
<clus scale="   39.203">  2  4  1 -1</clus>
<clus scale="  116.441">  1  6  2 -1</clus>
<clus scale="   35.176">  1  3  2 -1</clus>
</clustering>
</event>
<event>
 6    0  0.4582113E+002  0.1547637E+03  0.7546771E-02  0.1194739E+00
         21   -1    0    0  502  501  0.00000000000E+00  0.00000000000E+00  0.28358208228E+04  0.28358208228E+04  0.00000000000E+00 0. -1.
         21   -1    0    0  505  502 -0.00000000000E+00 -0.00000000000E+00 -0.14734706149E+02  0.14734706149E+02  0.00000000000E+00 0. -1.
         21    1    1    2  503  504  0.23628779802E+02  0.46223741631E+02  0.92313495963E+02  0.10590908867E+03  0.00000000000E+00 0. -1.
         21    1    1    2  504  506 -0.60589483832E+02 -0.69585517502E+02  0.19584230438E+04  0.19605953301E+04  0.00000000000E+00 0. -1.
         21    1    1    2  505  503  0.69581046438E+02  0.58496287408E+02  0.37768117763E+03  0.38846674195E+03  0.00000000000E+00 0. -1.
         21    1    1    2  506  501 -0.32620342409E+02 -0.35134511537E+02  0.39266839921E+03  0.39558436821E+03  0.00000000000E+00 0. -1.
<scales pt_clust_3="46.93928" pt_clust_4="47.25453" pt_clust_5="153.33776" pt_clust_6="47.25453"></scales>
<clustering>
<clus scale="   46.939">  3  5 -1 -1</clus>
<clus scale="   47.255">  4  6 -1 -1</clus>
<clus scale="  153.338">  2  3  1 -1</clus>
<clus scale="  154.764">  1  3  2 -1</clus>
</clustering>
</event>
<event>
 6    0  0.4582113E+002  0.2072601E+03  0.7546771E-02  0.1143754E+00
         21   -1    0    0  504  501  0.00000000000E+00  0.00000000000E+00  0.10456456631E+04  0.10456456631E+04  0.00000000000E+00 0.  1.
         21   -1    0    0  506  502 -0.00000000000E+00 -0.00000000000E+00 -0.52138060365E+02  0.52138060365E+02  0.00000000000E+00 0.  1.
         21    1    1    2  503  502  0.19047918921E+02 -0.25877549163E+02  0.17332763837E+02  0.36508840959E+02  0.00000000000E+00 0.  1.
         21    1    1    2  504  503 -0.20578469260E+03 -0.43118479064E+02  0.43212251641E+03  0.48055843780E+03  0.00000000000E+00 0.  1.
         21    1    1    2  505  501  0.11640622668E+03  0.36159764759E+02  0.38313332087E+03  0.40205606544E+03  0.00000000000E+00 0.  1.
         21    1    1    2  506  505  0.70330547003E+02  0.32836263468E+02  0.16091900162E+03  0.17866037928E+03  0.00000000000E+00 0. -1.
<scales pt_clust_3="32.13208" pt_clust_4="203.34495" pt_clust_5="31.99481" pt_clust_6="31.99481"></scales>
<clustering>
<clus scale="   31.995">  5  6 -1 -1</clus>
<clus scale="   32.132">  2  3  1 -1</clus>
<clus scale="  203.345">  2  4  1 -1</clus>
<clus scale="  207.260">  1  3  2 -1</clus>
</clustering>
</event>
<event>
 6    0  0.4582113E+002  0.1100557E+03  0.7546771E-02  0.1260467E+00
         21   -1    0    0  503  501  0.00000000000E+00  0.00000000000E+00  0.45734006593E+03  0.45734006593E+03  0.00000000000E+00 0.  1.
         21   -1    0    0  504  502 -0.00000000000E+00 -0.00000000000E+00 -0.20781508978E+03  0.20781508978E+03  0.00000000000E+00 0.  1.
         21    1    1    2  503  502  0.59915872616E+02 -0.63832467085E+02  0.10753528689E+03  0.13866626688E+03  0.00000000000E+00 0.  1.
         21    1    1    2  504  505  0.20582807933E+02 -0.41068381571E+02 -0.10394004960E+03  0.11363889237E+03  0.00000000000E+00 0.  1.
         21    1    1    2  505  506  0.13031344836E+02 -0.71975317716E+02 -0.23882538078E+02  0.76945681708E+02  0.00000000000E+00 0.  1.
         21    1    1    2  506  501 -0.93530025384E+02  0.17687616637E+03  0.26981227695E+03  0.33590431476E+03  0.00000000000E+00 0.  1.
<scales pt_clust_3="94.49052" pt_clust_4="45.93761" pt_clust_5="110.05569" pt_clust_6="14000.00000"></scales>
<clustering>
<clus scale="   45.938">  2  4  1 -1</clus>
<clus scale="   94.491">  1  3  2 -1</clus>
<clus scale="  110.056">  2  5  1 -1</clus>
<clus scale="   94.491">  1  3  2 -1</clus>
</clustering>
</event>
<event>
 6    0  0.4582113E+002  0.8001756E+02  0.7546771E-02  0.1329002E+00
         21   -1    0    0  503  501  0.00000000000E+00  0.00000000000E+00  0.13326746228E+04  0.13326746228E+04  0.00000000000E+00 0.  1.
         21   -1    0    0  505  502 -0.00000000000E+00 -0.00000000000E+00 -0.12884400673E+04  0.12884400673E+04  0.00000000000E+00 0.  1.
         21    1    1    2  503  504  0.50927162455E+01 -0.44499202301E+02  0.74972916235E+02  0.87333000252E+02  0.00000000000E+00 0.  1.
         21    1    1    2  504  502 -0.78843979269E+02 -0.74335837771E+02 -0.44831535842E+03  0.46122537923E+03  0.00000000000E+00 0.  1.
         21    1    1    2  505  506  0.46260350163E+02  0.56585662432E+02 -0.82494290917E+03  0.82817435398E+03  0.00000000000E+00 0.  1.
         21    1    1    2  506  501  0.27490912861E+02  0.62249377640E+02  0.12425199069E+04  0.12443819567E+04  0.00000000000E+00 0.  1.
<scales pt_clust_3="44.78967" pt_clust_4="80.01756" pt_clust_5="14000.00000" pt_clust_6="37.21414"></scales>
<clustering>
<clus scale="   44.790">  1  3  2 -1</clus>
<clus scale="   37.214">  1  6  2 -1</clus>
<clus scale="   80.018">  1  4  2 -1</clus>
<clus scale="   44.790">  1  3  2 -1</clus>
</clustering>
</event>
<event>
 6    0  0.4582113E+002  0.1048974E+03  0.7546771E-02  0.1270322E+00
         21   -1    0    0  504  501  0.00000000000E+00  0.00000000000E+00  0.38862091292E+03  0.38862091292E+03  0.00000000000E+00 0.  1.
         21   -1    0    0  503  502 -0.00000000000E+00 -0.00000000000E+00 -0.63428029851E+02  0.63428029851E+02  0.00000000000E+00 0.  1.
         21    1    1    2  503  501  0.87382979099E+02 -0.52832702022E+02  0.63489927714E+02  0.12024163322E+03  0.00000000000E+00 0.  1.
         21    1    1    2  504  505 -0.39081307675E+02 -0.23420243776E+02  0.13823555391E+03  0.14555042010E+03  0.00000000000E+00 0.  1.
         21    1    1    2  505  506 -0.58215563889E+02  0.78846028977E+01  0.94659708076E+02  0.11140771596E+03  0.00000000000E+00 0.  1.
         21    1    1    2  506  502  0.99138924638E+01  0.68368342900E+02  0.28807693375E+02  0.74849173491E+02  0.00000000000E+00 0.  1.
<scales pt_clust_3="94.46808" pt_clust_4="40.15678" pt_clust_5="40.15678" pt_clust_6="69.08340"></scales>
<clustering>
<clus scale="   40.157">  4  5 -1 -1</clus>
<clus scale="   69.083">  2  6  1 -1</clus>
<clus scale="   94.468">  2  3  1 -1</clus>
<clus scale="  104.897">  1  3  2 -1</clus>
</clustering>
</event>
<event>
 6    0  0.4582113E+002  0.1323614E+03  0.7546771E-02  0.1223993E+00
         21   -1    0    0  506  501  0.00000000000E+00  0.00000000000E+00  0.82043957236E+03  0.82043957236E+03  0.00000000000E+00 0.  1.
         21   -1    0    0  504  502 -0.00000000000E+00 -0.00000000000E+00 -0.17508428089E+03  0.17508428089E+03  0.00000000000E+00 0. -1.
         21    1    1    2  503  502  0.12548812288E+03  0.10500196403E+03  0.18773337429E+02  0.16469705410E+03  0.00000000000E+00 0. -1.
         21    1    1    2  504  501 -0.18705531673E+02 -0.40544829878E+02 -0.91132320086E+02  0.10148339721E+03  0.00000000000E+00 0. -1.
         21    1    1    2  505  503 -0.59791616876E+02 -0.15299084619E+02  0.34180961405E+03  0.34733688502E+03  0.00000000000E+00 0.  1.
         21    1    1    2  506  505 -0.46990974327E+02 -0.49158049529E+02  0.37590466007E+03  0.38200651692E+03  0.00000000000E+00 0.  1.
<scales pt_clust_3="127.47065" pt_clust_4="44.65177" pt_clust_5="33.96016" pt_clust_6="33.96016"></scales>
<clustering>
<clus scale="   33.960">  5  6 -1 -1</clus>
<clus scale="   44.652">  2  4  1 -1</clus>
<clus scale="  127.471">  2  3  1 -1</clus>
<clus scale="  132.361">  1  3  2 -1</clus>
</clustering>
</event>
<event>
 6    0  0.4582113E+002  0.1278029E+03  0.7546771E-02  0.1230753E+00
         21   -1    0    0  505  501  0.00000000000E+00  0.00000000000E+00  0.15463436677E+04  0.15463436677E+04  0.00000000000E+00 0.  1.
         21   -1    0    0  503  502 -0.00000000000E+00 -0.00000000000E+00 -0.19915064855E+03  0.19915064855E+03  0.00000000000E+00 0. -1.
         21    1    1    2  503  504  0.21380595858E+02  0.65499679318E+02 -0.15267916527E+03  0.16750601595E+03  0.00000000000E+00 0. -1.
         21    1    1    2  504  501 -0.58512001745E+02 -0.10104217955E+03  0.14089518071E+04  0.14137815854E+04  0.00000000000E+00 0.  1.
         21    1    1    2  505  506  0.25859118946E+02 -0.25439307079E+02  0.95366703205E+02  0.10203264408E+03  0.00000000000E+00 0.  1.
         21    1    1    2  506  502  0.11272286941E+02  0.60981807315E+02 -0.44463258490E+01  0.62174070881E+02  0.00000000000E+00 0. -1.
<scales pt_clust_3="14000.00000" pt_clust_4="127.80285" pt_clust_5="36.27468" pt_clust_6="61.61274"></scales>
<clustering>
<clus scale="   36.275">  1  5  2 -1</clus>
<clus scale="   61.613">  2  6  1 -1</clus>
<clus scale="  127.803">  1  4  2 -1</clus>
<clus scale="   36.275">  1  3  2 -1</clus>
</clustering>
</event>
<event>
 6    0  0.4582113E+002  0.1413565E+03  0.7546771E-02  0.1211515E+00
         21   -1    0    0  504  501  0.00000000000E+00  0.00000000000E+00  0.14738059294E+04  0.14738059294E+04  0.00000000000E+00 0. -1.
         21   -1    0    0  505  502 -0.00000000000E+00 -0.00000000000E+00 -0.30100500345E+02  0.30100500345E+02  0.00000000000E+00 0. -1.
         21    1    1    2  503  501  0.10845089028E+03 -0.29222490743E+02  0.71606122725E+03  0.72481668768E+03  0.00000000000E+00 0. -1.
         21    1    1    2  504  502 -0.64935044168E+02  0.79420288694E+02  0.20767012057E+03  0.23162690085E+03  0.00000000000E+00 0. -1.
         21    1    1    2  505  506 -0.93503690958E+02 -0.63301271378E+02  0.27847730167E+03  0.30049891634E+03  0.00000000000E+00 0. -1.
         21    1    1    2  506  503  0.49987844847E+02  0.13103473427E+02  0.24149677954E+03  0.24696392485E+03  0.00000000000E+00 0. -1.
<scales pt_clust_3="30.91708" pt_clust_4="102.58724" pt_clust_5="133.80621" pt_clust_6="30.91708"></scales>
<clustering>
<clus scale="   30.917">  3  6 -1 -1</clus>
<clus scale="  102.587">  2  4  1 -1</clus>
<clus scale="  133.806">  2  5  1 -1</clus>
<clus scale="  141.357">  1  3  2 -1</clus>
</clustering>
</event>
<event>
 6    0  0.4582113E+002  0.1221217E+03  0.7546771E-02  0.1239637E+00
         21   -1    0    0  504  501  0.00000000000E+00  0.00000000000E+00  0.69321852282E+03  0.69321852282E+03  0.00000000000E+00 0. -1.
         21   -1    0    0  503  502 -0.00000000000E+00 -0.00000000000E+00 -0.79475857403E+02  0.79475857403E+02  0.00000000000E+00 0. -1.
         21    1    1    2  503  501  0.12392110392E+03  0.30772839706E+02  0.48491180311E+01  0.12777684299E+03  0.00000000000E+00 0. -1.
         21    1    1    2  504  506 -0.51384131962E+02 -0.81597085709E+01  0.35732624140E+03  0.36109410499E+03  0.00000000000E+00 0. -1.
         21    1    1    2  505  502  0.16638999022E+02 -0.28246363024E+02  0.28185529801E+02  0.43233521748E+02  0.00000000000E+00 0. -1.
         21    1    1    2  506  505 -0.89175970978E+02  0.56332318892E+01  0.22338177618E+03  0.24058991050E+03  0.00000000000E+00 0. -1.
<scales pt_clust_3="122.12166" pt_clust_4="51.71986" pt_clust_5="32.78282" pt_clust_6="14000.00000"></scales>
<clustering>
<clus scale="   32.783">  2  5  1 -1</clus>
<clus scale="   51.720">  1  4  2 -1</clus>
<clus scale="  122.122">  2  3  1 -1</clus>
<clus scale="   51.720">  1  3  2 -1</clus>
</clustering>
</event>
<event>
 6    0  0.4582113E+002  0.1068888E+03  0.7546771E-02  0.1266442E+00
         21   -1    0    0  503  501  0.00000000000E+00  0.00000000000E+00  0.67077605806E+03  0.67077605806E+03  0.00000000000E+00 0.  1.
         21   -1    0    0  506  502 -0.00000000000E+00 -0.00000000000E+00 -0.51936819540E+02  0.51936819540E+02  0.00000000000E+00 0.  1.
         21    1    1    2  503  502  0.11139125551E+03  0.53865420426E+02  0.97752036470E+02  0.15768625798E+03  0.00000000000E+00 0.  1.
         21    1    1    2  504  505 -0.33946242491E+02 -0.45734730314E+02  0.22987114102E+03  0.23682219999E+03  0.00000000000E+00 0. -1.
         21    1    1    2  505  501  0.20197626521E+02 -0.30481555964E+02  0.15421097732E+03  0.15848689188E+03  0.00000000000E+00 0.  1.
         21    1    1    2  506  504 -0.97642639545E+02  0.22350865852E+02  0.13700508371E+03  0.16971752775E+03  0.00000000000E+00 0.  1.
<scales pt_clust_3="14000.00000" pt_clust_4="64.51218" pt_clust_5="36.56596" pt_clust_6="106.88879"></scales>
<clustering>
<clus scale="   36.566">  1  5  2 -1</clus>
<clus scale="   64.512">  1  4  2 -1</clus>
<clus scale="  106.889">  1  6  2 -1</clus>
<clus scale="   36.566">  1  3  2 -1</clus>
</clustering>
</event>
<event>
 6    0  0.4582113E+002  0.1164432E+03  0.7546771E-02  0.1249083E+00
         21   -1    0    0  502  501  0.00000000000E+00  0.00000000000E+00  0.84488085049E+02  0.84488085049E+02  0.00000000000E+00 0.  1.
         21   -1    0    0  505  502 -0.00000000000E+00 -0.00000000000E+00 -0.21257000265E+03  0.21257000265E+03  0.00000000000E+00 0.  1.
         21    1    1    2  503  506 -0.24722000364E+02  0.11563730665E+03 -0.71633883090E+02  0.13825547800E+03  0.00000000000E+00 0.  1.
         21    1    1    2  504  501  0.23400182106E+02 -0.41823992443E+02  0.79909787368E+01  0.48586732836E+02  0.00000000000E+00 0.  1.
         21    1    1    2  505  503 -0.23909736491E+02 -0.25824203044E+02 -0.24829337555E+02  0.43070418681E+02  0.00000000000E+00 0.  1.
         21    1    1    2  506  504  0.25231554748E+02 -0.47989111164E+02 -0.39609675688E+02  0.67145458174E+02  0.00000000000E+00 0.  1.
<scales pt_clust_3="107.68597" pt_clust_4="40.64919" pt_clust_5="35.19325" pt_clust_6="40.64919"></scales>
<clustering>
<clus scale="   35.193">  2  5  1 -1</clus>
<clus scale="   40.649">  4  6 -1 -1</clus>
<clus scale="  107.686">  2  3  1 -1</clus>
<clus scale="  116.443">  1  3  2 -1</clus>
</clustering>
</event>
<event>
 6    0  0.4582113E+002  0.1116341E+03  0.7546771E-02  0.1257573E+00
         21   -1    0    0  506  501  0.00000000000E+00  0.00000000000E+00  0.30476786438E+03  0.30476786438E+03  0.00000000000E+00 0.  1.
         21   -1    0    0  503  502 -0.00000000000E+00 -0.00000000000E+00 -0.33137210611E+04  0.33137210611E+04  0.00000000000E+00 0. -1.
         21    1    1    2  503  504  0.45207240016E+02  0.16178685076E+02 -0.31302003671E+04  0.31305686037E+04  0.00000000000E+00 0. -1.
         21    1    1    2  504  501 -0.11495374100E+03  0.70944134656E+02  0.23822980380E+03  0.27386287122E+03  0.00000000000E+00 0.  1.
         21    1    1    2  505  502 -0.13218311842E+01 -0.83569054609E+02 -0.11589913823E+03  0.14289207245E+03  0.00000000000E+00 0. -1.
         21    1    1    2  506  505  0.71068332172E+02 -0.35537651234E+01 -0.10834952421E+01  0.71165378142E+02  0.00000000000E+00 0.  1.
<scales pt_clust_3="48.01504" pt_clust_4="111.63411" pt_clust_5="78.36519" pt_clust_6="14000.00000"></scales>
<clustering>
<clus scale="   48.015">  2  3  1 -1</clus>
<clus scale="   78.365">  2  5  1 -1</clus>
<clus scale="  111.634">  1  4  2 -1</clus>
<clus scale="  111.634">  1  3  2 -1</clus>
</clustering>
</event>
<event>
 6    0  0.4582113E+002  0.1664308E+03  0.7546771E-02  0.1181622E+00
         21   -1    0    0  505  501  0.00000000000E+00  0.00000000000E+00  0.37968532647E+03  0.37968532647E+03  0.00000000000E+00 0.  1.
         21   -1    0    0  503  502 -0.00000000000E+00 -0.00000000000E+00 -0.22873194219E+03  0.22873194219E+03  0.00000000000E+00 0.  1.
         21    1    1    2  503  501 -0.45776998012E+02 -0.11689921212E+03  0.11590672961E+03  0.17086640779E+03  0.00000000000E+00 0.  1.
         21    1    1    2  504  506 -0.55597182173E+02  0.19695871071E+01  0.53292593856E+02  0.77039123170E+02  0.00000000000E+00 0.  1.
         21    1    1    2  505  504 -0.50323353688E+02  0.83853148926E+01  0.11925416297E+03  0.12970855337E+03  0.00000000000E+00 0.  1.
         21    1    1    2  506  502  0.15169753387E+03  0.10654431012E+03 -0.13750010215E+03  0.23080318432E+03  0.00000000000E+00 0.  1.
<scales pt_clust_3="14000.00000" pt_clust_4="113.89565" pt_clust_5="38.84980" pt_clust_6="166.43078"></scales>
<clustering>
<clus scale="   38.850">  4  5 -1 -1</clus>
<clus scale="  113.896">  1  4  2 -1</clus>
<clus scale="  166.431">  2  6  1 -1</clus>
<clus scale="  113.896">  1  3  2 -1</clus>
</clustering>
</event>
<event>
 6    0  0.4582113E+002  0.9485674E+02  0.7546771E-02  0.1291499E+00
         21   -1    0    0  505  501  0.00000000000E+00  0.00000000000E+00  0.63579341321E+03  0.63579341321E+03  0.00000000000E+00 0. -1.
         21   -1    0    0  504  502 -0.00000000000E+00 -0.00000000000E+00 -0.89617430009E+03  0.89617430009E+03  0.00000000000E+00 0.  1.
         21    1    1    2  503  506 -0.79554822287E+02 -0.80791949522E+02 -0.41971665188E+03  0.43476243711E+03  0.00000000000E+00 0.  1.
         21    1    1    2  504  503  0.87766608113E+02  0.20277584451E+02 -0.45557144222E+03  0.46439153405E+03  0.00000000000E+00 0.  1.
         21    1    1    2  505  502 -0.64494890325E+02  0.51417702587E+02  0.24434315463E+03  0.25788941086E+03  0.00000000000E+00 0. -1.
         21    1    1    2  506  501  0.56283104499E+02  0.90966624847E+01  0.37056405259E+03  0.37492433129E+03  0.00000000000E+00 0. -1.
<scales pt_clust_3="94.85674" pt_clust_4="14000.00000" pt_clust_5="61.05817" pt_clust_6="57.01348"></scales>
<clustering>
<clus scale="   57.013">  1  6  2 -1</clus>
<clus scale="   61.058">  1  5  2 -1</clus>
<clus scale="   94.857">  1  3  2 -1</clus>
<clus scale="   57.013">  1  3  2 -1</clus>
</clustering>
</event>
<event>
 6    0  0.4582113E+002  0.1822114E+03  0.7546771E-02  0.1165680E+00
         21   -1    0    0  502  501  0.00000000000E+00  0.00000000000E+00  0.84275833189E+02  0.84275833189E+02  0.00000000000E+00 0.  1.
         21   -1    0    0  505  502 -0.00000000000E+00 -0.00000000000E+00 -0.11734974666E+04  0.11734974666E+04  0.00000000000E+00 0. -1.
         21    1    1    2  503  506  0.45407004728E+02  0.99535087122E+02 -0.81431182336E+03  0.82162812471E+03  0.00000000000E+00 0. -1.
         21    1    1    2  504  501 -0.39898725616E+02 -0.17185766566E+02 -0.32612796618E+01  0.43564834709E+02  0.00000000000E+00 0.  1.
         21    1    1    2  505  503  0.62748329908E+02  0.48207641806E+02 -0.22427987227E+03  0.23782933111E+03  0.00000000000E+00 0. -1.
         21    1    1    2  506  504 -0.68256609020E+02 -0.13055696236E+03 -0.47368658135E+02  0.15475100927E+03  0.00000000000E+00 0.  1.
<scales pt_clust_3="173.09155" pt_clust_4="30.91111" pt_clust_5="79.12856" pt_clust_6="30.91111"></scales>
<clustering>
<clus scale="   30.911">  4  6 -1 -1</clus>
<clus scale="   79.129">  2  5  1 -1</clus>
<clus scale="  173.092">  2  3  1 -1</clus>
<clus scale="  182.211">  1  3  2 -1</clus>
</clustering>
</event>
<event>
 6    0  0.4582113E+002  0.1329315E+03  0.7546771E-02  0.1223170E+00
         21   -1    0    0  506  501  0.00000000000E+00  0.00000000000E+00  0.22159166092E+03  0.22159166092E+03  0.00000000000E+00 0.  1.
         21   -1    0    0  504  502 -0.00000000000E+00 -0.00000000000E+00 -0.66089432284E+03  0.66089432284E+03  0.00000000000E+00 0.  1.
         21    1    1    2  503  501 -0.66162997261E+02  0.34116429247E+02  0.22879914377E+02  0.77877875119E+02  0.00000000000E+00 0.  1.
         21    1    1    2  504  503  0.82017000627E+02  0.47293625587E+02 -0.24868132703E+03  0.26609373880E+03  0.00000000000E+00 0.  1.
         21    1    1    2  505  502  0.58863916013E+02 -0.95520562534E+02 -0.35803221858E+03  0.37520155652E+03  0.00000000000E+00 0.  1.
         21    1    1    2  506  505 -0.74717919380E+02  0.14110507699E+02  0.14453096931E+03  0.16331281332E+03  0.00000000000E+00 0.  1.
<scales pt_clust_3="74.44107" pt_clust_4="92.68236" pt_clust_5="132.93147" pt_clust_6="14000.00000"></scales>
<clustering>
<clus scale="   74.441">  1  3  2 -1</clus>
<clus scale="   92.682">  2  4  1 -1</clus>
<clus scale="  132.931">  2  5  1 -1</clus>
<clus scale="   74.441">  1  3  2 -1</clus>
</clustering>
</event>
<event>
 6    0  0.4582113E+002  0.1943701E+03  0.7546771E-02  0.1154578E+00
         21   -1    0    0  506  501  0.00000000000E+00  0.00000000000E+00  0.56004173490E+03  0.56004173490E+03  0.00000000000E+00 0. -1.
         21   -1    0    0  504  502 -0.00000000000E+00 -0.00000000000E+00 -0.39348954152E+03  0.39348954152E+03  0.00000000000E+00 0. -1.
         21    1    1    2  503  501  0.34428552513E+02 -0.23050433098E+02  0.16085201989E+03  0.16610243826E+03  0.00000000000E+00 0.  1.
         21    1    1    2  504  505  0.56974340011E+02 -0.12126332320E+02 -0.26079910916E+03  0.26722518349E+03  0.00000000000E+00 0. -1.
         21    1    1    2  505  503  0.15416296481E+03  0.51747621856E+02  0.21360344274E+03  0.26845943239E+03  0.00000000000E+00 0. -1.
         21    1    1    2  506  502 -0.24556585734E+03 -0.16570856438E+02  0.52895839907E+02  0.25174422228E+03  0.00000000000E+00 0. -1.
<scales pt_clust_3="41.43245" pt_clust_4="58.56237" pt_clust_5="14000.00000" pt_clust_6="194.37005"></scales>
<clustering>
<clus scale="   41.432">  1  3  2 -1</clus>
<clus scale="   58.562">  2  4  1 -1</clus>
<clus scale="  194.370">  2  6  1 -1</clus>
<clus scale="   41.432">  1  3  2 -1</clus>
</clustering>
</event>
<event>
 6    0  0.4582113E+002  0.1908183E+03  0.7546771E-02  0.1157725E+00
         21   -1    0    0  505  501  0.00000000000E+00  0.00000000000E+00  0.95733605053E+02  0.95733605053E+02  0.00000000000E+00 0. -1.
         21   -1    0    0  504  502 -0.00000000000E+00 -0.00000000000E+00 -0.10319737358E+04  0.10319737358E+04  0.00000000000E+00 0.  1.
         21    1    1    2  503  501  0.34098513610E+02 -0.90467615134E+01 -0.23118893307E+01  0.35353887432E+02  0.00000000000E+00 0. -1.
         21    1    1    2  504  506 -0.41230253967E+02  0.12852313581E+02 -0.53800235610E+03  0.53973294413E+03  0.00000000000E+00 0.  1.
         21    1    1    2  505  502 -0.17416073058E+03 -0.76464279879E+02 -0.19739118172E+03  0.27412045672E+03  0.00000000000E+00 0. -1.
         21    1    1    2  506  503  0.18129247093E+03  0.72658727812E+02 -0.19853470355E+03  0.27850005253E+03  0.00000000000E+00 0. -1.
<scales pt_clust_3="35.27822" pt_clust_4="42.80197" pt_clust_5="190.81829" pt_clust_6="14000.00000"></scales>
<clustering>
<clus scale="   35.278">  1  3  2 -1</clus>
<clus scale="   42.802">  2  4  1 -1</clus>
<clus scale="  190.818">  1  5  2 -1</clus>
<clus scale="   35.278">  1  3  2 -1</clus>
</clustering>
</event>
<event>
 6    0  0.4582113E+002  0.1112291E+03  0.7546771E-02  0.1258311E+00
         21   -1    0    0  503  501  0.00000000000E+00  0.00000000000E+00  0.49116641802E+02  0.49116641802E+02  0.00000000000E+00 0. -1.
         21   -1    0    0  505  502 -0.00000000000E+00 -0.00000000000E+00 -0.90694926407E+03  0.90694926407E+03  0.00000000000E+00 0. -1.
         21    1    1    2  503  502  0.24103375004E+02 -0.41710391663E+02 -0.62523282940E+03  0.62708597530E+03  0.00000000000E+00 0. -1.
         21    1    1    2  504  506 -0.57664620868E+02  0.84378875780E+00 -0.73772868317E+02  0.93639503305E+02  0.00000000000E+00 0. -1.
         21    1    1    2  505  504 -0.44253660095E+02 -0.31989601733E+02 -0.99104562696E+02  0.11315226643E+03  0.00000000000E+00 0. -1.
         21    1    1    2  506  501  0.77814905960E+02  0.72856204638E+02 -0.59722361855E+02  0.12218816084E+03  0.00000000000E+00 0. -1.
<scales pt_clust_3="48.17395" pt_clust_4="37.92221" pt_clust_5="37.92221" pt_clust_6="104.17810"></scales>
<clustering>
<clus scale="   37.922">  4  5 -1 -1</clus>
<clus scale="   48.174">  2  3  1 -1</clus>
<clus scale="  104.178">  1  6  2 -1</clus>
<clus scale="  104.178">  1  3  2 -1</clus>
</clustering>
</event>
<event>
 6    0  0.4582113E+002  0.5697987E+02  0.7546771E-02  0.1410961E+00
         21   -1    0    0  504  501  0.00000000000E+00  0.00000000000E+00  0.37544080830E+02  0.37544080830E+02  0.00000000000E+00 0.  1.
         21   -1    0    0  506  502 -0.00000000000E+00 -0.00000000000E+00 -0.24957402909E+04  0.24957402909E+04  0.00000000000E+00 0. -1.
         21    1    1    2  503  505 -0.63568116514E+02 -0.44574130306E+02 -0.11431344270E+04  0.11457678983E+04  0.00000000000E+00 0. -1.
         21    1    1    2  504  503 -0.10107165702E+02 -0.42704201566E+02 -0.73210163179E+02  0.85355325684E+02  0.00000000000E+00 0. -1.
         21    1    1    2  505  502  0.41058590328E+02 -0.38799186366E+01 -0.11930077548E+04  0.11937203880E+04  0.00000000000E+00 0. -1.
         21    1    1    2  506  501  0.32616691889E+02  0.91158250509E+02 -0.48843865042E+02  0.10844075976E+03  0.00000000000E+00 0.  1.
<scales pt_clust_3="56.97987" pt_clust_4="43.60911" pt_clust_5="41.24150" pt_clust_6="14000.00000"></scales>
<clustering>
<clus scale="   41.242">  2  5  1 -1</clus>
<clus scale="   43.609">  1  4  2 -1</clus>
<clus scale="   56.980">  2  3  1 -1</clus>
<clus scale="   43.609">  1  3  2 -1</clus>
</clustering>
</event>
<event>
 6    0  0.4582113E+002  0.1411112E+03  0.7546771E-02  0.1211842E+00
         21   -1    0    0  504  501  0.00000000000E+00  0.00000000000E+00  0.77972081522E+03  0.77972081522E+03  0.00000000000E+00 0. -1.
         21   -1    0    0  506  502 -0.00000000000E+00 -0.00000000000E+00 -0.26412788242E+04  0.26412788242E+04  0.00000000000E+00 0.  1.
         21    1    1    2  503  502  0.40326159050E+02 -0.18475830201E+02 -0.10430134559E+03  0.11334163444E+03  0.00000000000E+00 0. -1.
         21    1    1    2  504  503 -0.57179116750E+02 -0.57928102709E+02  0.60348884680E+03  0.60895312192E+03  0.00000000000E+00 0. -1.
         21    1    1    2  505  501  0.54373880307E+01 -0.74127678516E+02  0.15843599482E+03  0.17500412100E+03  0.00000000000E+00 0. -1.
         21    1    1    2  506  505  0.11415569669E+02  0.15053161143E+03 -0.25191815050E+04  0.25237007621E+04  0.00000000000E+00 0.  1.
<scales pt_clust_3="44.35713" pt_clust_4="141.11123" pt_clust_5="74.39687" pt_clust_6="14000.00000"></scales>
<clustering>
<clus scale="   44.357">  2  3  1 -1</clus>
<clus scale="   74.397">  1  5  2 -1</clus>
<clus scale="  141.111">  1  4  2 -1</clus>
<clus scale="   74.397">  1  3  2 -1</clus>
</clustering>
</event>
<event>
 6    0  0.4582113E+002  0.1631600E+03  0.7546771E-02  0.1185175E+00
         21   -1    0    0  504  501  0.00000000000E+00  0.00000000000E+00  0.29061631264E+03  0.29061631264E+03  0.00000000000E+00 0.  1.
         21   -1    0    0  506  502 -0.00000000000E+00 -0.00000000000E+00 -0.15419191985E+03  0.15419191985E+03  0.00000000000E+00 0.  1.
         21    1    1    2  503  502 -0.61591290984E+02 -0.30234863204E+02  0.20247969072E+02  0.71537502958E+02  0.00000000000E+00 0.  1.
         21    1    1    2  504  503 -0.76416553918E+02 -0.12059730429E+02  0.53199206257E+02  0.93888670015E+02  0.00000000000E+00 0. -1.
         21    1    1    2  505  501  0.16990844425E+03  0.41910392442E+02  0.12128219510E+03  0.21291954177E+03  0.00000000000E+00 0.  1.
         21    1    1    2  506  505 -0.31900599345E+02  0.38420118994E+00 -0.58304977636E+02  0.66462517754E+02  0.00000000000E+00 0.  1.
<scales pt_clust_3="31.74599" pt_clust_4="31.74599" pt_clust_5="159.63972" pt_clust_6="31.90291"></scales>
<clustering>
<clus scale="   31.746">  3  4 -1 -1</clus>
<clus scale="   31.903">  2  6  1 -1</clus>
<clus scale="  159.640">  2  5  1 -1</clus>
<clus scale="  163.160">  1  3  2 -1</clus>
</clustering>
</event>
<event>
 6    0  0.4582113E+002  0.9478225E+02  0.7546771E-02  0.1291667E+00
         21   -1    0    0  506  501  0.00000000000E+00  0.00000000000E+00  0.17177966307E+04  0.17177966307E+04  0.00000000000E+00 0.  1.
         21   -1    0    0  505  502 -0.00000000000E+00 -0.00000000000E+00 -0.88295978106E+02  0.88295978106E+02  0.00000000000E+00 0. -1.
         21    1    1    2  503  501 -0.12421784656E+02 -0.42458227440E+02  0.11013439203E+04  0.11022320230E+04  0.00000000000E+00 0.  1.
         21    1    1    2  504  502 -0.51537371678E+02 -0.62735017626E+02  0.47984762634E+03  0.48666777951E+03  0.00000000000E+00 0. -1.
         21    1    1    2  505  503  0.25914674354E+01  0.96676274401E+02 -0.43814802111E+02  0.10617322930E+03  0.00000000000E+00 0. -1.
         21    1    1    2  506  504  0.61367688899E+02  0.85169706649E+01  0.92123908042E+02  0.11101957694E+03  0.00000000000E+00 0.  1.
<scales pt_clust_3="44.23801" pt_clust_4="94.78225" pt_clust_5="14000.00000" pt_clust_6="59.33887"></scales>
<clustering>
<clus scale="   44.238">  1  3  2 -1</clus>
<clus scale="   59.339">  1  6  2 -1</clus>
<clus scale="   94.782">  1  4  2 -1</clus>
<clus scale="   44.238">  1  3  2 -1</clus>
</clustering>
</event>
<event>
 6    0  0.4582113E+002  0.1126740E+03  0.7546771E-02  0.1255697E+00
         21   -1    0    0  503  501  0.00000000000E+00  0.00000000000E+00  0.23792420064E+03  0.23792420064E+03  0.00000000000E+00 0. -1.
         21   -1    0    0  505  502 -0.00000000000E+00 -0.00000000000E+00 -0.11498705425E+04  0.11498705425E+04  0.00000000000E+00 0.  1.
         21    1    1    2  503  504 -0.25825257880E+02 -0.11834309699E+03  0.20285211214E+03  0.23626470738E+03  0.00000000000E+00 0. -1.
         21    1    1    2  504  506  0.15945082020E+02  0.67694339975E+02 -0.71055034664E+02  0.99426290569E+02  0.00000000000E+00 0.  1.
         21    1    1    2  505  501  0.41952516616E+02  0.25577578277E+02 -0.15887484192E+03  0.16629925302E+03  0.00000000000E+00 0.  1.
         21    1    1    2  506  502 -0.32072340755E+02  0.25071178739E+02 -0.88486857739E+03  0.88580449214E+03  0.00000000000E+00 0.  1.
<scales pt_clust_3="112.67403" pt_clust_4="14000.00000" pt_clust_5="46.63202" pt_clust_6="40.70871"></scales>
<clustering>
<clus scale="   40.709">  2  6  1 -1</clus>
<clus scale="   46.632">  2  5  1 -1</clus>
<clus scale="  112.674">  1  3  2 -1</clus>
<clus scale="  112.674">  1  3  2 -1</clus>
</clustering>
</event>
<event>
 6    0  0.4582113E+002  0.1976221E+03  0.7546771E-02  0.1151761E+00
         21   -1    0    0  503  501  0.00000000000E+00  0.00000000000E+00  0.65257715606E+03  0.65257715606E+03  0.00000000000E+00 0.  1.
         21   -1    0    0  504  502 -0.00000000000E+00 -0.00000000000E+00 -0.17786651152E+03  0.17786651152E+03  0.00000000000E+00 0.  1.
         21    1    1    2  503  506 -0.18844792562E+03  0.38828824447E+02  0.31007836890E+03  0.36492313319E+03  0.00000000000E+00 0.  1.
         21    1    1    2  504  501 -0.51349165122E+02 -0.46687186090E+02  0.15990012723E+03  0.17431144768E+03  0.00000000000E+00 0.  1.
         21    1    1    2  505  502  0.62422045325E+02  0.18223296121E+02 -0.72571354296E+02  0.97443325725E+02  0.00000000000E+00 0.  1.
         21    1    1    2  506  505  0.17737504541E+03 -0.10364934477E+02  0.77303502706E+02  0.19376576099E+03  0.00000000000E+00 0.  1.
<scales pt_clust_3="197.62211" pt_clust_4="64.90302" pt_clust_5="65.02769" pt_clust_6="14000.00000"></scales>
<clustering>
<clus scale="   65.028">  2  5  1 -1</clus>
<clus scale="   64.903">  1  4  2 -1</clus>
<clus scale="  197.622">  1  3  2 -1</clus>
<clus scale="   64.903">  1  3  2 -1</clus>
</clustering>
</event>
<event>
 6    0  0.4582113E+002  0.9328186E+02  0.7546771E-02  0.1295093E+00
         21   -1    0    0  505  501  0.00000000000E+00  0.00000000000E+00  0.83301073499E+03  0.83301073499E+03  0.00000000000E+00 0.  1.
         21   -1    0    0  506  502 -0.00000000000E+00 -0.00000000000E+00 -0.78037607584E+03  0.78037607584E+03  0.00000000000E+00 0.  1.
         21    1    1    2  503  501  0.67788489501E+02  0.10763124975E+02  0.20976854591E+03  0.22071240795E+03  0.00000000000E+00 0.  1.
         21    1    1    2  504  503  0.33718271151E+02 -0.56588108648E+02  0.45328588872E+02  0.79961345780E+02  0.00000000000E+00 0.  1.
         21    1    1    2  505  502 -0.12593389667E+03 -0.33530465417E+01  0.54696055191E+03  0.56128106559E+03  0.00000000000E+00 0.  1.
         21    1    1    2  506  504  0.24427136013E+02  0.49178030214E+02 -0.74942302755E+03  0.75143199150E+03  0.00000000000E+00 0.  1.
<scales pt_clust_3="14000.00000" pt_clust_4="55.51100" pt_clust_5="93.28186" pt_clust_6="54.91051"></scales>
<clustering>
<clus scale="   54.911">  2  6  1 -1</clus>
<clus scale="   55.511">  2  4  1 -1</clus>
<clus scale="   93.282">  2  5  1 -1</clus>
<clus scale="   93.282">  1  3  2 -1</clus>
</clustering>
</event>
<event>
 6    0  0.4582113E+002  0.1138970E+03  0.7546771E-02  0.1253519E+00
         21   -1    0    0  506  501  0.00000000000E+00  0.00000000000E+00  0.27839706066E+04  0.27839706066E+04  0.00000000000E+00 0.  1.
         21   -1    0    0  504  502 -0.00000000000E+00 -0.00000000000E+00 -0.29995294747E+02  0.29995294747E+02  0.00000000000E+00 0. -1.
         21    1    1    2  503  505 -0.57013983681E+02 -0.33069820776E+02  0.11441965441E+04  0.11460933378E+04  0.00000000000E+00 0.  1.
         21    1    1    2  504  503 -0.32336581226E+02  0.42132603220E+02  0.10179951818E+03  0.11482139452E+03  0.00000000000E+00 0. -1.
         21    1    1    2  505  501 -0.41963405408E+02  0.58037251875E+01  0.13335044346E+04  0.13341771575E+04  0.00000000000E+00 0.  1.
         21    1    1    2  506  502  0.13131397032E+03 -0.14866507631E+02  0.17447481501E+03  0.21887401153E+03  0.00000000000E+00 0. -1.
<scales pt_clust_3="37.60014" pt_clust_4="53.11131" pt_clust_5="37.60014" pt_clust_6="103.79259"></scales>
<clustering>
<clus scale="   37.600">  3  5 -1 -1</clus>
<clus scale="   53.111">  2  4  1 -1</clus>
<clus scale="  103.793">  2  6  1 -1</clus>
<clus scale="  113.897">  1  3  2 -1</clus>
</clustering>
</event>
<event>
 6    0  0.4582113E+002  0.1103214E+03  0.7546771E-02  0.1259976E+00
         21   -1    0    0  506  501  0.00000000000E+00  0.00000000000E+00  0.26105523501E+02  0.26105523501E+02  0.00000000000E+00 0.  1.
         21   -1    0    0  503  502 -0.00000000000E+00 -0.00000000000E+00 -0.14103639678E+04  0.14103639678E+04  0.00000000000E+00 0.  1.
         21    1    1    2  503  504 -0.72306607741E+02  0.54082437235E+02 -0.70712119686E+03  0.71286291992E+03  0.00000000000E+00 0.  1.
         21    1    1    2  504  501 -0.33785625821E+02 -0.19503737379E+02 -0.42797613946E+02  0.57909412390E+02  0.00000000000E+00 0.  1.
         21    1    1    2  505  502 -0.38325959081E+02 -0.39355366919E+02 -0.22476392393E+03  0.23137965672E+03  0.00000000000E+00 0.  1.
         21    1    1    2  506  505  0.14441819264E+03  0.47766670641E+01 -0.40957570952E+03  0.43431750223E+03  0.00000000000E+00 0.  1.
<scales pt_clust_3="110.32136" pt_clust_4="39.01108" pt_clust_5="61.65785" pt_clust_6="14000.00000"></scales>
<clustering>
<clus scale="   39.011">  1  4  2 -1</clus>
<clus scale="   61.658">  2  5  1 -1</clus>
<clus scale="  110.321">  2  3  1 -1</clus>
<clus scale="   39.011">  1  3  2 -1</clus>
</clustering>
</event>
<event>
 6    0  0.4582113E+002  0.1105344E+03  0.7546771E-02  0.1259583E+00
         21   -1    0    0  504  501  0.00000000000E+00  0.00000000000E+00  0.64072896335E+03  0.64072896335E+03  0.00000000000E+00 0. -1.
         21   -1    0    0  503  502 -0.00000000000E+00 -0.00000000000E+00 -0.21393666344E+03  0.21393666344E+03  0.00000000000E+00 0. -1.
         21    1    1    2  503  505 -0.62502488248E+02  0.52862821098E+02  0.10210573583E+03  0.13086871353E+03  0.00000000000E+00 0.  1.
         21    1    1    2  504  502  0.10172960825E+03 -0.55026208735E+02 -0.14960582502E+03  0.18909970841E+03  0.00000000000E+00 0. -1.
         21    1    1    2  505  506 -0.61940232685E+02 -0.33338944939E+02  0.13061801056E+02  0.71545009061E+02  0.00000000000E+00 0. -1.
         21    1    1    2  506  501  0.22713112682E+02  0.35502332576E+02  0.46123058805E+03  0.46315219578E+03  0.00000000000E+00 0. -1.
<scales pt_clust_3="110.53444" pt_clust_4="14000.00000" pt_clust_5="61.80787" pt_clust_6="42.14619"></scales>
<clustering>
<clus scale="   42.146">  1  6  2 -1</clus>
<clus scale="   61.808">  1  5  2 -1</clus>
<clus scale="  110.534">  1  3  2 -1</clus>
<clus scale="   42.146">  1  3  2 -1</clus>
</clustering>
</event>
<event>
 6    0  0.4582113E+002  0.2186989E+03  0.7546771E-02  0.1134857E+00
         21   -1    0    0  502  501  0.00000000000E+00  0.00000000000E+00  0.83874243220E+03  0.83874243220E+03  0.00000000000E+00 0.  1.
         21   -1    0    0  504  502 -0.00000000000E+00 -0.00000000000E+00 -0.11144039546E+03  0.11144039546E+03  0.00000000000E+00 0. -1.
         21    1    1    2  503  501 -0.19594363960E+03  0.98062716501E+02  0.64783903691E+03  0.68389006720E+03  0.00000000000E+00 0.  1.
         21    1    1    2  504  506  0.25222068862E+02 -0.22904607412E+02 -0.27693307880E+02  0.43905501930E+02  0.00000000000E+00 0.  1.
         21    1    1    2  505  503  0.53130915611E+02 -0.52782856666E+02  0.47022205310E+02  0.88430831409E+02  0.00000000000E+00 0. -1.
         21    1    1    2  506  505  0.11759065513E+03 -0.22375252423E+02  0.60134102400E+02  0.13395642712E+03  0.00000000000E+00 0. -1.
<scales pt_clust_3="211.30590" pt_clust_4="34.07013" pt_clust_5="44.66984" pt_clust_6="44.66984"></scales>
<clustering>
<clus scale="   34.070">  2  4  1 -1</clus>
<clus scale="   44.670">  5  6 -1 -1</clus>
<clus scale="  211.306">  1  3  2 -1</clus>
<clus scale="  211.306">  1  3  2 -1</clus>
</clustering>
</event>
<event>
 6    0  0.4582113E+002  0.9318415E+02  0.7546771E-02  0.1295319E+00
         21   -1    0    0  505  501  0.00000000000E+00  0.00000000000E+00  0.53322389508E+03  0.53322389508E+03  0.00000000000E+00 0. -1.
         21   -1    0    0  506  502 -0.00000000000E+00 -0.00000000000E+00 -0.49999659183E+03  0.49999659183E+03  0.00000000000E+00 0. -1.
         21    1    1    2  503  501 -0.21074511548E+02  0.41009244809E+02  0.20149265448E+03  0.20670070877E+03  0.00000000000E+00 0.  1.
         21    1    1    2  504  503 -0.46915212656E+02 -0.24000797393E+01 -0.58951515167E+01  0.47345014233E+02  0.00000000000E+00 0. -1.
         21    1    1    2  505  502  0.79172928902E+02  0.54361890936E+02  0.29607597458E+03  0.31126283199E+03  0.00000000000E+00 0. -1.
         21    1    1    2  506  504 -0.11183204698E+02 -0.92971056005E+02 -0.45844617428E+03  0.46791193192E+03  0.00000000000E+00 0. -1.
<scales pt_clust_3="46.10741" pt_clust_4="48.24261" pt_clust_5="14000.00000" pt_clust_6="93.18415"></scales>
<clustering>
<clus scale="   46.107">  1  3  2 -1</clus>
<clus scale="   48.243">  1  4  2 -1</clus>
<clus scale="   93.184">  2  6  1 -1</clus>
<clus scale="   46.107">  1  3  2 -1</clus>
</clustering>
</event>
<event>
 6    0  0.4582113E+002  0.6657964E+02  0.7546771E-02  0.1372126E+00
         21   -1    0    0  505  501  0.00000000000E+00  0.00000000000E+00  0.13006853250E+04  0.13006853250E+04  0.00000000000E+00 0.  1.
         21   -1    0    0  504  502 -0.00000000000E+00 -0.00000000000E+00 -0.17691351428E+02  0.17691351428E+02  0.00000000000E+00 0.  1.
         21    1    1    2  503  502  0.10969444326E+02 -0.75033006807E+02  0.14663449377E+03  0.16508166337E+03  0.00000000000E+00 0.  1.
         21    1    1    2  504  506 -0.51229080207E+02  0.59158880782E+01  0.20081753314E+03  0.20733330173E+03  0.00000000000E+00 0.  1.
         21    1    1    2  505  503  0.76376420557E+02  0.28542135860E+02  0.44371917384E+03  0.45114821996E+03  0.00000000000E+00 0.  1.
         21    1    1    2  506  501 -0.36116784676E+02  0.40574982869E+02  0.49182277286E+03  0.49481349140E+03  0.00000000000E+00 0.  1.
<scales pt_clust_3="14000.00000" pt_clust_4="51.56953" pt_clust_5="66.57964" pt_clust_6="58.41588"></scales>
<clustering>
<clus scale="   51.570">  2  4  1 -1</clus>
<clus scale="   58.416">  1  6  2 -1</clus>
<clus scale="   66.580">  1  5  2 -1</clus>
<clus scale="   58.416">  1  3  2 -1</clus>
</clustering>
</event>
<event>
 6    0  0.4582113E+002  0.1305487E+03  0.7546771E-02  0.1226644E+00
         21   -1    0    0  505  501  0.00000000000E+00  0.00000000000E+00  0.65882458989E+03  0.65882458989E+03  0.00000000000E+00 0.  1.
         21   -1    0    0  506  502 -0.00000000000E+00 -0.00000000000E+00 -0.75029942378E+03  0.75029942378E+03  0.00000000000E+00 0.  1.
         21    1    1    2  503  504 -0.11752138110E+02  0.13988330496E+03 -0.15398191157E+03  0.20836477833E+03  0.00000000000E+00 0.  1.
         21    1    1    2  504  502 -0.29206350074E+02 -0.15011174368E+02 -0.55927104907E+03  0.56023428364E+03  0.00000000000E+00 0.  1.
         21    1    1    2  505  503 -0.23088104817E+02 -0.31814310303E+02  0.12365971308E+03  0.12975721777E+03  0.00000000000E+00 0.  1.
         21    1    1    2  506  501  0.64046593001E+02 -0.93057820286E+02  0.49811841367E+03  0.51076773394E+03  0.00000000000E+00 0.  1.
<scales pt_clust_3="14000.00000" pt_clust_4="32.83818" pt_clust_5="39.77873" pt_clust_6="130.54865"></scales>
<clustering>
<clus scale="   32.838">  2  4  1 -1</clus>
<clus scale="   39.779">  1  5  2 -1</clus>
<clus scale="  130.549">  1  6  2 -1</clus>
<clus scale="   39.779">  1  3  2 -1</clus>
</clustering>
</event>
<event>
 6    0  0.4582113E+002  0.1006310E+03  0.7546771E-02  0.1278975E+00
         21   -1    0    0  503  501  0.00000000000E+00  0.00000000000E+00  0.32679114716E+03  0.32679114716E+03  0.00000000000E+00 0. -1.
         21   -1    0    0  504  502 -0.00000000000E+00 -0.00000000000E+00 -0.70935550538E+03  0.70935550538E+03  0.00000000000E+00 0. -1.
         21    1    1    2  503  502 -0.12315755735E+03 -0.50915726729E+02 -0.47852717232E+03  0.49673780791E+03  0.00000000000E+00 0. -1.
         21    1    1    2  504  506  0.21569994635E+02  0.34623115226E+02 -0.19887678213E+03  0.20301723879E+03  0.00000000000E+00 0. -1.
         21    1    1    2  505  501  0.28782192109E+02  0.24008279606E+02  0.24493908787E+03  0.24779017098E+03  0.00000000000E+00 0. -1.
         21    1    1    2  506  505  0.72805370604E+02 -0.77156681027E+01  0.49900508362E+02  0.88601434852E+02  0.00000000000E+00 0. -1.
<scales pt_clust_3="14000.00000" pt_clust_4="41.70983" pt_clust_5="37.48082" pt_clust_6="100.63098"></scales>
<clustering>
<clus scale="   37.481">  1  5  2 -1</clus>
<clus scale="   41.710">  2  4  1 -1</clus>
<clus scale="  100.631">  1  6  2 -1</clus>
<clus scale="   37.481">  1  3  2 -1</clus>
</clustering>
</event>
<event>
 6    0  0.4582113E+002  0.8007489E+02  0.7546771E-02  0.1328839E+00
         21   -1    0    0  506  501  0.00000000000E+00  0.00000000000E+00  0.20336628933E+03  0.20336628933E+03  0.00000000000E+00 0.  1.
         21   -1    0    0  504  502 -0.00000000000E+00 -0.00000000000E+00 -0.27149498229E+03  0.27149498229E+03  0.00000000000E+00 0.  1.
         21    1    1    2  503  502 -0.21155077401E+02 -0.24778025434E+02 -0.33938708446E+02  0.47045975123E+02  0.00000000000E+00 0.  1.
         21    1    1    2  504  501 -0.31128308122E+02  0.12345832030E+02 -0.17096163453E+03  0.17421042339E+03  0.00000000000E+00 0.  1.
         21    1    1    2  505  503  0.12222149966E+03  0.10255626778E+01  0.30669007819E+02  0.12601481976E+03  0.00000000000E+00 0.  1.
         21    1    1    2  506  505 -0.69938114139E+02  0.11406630726E+02  0.10610264220E+03  0.12759005336E+03  0.00000000000E+00 0.  1.
<scales pt_clust_3="32.58048" pt_clust_4="47.33696" pt_clust_5="80.07489" pt_clust_6="14000.00000"></scales>
<clustering>
<clus scale="   32.580">  2  3  1 -1</clus>
<clus scale="   47.337">  2  4  1 -1</clus>
<clus scale="   80.075">  2  5  1 -1</clus>
<clus scale="   80.075">  1  3  2 -1</clus>
</clustering>
</event>
<event>
 6    0  0.4582113E+002  0.7317694E+02  0.7546771E-02  0.1349611E+00
         21   -1    0    0  506  501  0.00000000000E+00  0.00000000000E+00  0.32644869220E+02  0.32644869220E+02  0.00000000000E+00 0. -1.
         21   -1    0    0  504  502 -0.00000000000E+00 -0.00000000000E+00 -0.14441531823E+04  0.14441531823E+04  0.00000000000E+00 0.  1.
         21    1    1    2  503  501 -0.34714390537E+01 -0.32078375586E+02 -0.10158809061E+03  0.10658899204E+03  0.00000000000E+00 0.  1.
         21    1    1    2  504  503  0.51604398240E+02 -0.46704671972E+02 -0.10624784358E+04  0.10647557311E+04  0.00000000000E+00 0.  1.
         21    1    1    2  505  502 -0.71903417664E+02  0.10678174199E+03 -0.23258322519E+03  0.26583340372E+03  0.00000000000E+00 0. -1.
         21    1    1    2  506  505  0.23770458478E+02 -0.27998694433E+02 -0.14858561534E+02  0.39619924748E+02  0.00000000000E+00 0. -1.
<scales pt_clust_3="32.26566" pt_clust_4="14000.00000" pt_clust_5="73.17694" pt_clust_6="46.84610"></scales>
<clustering>
<clus scale="   32.266">  1  3  2 -1</clus>
<clus scale="   46.846">  1  6  2 -1</clus>
<clus scale="   73.177">  1  5  2 -1</clus>
<clus scale="   32.266">  1  3  2 -1</clus>
</clustering>
</event>
<event>
 6    0  0.4582113E+002  0.1406280E+03  0.7546771E-02  0.1212486E+00
         21   -1    0    0  505  501  0.00000000000E+00  0.00000000000E+00  0.33178880321E+03  0.33178880321E+03  0.00000000000E+00 0. -1.
         21   -1    0    0  503  502 -0.00000000000E+00 -0.00000000000E+00 -0.12014242207E+04  0.12014242207E+04  0.00000000000E+00 0. -1.
         21    1    1    2  503  504  0.57803392473E+02  0.57120574070E+02 -0.10430892626E+04  0.10462500666E+04  0.00000000000E+00 0. -1.
         21    1    1    2  504  501  0.44052206237E+02 -0.19036486958E+01  0.78501330437E+02  0.90037101426E+02  0.00000000000E+00 0. -1.
         21    1    1    2  505  506  0.60082623412E+02  0.88754121530E+02  0.13929049537E+03  0.17575283163E+03  0.00000000000E+00 0. -1.
         21    1    1    2  506  502 -0.16193822212E+03 -0.14397104690E+03 -0.44337980752E+02  0.22117302428E+03  0.00000000000E+00 0. -1.
<scales pt_clust_3="81.45674" pt_clust_4="44.09332" pt_clust_5="140.62804" pt_clust_6="14000.00000"></scales>
<clustering>
<clus scale="   44.093">  1  4  2 -1</clus>
<clus scale="   81.457">  2  3  1 -1</clus>
<clus scale="  140.628">  1  5  2 -1</clus>
<clus scale="   44.093">  1  3  2 -1</clus>
</clustering>
</event>
<event>
 6    0  0.4582113E+002  0.1762358E+03  0.7546771E-02  0.1171497E+00
         21   -1    0    0  505  501  0.00000000000E+00  0.00000000000E+00  0.18376297416E+04  0.18376297416E+04  0.00000000000E+00 0. -1.
         21   -1    0    0  503  502 -0.00000000000E+00 -0.00000000000E+00 -0.54246524123E+02  0.54246524123E+02  0.00000000000E+00 0.  1.
         21    1    1    2  503  504  0.31488374667E+02  0.90549034655E+01  0.45523553353E+02  0.56088349288E+02  0.00000000000E+00 0.  1.
         21    1    1    2  504  506  0.38247041984E+02  0.36852633419E+02  0.82418792819E+03  0.82589750804E+03  0.00000000000E+00 0. -1.
         21    1    1    2  505  502 -0.10634034850E+03 -0.14929021670E+03  0.14575089729E+03  0.23417763041E+03  0.00000000000E+00 0.  1.
         21    1    1    2  506  501  0.36604931844E+02  0.10338267982E+03  0.76792083860E+03  0.77571277795E+03  0.00000000000E+00 0. -1.
<scales pt_clust_3="32.76445" pt_clust_4="49.47328" pt_clust_5="161.19134" pt_clust_6="49.47328"></scales>
<clustering>
<clus scale="   32.764">  2  3  1 -1</clus>
<clus scale="   49.473">  4  6 -1 -1</clus>
<clus scale="  161.191">  2  5  1 -1</clus>
<clus scale="  176.236">  1  3  2 -1</clus>
</clustering>
</event>
<event>
 6    0  0.4582113E+002  0.8615593E+02  0.7546771E-02  0.1312437E+00
         21   -1    0    0  504  501  0.00000000000E+00  0.00000000000E+00  0.25756351760E+03  0.25756351760E+03  0.00000000000E+00 0.  1.
         21   -1    0    0  506  502 -0.00000000000E+00 -0.00000000000E+00 -0.14405362677E+04  0.14405362677E+04  0.00000000000E+00 0.  1.
         21    1    1    2  503  505 -0.40372229943E+02  0.12018469929E+02  0.74367345819E+02  0.85468489481E+02  0.00000000000E+00 0.  1.
         21    1    1    2  504  503 -0.35807169009E+02  0.19070654575E+01  0.16817725272E+03  0.17195749063E+03  0.00000000000E+00 0.  1.
         21    1    1    2  505  502  0.74063309891E+02  0.69371920789E+02 -0.10996387347E+04  0.11043111808E+04  0.00000000000E+00 0.  1.
         21    1    1    2  506  501  0.21160890618E+01 -0.83297456175E+02 -0.32587861397E+03  0.33636262438E+03  0.00000000000E+00 0. -1.
<scales pt_clust_3="35.04854" pt_clust_4="35.04854" pt_clust_5="77.32924" pt_clust_6="83.32433"></scales>
<clustering>
<clus scale="   35.049">  3  4 -1 -1</clus>
<clus scale="   83.324">  2  6  1 -1</clus>
<clus scale="   77.329">  2  5  1 -1</clus>
<clus scale="   86.156">  1  3  2 -1</clus>
</clustering>
</event>
<event>
 6    0  0.4582113E+002  0.1248814E+03  0.7546771E-02  0.1235255E+00
         21   -1    0    0  505  501  0.00000000000E+00  0.00000000000E+00  0.10804590664E+03  0.10804590664E+03  0.00000000000E+00 0.  1.
         21   -1    0    0  503  502 -0.00000000000E+00 -0.00000000000E+00 -0.11483307128E+04  0.11483307128E+04  0.00000000000E+00 0.  1.
         21    1    1    2  503  504 -0.13925659374E+03 -0.15582216336E+02 -0.99680794433E+03  0.10066088030E+04  0.00000000000E+00 0.  1.
         21    1    1    2  504  501  0.27783743657E+02 -0.18574642946E+02  0.10185085481E+02  0.34938370574E+02  0.00000000000E+00 0.  1.
         21    1    1    2  505  506  0.29455995669E+02  0.19274281762E+02  0.62573021716E+02  0.71795101957E+02  0.00000000000E+00 0.  1.
         21    1    1    2  506  502  0.82016854411E+02  0.14882577520E+02 -0.11623496906E+03  0.14303434397E+03  0.00000000000E+00 0.  1.
<scales pt_clust_3="14000.00000" pt_clust_4="33.42086" pt_clust_5="51.50461" pt_clust_6="124.88140"></scales>
<clustering>
<clus scale="   33.421">  1  4  2 -1</clus>
<clus scale="   51.505">  1  5  2 -1</clus>
<clus scale="  124.881">  1  6  2 -1</clus>
<clus scale="   33.421">  1  3  2 -1</clus>
</clustering>
</event>
<event>
 6    0  0.4582113E+002  0.1306271E+03  0.7546771E-02  0.1226528E+00
         21   -1    0    0  504  501  0.00000000000E+00  0.00000000000E+00  0.38225402960E+03  0.38225402960E+03  0.00000000000E+00 0. -1.
         21   -1    0    0  503  502 -0.00000000000E+00 -0.00000000000E+00 -0.16187734170E+04  0.16187734170E+04  0.00000000000E+00 0.  1.
         21    1    1    2  503  501 -0.36907680807E+02 -0.37129470257E+02 -0.11224778014E+04  0.11236979973E+04  0.00000000000E+00 0.  1.
         21    1    1    2  504  506 -0.12342954533E+02  0.33279772964E+02  0.28845520828E+03  0.29063086381E+03  0.00000000000E+00 0. -1.
         21    1    1    2  505  502  0.15890784542E+03 -0.12627689922E+02 -0.44130657868E+03  0.46921493824E+03  0.00000000000E+00 0.  1.
         21    1    1    2  506  505 -0.10965721008E+03  0.16477387216E+02  0.38809784381E+02  0.11748364727E+03  0.00000000000E+00 0.  1.
<scales pt_clust_3="52.25478" pt_clust_4="35.49495" pt_clust_5="14000.00000" pt_clust_6="130.62706"></scales>
<clustering>
<clus scale="   35.495">  1  4  2 -1</clus>
<clus scale="   52.255">  2  3  1 -1</clus>
<clus scale="  130.627">  1  6  2 -1</clus>
<clus scale="   35.495">  1  3  2 -1</clus>
</clustering>
</event>
<event>
 6    0  0.4582113E+002  0.8142885E+02  0.7546771E-02  0.1325045E+00
         21   -1    0    0  503  501  0.00000000000E+00  0.00000000000E+00  0.10939582067E+03  0.10939582067E+03  0.00000000000E+00 0.  1.
         21   -1    0    0  505  502 -0.00000000000E+00 -0.00000000000E+00 -0.10348017269E+04  0.10348017269E+04  0.00000000000E+00 0. -1.
         21    1    1    2  503  504 -0.22886709550E+02  0.54853383348E+02  0.33258018343E+02  0.68108669954E+02  0.00000000000E+00 0.  1.
         21    1    1    2  504  502  0.33944497475E+01  0.30309878712E+02 -0.80142114562E+03  0.80200128659E+03  0.00000000000E+00 0. -1.
         21    1    1    2  505  506 -0.27603330924E+02 -0.10990461229E+03 -0.18279543137E+03  0.21507007558E+03  0.00000000000E+00 0. -1.
         21    1    1    2  506  501  0.47095590726E+02  0.24741350230E+02  0.25552652459E+02  0.59017515406E+02  0.00000000000E+00 0.  1.
<scales pt_clust_3="14000.00000" pt_clust_4="30.49936" pt_clust_5="81.42885" pt_clust_6="54.45676"></scales>
<clustering>
<clus scale="   30.499">  2  4  1 -1</clus>
<clus scale="   54.457">  1  6  2 -1</clus>
<clus scale="   81.429">  2  5  1 -1</clus>
<clus scale="   54.457">  1  3  2 -1</clus>
</clustering>
</event>
<event>
 6    0  0.4582113E+002  0.1030300E+03  0.7546771E-02  0.1274050E+00
         21   -1    0    0  502  501  0.00000000000E+00  0.00000000000E+00  0.33010706018E+02  0.33010706018E+02  0.00000000000E+00 0. -1.
         21   -1    0    0  505  502 -0.00000000000E+00 -0.00000000000E+00 -0.13533108239E+04  0.13533108239E+04  0.00000000000E+00 0.  1.
         21    1    1    2  503  506 -0.40887961713E+02 -0.92595886837E+01 -0.33553988392E+02  0.53697630606E+02  0.00000000000E+00 0. -1.
         21    1    1    2  504  503  0.60570937201E+02  0.86915941947E+02 -0.43273041600E+03  0.44550963214E+03  0.00000000000E+00 0.  1.
         21    1    1    2  505  504  0.21851362844E+02 -0.11240811994E+03 -0.80792725401E+03  0.81600215395E+03  0.00000000000E+00 0.  1.
         21    1    1    2  506  501 -0.41534338332E+02  0.34751766679E+02 -0.46088459461E+02  0.71112113198E+02  0.00000000000E+00 0. -1.
<scales pt_clust_3="37.23812" pt_clust_4="103.02996" pt_clust_5="14000.00000" pt_clust_6="96.09658"></scales>
<clustering>
<clus scale="   37.238">  3  6 -1 -1</clus>
<clus scale="   96.097">  1  3  2 -1</clus>
<clus scale="  103.030">  1  4  2 -1</clus>
<clus scale="   96.097">  1  3  2 -1</clus>
</clustering>
</event>
<event>
 6    0  0.4582113E+002  0.1095179E+03  0.7546771E-02  0.1261465E+00
         21   -1    0    0  505  501  0.00000000000E+00  0.00000000000E+00  0.40646231435E+02  0.40646231435E+02  0.00000000000E+00 0.  1.
         21   -1    0    0  506  502 -0.00000000000E+00 -0.00000000000E+00 -0.15617715626E+04  0.15617715626E+04  0.00000000000E+00 0.  1.
         21    1    1    2  503  501 -0.31128265102E+02 -0.68032464959E+02 -0.19228812777E+02  0.77247216245E+02  0.00000000000E+00 0.  1.
         21    1    1    2  504  502  0.56946703503E+02  0.12503044351E+03 -0.75309980230E+03  0.76552913144E+03  0.00000000000E+00 0.  1.
         21    1    1    2  505  504 -0.40705123789E+02 -0.17934629551E+02 -0.99377257426E+02  0.10887790103E+03  0.00000000000E+00 0.  1.
         21    1    1    2  506  503  0.14886685387E+02 -0.39063349004E+02 -0.64941945864E+03  0.65076354530E+03  0.00000000000E+00 0.  1.
<scales pt_clust_3="109.51785" pt_clust_4="14000.00000" pt_clust_5="44.97744" pt_clust_6="41.80381"></scales>
<clustering>
<clus scale="   41.804">  2  6  1 -1</clus>
<clus scale="   44.977">  1  5  2 -1</clus>
<clus scale="  109.518">  1  3  2 -1</clus>
<clus scale="   44.977">  1  3  2 -1</clus>
</clustering>
</event>
<event>
 6    0  0.4582113E+002  0.2243785E+03  0.7546771E-02  0.1130660E+00
         21   -1    0    0  506  501  0.00000000000E+00  0.00000000000E+00  0.45174314832E+03  0.45174314832E+03  0.00000000000E+00 0.  1.
         21   -1    0    0  504  502 -0.00000000000E+00 -0.00000000000E+00 -0.19897196246E+04  0.19897196246E+04  0.00000000000E+00 0.  1.
         21    1    1    2  503  502 -0.15386876045E+03  0.12740549238E+03 -0.18657206486E+04  0.18763851666E+04  0.00000000000E+00 0.  1.
         21    1    1    2  504  501  0.90641696283E+02  0.98710383329E+02  0.27151664408E+03  0.30278861421E+03  0.00000000000E+00 0.  1.
         21    1    1    2  505  503  0.57393820258E+02 -0.11754330313E+03 -0.15961637824E+02  0.13177728407E+03  0.00000000000E+00 0.  1.
         21    1    1    2  506  505  0.58332439077E+01 -0.10857257258E+03  0.72189166012E+02  0.13051170806E+03  0.00000000000E+00 0.  1.
<scales pt_clust_3="199.59407" pt_clust_4="134.01364" pt_clust_5="93.45791" pt_clust_6="93.45791"></scales>
<clustering>
<clus scale="   93.458">  5  6 -1 -1</clus>
<clus scale="  134.014">  1  4  2 -1</clus>
<clus scale="  199.594">  2  3  1 -1</clus>
<clus scale="  134.014">  1  3  2 -1</clus>
</clustering>
</event>
<event>
 6    0  0.4582113E+002  0.1060722E+03  0.7546771E-02  0.1268021E+00
         21   -1    0    0  504  501  0.00000000000E+00  0.00000000000E+00  0.19082372904E+03  0.19082372904E+03  0.00000000000E+00 0.  1.
         21   -1    0    0  505  502 -0.00000000000E+00 -0.00000000000E+00 -0.46780343531E+03  0.46780343531E+03  0.00000000000E+00 0. -1.
         21    1    1    2  503  506  0.69079941866E+02 -0.62058026332E+01 -0.61547190809E+02  0.92728674373E+02  0.00000000000E+00 0. -1.
         21    1    1    2  504  503 -0.79672065951E+02  0.95256538545E+02  0.12362156194E+03  0.17522481789E+03  0.00000000000E+00 0.  1.
         21    1    1    2  505  501  0.15794918818E+02 -0.48608564848E+02 -0.19867684610E+01  0.51148991055E+02  0.00000000000E+00 0. -1.
         21    1    1    2  506  502 -0.52027947319E+01 -0.40442171064E+02 -0.33706730894E+03  0.33952468103E+03  0.00000000000E+00 0. -1.
<scales pt_clust_3="14000.00000" pt_clust_4="106.07225" pt_clust_5="58.78003" pt_clust_6="40.77546"></scales>
<clustering>
<clus scale="   40.775">  2  6  1 -1</clus>
<clus scale="   58.780">  2  5  1 -1</clus>
<clus scale="  106.072">  1  4  2 -1</clus>
<clus scale="  106.072">  1  3  2 -1</clus>
</clustering>
</event>
<event>
 6    0  0.4582113E+002  0.1132518E+03  0.7546771E-02  0.1254664E+00
         21   -1    0    0  505  501  0.00000000000E+00  0.00000000000E+00  0.45375050075E+03  0.45375050075E+03  0.00000000000E+00 0. -1.
         21   -1    0    0  503  502 -0.00000000000E+00 -0.00000000000E+00 -0.13394238432E+03  0.13394238432E+03  0.00000000000E+00 0.  1.
         21    1    1    2  503  504  0.17084401862E+02  0.36174709036E+02 -0.62767196294E+02  0.74432568754E+02  0.00000000000E+00 0.  1.
         21    1    1    2  504  506  0.23839294362E+02  0.55914865292E+02 -0.13883696506E+02  0.62350149519E+02  0.00000000000E+00 0.  1.
         21    1    1    2  505  502  0.59925760742E+02 -0.78995735498E+01  0.43996950913E+02  0.74761164734E+02  0.00000000000E+00 0.  1.
         21    1    1    2  506  501 -0.10084945697E+03 -0.84190000778E+02  0.35246205831E+03  0.37614900206E+03  0.00000000000E+00 0. -1.
<scales pt_clust_3="40.00608" pt_clust_4="113.25181" pt_clust_5="63.95052" pt_clust_6="14000.00000"></scales>
<clustering>
<clus scale="   40.006">  2  3  1 -1</clus>
<clus scale="   63.951">  2  5  1 -1</clus>
<clus scale="  113.252">  2  4  1 -1</clus>
<clus scale="  113.252">  1  3  2 -1</clus>
</clustering>
</event>
<event>
 6    0  0.4582113E+002  0.7163864E+02  0.7546771E-02  0.1354608E+00
         21   -1    0    0  503  501  0.00000000000E+00  0.00000000000E+00  0.41282685725E+03  0.41282685725E+03  0.00000000000E+00 0. -1.
         21   -1    0    0  506  502 -0.00000000000E+00 -0.00000000000E+00 -0.55130974571E+03  0.55130974571E+03  0.00000000000E+00 0.  1.
         21    1    1    2  503  504  0.86965647831E+02 -0.33157514964E+02  0.28922348245E+03  0.30382999770E+03  0.00000000000E+00 0. -1.
         21    1    1    2  504  505  0.27474352697E+02  0.59821167945E+02  0.20106013185E+02  0.68830690514E+02  0.00000000000E+00 0. -1.
         21    1    1    2  505  502 -0.62603525803E+02 -0.36828445636E+02 -0.50698153762E+03  0.51215799841E+03  0.00000000000E+00 0.  1.
         21    1    1    2  506  501 -0.51836474724E+02  0.10164792655E+02  0.59169153526E+02  0.79317916327E+02  0.00000000000E+00 0.  1.
<scales pt_clust_3="48.76348" pt_clust_4="14000.00000" pt_clust_5="71.63864" pt_clust_6="52.82370"></scales>
<clustering>
<clus scale="   52.824">  1  6  2 -1</clus>
<clus scale="   48.763">  1  3  2 -1</clus>
<clus scale="   71.639">  2  5  1 -1</clus>
<clus scale="   52.824">  1  3  2 -1</clus>
</clustering>
</event>
<event>
 6    0  0.4582113E+002  0.1637010E+03  0.7546771E-02  0.1184581E+00
         21   -1    0    0  503  501  0.00000000000E+00  0.00000000000E+00  0.11430229881E+03  0.11430229881E+03  0.00000000000E+00 0.  1.
         21   -1    0    0  505  502 -0.00000000000E+00 -0.00000000000E+00 -0.35671631236E+03  0.35671631236E+03  0.00000000000E+00 0.  1.
         21    1    1    2  503  506  0.57678052877E+02 -0.44477475728E+02 -0.51530871933E+02  0.89221266484E+02  0.00000000000E+00 0.  1.
         21    1    1    2  504  501 -0.48461872337E+02 -0.34101154213E+02  0.47044058713E+01  0.59443866156E+02  0.00000000000E+00 0. -1.
         21    1    1    2  505  504 -0.45993878551E+02  0.15869345783E+03 -0.14977931963E+03  0.22300873303E+03  0.00000000000E+00 0.  1.
         21    1    1    2  506  502  0.36777698010E+02 -0.80114827886E+02 -0.45808227852E+02  0.99344745492E+02  0.00000000000E+00 0.  1.
<scales pt_clust_3="36.77827" pt_clust_4="59.25742" pt_clust_5="158.62189" pt_clust_6="36.77827"></scales>
<clustering>
<clus scale="   36.778">  3  6 -1 -1</clus>
<clus scale="   59.257">  1  4  2 -1</clus>
<clus scale="  158.622">  2  5  1 -1</clus>
<clus scale="   59.257">  1  3  2 -1</clus>
</clustering>
</event>
<event>
 6    0  0.4582113E+002  0.9492860E+02  0.7546771E-02  0.1291337E+00
         21   -1    0    0  504  501  0.00000000000E+00  0.00000000000E+00  0.10407209174E+04  0.10407209174E+04  0.00000000000E+00 0.  1.
         21   -1    0    0  506  502 -0.00000000000E+00 -0.00000000000E+00 -0.31867003852E+03  0.31867003852E+03  0.00000000000E+00 0.  1.
         21    1    1    2  503  502  0.38136450681E+02  0.48895439686E+02  0.35722281164E+02  0.71562799444E+02  0.00000000000E+00 0.  1.
         21    1    1    2  504  503 -0.48230173957E+02 -0.20082257260E+02  0.75147732817E+03  0.75329119303E+03  0.00000000000E+00 0.  1.
         21    1    1    2  505  501  0.10198059385E+02  0.67071686621E+02  0.22182535716E+03  0.23196788709E+03  0.00000000000E+00 0.  1.
         21    1    1    2  506  505 -0.10433610981E+00 -0.95884869047E+02 -0.28697408762E+03  0.30256907635E+03  0.00000000000E+00 0.  1.
<scales pt_clust_3="53.75762" pt_clust_4="52.24411" pt_clust_5="94.92860" pt_clust_6="14000.00000"></scales>
<clustering>
<clus scale="   52.244">  1  4  2 -1</clus>
<clus scale="   53.758">  1  3  2 -1</clus>
<clus scale="   94.929">  1  5  2 -1</clus>
<clus scale="   52.244">  1  3  2 -1</clus>
</clustering>
</event>
<event>
 6    0  0.4582113E+002  0.1004005E+03  0.7546771E-02  0.1279456E+00
         21   -1    0    0  503  501  0.00000000000E+00  0.00000000000E+00  0.12122259532E+03  0.12122259532E+03  0.00000000000E+00 0. -1.
         21   -1    0    0  501  502 -0.00000000000E+00 -0.00000000000E+00 -0.22347993989E+03  0.22347993989E+03  0.00000000000E+00 0. -1.
         21    1    1    2  503  506  0.44002311762E+02 -0.32408930087E+02 -0.77016335097E+00  0.54654691852E+02  0.00000000000E+00 0. -1.
         21    1    1    2  504  502 -0.70894727371E+02 -0.29389762285E+02 -0.10307226390E+03  0.12850568891E+03  0.00000000000E+00 0. -1.
         21    1    1    2  505  504  0.53210931733E+01  0.10164248047E+03 -0.30233708321E+02  0.10617713967E+03  0.00000000000E+00 0. -1.
         21    1    1    2  506  505  0.21571322435E+02 -0.39843788100E+02  0.31818790995E+02  0.55365014785E+02  0.00000000000E+00 0. -1.
<scales pt_clust_3="36.64793" pt_clust_4="76.74517" pt_clust_5="91.97992" pt_clust_6="36.64793"></scales>
<clustering>
<clus scale="   36.648">  3  6 -1 -1</clus>
<clus scale="   76.745">  2  4  1 -1</clus>
<clus scale="   91.980">  2  5  1 -1</clus>
<clus scale="  100.401">  1  3  2 -1</clus>
</clustering>
</event>
<event>
 6    0  0.4582113E+002  0.1717290E+03  0.7546771E-02  0.1176057E+00
         21   -1    0    0  503  501  0.00000000000E+00  0.00000000000E+00  0.20913978286E+03  0.20913978286E+03  0.00000000000E+00 0. -1.
         21   -1    0    0  504  502 -0.00000000000E+00 -0.00000000000E+00 -0.26121367666E+03  0.26121367666E+03  0.00000000000E+00 0. -1.
         21    1    1    2  503  506 -0.10750467138E+01 -0.83280519608E+02  0.66930481750E+02  0.10684797639E+03  0.00000000000E+00 0. -1.
         21    1    1    2  504  505  0.30430570322E+02 -0.37400810399E+02 -0.67300860947E+01  0.48684024972E+02  0.00000000000E+00 0. -1.
         21    1    1    2  505  501  0.10651294009E+03 -0.55499769758E+01 -0.23519201781E+02  0.10921978531E+03  0.00000000000E+00 0. -1.
         21    1    1    2  506  502 -0.13586846370E+03  0.12623130698E+03 -0.88755087675E+02  0.20560167285E+03  0.00000000000E+00 0. -1.
<scales pt_clust_3="83.28746" pt_clust_4="39.32192" pt_clust_5="39.32192" pt_clust_6="161.46378"></scales>
<clustering>
<clus scale="   39.322">  4  5 -1 -1</clus>
<clus scale="   83.287">  1  3  2 -1</clus>
<clus scale="  161.464">  2  6  1 -1</clus>
<clus scale="   83.287">  1  3  2 -1</clus>
</clustering>
</event>
<event>
 6    0  0.4582113E+002  0.1343771E+03  0.7546771E-02  0.1221102E+00
         21   -1    0    0  503  501  0.00000000000E+00  0.00000000000E+00  0.87453557330E+02  0.87453557330E+02  0.00000000000E+00 0. -1.
         21   -1    0    0  506  502 -0.00000000000E+00 -0.00000000000E+00 -0.48292407698E+03  0.48292407698E+03  0.00000000000E+00 0. -1.
         21    1    1    2  503  504 -0.35367243942E+02  0.53435132669E+02 -0.14538666389E+02  0.65707900345E+02  0.00000000000E+00 0. -1.
         21    1    1    2  504  505 -0.65981780412E+02  0.32716740688E+02 -0.48002716449E+02  0.87910416072E+02  0.00000000000E+00 0. -1.
         21    1    1    2  505  502  0.90820519575E+02  0.56026292189E+02 -0.12092148863E+03  0.16127404814E+03  0.00000000000E+00 0. -1.
         21    1    1    2  506  501  0.10528504778E+02 -0.14217816555E+03 -0.21200764818E+03  0.25548526975E+03  0.00000000000E+00 0. -1.
<scales pt_clust_3="41.64623" pt_clust_4="41.64623" pt_clust_5="106.71135" pt_clust_6="126.74307"></scales>
<clustering>
<clus scale="   41.646">  3  4 -1 -1</clus>
<clus scale="  106.711">  2  5  1 -1</clus>
<clus scale="  126.743">  2  6  1 -1</clus>
<clus scale="  134.377">  1  3  2 -1</clus>
</clustering>
</event>
<event>
 6    0  0.4582113E+002  0.1878752E+03  0.7546771E-02  0.1160392E+00
         21   -1    0    0  502  501  0.00000000000E+00  0.00000000000E+00  0.26533621827E+03  0.26533621827E+03  0.00000000000E+00 0.  1.
         21   -1    0    0  504  502 -0.00000000000E+00 -0.00000000000E+00 -0.44685738853E+03  0.44685738853E+03  0.00000000000E+00 0. -1.
         21    1    1    2  503  506 -0.10292007290E+03  0.74016086593E+02  0.78635861543E+01  0.12701479625E+03  0.00000000000E+00 0. -1.
         21    1    1    2  504  503 -0.25295329322E+02 -0.29439118059E+02 -0.29711468063E+03  0.29963919771E+03  0.00000000000E+00 0. -1.
         21    1    1    2  505  501  0.17304589443E+03 -0.66622910279E+02  0.13430128680E+03  0.22895486322E+03  0.00000000000E+00 0.  1.
         21    1    1    2  506  505 -0.44830492208E+02  0.22045941745E+02 -0.26571362581E+02  0.56584749610E+02  0.00000000000E+00 0. -1.
<scales pt_clust_3="30.11059" pt_clust_4="38.81386" pt_clust_5="181.64921" pt_clust_6="30.11059"></scales>
<clustering>
<clus scale="   30.111">  3  6 -1 -1</clus>
<clus scale="   38.814">  2  4  1 -1</clus>
<clus scale="  181.649">  1  5  2 -1</clus>
<clus scale="  181.649">  1  3  2 -1</clus>
</clustering>
</event>
<event>
 6    0  0.4582113E+002  0.9801066E+02  0.7546771E-02  0.1284536E+00
         21   -1    0    0  505  501  0.00000000000E+00  0.00000000000E+00  0.50572889012E+02  0.50572889012E+02  0.00000000000E+00 0. -1.
         21   -1    0    0  504  502 -0.00000000000E+00 -0.00000000000E+00 -0.11714192078E+04  0.11714192078E+04  0.00000000000E+00 0.  1.
         21    1    1    2  503  502 -0.27094264594E+02  0.61055716015E+02 -0.43802140280E+03  0.44308537433E+03  0.00000000000E+00 0.  1.
         21    1    1    2  504  501  0.23593319766E+02 -0.14493252494E+03 -0.66783142884E+03  0.68378424878E+03  0.00000000000E+00 0.  1.
         21    1    1    2  505  506 -0.13597448675E+02  0.27037989430E+02  0.82656855442E+01  0.31372998588E+02  0.00000000000E+00 0. -1.
         21    1    1    2  506  503  0.17098393502E+02  0.56838819492E+02 -0.23259172658E+02  0.63749475091E+02  0.00000000000E+00 0. -1.
<scales pt_clust_3="66.79745" pt_clust_4="88.48833" pt_clust_5="30.09183" pt_clust_6="30.09183"></scales>
<clustering>
<clus scale="   30.092">  5  6 -1 -1</clus>
<clus scale="   66.797">  2  3  1 -1</clus>
<clus scale="   88.488">  2  4  1 -1</clus>
<clus scale="   98.011">  1  3  2 -1</clus>
</clustering>
</event>
<event>
 6    0  0.4582113E+002  0.1608214E+03  0.7546771E-02  0.1187772E+00
         21   -1    0    0  504  501  0.00000000000E+00  0.00000000000E+00  0.24191915985E+03  0.24191915985E+03  0.00000000000E+00 0.  1.
         21   -1    0    0  505  502 -0.00000000000E+00 -0.00000000000E+00 -0.31621451560E+03  0.31621451560E+03  0.00000000000E+00 0.  1.
         21    1    1    2  503  506 -0.14280926421E+03 -0.48656892443E+02  0.42035004620E+02  0.15661711510E+03  0.00000000000E+00 0.  1.
         21    1    1    2  504  502  0.46028584211E+02 -0.88878068740E+02  0.35559832117E+02  0.10621884639E+03  0.00000000000E+00 0.  1.
         21    1    1    2  505  503  0.13189103883E+03  0.10116384589E+03 -0.17354094535E+03  0.24030361951E+03  0.00000000000E+00 0.  1.
         21    1    1    2  506  501 -0.35110358825E+02  0.36371115296E+02  0.21650752863E+02  0.54994094449E+02  0.00000000000E+00 0.  1.
<scales pt_clust_3="14000.00000" pt_clust_4="83.37441" pt_clust_5="160.82142" pt_clust_6="50.55290"></scales>
<clustering>
<clus scale="   50.553">  1  6  2 -1</clus>
<clus scale="   83.374">  1  4  2 -1</clus>
<clus scale="  160.821">  2  5  1 -1</clus>
<clus scale="   50.553">  1  3  2 -1</clus>
</clustering>
</event>
<event>
 6    0  0.4582113E+002  0.9913166E+02  0.7546771E-02  0.1282133E+00
         21   -1    0    0  504  501  0.00000000000E+00  0.00000000000E+00  0.18715114882E+04  0.18715114882E+04  0.00000000000E+00 0. -1.
         21   -1    0    0  505  502 -0.00000000000E+00 -0.00000000000E+00 -0.14044937071E+03  0.14044937071E+03  0.00000000000E+00 0. -1.
         21    1    1    2  503  502  0.92849954771E+02 -0.94155687542E+01 -0.10788958528E+03  0.14265317960E+03  0.00000000000E+00 0. -1.
         21    1    1    2  504  503 -0.38795119108E+02  0.29938943926E+02  0.34932630179E+03  0.35274674592E+03  0.00000000000E+00 0. -1.
         21    1    1    2  505  506 -0.22544491726E+02 -0.66699551484E+02  0.83061784679E+02  0.10888684195E+03  0.00000000000E+00 0. -1.
         21    1    1    2  506  501 -0.31510343937E+02  0.46176176312E+02  0.14065636163E+04  0.14076740914E+04  0.00000000000E+00 0. -1.
<scales pt_clust_3="99.13166" pt_clust_4="49.00410" pt_clust_5="69.46201" pt_clust_6="14000.00000"></scales>
<clustering>
<clus scale="   49.004">  1  4  2 -1</clus>
<clus scale="   69.462">  2  5  1 -1</clus>
<clus scale="   99.132">  2  3  1 -1</clus>
<clus scale="   49.004">  1  3  2 -1</clus>
</clustering>
</event>
<event>
 6    0  0.4582113E+002  0.9298159E+02  0.7546771E-02  0.1295788E+00
         21   -1    0    0  505  501  0.00000000000E+00  0.00000000000E+00  0.37896636368E+03  0.37896636368E+03  0.00000000000E+00 0. -1.
         21   -1    0    0  503  502 -0.00000000000E+00 -0.00000000000E+00 -0.38999064734E+03  0.38999064734E+03  0.00000000000E+00 0. -1.
         21    1    1    2  503  506  0.84296895959E+02  0.45953139701E+02 -0.61016538320E+02  0.11375709061E+03  0.00000000000E+00 0. -1.
         21    1    1    2  504  502 -0.68223515834E+02 -0.31965386408E+02 -0.27226565115E+03  0.28249746695E+03  0.00000000000E+00 0. -1.
         21    1    1    2  505  504 -0.99831818406E+02  0.67101872753E+01  0.19113034144E+03  0.21573647350E+03  0.00000000000E+00 0. -1.
         21    1    1    2  506  501  0.83758438281E+02 -0.20697940569E+02  0.13112756436E+03  0.15696597995E+03  0.00000000000E+00 0. -1.
<scales pt_clust_3="37.81923" pt_clust_4="75.34079" pt_clust_5="92.98159" pt_clust_6="14000.00000"></scales>
<clustering>
<clus scale="   75.341">  2  4  1 -1</clus>
<clus scale="   37.819">  2  3  1 -1</clus>
<clus scale="   92.982">  1  5  2 -1</clus>
<clus scale="   92.982">  1  3  2 -1</clus>
</clustering>
</event>
<event>
 6    0  0.4582113E+002  0.9933049E+02  0.7546771E-02  0.1281710E+00
         21   -1    0    0  505  501  0.00000000000E+00  0.00000000000E+00  0.18781812389E+02  0.18781812389E+02  0.00000000000E+00 0. -1.
         21   -1    0    0  503  502 -0.00000000000E+00 -0.00000000000E+00 -0.16326387197E+04  0.16326387197E+04  0.00000000000E+00 0. -1.
         21    1    1    2  503  506  0.33060510564E+02  0.97000698827E+01 -0.49093714013E+03  0.49214465788E+03  0.00000000000E+00 0. -1.
         21    1    1    2  504  501 -0.17582768315E+02  0.91361294115E+02 -0.18473154872E+03  0.20683758096E+03  0.00000000000E+00 0. -1.
         21    1    1    2  505  502  0.20752783908E+02 -0.12089565078E+03 -0.72022299512E+03  0.73059400430E+03  0.00000000000E+00 0. -1.
         21    1    1    2  506  504 -0.36230526157E+02  0.19834286781E+02 -0.21796522335E+03  0.22184428896E+03  0.00000000000E+00 0. -1.
<scales pt_clust_3="34.45415" pt_clust_4="14000.00000" pt_clust_5="99.33049" pt_clust_6="36.91377"></scales>
<clustering>
<clus scale="   34.454">  2  3  1 -1</clus>
<clus scale="   36.914">  2  6  1 -1</clus>
<clus scale="   99.330">  2  5  1 -1</clus>
<clus scale="   99.330">  1  3  2 -1</clus>
</clustering>
</event>
<event>
 6    0  0.4582113E+002  0.7729276E+02  0.7546771E-02  0.1336915E+00
         21   -1    0    0  505  501  0.00000000000E+00  0.00000000000E+00  0.40361149426E+02  0.40361149426E+02  0.00000000000E+00 0.  1.
         21   -1    0    0  504  502 -0.00000000000E+00 -0.00000000000E+00 -0.63230139925E+03  0.63230139925E+03  0.00000000000E+00 0.  1.
         21    1    1    2  503  501  0.12122647606E+03  0.22460798183E+02 -0.19422241400E+03  0.23004932526E+03  0.00000000000E+00 0.  1.
         21    1    1    2  504  503 -0.30409315790E+02 -0.31928723591E+02 -0.27285528365E+03  0.27639496322E+03  0.00000000000E+00 0.  1.
         21    1    1    2  505  506 -0.63205397142E+02 -0.11531891936E+02 -0.43004347082E+02  0.77312874914E+02  0.00000000000E+00 0.  1.
         21    1    1    2  506  502 -0.27611763126E+02  0.20999817344E+02 -0.81858205093E+02  0.88905385283E+02  0.00000000000E+00 0. -1.
<scales pt_clust_3="14000.00000" pt_clust_4="49.16776" pt_clust_5="77.29276" pt_clust_6="34.69008"></scales>
<clustering>
<clus scale="   34.690">  2  6  1 -1</clus>
<clus scale="   49.168">  2  4  1 -1</clus>
<clus scale="   77.293">  1  5  2 -1</clus>
<clus scale="   77.293">  1  3  2 -1</clus>
</clustering>
</event>
<event>
 6    0  0.4582113E+002  0.1196816E+03  0.7546771E-02  0.1243623E+00
         21   -1    0    0  505  501  0.00000000000E+00  0.00000000000E+00  0.83891562344E+02  0.83891562344E+02  0.00000000000E+00 0. -1.
         21   -1    0    0  504  502 -0.00000000000E+00 -0.00000000000E+00 -0.10668054417E+04  0.10668054417E+04  0.00000000000E+00 0. -1.
         21    1    1    2  503  506  0.69227168958E+02  0.14360102286E+03 -0.41904748996E+03  0.44834635443E+03  0.00000000000E+00 0. -1.
         21    1    1    2  504  501  0.11121376827E+02 -0.97463065802E+02 -0.67859502668E+01  0.98329971723E+02  0.00000000000E+00 0. -1.
         21    1    1    2  505  503 -0.38280993132E+02 -0.19241858112E+02  0.18304107625E+01  0.42883959032E+02  0.00000000000E+00 0. -1.
         21    1    1    2  506  502 -0.42067552654E+02 -0.26896098948E+02 -0.55891084989E+03  0.56113671886E+03  0.00000000000E+00 0.  1.
<scales pt_clust_3="14000.00000" pt_clust_4="119.68157" pt_clust_5="42.84488" pt_clust_6="50.70160"></scales>
<clustering>
<clus scale="   42.845">  1  5  2 -1</clus>
<clus scale="   50.702">  2  6  1 -1</clus>
<clus scale="  119.682">  1  4  2 -1</clus>
<clus scale="   42.845">  1  3  2 -1</clus>
</clustering>
</event>
<event>
 6    0  0.4582113E+002  0.8071714E+02  0.7546771E-02  0.1327029E+00
         21   -1    0    0  506  501  0.00000000000E+00  0.00000000000E+00  0.36486599966E+03  0.36486599966E+03  0.00000000000E+00 0. -1.
         21   -1    0    0  503  502 -0.00000000000E+00 -0.00000000000E+00 -0.13083557547E+03  0.13083557547E+03  0.00000000000E+00 0. -1.
         21    1    1    2  503  504 -0.41527890109E+02 -0.54980558164E+02  0.78636960508E+02  0.10455237439E+03  0.00000000000E+00 0. -1.
         21    1    1    2  504  501 -0.41655677275E+02  0.55215665612E+02  0.18821634624E+03  0.20052271235E+03  0.00000000000E+00 0. -1.
         21    1    1    2  505  502 -0.22002630778E+02 -0.59092907512E+02 -0.30560316197E+02  0.70071537770E+02  0.00000000000E+00 0. -1.
         21    1    1    2  506  505  0.10518619816E+03  0.58857800064E+02 -0.22625663600E+01  0.12055495062E+03  0.00000000000E+00 0. -1.
<scales pt_clust_3="80.71714" pt_clust_4="66.69768" pt_clust_5="63.05622" pt_clust_6="14000.00000"></scales>
<clustering>
<clus scale="   63.056">  2  5  1 -1</clus>
<clus scale="   66.698">  1  4  2 -1</clus>
<clus scale="   80.717">  1  3  2 -1</clus>
<clus scale="   66.698">  1  3  2 -1</clus>
</clustering>
</event>
<event>
 6    0  0.4582113E+002  0.1817634E+03  0.7546771E-02  0.1166107E+00
         21   -1    0    0  504  501  0.00000000000E+00  0.00000000000E+00  0.84377031266E+03  0.84377031266E+03  0.00000000000E+00 0.  1.
         21   -1    0    0  506  502 -0.00000000000E+00 -0.00000000000E+00 -0.64193236989E+02  0.64193236989E+02  0.00000000000E+00 0.  1.
         21    1    1    2  503  505  0.53008506914E+02  0.66043702944E+02  0.97658859037E+02  0.12926300806E+03  0.00000000000E+00 0.  1.
         21    1    1    2  504  503 -0.22303663794E+02  0.32567296964E+02  0.75737579629E+02  0.85406458879E+02  0.00000000000E+00 0.  1.
         21    1    1    2  505  502  0.11497445247E+02  0.84227313372E+02  0.34739774374E+02  0.91832910706E+02  0.00000000000E+00 0.  1.
         21    1    1    2  506  501 -0.42202288367E+02 -0.18283831328E+03  0.57144086263E+03  0.60146117201E+03  0.00000000000E+00 0.  1.
<scales pt_clust_3="67.56120" pt_clust_4="39.47255" pt_clust_5="67.56120" pt_clust_6="168.60108"></scales>
<clustering>
<clus scale="   39.473">  1  4  2 -1</clus>
<clus scale="   67.561">  3  5 -1 -1</clus>
<clus scale="  168.601">  1  6  2 -1</clus>
<clus scale="   39.473">  1  3  2 -1</clus>
</clustering>
</event>
<event>
 6    0  0.4582113E+002  0.7186469E+02  0.7546771E-02  0.1353864E+00
         21   -1    0    0  506  501  0.00000000000E+00  0.00000000000E+00  0.19467030177E+02  0.19467030177E+02  0.00000000000E+00 0. -1.
         21   -1    0    0  503  502 -0.00000000000E+00 -0.00000000000E+00 -0.15557721919E+04  0.15557721919E+04  0.00000000000E+00 0. -1.
         21    1    1    2  503  504  0.25868895672E+02  0.50678120834E+02 -0.66443422758E+03  0.66686603938E+03  0.00000000000E+00 0. -1.
         21    1    1    2  504  501  0.12615401816E+00  0.37342214847E+02 -0.92407727890E+02  0.99667673286E+02  0.00000000000E+00 0. -1.
         21    1    1    2  505  502 -0.73597137468E+00 -0.12235396535E+03 -0.74180675691E+03  0.75182996687E+03  0.00000000000E+00 0. -1.
         21    1    1    2  506  505 -0.25259078316E+02  0.34333629665E+02 -0.37656449371E+02  0.56875542569E+02  0.00000000000E+00 0. -1.
<scales pt_clust_3="59.47083" pt_clust_4="37.34243" pt_clust_5="71.86469" pt_clust_6="14000.00000"></scales>
<clustering>
<clus scale="   37.342">  1  4  2 -1</clus>
<clus scale="   59.471">  2  3  1 -1</clus>
<clus scale="   71.865">  2  5  1 -1</clus>
<clus scale="   37.342">  1  3  2 -1</clus>
</clustering>
</event>
<event>
 6    0  0.4582113E+002  0.1634814E+03  0.7546771E-02  0.1184821E+00
         21   -1    0    0  504  501  0.00000000000E+00  0.00000000000E+00  0.16733785289E+03  0.16733785289E+03  0.00000000000E+00 0.  1.
         21   -1    0    0  503  502 -0.00000000000E+00 -0.00000000000E+00 -0.48926962706E+03  0.48926962706E+03  0.00000000000E+00 0. -1.
         21    1    1    2  503  506 -0.90863424770E+02  0.47427879113E+02 -0.27514217465E+03  0.29361332045E+03  0.00000000000E+00 0. -1.
         21    1    1    2  504  505  0.12882349380E+03 -0.71571466923E+02  0.94154509981E+02  0.17488007086E+03  0.00000000000E+00 0.  1.
         21    1    1    2  505  502  0.26108765479E+02  0.42298763913E+02 -0.28137759842E+02  0.57119056298E+02  0.00000000000E+00 0.  1.
         21    1    1    2  506  501 -0.64068834510E+02 -0.18155176103E+02 -0.11280634966E+03  0.13099503234E+03  0.00000000000E+00 0. -1.
<scales pt_clust_3="51.84741" pt_clust_4="147.64444" pt_clust_5="49.70768" pt_clust_6="51.84741"></scales>
<clustering>
<clus scale="   49.708">  2  5  1 -1</clus>
<clus scale="   51.847">  3  6 -1 -1</clus>
<clus scale="  147.644">  1  4  2 -1</clus>
<clus scale="  147.644">  1  3  2 -1</clus>
</clustering>
</event>
<event>
 6    0  0.4582113E+002  0.1117228E+03  0.7546771E-02  0.1257412E+00
         21   -1    0    0  503  501  0.00000000000E+00  0.00000000000E+00  0.16828030048E+04  0.16828030048E+04  0.00000000000E+00 0.  1.
         21   -1    0    0  505  502 -0.00000000000E+00 -0.00000000000E+00 -0.26628885901E+03  0.26628885901E+03  0.00000000000E+00 0.  1.
         21    1    1    2  503  504  0.51357223036E+02  0.87822356193E+01  0.42710733946E+03  0.43027360068E+03  0.00000000000E+00 0.  1.
         21    1    1    2  504  502  0.70311076720E+02 -0.84781017354E+02 -0.22723426925E+03  0.25252105167E+03  0.00000000000E+00 0.  1.
         21    1    1    2  505  506 -0.56102453419E+02  0.13702766203E+03  0.21730838660E+03  0.26295817220E+03  0.00000000000E+00 0.  1.
         21    1    1    2  506  501 -0.65565846336E+02 -0.61028880293E+02  0.99933268899E+03  0.10033390393E+04  0.00000000000E+00 0.  1.
<scales pt_clust_3="52.10271" pt_clust_4="111.72277" pt_clust_5="14000.00000" pt_clust_6="59.33810"></scales>
<clustering>
<clus scale="   52.103">  1  3  2 -1</clus>
<clus scale="   59.338">  1  6  2 -1</clus>
<clus scale="  111.723">  2  4  1 -1</clus>
<clus scale="   52.103">  1  3  2 -1</clus>
</clustering>
</event>
<event>
 6    0  0.4582113E+002  0.8821793E+02  0.7546771E-02  0.1307226E+00
         21   -1    0    0  505  501  0.00000000000E+00  0.00000000000E+00  0.33582093735E+02  0.33582093735E+02  0.00000000000E+00 0.  1.
         21   -1    0    0  504  502 -0.00000000000E+00 -0.00000000000E+00 -0.16509389877E+04  0.16509389877E+04  0.00000000000E+00 0.  1.
         21    1    1    2  503  506 -0.39269264769E+02  0.45437276815E+02 -0.18588090434E+03  0.19534157744E+03  0.00000000000E+00 0.  1.
         21    1    1    2  504  501  0.29027599358E+02 -0.26095009628E+02 -0.49283070319E+03  0.49437400120E+03  0.00000000000E+00 0. -1.
         21    1    1    2  505  503  0.62499325938E+02 -0.82325803106E+02 -0.76021300469E+02  0.12830799556E+03  0.00000000000E+00 0.  1.
         21    1    1    2  506  502 -0.52257660527E+02  0.62983535919E+02 -0.86262398597E+03  0.86649750724E+03  0.00000000000E+00 0.  1.
<scales pt_clust_3="88.21793" pt_clust_4="39.03269" pt_clust_5="14000.00000" pt_clust_6="53.16103"></scales>
<clustering>
<clus scale="   39.033">  2  4  1 -1</clus>
<clus scale="   53.161">  2  6  1 -1</clus>
<clus scale="   88.218">  2  3  1 -1</clus>
<clus scale="   88.218">  1  3  2 -1</clus>
</clustering>
</event>
<event>
 6    0  0.4582113E+002  0.1040560E+03  0.7546771E-02  0.1271991E+00
         21   -1    0    0  505  501  0.00000000000E+00  0.00000000000E+00  0.83634854378E+03  0.83634854378E+03  0.00000000000E+00 0. -1.
         21   -1    0    0  503  502 -0.00000000000E+00 -0.00000000000E+00 -0.59534835179E+02  0.59534835179E+02  0.00000000000E+00 0. -1.
         21    1    1    2  503  506 -0.63636546130E+02 -0.19608039406E+02  0.47391573918E+02  0.81731551381E+02  0.00000000000E+00 0. -1.
         21    1    1    2  504  502  0.30374492562E+02  0.11617257492E+03  0.83359830237E+02  0.14617639433E+03  0.00000000000E+00 0. -1.
         21    1    1    2  505  504  0.77461058954E+02 -0.91948166240E+02  0.53520300774E+03  0.54854073725E+03  0.00000000000E+00 0. -1.
         21    1    1    2  506  501 -0.44199005386E+02 -0.46163692731E+01  0.11085929671E+03  0.11943469600E+03  0.00000000000E+00 0.  1.
<scales pt_clust_3="70.49606" pt_clust_4="14000.00000" pt_clust_5="104.05602" pt_clust_6="44.43943"></scales>
<clustering>
<clus scale="   44.439">  1  6  2 -1</clus>
<clus scale="   70.496">  2  3  1 -1</clus>
<clus scale="  104.056">  1  5  2 -1</clus>
<clus scale="   44.439">  1  3  2 -1</clus>
</clustering>
</event>
<event>
 6    0  0.4582113E+002  0.1200444E+03  0.7546771E-02  0.1243024E+00
         21   -1    0    0  505  501  0.00000000000E+00  0.00000000000E+00  0.25213255588E+03  0.25213255588E+03  0.00000000000E+00 0.  1.
         21   -1    0    0  503  502 -0.00000000000E+00 -0.00000000000E+00 -0.75005296917E+02  0.75005296917E+02  0.00000000000E+00 0.  1.
         21    1    1    2  503  506 -0.76768716311E+01 -0.32198511494E+02  0.22584387481E+01  0.33177990386E+02  0.00000000000E+00 0. -1.
         21    1    1    2  504  501  0.30856647961E+02 -0.46171962669E+02  0.49850005981E+02  0.74625772735E+02  0.00000000000E+00 0.  1.
         21    1    1    2  505  502 -0.77748600116E+02  0.95202006355E+02  0.90052996397E+02  0.15237391179E+03  0.00000000000E+00 0.  1.
         21    1    1    2  506  504  0.54568823786E+02 -0.16831532192E+02  0.34965817836E+02  0.66960177884E+02  0.00000000000E+00 0.  1.
<scales pt_clust_3="33.10103" pt_clust_4="39.13743" pt_clust_5="113.24647" pt_clust_6="39.13743"></scales>
<clustering>
<clus scale="   33.101">  2  3  1 -1</clus>
<clus scale="   39.137">  4  6 -1 -1</clus>
<clus scale="  113.246">  2  5  1 -1</clus>
<clus scale="  120.044">  1  3  2 -1</clus>
</clustering>
</event>
<event>
 6    0  0.4582113E+002  0.9909060E+02  0.7546771E-02  0.1282220E+00
         21   -1    0    0  504  501  0.00000000000E+00  0.00000000000E+00  0.22236466758E+03  0.22236466758E+03  0.00000000000E+00 0.  1.
         21   -1    0    0  503  502 -0.00000000000E+00 -0.00000000000E+00 -0.14787351016E+03  0.14787351016E+03  0.00000000000E+00 0.  1.
         21    1    1    2  503  505 -0.12887355087E+02  0.88754592085E+02 -0.18589720359E+02  0.91591698534E+02  0.00000000000E+00 0.  1.
         21    1    1    2  504  506 -0.17220638189E+02  0.49316141373E+02  0.65343869695E+02  0.83656759955E+02  0.00000000000E+00 0.  1.
         21    1    1    2  505  501  0.29846691598E+02 -0.28530968255E+02  0.66936576185E+02  0.78646973116E+02  0.00000000000E+00 0.  1.
         21    1    1    2  506  502  0.26130167839E+00 -0.10953976520E+03 -0.39199568092E+02  0.11634274613E+03  0.00000000000E+00 0.  1.
<scales pt_clust_3="14000.00000" pt_clust_4="35.18410" pt_clust_5="41.28972" pt_clust_6="99.09060"></scales>
<clustering>
<clus scale="   41.290">  1  5  2 -1</clus>
<clus scale="   35.184">  1  4  2 -1</clus>
<clus scale="   99.091">  1  6  2 -1</clus>
<clus scale="   41.290">  1  3  2 -1</clus>
</clustering>
</event>
<event>
 6    0  0.4582113E+002  0.1045910E+03  0.7546771E-02  0.1270928E+00
         21   -1    0    0  503  501  0.00000000000E+00  0.00000000000E+00  0.43115404085E+02  0.43115404085E+02  0.00000000000E+00 0.  1.
         21   -1    0    0  504  502 -0.00000000000E+00 -0.00000000000E+00 -0.13900563274E+04  0.13900563274E+04  0.00000000000E+00 0.  1.
         21    1    1    2  503  505  0.45331014569E+02 -0.20880260745E+02 -0.47104650968E+02  0.68627504059E+02  0.00000000000E+00 0.  1.
         21    1    1    2  504  501  0.33320633243E+01  0.89674384466E+02 -0.10736588203E+04  0.10774023669E+04  0.00000000000E+00 0.  1.
         21    1    1    2  505  506 -0.82845480722E+02 -0.80587912003E+02 -0.90683073435E+02  0.14690542891E+03  0.00000000000E+00 0.  1.
         21    1    1    2  506  502  0.34182402829E+02  0.11793788282E+02 -0.13549437865E+03  0.14023643162E+03  0.00000000000E+00 0.  1.
<scales pt_clust_3="51.12857" pt_clust_4="14000.00000" pt_clust_5="104.59099" pt_clust_6="36.15979"></scales>
<clustering>
<clus scale="   36.160">  2  6  1 -1</clus>
<clus scale="   51.129">  1  3  2 -1</clus>
<clus scale="  104.591">  1  5  2 -1</clus>
<clus scale="   51.129">  1  3  2 -1</clus>
</clustering>
</event>
<event>
 6    0  0.4582113E+002  0.1578525E+03  0.7546771E-02  0.1191143E+00
         21   -1    0    0  503  501  0.00000000000E+00  0.00000000000E+00  0.21114893110E+03  0.21114893110E+03  0.00000000000E+00 0.  1.
         21   -1    0    0  504  502 -0.00000000000E+00 -0.00000000000E+00 -0.29007272713E+03  0.29007272713E+03  0.00000000000E+00 0. -1.
         21    1    1    2  503  505  0.63001809291E+02  0.92417674867E+02  0.86512570530E+02  0.14140254404E+03  0.00000000000E+00 0.  1.
         21    1    1    2  504  501  0.96356338424E+02 -0.17966047588E+01 -0.10366221888E+03  0.14154019700E+03  0.00000000000E+00 0. -1.
         21    1    1    2  505  506 -0.12441552429E+03 -0.15295282472E+02 -0.47363910528E+02  0.13400189689E+03  0.00000000000E+00 0. -1.
         21    1    1    2  506  502 -0.34942623424E+02 -0.75325787636E+02 -0.14410237153E+02  0.84277020294E+02  0.00000000000E+00 0. -1.
<scales pt_clust_3="121.22276" pt_clust_4="96.37309" pt_clust_5="82.28949" pt_clust_6="82.28949"></scales>
<clustering>
<clus scale="   82.289">  5  6 -1 -1</clus>
<clus scale="   96.373">  2  4  1 -1</clus>
<clus scale="  121.223">  1  3  2 -1</clus>
<clus scale="  121.223">  1  3  2 -1</clus>
</clustering>
</event>
<event>
 6    0  0.4582113E+002  0.1324099E+03  0.7546771E-02  0.1223923E+00
         21   -1    0    0  505  501  0.00000000000E+00  0.00000000000E+00  0.28142259230E+03  0.28142259230E+03  0.00000000000E+00 0. -1.
         21   -1    0    0  503  502 -0.00000000000E+00 -0.00000000000E+00 -0.21127172749E+03  0.21127172749E+03  0.00000000000E+00 0. -1.
         21    1    1    2  503  506 -0.95160033540E+02  0.65155055848E+01 -0.69080721501E+02  0.11777109102E+03  0.00000000000E+00 0. -1.
         21    1    1    2  504  501  0.79446539418E+02  0.21952486418E+02  0.10827658173E+03  0.13607895663E+03  0.00000000000E+00 0. -1.
         21    1    1    2  505  502 -0.33075734597E+02 -0.16650492853E+02 -0.95694130572E+02  0.10260901402E+03  0.00000000000E+00 0. -1.
         21    1    1    2  506  504  0.48789228719E+02 -0.11817499150E+02  0.12664913514E+03  0.13623525813E+03  0.00000000000E+00 0. -1.
<scales pt_clust_3="122.94135" pt_clust_4="38.99286" pt_clust_5="37.03030" pt_clust_6="38.99286"></scales>
<clustering>
<clus scale="   37.030">  2  5  1 -1</clus>
<clus scale="   38.993">  4  6 -1 -1</clus>
<clus scale="  122.941">  2  3  1 -1</clus>
<clus scale="  132.410">  1  3  2 -1</clus>
</clustering>
</event>
<event>
 6    0  0.4582113E+002  0.1235875E+03  0.7546771E-02  0.1237293E+00
         21   -1    0    0  503  501  0.00000000000E+00  0.00000000000E+00  0.74931175939E+03  0.74931175939E+03  0.00000000000E+00 0. -1.
         21   -1    0    0  505  502 -0.00000000000E+00 -0.00000000000E+00 -0.55989359939E+03  0.55989359939E+03  0.00000000000E+00 0. -1.
         21    1    1    2  503  504 -0.59393862417E+02  0.99726597890E+01  0.10247325382E+03  0.11886064355E+03  0.00000000000E+00 0. -1.
         21    1    1    2  504  502  0.12326675945E+03 -0.11504760188E+03 -0.49684289400E+03  0.52467466682E+03  0.00000000000E+00 0. -1.
         21    1    1    2  505  506 -0.43197565534E+02  0.19905972578E+02 -0.22826486922E+02  0.52757235689E+02  0.00000000000E+00 0. -1.
         21    1    1    2  506  501 -0.20675331502E+02  0.85168969511E+02  0.60661428710E+03  0.61291281273E+03  0.00000000000E+00 0. -1.
<scales pt_clust_3="60.94590" pt_clust_4="14000.00000" pt_clust_5="47.56340" pt_clust_6="123.58751"></scales>
<clustering>
<clus scale="   47.563">  2  5  1 -1</clus>
<clus scale="   60.946">  1  3  2 -1</clus>
<clus scale="  123.588">  1  6  2 -1</clus>
<clus scale="   60.946">  1  3  2 -1</clus>
</clustering>
</event>
<event>
 6    0  0.4582113E+002  0.7215552E+02  0.7546771E-02  0.1352913E+00
         21   -1    0    0  505  501  0.00000000000E+00  0.00000000000E+00  0.93942073210E+03  0.93942073210E+03  0.00000000000E+00 0.  1.
         21   -1    0    0  501  502 -0.00000000000E+00 -0.00000000000E+00 -0.13459357309E+04  0.13459357309E+04  0.00000000000E+00 0. -1.
         21    1    1    2  503  506  0.66095224388E+02 -0.20631913877E+01 -0.16661884939E+03  0.17926147500E+03  0.00000000000E+00 0.  1.
         21    1    1    2  504  503 -0.15650208609E+02 -0.91422679961E+02  0.78231360985E+03  0.78779287862E+03  0.00000000000E+00 0.  1.
         21    1    1    2  505  504  0.33430552299E+01  0.39118556951E+02  0.14416868738E+03  0.14941903472E+03  0.00000000000E+00 0. -1.
         21    1    1    2  506  502 -0.53788071009E+02  0.54367314398E+02 -0.11663784466E+04  0.11688830746E+04  0.00000000000E+00 0. -1.
<scales pt_clust_3="72.15552" pt_clust_4="54.10374" pt_clust_5="39.26115" pt_clust_6="14000.00000"></scales>
<clustering>
<clus scale="   39.261">  1  5  2 -1</clus>
<clus scale="   54.104">  1  4  2 -1</clus>
<clus scale="   72.156">  1  3  2 -1</clus>
<clus scale="   39.261">  1  3  2 -1</clus>
</clustering>
</event>
<event>
 6    0  0.4582113E+002  0.1250529E+03  0.7546771E-02  0.1234987E+00
         21   -1    0    0  503  501  0.00000000000E+00  0.00000000000E+00  0.20407999891E+04  0.20407999891E+04  0.00000000000E+00 0.  1.
         21   -1    0    0  506  502 -0.00000000000E+00 -0.00000000000E+00 -0.18217742394E+03  0.18217742394E+03  0.00000000000E+00 0.  1.
         21    1    1    2  503  502 -0.79636831087E+00 -0.16111311065E+03  0.11943553503E+04  0.12051733367E+04  0.00000000000E+00 0.  1.
         21    1    1    2  504  501 -0.16084889997E+02  0.36402652294E+02  0.80727402408E+03  0.80825443193E+03  0.00000000000E+00 0.  1.
         21    1    1    2  505  504 -0.60101888859E+01  0.94044235491E+02 -0.45184987544E+02  0.10450896468E+03  0.00000000000E+00 0. -1.
         21    1    1    2  506  505  0.22891447193E+02  0.30666222868E+02 -0.97821821749E+02  0.10504067969E+03  0.00000000000E+00 0.  1.
<scales pt_clust_3="125.05293" pt_clust_4="39.91258" pt_clust_5="14000.00000" pt_clust_6="38.26794"></scales>
<clustering>
<clus scale="   38.268">  2  6  1 -1</clus>
<clus scale="   39.913">  1  4  2 -1</clus>
<clus scale="  125.053">  1  3  2 -1</clus>
<clus scale="   39.913">  1  3  2 -1</clus>
</clustering>
</event>
<event>
 6    0  0.4582113E+002  0.1410313E+03  0.7546771E-02  0.1211948E+00
         21   -1    0    0  503  501  0.00000000000E+00  0.00000000000E+00  0.13477430272E+04  0.13477430272E+04  0.00000000000E+00 0.  1.
         21   -1    0    0  506  502 -0.00000000000E+00 -0.00000000000E+00 -0.15879509644E+03  0.15879509644E+03  0.00000000000E+00 0. -1.
         21    1    1    2  503  504 -0.38178499540E+02 -0.15636870713E+02  0.43117832655E+03  0.43314761784E+03  0.00000000000E+00 0.  1.
         21    1    1    2  504  502 -0.11334251921E+03 -0.45576427171E+02  0.18485341709E+02  0.12355341044E+03  0.00000000000E+00 0. -1.
         21    1    1    2  505  501 -0.89953363515E+01  0.51586852505E+02  0.78176415179E+03  0.78351599119E+03  0.00000000000E+00 0.  1.
         21    1    1    2  506  505  0.16051635510E+03  0.96264453796E+01 -0.42479889269E+02  0.16632110419E+03  0.00000000000E+00 0. -1.
<scales pt_clust_3="41.25663" pt_clust_4="141.03128" pt_clust_5="56.51452" pt_clust_6="14000.00000"></scales>
<clustering>
<clus scale="   41.257">  1  3  2 -1</clus>
<clus scale="   56.515">  1  5  2 -1</clus>
<clus scale="  141.031">  1  4  2 -1</clus>
<clus scale="   41.257">  1  3  2 -1</clus>
</clustering>
</event>
<event>
 6    0  0.6594861E+002  0.7783388E+02  0.7546771E-02  0.1335313E+00
         21   -1    0    0  504  501  0.00000000000E+00  0.00000000000E+00  0.20811675089E+04  0.20811675089E+04  0.00000000000E+00 0. -1.
         21   -1    0    0  501  502 -0.00000000000E+00 -0.00000000000E+00 -0.15714015645E+04  0.15714015645E+04  0.00000000000E+00 0. -1.
         21    1    1    2  503  502 -0.14333578459E+02 -0.45430086969E+02 -0.48079215633E+03  0.48314639796E+03  0.00000000000E+00 0.  1.
         21    1    1    2  504  506 -0.15351223579E+02  0.76795819536E+02  0.20373762652E+04  0.20388808950E+04  0.00000000000E+00 0. -1.
         21    1    1    2  505  503  0.62638176253E+02  0.33215766064E+02 -0.10551789417E+04  0.10575582383E+04  0.00000000000E+00 0. -1.
         21    1    1    2  506  505 -0.32953374215E+02 -0.64581498631E+02  0.83607773042E+01  0.72983542218E+02  0.00000000000E+00 0. -1.
<scales pt_clust_3="47.63764" pt_clust_4="77.83388" pt_clust_5="49.92954" pt_clust_6="14000.00000"></scales>
<clustering>
<clus scale="   47.638">  2  3  1 -1</clus>
<clus scale="   49.930">  2  5  1 -1</clus>
<clus scale="   77.834">  1  4  2 -1</clus>
<clus scale="   77.834">  1  3  2 -1</clus>
</clustering>
</event>
<event>
 6    0  0.4582113E+002  0.9143475E+02  0.7546771E-02  0.1299414E+00
         21   -1    0    0  502  501  0.00000000000E+00  0.00000000000E+00  0.14631074900E+02  0.14631074900E+02  0.00000000000E+00 0. -1.
         21   -1    0    0  506  502 -0.00000000000E+00 -0.00000000000E+00 -0.23999228144E+04  0.23999228144E+04  0.00000000000E+00 0. -1.
         21    1    1    2  503  505 -0.13150901677E+02 -0.75598494192E+02 -0.58723072237E+03  0.59222293086E+03  0.00000000000E+00 0. -1.
         21    1    1    2  504  501  0.31762003941E+02 -0.42761710691E+02 -0.14733885758E+03  0.15667203882E+03  0.00000000000E+00 0. -1.
         21    1    1    2  505  504  0.52419973314E+02  0.21379339278E+02 -0.15329722901E+03  0.16341655416E+03  0.00000000000E+00 0. -1.
         21    1    1    2  506  503 -0.71031075578E+02  0.96980865605E+02 -0.14974249306E+04  0.15022423655E+04  0.00000000000E+00 0. -1.
<scales pt_clust_3="91.43475" pt_clust_4="53.26715" pt_clust_5="68.54857" pt_clust_6="14000.00000"></scales>
<clustering>
<clus scale="   53.267">  1  4  2 -1</clus>
<clus scale="   68.549">  1  5  2 -1</clus>
<clus scale="   91.435">  1  3  2 -1</clus>
<clus scale="   53.267">  1  3  2 -1</clus>
</clustering>
</event>
<event>
 6    0  0.4582113E+002  0.7207133E+02  0.7546771E-02  0.1353188E+00
         21   -1    0    0  503  501  0.00000000000E+00  0.00000000000E+00  0.10807740217E+04  0.10807740217E+04  0.00000000000E+00 0. -1.
         21   -1    0    0  504  502 -0.00000000000E+00 -0.00000000000E+00 -0.11605503040E+03  0.11605503040E+03  0.00000000000E+00 0. -1.
         21    1    1    2  503  502 -0.79520127753E+02  0.31398681515E+02  0.14678496532E+03  0.16986804868E+03  0.00000000000E+00 0. -1.
         21    1    1    2  504  505  0.40130124603E+02  0.18519708865E+02 -0.94766580846E+02  0.10456630127E+03  0.00000000000E+00 0. -1.
         21    1    1    2  505  506  0.79831849987E+02 -0.47352018932E+02  0.62543270226E+03  0.63228269234E+03  0.00000000000E+00 0. -1.
         21    1    1    2  506  501 -0.40441846837E+02 -0.25663714482E+01  0.28726790460E+03  0.29011200983E+03  0.00000000000E+00 0.  1.
<scales pt_clust_3="14000.00000" pt_clust_4="43.96365" pt_clust_5="72.07133" pt_clust_6="40.52319"></scales>
<clustering>
<clus scale="   40.523">  1  6  2 -1</clus>
<clus scale="   43.964">  2  4  1 -1</clus>
<clus scale="   72.071">  1  5  2 -1</clus>
<clus scale="   40.523">  1  3  2 -1</clus>
</clustering>
</event>
<event>
 6    0  0.4582113E+002  0.1826715E+03  0.7546771E-02  0.1165242E+00
         21   -1    0    0  506  501  0.00000000000E+00  0.00000000000E+00  0.13136011943E+03  0.13136011943E+03  0.00000000000E+00 0.  1.
         21   -1    0    0  504  502 -0.00000000000E+00 -0.00000000000E+00 -0.68585785107E+03  0.68585785107E+03  0.00000000000E+00 0.  1.
         21    1    1    2  503  502 -0.84815892138E+02  0.23605838613E+02 -0.15030548659E+03  0.17419159129E+03  0.00000000000E+00 0.  1.
         21    1    1    2  504  501  0.25956268556E+03 -0.22423508852E+02 -0.13133921285E+03  0.29176290085E+03  0.00000000000E+00 0.  1.
         21    1    1    2  505  503 -0.69383755603E+02  0.18956839221E+02 -0.22043087963E+03  0.23186901472E+03  0.00000000000E+00 0.  1.
         21    1    1    2  506  505 -0.10536303782E+03 -0.20139168982E+02 -0.52422152587E+02  0.11939446364E+03  0.00000000000E+00 0. -1.
<scales pt_clust_3="38.88378" pt_clust_4="177.53378" pt_clust_5="38.88378" pt_clust_6="107.27048"></scales>
<clustering>
<clus scale="   38.884">  3  5 -1 -1</clus>
<clus scale="  107.270">  1  6  2 -1</clus>
<clus scale="  177.534">  1  4  2 -1</clus>
<clus scale="  107.270">  1  3  2 -1</clus>
</clustering>
</event>
<event>
 6    0  0.4582113E+002  0.1019683E+03  0.7546771E-02  0.1276210E+00
         21   -1    0    0  505  501  0.00000000000E+00  0.00000000000E+00  0.12253171395E+03  0.12253171395E+03  0.00000000000E+00 0.  1.
         21   -1    0    0  504  502 -0.00000000000E+00 -0.00000000000E+00 -0.83552848497E+03  0.83552848497E+03  0.00000000000E+00 0.  1.
         21    1    1    2  503  502  0.89347866832E+02 -0.16106562127E+02 -0.47542994184E+03  0.48402075601E+03  0.00000000000E+00 0.  1.
         21    1    1    2  504  506  0.30233236117E+01 -0.42950639950E+02 -0.31325956910E+03  0.31620476845E+03  0.00000000000E+00 0.  1.
         21    1    1    2  505  503 -0.60652143088E+02 -0.10190124001E+02  0.42452572704E+02  0.74731131515E+02  0.00000000000E+00 0.  1.
         21    1    1    2  506  501 -0.31719047355E+02  0.69247326078E+02  0.33240167207E+02  0.83103542945E+02  0.00000000000E+00 0.  1.
<scales pt_clust_3="14000.00000" pt_clust_4="43.05692" pt_clust_5="61.64465" pt_clust_6="101.96835"></scales>
<clustering>
<clus scale="   43.057">  2  4  1 -1</clus>
<clus scale="   61.645">  1  5  2 -1</clus>
<clus scale="  101.968">  1  6  2 -1</clus>
<clus scale="   61.645">  1  3  2 -1</clus>
</clustering>
</event>
<event>
 6    0  0.4582113E+002  0.1865484E+03  0.7546771E-02  0.1161612E+00
         21   -1    0    0  503  501  0.00000000000E+00  0.00000000000E+00  0.20659846441E+03  0.20659846441E+03  0.00000000000E+00 0.  1.
         21   -1    0    0  504  502 -0.00000000000E+00 -0.00000000000E+00 -0.13308881894E+04  0.13308881894E+04  0.00000000000E+00 0. -1.
         21    1    1    2  503  506 -0.16897520956E+03 -0.23547012245E+03 -0.69564114882E+02  0.29805698464E+03  0.00000000000E+00 0.  1.
         21    1    1    2  504  505  0.12036557876E+03  0.15330132780E+03 -0.99967372841E+03  0.10184972916E+04  0.00000000000E+00 0. -1.
         21    1    1    2  505  501  0.95595659135E+02  0.81354895846E+02  0.25107420441E+02  0.12801379490E+03  0.00000000000E+00 0. -1.
         21    1    1    2  506  502 -0.46986028332E+02  0.81389881161E+00 -0.80159302091E+02  0.92918582649E+02  0.00000000000E+00 0.  1.
<scales pt_clust_3="186.54835" pt_clust_4="14000.00000" pt_clust_5="124.07637" pt_clust_6="46.99308"></scales>
<clustering>
<clus scale="   46.993">  2  6  1 -1</clus>
<clus scale="  124.076">  1  5  2 -1</clus>
<clus scale="  186.548">  1  3  2 -1</clus>
<clus scale="  124.076">  1  3  2 -1</clus>
</clustering>
</event>
<event>
 6    0  0.4582113E+002  0.6000534E+02  0.7546771E-02  0.1397809E+00
         21   -1    0    0  504  501  0.00000000000E+00  0.00000000000E+00  0.19249167487E+03  0.19249167487E+03  0.00000000000E+00 0. -1.
         21   -1    0    0  503  502 -0.00000000000E+00 -0.00000000000E+00 -0.32327198148E+03  0.32327198148E+03  0.00000000000E+00 0.  1.
         21    1    1    2  503  506  0.51705411550E+02 -0.18051767473E+02 -0.21185284443E+03  0.21881714646E+03  0.00000000000E+00 0.  1.
         21    1    1    2  504  502  0.73001971550E+02  0.13573090409E+01  0.26980039367E+02  0.77839916895E+02  0.00000000000E+00 0. -1.
         21    1    1    2  505  501 -0.51359312820E+02  0.27604755756E+02  0.11116705245E+03  0.12553053455E+03  0.00000000000E+00 0. -1.
         21    1    1    2  506  505 -0.73348070279E+02 -0.10910297324E+02 -0.57074553992E+02  0.93576058449E+02  0.00000000000E+00 0. -1.
<scales pt_clust_3="54.76601" pt_clust_4="60.00534" pt_clust_5="14000.00000" pt_clust_6="44.06002"></scales>
<clustering>
<clus scale="   54.766">  2  3  1 -1</clus>
<clus scale="   44.060">  2  6  1 -1</clus>
<clus scale="   60.005">  2  4  1 -1</clus>
<clus scale="   60.005">  1  3  2 -1</clus>
</clustering>
</event>
<event>
 6    0  0.4582113E+002  0.1914169E+03  0.7546771E-02  0.1157190E+00
         21   -1    0    0  505  501  0.00000000000E+00  0.00000000000E+00  0.19823514524E+03  0.19823514524E+03  0.00000000000E+00 0.  1.
         21   -1    0    0  503  502 -0.00000000000E+00 -0.00000000000E+00 -0.33384518381E+04  0.33384518381E+04  0.00000000000E+00 0. -1.
         21    1    1    2  503  501 -0.39139305961E+01  0.52310694450E+02 -0.65022304577E+01  0.52858363647E+02  0.00000000000E+00 0.  1.
         21    1    1    2  504  502 -0.14483340979E+03  0.13671239012E+03 -0.30710098617E+04  0.30774613832E+04  0.00000000000E+00 0. -1.
         21    1    1    2  505  506  0.30752735502E+02 -0.11573213605E+03  0.12483834646E+03  0.17298633125E+03  0.00000000000E+00 0.  1.
         21    1    1    2  506  504  0.11799460488E+03 -0.73290948521E+02 -0.18754294714E+03  0.23338090526E+03  0.00000000000E+00 0. -1.
<scales pt_clust_3="52.45691" pt_clust_4="14000.00000" pt_clust_5="76.33038" pt_clust_6="191.41693"></scales>
<clustering>
<clus scale="   52.457">  1  3  2 -1</clus>
<clus scale="   76.330">  1  5  2 -1</clus>
<clus scale="  191.417">  1  6  2 -1</clus>
<clus scale="   52.457">  1  3  2 -1</clus>
</clustering>
</event>
<event>
 6    0  0.4582113E+002  0.7548865E+02  0.7546771E-02  0.1342364E+00
         21   -1    0    0  505  501  0.00000000000E+00  0.00000000000E+00  0.13313028500E+02  0.13313028500E+02  0.00000000000E+00 0. -1.
         21   -1    0    0  506  502 -0.00000000000E+00 -0.00000000000E+00 -0.31196341956E+04  0.31196341956E+04  0.00000000000E+00 0. -1.
         21    1    1    2  503  501 -0.11438978759E+03 -0.16282312890E+02 -0.58187831975E+03  0.59323900429E+03  0.00000000000E+00 0. -1.
         21    1    1    2  504  502  0.29951372081E+02  0.36384790475E+02 -0.44148301918E+03  0.44399120925E+03  0.00000000000E+00 0. -1.
         21    1    1    2  505  504  0.43473007518E+02  0.26643191738E+02 -0.10444554284E+03  0.11622664698E+03  0.00000000000E+00 0. -1.
         21    1    1    2  506  503  0.40965407987E+02 -0.46745669323E+02 -0.19785142854E+04  0.19794903636E+04  0.00000000000E+00 0. -1.
<scales pt_clust_3="14000.00000" pt_clust_4="47.12683" pt_clust_5="52.82790" pt_clust_6="75.48865"></scales>
<clustering>
<clus scale="   47.127">  2  4  1 -1</clus>
<clus scale="   52.828">  1  5  2 -1</clus>
<clus scale="   75.489">  2  6  1 -1</clus>
<clus scale="   52.828">  1  3  2 -1</clus>
</clustering>
</event>
<event>
 6    0  0.4582113E+002  0.1373713E+03  0.7546771E-02  0.1216911E+00
         21   -1    0    0  505  501  0.00000000000E+00  0.00000000000E+00  0.41068876481E+03  0.41068876481E+03  0.00000000000E+00 0.  1.
         21   -1    0    0  504  502 -0.00000000000E+00 -0.00000000000E+00 -0.12149795168E+04  0.12149795168E+04  0.00000000000E+00 0. -1.
         21    1    1    2  503  502 -0.49914499803E+02 -0.32023767586E+01 -0.39602360032E+03  0.39916964378E+03  0.00000000000E+00 0. -1.
         21    1    1    2  504  501  0.15010851025E+03 -0.67028921289E+02 -0.79730986868E+03  0.81408136438E+03  0.00000000000E+00 0. -1.
         21    1    1    2  505  506 -0.45120467451E+02 -0.13577265348E+01  0.15882224915E+03  0.16511270947E+03  0.00000000000E+00 0.  1.
         21    1    1    2  506  503 -0.55073543000E+02  0.71589024582E+02  0.23022046782E+03  0.24730456402E+03  0.00000000000E+00 0.  1.
<scales pt_clust_3="50.01712" pt_clust_4="122.91612" pt_clust_5="43.36368" pt_clust_6="43.36368"></scales>
<clustering>
<clus scale="   43.364">  5  6 -1 -1</clus>
<clus scale="   50.017">  2  3  1 -1</clus>
<clus scale="  122.916">  2  4  1 -1</clus>
<clus scale="  137.371">  1  3  2 -1</clus>
</clustering>
</event>
<event>
 6    0  0.4582113E+002  0.1384168E+03  0.7546771E-02  0.1215475E+00
         21   -1    0    0  502  501  0.00000000000E+00  0.00000000000E+00  0.12640202908E+04  0.12640202908E+04  0.00000000000E+00 0.  1.
         21   -1    0    0  505  502 -0.00000000000E+00 -0.00000000000E+00 -0.26069824732E+02  0.26069824732E+02  0.00000000000E+00 0.  1.
         21    1    1    2  503  501  0.36140621247E+02  0.12708349901E+02  0.14322022629E+03  0.14825545480E+03  0.00000000000E+00 0.  1.
         21    1    1    2  504  503  0.30708516689E+02  0.98945830390E+02  0.86046730186E+03  0.86668175700E+03  0.00000000000E+00 0.  1.
         21    1    1    2  505  506 -0.52874988674E+02 -0.42492323776E+02  0.75975905378E+02  0.10185136330E+03  0.00000000000E+00 0.  1.
         21    1    1    2  506  504 -0.13974149262E+02 -0.69161856515E+02  0.15828703253E+03  0.17330154042E+03  0.00000000000E+00 0.  1.
<scales pt_clust_3="38.30988" pt_clust_4="123.55027" pt_clust_5="61.07688" pt_clust_6="61.07688"></scales>
<clustering>
<clus scale="   38.310">  1  3  2 -1</clus>
<clus scale="   61.077">  5  6 -1 -1</clus>
<clus scale="  123.550">  1  4  2 -1</clus>
<clus scale="   38.310">  1  3  2 -1</clus>
</clustering>
</event>
<event>
 6    0  0.4582113E+002  0.1382728E+03  0.7546771E-02  0.1215672E+00
         21   -1    0    0  505  501  0.00000000000E+00  0.00000000000E+00  0.15147488067E+03  0.15147488067E+03  0.00000000000E+00 0. -1.
         21   -1    0    0  504  502 -0.00000000000E+00 -0.00000000000E+00 -0.23471856694E+03  0.23471856694E+03  0.00000000000E+00 0.  1.
         21    1    1    2  503  501  0.67202551210E+02  0.45275479430E+01 -0.53661087277E+02  0.86117326173E+02  0.00000000000E+00 0.  1.
         21    1    1    2  504  503  0.55121151030E+02  0.33914695702E+02 -0.85723580418E+02  0.10741080074E+03  0.00000000000E+00 0.  1.
         21    1    1    2  505  506 -0.13415055099E+03 -0.56828241560E+01  0.74225376862E+02  0.15342122210E+03  0.00000000000E+00 0. -1.
         21    1    1    2  506  502  0.11826848745E+02 -0.32759419489E+02 -0.18084395436E+02  0.39244098598E+02  0.00000000000E+00 0. -1.
<scales pt_clust_3="37.48644" pt_clust_4="37.48644" pt_clust_5="132.42063" pt_clust_6="34.82892"></scales>
<clustering>
<clus scale="   34.829">  2  6  1 -1</clus>
<clus scale="   37.486">  3  4 -1 -1</clus>
<clus scale="  132.421">  1  5  2 -1</clus>
<clus scale="  132.421">  1  3  2 -1</clus>
</clustering>
</event>
<event>
 6    0  0.4582113E+002  0.1756916E+03  0.7546771E-02  0.1172039E+00
         21   -1    0    0  506  501  0.00000000000E+00  0.00000000000E+00  0.18523027006E+03  0.18523027006E+03  0.00000000000E+00 0. -1.
         21   -1    0    0  505  502 -0.00000000000E+00 -0.00000000000E+00 -0.62293174545E+03  0.62293174545E+03  0.00000000000E+00 0. -1.
         21    1    1    2  503  502  0.34546195595E+00  0.37072904811E+02 -0.44934007885E+03  0.45086697160E+03  0.00000000000E+00 0. -1.
         21    1    1    2  504  501 -0.95788511060E+02 -0.18773450662E+02 -0.25486262304E+02  0.10088325365E+03  0.00000000000E+00 0. -1.
         21    1    1    2  505  504 -0.62252917090E+02 -0.60122736086E+02 -0.86149911188E+01  0.86973485343E+02  0.00000000000E+00 0. -1.
         21    1    1    2  506  503  0.15769596619E+03  0.41823281937E+02  0.45739856887E+02  0.16943830492E+03  0.00000000000E+00 0. -1.
<scales pt_clust_3="37.07451" pt_clust_4="49.33046" pt_clust_5="49.33046" pt_clust_6="167.15853"></scales>
<clustering>
<clus scale="   37.075">  2  3  1 -1</clus>
<clus scale="   49.330">  4  5 -1 -1</clus>
<clus scale="  167.159">  1  6  2 -1</clus>
<clus scale="  167.159">  1  3  2 -1</clus>
</clustering>
</event>
<event>
 6    0  0.4582113E+002  0.7968492E+02  0.7546771E-02  0.1329948E+00
         21   -1    0    0  503  501  0.00000000000E+00  0.00000000000E+00  0.33423422876E+03  0.33423422876E+03  0.00000000000E+00 0. -1.
         21   -1    0    0  506  502 -0.00000000000E+00 -0.00000000000E+00 -0.24828749760E+04  0.24828749760E+04  0.00000000000E+00 0.  1.
         21    1    1    2  503  502 -0.12184646072E+02 -0.27582082817E+02  0.37606141538E+02  0.48202269384E+02  0.00000000000E+00 0. -1.
         21    1    1    2  504  501 -0.48621265536E+02 -0.23346485767E+02  0.27739057806E+03  0.28258559527E+03  0.00000000000E+00 0. -1.
         21    1    1    2  505  504  0.12011248671E+03  0.61785625366E+02 -0.40754988664E+03  0.42934995408E+03  0.00000000000E+00 0.  1.
         21    1    1    2  506  505 -0.59306575107E+02 -0.10857056782E+02 -0.20560875802E+04  0.20569713861E+04  0.00000000000E+00 0.  1.
<scales pt_clust_3="30.15356" pt_clust_4="14000.00000" pt_clust_5="79.68492" pt_clust_6="60.31789"></scales>
<clustering>
<clus scale="   30.154">  1  3  2 -1</clus>
<clus scale="   60.318">  2  6  1 -1</clus>
<clus scale="   79.685">  2  5  1 -1</clus>
<clus scale="   30.154">  1  3  2 -1</clus>
</clustering>
</event>
<event>
 6    0  0.4582113E+002  0.9615965E+02  0.7546771E-02  0.1288585E+00
         21   -1    0    0  503  501  0.00000000000E+00  0.00000000000E+00  0.17387496202E+03  0.17387496202E+03  0.00000000000E+00 0.  1.
         21   -1    0    0  505  502 -0.00000000000E+00 -0.00000000000E+00 -0.67525857240E+03  0.67525857240E+03  0.00000000000E+00 0.  1.
         21    1    1    2  503  504  0.16845852805E+02 -0.49150998220E+02  0.10871564416E+03  0.12049354616E+03  0.00000000000E+00 0.  1.
         21    1    1    2  504  502 -0.20505206038E+02 -0.71418780057E+02  0.99971304623E+01  0.74973650284E+02  0.00000000000E+00 0.  1.
         21    1    1    2  505  506 -0.68720674175E+02  0.53377286838E+02 -0.43753204354E+03  0.44610083494E+03  0.00000000000E+00 0.  1.
         21    1    1    2  506  501  0.72380027409E+02  0.67192491439E+02 -0.18256434147E+03  0.20756550303E+03  0.00000000000E+00 0.  1.
<scales pt_clust_3="51.95771" pt_clust_4="96.15965" pt_clust_5="83.89945" pt_clust_6="14000.00000"></scales>
<clustering>
<clus scale="   51.958">  1  3  2 -1</clus>
<clus scale="   83.899">  2  5  1 -1</clus>
<clus scale="   96.160">  1  4  2 -1</clus>
<clus scale="   51.958">  1  3  2 -1</clus>
</clustering>
</event>
<event>
 6    0  0.4582113E+002  0.2456030E+03  0.7546771E-02  0.1116116E+00
         21   -1    0    0  504  501  0.00000000000E+00  0.00000000000E+00  0.66843168990E+02  0.66843168990E+02  0.00000000000E+00 0. -1.
         21   -1    0    0  505  502 -0.00000000000E+00 -0.00000000000E+00 -0.88517157117E+03  0.88517157117E+03  0.00000000000E+00 0. -1.
         21    1    1    2  503  506  0.58124934385E+02  0.56445170278E+02 -0.13127528015E+03  0.15426524049E+03  0.00000000000E+00 0. -1.
         21    1    1    2  504  502 -0.13441718349E+03 -0.17632873193E+03 -0.52199941834E+03  0.56713595696E+03  0.00000000000E+00 0. -1.
         21    1    1    2  505  503 -0.24032946890E+01  0.39003919344E+02 -0.80897604167E+02  0.89841548905E+02  0.00000000000E+00 0. -1.
         21    1    1    2  506  501  0.78695543799E+02  0.80879642312E+02 -0.84156099520E+02  0.14077199381E+03  0.00000000000E+00 0. -1.
<scales pt_clust_3="77.16471" pt_clust_4="221.72010" pt_clust_5="33.70489" pt_clust_6="77.16471"></scales>
<clustering>
<clus scale="   33.705">  3  5 -1 -1</clus>
<clus scale="   77.165">  3  6 -1 -1</clus>
<clus scale="  221.720">  2  4  1 -1</clus>
<clus scale="  245.603">  1  3  2 -1</clus>
</clustering>
</event>
<event>
 6    0  0.4582113E+002  0.1205142E+03  0.7546771E-02  0.1242251E+00
         21   -1    0    0  506  501  0.00000000000E+00  0.00000000000E+00  0.55078000237E+03  0.55078000237E+03  0.00000000000E+00 0. -1.
         21   -1    0    0  503  502 -0.00000000000E+00 -0.00000000000E+00 -0.14626527060E+03  0.14626527060E+03  0.00000000000E+00 0. -1.
         21    1    1    2  503  505 -0.54070524703E+01 -0.30900020969E+02 -0.52794902730E+02  0.61411312204E+02  0.00000000000E+00 0. -1.
         21    1    1    2  504  501 -0.55657350160E+01  0.84522799683E+02  0.35072142829E+03  0.36080548961E+03  0.00000000000E+00 0. -1.
         21    1    1    2  505  504 -0.61805349355E+02 -0.60144912447E+02 -0.51657250338E+02  0.10052752466E+03  0.00000000000E+00 0. -1.
         21    1    1    2  506  502  0.72778136841E+02  0.65221337325E+01  0.15824545654E+03  0.17430094649E+03  0.00000000000E+00 0. -1.
<scales pt_clust_3="30.19942" pt_clust_4="109.61941" pt_clust_5="30.19942" pt_clust_6="73.06980"></scales>
<clustering>
<clus scale="   30.199">  3  5 -1 -1</clus>
<clus scale="   73.070">  1  6  2 -1</clus>
<clus scale="  109.619">  1  4  2 -1</clus>
<clus scale="   73.070">  1  3  2 -1</clus>
</clustering>
</event>
<event>
 6    0  0.4582113E+002  0.1125881E+03  0.7546771E-02  0.1255851E+00
         21   -1    0    0  506  501  0.00000000000E+00  0.00000000000E+00  0.37365863617E+03  0.37365863617E+03  0.00000000000E+00 0.  1.
         21   -1    0    0  503  502 -0.00000000000E+00 -0.00000000000E+00 -0.78752806014E+02  0.78752806014E+02  0.00000000000E+00 0.  1.
         21    1    1    2  503  505  0.60071597136E+02 -0.28382986448E+02 -0.79761328947E+01  0.66916435934E+02  0.00000000000E+00 0.  1.
         21    1    1    2  504  501 -0.13094718875E+02  0.29332500192E+02  0.35434489769E+02  0.47827505634E+02  0.00000000000E+00 0.  1.
         21    1    1    2  505  504  0.19991608494E+02  0.78634376159E+02  0.19415707905E+03  0.21042813706E+03  0.00000000000E+00 0.  1.
         21    1    1    2  506  502 -0.66968486755E+02 -0.79583889904E+02  0.73290394238E+02  0.12723936356E+03  0.00000000000E+00 0.  1.
<scales pt_clust_3="66.43938" pt_clust_4="30.03986" pt_clust_5="30.03986" pt_clust_6="101.96477"></scales>
<clustering>
<clus scale="   30.040">  4  5 -1 -1</clus>
<clus scale="   66.439">  2  3  1 -1</clus>
<clus scale="  101.965">  2  6  1 -1</clus>
<clus scale="  112.588">  1  3  2 -1</clus>
</clustering>
</event>
<event>
 6    0  0.4582113E+002  0.6352316E+02  0.7546771E-02  0.1383614E+00
         21   -1    0    0  503  501  0.00000000000E+00  0.00000000000E+00  0.16621106890E+04  0.16621106890E+04  0.00000000000E+00 0.  1.
         21   -1    0    0  505  502 -0.00000000000E+00 -0.00000000000E+00 -0.69707269670E+02  0.69707269670E+02  0.00000000000E+00 0.  1.
         21    1    1    2  503  504  0.26917396413E+02 -0.41158190274E+02  0.86118090711E+03  0.86258396555E+03  0.00000000000E+00 0.  1.
         21    1    1    2  504  502 -0.43254823693E+02  0.98510796640E+02  0.72413770569E+03  0.73208658889E+03  0.00000000000E+00 0. -1.
         21    1    1    2  505  506 -0.48718245754E+02 -0.20074452311E+02 -0.21492484085E+02  0.56906748080E+02  0.00000000000E+00 0.  1.
         21    1    1    2  506  501  0.65055673034E+02 -0.37278154056E+02  0.28577290645E+02  0.80240656181E+02  0.00000000000E+00 0.  1.
<scales pt_clust_3="49.17868" pt_clust_4="14000.00000" pt_clust_5="52.49919" pt_clust_6="63.52316"></scales>
<clustering>
<clus scale="   49.179">  1  3  2 -1</clus>
<clus scale="   52.499">  2  5  1 -1</clus>
<clus scale="   63.523">  2  6  1 -1</clus>
<clus scale="   49.179">  1  3  2 -1</clus>
</clustering>
</event>
<event>
 6    0  0.4582113E+002  0.1700179E+03  0.7546771E-02  0.1177829E+00
         21   -1    0    0  505  501  0.00000000000E+00  0.00000000000E+00  0.44704033669E+03  0.44704033669E+03  0.00000000000E+00 0. -1.
         21   -1    0    0  504  502 -0.00000000000E+00 -0.00000000000E+00 -0.23738151362E+03  0.23738151362E+03  0.00000000000E+00 0. -1.
         21    1    1    2  503  501 -0.57657037145E+02 -0.69803926197E+02  0.21843466727E+03  0.23645427869E+03  0.00000000000E+00 0. -1.
         21    1    1    2  504  503 -0.83499234293E+02 -0.95389125359E+02 -0.82639368909E+01  0.12704133193E+03  0.00000000000E+00 0.  1.
         21    1    1    2  505  506  0.13968406535E+02 -0.34423360922E+02  0.65411336763E+02  0.75224511533E+02  0.00000000000E+00 0. -1.
         21    1    1    2  506  502  0.12718786490E+03  0.19961641248E+03 -0.65923244083E+02  0.24570172816E+03  0.00000000000E+00 0. -1.
<scales pt_clust_3="103.09681" pt_clust_4="14000.00000" pt_clust_5="37.14948" pt_clust_6="170.01793"></scales>
<clustering>
<clus scale="   37.149">  1  5  2 -1</clus>
<clus scale="  103.097">  1  3  2 -1</clus>
<clus scale="  170.018">  1  6  2 -1</clus>
<clus scale="   37.149">  1  3  2 -1</clus>
</clustering>
</event>
<event>
 6    0  0.5656413E+002  0.6949650E+02  0.7546771E-02  0.1361814E+00
         21   -1    0    0  503  501  0.00000000000E+00  0.00000000000E+00  0.11210380114E+04  0.11210380114E+04  0.00000000000E+00 0.  1.
         21   -1    0    0  505  502 -0.00000000000E+00 -0.00000000000E+00 -0.33291543747E+03  0.33291543747E+03  0.00000000000E+00 0.  1.
         21    1    1    2  503  504 -0.90184491633E+01  0.29210225661E+02  0.47854242094E+02  0.56785545651E+02  0.00000000000E+00 0. -1.
         21    1    1    2  504  502 -0.58572025969E+02  0.84409452307E+00  0.10680785016E+02  0.59543882055E+02  0.00000000000E+00 0.  1.
         21    1    1    2  505  506  0.63757922795E+02  0.67279273754E+02 -0.29458818735E+03  0.30882644563E+03  0.00000000000E+00 0.  1.
         21    1    1    2  506  501  0.38325523373E+01 -0.97333593939E+02  0.10241757342E+04  0.10287975756E+04  0.00000000000E+00 0.  1.
<scales pt_clust_3="30.57073" pt_clust_4="58.89595" pt_clust_5="14000.00000" pt_clust_6="69.49650"></scales>
<clustering>
<clus scale="   30.571">  1  3  2 -1</clus>
<clus scale="   58.896">  2  4  1 -1</clus>
<clus scale="   69.497">  1  6  2 -1</clus>
<clus scale="   30.571">  1  3  2 -1</clus>
</clustering>
</event>
<event>
 6    0  0.4582113E+002  0.1674376E+03  0.7546771E-02  0.1180547E+00
         21   -1    0    0  503  501  0.00000000000E+00  0.00000000000E+00  0.40964648422E+03  0.40964648422E+03  0.00000000000E+00 0.  1.
         21   -1    0    0  504  502 -0.00000000000E+00 -0.00000000000E+00 -0.42935308406E+03  0.42935308406E+03  0.00000000000E+00 0.  1.
         21    1    1    2  503  505  0.10785028949E+03  0.63404131166E+02  0.29796258318E+03  0.32316167745E+03  0.00000000000E+00 0.  1.
         21    1    1    2  504  501  0.61943443590E+02 -0.35741596352E+02  0.48337415887E+02  0.86318930069E+02  0.00000000000E+00 0.  1.
         21    1    1    2  505  506 -0.17941144866E+03  0.10456251157E+02 -0.25669660736E+03  0.31335435106E+03  0.00000000000E+00 0.  1.
         21    1    1    2  506  502  0.96177155747E+01 -0.38118785971E+02 -0.10930999154E+03  0.11616460970E+03  0.00000000000E+00 0.  1.
<scales pt_clust_3="14000.00000" pt_clust_4="73.17730" pt_clust_5="167.43758" pt_clust_6="39.31339"></scales>
<clustering>
<clus scale="   39.313">  2  6  1 -1</clus>
<clus scale="   73.177">  1  4  2 -1</clus>
<clus scale="  167.438">  2  5  1 -1</clus>
<clus scale="   73.177">  1  3  2 -1</clus>
</clustering>
</event>
<event>
 6    0  0.4582113E+002  0.9118756E+02  0.7546771E-02  0.1300001E+00
         21   -1    0    0  504  501  0.00000000000E+00  0.00000000000E+00  0.31914505569E+02  0.31914505569E+02  0.00000000000E+00 0.  1.
         21   -1    0    0  503  502 -0.00000000000E+00 -0.00000000000E+00 -0.15288351027E+04  0.15288351027E+04  0.00000000000E+00 0.  1.
         21    1    1    2  503  505 -0.30917559292E+02  0.11430036658E+02 -0.18725033695E+03  0.19012950823E+03  0.00000000000E+00 0.  1.
         21    1    1    2  504  506 -0.49311267317E+02 -0.36528843975E+02 -0.10873715464E+03  0.12485882559E+03  0.00000000000E+00 0.  1.
         21    1    1    2  505  501 -0.61320019843E+02 -0.12276805089E+02 -0.97206564090E+03  0.97407518960E+03  0.00000000000E+00 0.  1.
         21    1    1    2  506  502  0.14154884645E+03  0.37375612406E+02 -0.22886746463E+03  0.27168608485E+03  0.00000000000E+00 0.  1.
<scales pt_clust_3="32.96272" pt_clust_4="62.98554" pt_clust_5="91.18756" pt_clust_6="14000.00000"></scales>
<clustering>
<clus scale="   32.963">  2  3  1 -1</clus>
<clus scale="   62.986">  1  4  2 -1</clus>
<clus scale="   91.188">  2  5  1 -1</clus>
<clus scale="   62.986">  1  3  2 -1</clus>
</clustering>
</event>
<event>
 6    0  0.4582113E+002  0.1143247E+03  0.7546771E-02  0.1252764E+00
         21   -1    0    0  505  501  0.00000000000E+00  0.00000000000E+00  0.21804233457E+04  0.21804233457E+04  0.00000000000E+00 0. -1.
         21   -1    0    0  506  502 -0.00000000000E+00 -0.00000000000E+00 -0.20160913378E+03  0.20160913378E+03  0.00000000000E+00 0.  1.
         21    1    1    2  503  502  0.63886477512E+02  0.47842392896E+02 -0.17090849722E+03  0.18862685649E+03  0.00000000000E+00 0.  1.
         21    1    1    2  504  501 -0.87856812311E+02 -0.22318453462E+02  0.14978079664E+04  0.15005484454E+04  0.00000000000E+00 0. -1.
         21    1    1    2  505  503  0.94235389296E+01 -0.63144313045E+02  0.64930690312E+03  0.65243809039E+03  0.00000000000E+00 0. -1.
         21    1    1    2  506  504  0.14546795869E+02  0.37620373611E+02  0.26078396095E+01  0.40419087176E+02  0.00000000000E+00 0. -1.
<scales pt_clust_3="14000.00000" pt_clust_4="114.32471" pt_clust_5="63.54341" pt_clust_6="40.33487"></scales>
<clustering>
<clus scale="   40.335">  2  6  1 -1</clus>
<clus scale="   63.543">  1  5  2 -1</clus>
<clus scale="  114.325">  1  4  2 -1</clus>
<clus scale="   63.543">  1  3  2 -1</clus>
</clustering>
</event>
<event>
 6    0  0.4582113E+002  0.6433584E+02  0.7546771E-02  0.1380487E+00
         21   -1    0    0  506  501  0.00000000000E+00  0.00000000000E+00  0.29293249459E+04  0.29293249459E+04  0.00000000000E+00 0.  1.
         21   -1    0    0  505  502 -0.00000000000E+00 -0.00000000000E+00 -0.10587554704E+02  0.10587554704E+02  0.00000000000E+00 0.  1.
         21    1    1    2  503  501 -0.25515379280E+02 -0.37271489156E+02  0.15437846495E+04  0.15444452863E+04  0.00000000000E+00 0.  1.
         21    1    1    2  504  503  0.22246078330E+01  0.67422886964E+02  0.84273938396E+03  0.84543507371E+03  0.00000000000E+00 0.  1.
         21    1    1    2  505  504  0.16081060308E+01  0.52919906966E+02  0.19464203657E+03  0.20171421605E+03  0.00000000000E+00 0.  1.
         21    1    1    2  506  502  0.21682665417E+02 -0.83071304775E+02  0.33757132118E+03  0.34831792452E+03  0.00000000000E+00 0.  1.
<scales pt_clust_3="45.16856" pt_clust_4="46.65413" pt_clust_5="64.33584" pt_clust_6="14000.00000"></scales>
<clustering>
<clus scale="   45.169">  1  3  2 -1</clus>
<clus scale="   46.654">  1  4  2 -1</clus>
<clus scale="   64.336">  2  5  1 -1</clus>
<clus scale="   45.169">  1  3  2 -1</clus>
</clustering>
</event>
<event>
 6    0  0.4582113E+002  0.1209701E+03  0.7546771E-02  0.1241505E+00
         21   -1    0    0  505  501  0.00000000000E+00  0.00000000000E+00  0.21386810255E+04  0.21386810255E+04  0.00000000000E+00 0.  1.
         21   -1    0    0  503  502 -0.00000000000E+00 -0.00000000000E+00 -0.75633569939E+02  0.75633569939E+02  0.00000000000E+00 0.  1.
         21    1    1    2  503  506 -0.11029007090E+03  0.22246375343E+02  0.45899739887E+01  0.11260492359E+03  0.00000000000E+00 0.  1.
         21    1    1    2  504  502 -0.35884792653E+02  0.32136467606E+02  0.13881550282E+04  0.13889905879E+04  0.00000000000E+00 0.  1.
         21    1    1    2  505  504 -0.23441165138E+02  0.19333262819E+02  0.27063579273E+03  0.27233618118E+03  0.00000000000E+00 0.  1.
         21    1    1    2  506  501  0.16961602869E+03 -0.73716105768E+02  0.39966666063E+03  0.44038290277E+03  0.00000000000E+00 0.  1.
<scales pt_clust_3="14000.00000" pt_clust_4="70.75506" pt_clust_5="30.38525" pt_clust_6="120.97007"></scales>
<clustering>
<clus scale="   30.385">  1  5  2 -1</clus>
<clus scale="   70.755">  1  4  2 -1</clus>
<clus scale="  120.970">  1  6  2 -1</clus>
<clus scale="   30.385">  1  3  2 -1</clus>
</clustering>
</event>
<event>
 6    0  0.4582113E+002  0.9494217E+02  0.7546771E-02  0.1291306E+00
         21   -1    0    0  504  501  0.00000000000E+00  0.00000000000E+00  0.46265537145E+03  0.46265537145E+03  0.00000000000E+00 0.  1.
         21   -1    0    0  503  502 -0.00000000000E+00 -0.00000000000E+00 -0.72376191101E+02  0.72376191101E+02  0.00000000000E+00 0.  1.
         21    1    1    2  503  505  0.46303583206E+00  0.42768077309E+02 -0.85648064500E+01  0.43619705964E+02  0.00000000000E+00 0.  1.
         21    1    1    2  504  502 -0.96729226239E+02 -0.73319945227E+02  0.13123466737E+03  0.17875932282E+03  0.00000000000E+00 0.  1.
         21    1    1    2  505  506  0.29718833875E+02  0.75290830221E+02  0.12169741903E+03  0.14615806513E+03  0.00000000000E+00 0.  1.
         21    1    1    2  506  501  0.66547356532E+02 -0.44738962303E+02  0.14591190040E+03  0.16649446864E+03  0.00000000000E+00 0.  1.
<scales pt_clust_3="42.77058" pt_clust_4="94.94217" pt_clust_5="14000.00000" pt_clust_6="75.38818"></scales>
<clustering>
<clus scale="   42.771">  2  3  1 -1</clus>
<clus scale="   75.388">  1  6  2 -1</clus>
<clus scale="   94.942">  2  4  1 -1</clus>
<clus scale="   75.388">  1  3  2 -1</clus>
</clustering>
</event>
<event>
 6    0  0.4582113E+002  0.1263181E+03  0.7546771E-02  0.1233024E+00
         21   -1    0    0  504  501  0.00000000000E+00  0.00000000000E+00  0.78571908730E+03  0.78571908730E+03  0.00000000000E+00 0. -1.
         21   -1    0    0  503  502 -0.00000000000E+00 -0.00000000000E+00 -0.26508592094E+03  0.26508592094E+03  0.00000000000E+00 0.  1.
         21    1    1    2  503  505  0.11715688721E+03 -0.53510743863E+01 -0.24038834374E+03  0.26747135552E+03  0.00000000000E+00 0.  1.
         21    1    1    2  504  502  0.59613315548E+00  0.46943533777E+02  0.12641260525E+03  0.13484879497E+03  0.00000000000E+00 0.  1.
         21    1    1    2  505  506 -0.39905784088E+02  0.24367362570E+01  0.27656817596E+03  0.27944295525E+03  0.00000000000E+00 0.  1.
         21    1    1    2  506  501 -0.77847236278E+02 -0.44029195647E+02  0.35804072888E+03  0.36904190250E+03  0.00000000000E+00 0. -1.
<scales pt_clust_3="117.25107" pt_clust_4="46.94732" pt_clust_5="31.42023" pt_clust_6="31.42023"></scales>
<clustering>
<clus scale="   31.420">  5  6 -1 -1</clus>
<clus scale="   46.947">  1  4  2 -1</clus>
<clus scale="  117.251">  2  3  1 -1</clus>
<clus scale="   46.947">  1  3  2 -1</clus>
</clustering>
</event>
<event>
 6    0  0.4582113E+002  0.1107484E+03  0.7546771E-02  0.1259190E+00
         21   -1    0    0  504  501  0.00000000000E+00  0.00000000000E+00  0.84581583214E+03  0.84581583214E+03  0.00000000000E+00 0. -1.
         21   -1    0    0  503  502 -0.00000000000E+00 -0.00000000000E+00 -0.20874347287E+03  0.20874347287E+03  0.00000000000E+00 0. -1.
         21    1    1    2  503  506  0.10102761020E+02 -0.79294406328E+02  0.21864136203E+02  0.82871642358E+02  0.00000000000E+00 0. -1.
         21    1    1    2  504  502  0.37159296990E+01 -0.74251901341E+02 -0.15556672106E+03  0.17241855378E+03  0.00000000000E+00 0. -1.
         21    1    1    2  505  501  0.62677915258E+02  0.78098276964E+02  0.44894597452E+03  0.45997864077E+03  0.00000000000E+00 0. -1.
         21    1    1    2  506  505 -0.76496605978E+02  0.75448030705E+02  0.32182896961E+03  0.33929046810E+03  0.00000000000E+00 0. -1.
<scales pt_clust_3="14000.00000" pt_clust_4="74.34482" pt_clust_5="93.48594" pt_clust_6="110.74837"></scales>
<clustering>
<clus scale="   74.345">  2  4  1 -1</clus>
<clus scale="   93.486">  1  5  2 -1</clus>
<clus scale="  110.748">  1  6  2 -1</clus>
<clus scale="   93.486">  1  3  2 -1</clus>
</clustering>
</event>
<event>
 6    0  0.4582113E+002  0.9969323E+02  0.7546771E-02  0.1280942E+00
         21   -1    0    0  506  501  0.00000000000E+00  0.00000000000E+00  0.31343577794E+02  0.31343577794E+02  0.00000000000E+00 0. -1.
         21   -1    0    0  505  502 -0.00000000000E+00 -0.00000000000E+00 -0.95627639200E+03  0.95627639200E+03  0.00000000000E+00 0. -1.
         21    1    1    2  503  501 -0.98079029088E+02  0.12983713771E+02 -0.11504454529E+03  0.15173437373E+03  0.00000000000E+00 0. -1.
         21    1    1    2  504  502  0.39314364084E+02  0.32210279873E+02 -0.41188998104E+03  0.41501382848E+03  0.00000000000E+00 0. -1.
         21    1    1    2  505  503  0.81391283334E+02 -0.11269792641E+02 -0.34118111179E+03  0.35093603444E+03  0.00000000000E+00 0. -1.
         21    1    1    2  506  504 -0.22626618331E+02 -0.33924201003E+02 -0.56817176083E+02  0.69935733133E+02  0.00000000000E+00 0.  1.
<scales pt_clust_3="99.69323" pt_clust_4="48.37229" pt_clust_5="14000.00000" pt_clust_6="40.77763"></scales>
<clustering>
<clus scale="   40.778">  1  6  2 -1</clus>
<clus scale="   48.372">  2  4  1 -1</clus>
<clus scale="   99.693">  1  3  2 -1</clus>
<clus scale="   40.778">  1  3  2 -1</clus>
</clustering>
</event>
<event>
 6    0  0.4582113E+002  0.9050310E+02  0.7546771E-02  0.1301638E+00
         21   -1    0    0  503  501  0.00000000000E+00  0.00000000000E+00  0.11297642733E+03  0.11297642733E+03  0.00000000000E+00 0. -1.
         21   -1    0    0  506  502 -0.00000000000E+00 -0.00000000000E+00 -0.52064305348E+03  0.52064305348E+03  0.00000000000E+00 0.  1.
         21    1    1    2  503  505  0.10777031531E+03 -0.57092591659E+02 -0.28330619224E+03  0.30844189639E+03  0.00000000000E+00 0.  1.
         21    1    1    2  504  501 -0.41894863086E+02  0.52529819346E+01  0.45614295892E+02  0.62156555261E+02  0.00000000000E+00 0. -1.
         21    1    1    2  505  502 -0.36566107965E+02 -0.52120761643E+01 -0.19175812864E+03  0.19528293804E+03  0.00000000000E+00 0.  1.
         21    1    1    2  506  504 -0.29309344255E+02  0.57051685889E+02  0.21783398845E+02  0.67738091121E+02  0.00000000000E+00 0. -1.
<scales pt_clust_3="14000.00000" pt_clust_4="43.12458" pt_clust_5="36.93570" pt_clust_6="90.50310"></scales>
<clustering>
<clus scale="   36.936">  2  5  1 -1</clus>
<clus scale="   43.125">  1  4  2 -1</clus>
<clus scale="   90.503">  1  6  2 -1</clus>
<clus scale="   43.125">  1  3  2 -1</clus>
</clustering>
</event>
<event>
 6    0  0.4582113E+002  0.1996131E+03  0.7546771E-02  0.1150066E+00
         21   -1    0    0  504  501  0.00000000000E+00  0.00000000000E+00  0.79816407922E+02  0.79816407922E+02  0.00000000000E+00 0.  1.
         21   -1    0    0  505  502 -0.00000000000E+00 -0.00000000000E+00 -0.18857071588E+04  0.18857071588E+04  0.00000000000E+00 0.  1.
         21    1    1    2  503  501  0.45221733141E+00  0.33306887578E+02 -0.66009632606E+02  0.73937979804E+02  0.00000000000E+00 0. -1.
         21    1    1    2  504  506  0.30002775010E+02 -0.11269924257E+03 -0.13323915296E+02  0.11738318663E+03  0.00000000000E+00 0.  1.
         21    1    1    2  505  503 -0.11316799795E+03  0.21199834284E+03 -0.12429656657E+04  0.12659833882E+04  0.00000000000E+00 0.  1.
         21    1    1    2  506  502  0.82713005610E+02 -0.13260598784E+03 -0.48359153731E+03  0.50821901210E+03  0.00000000000E+00 0.  1.
<scales pt_clust_3="33.30996" pt_clust_4="94.82838" pt_clust_5="199.61312" pt_clust_6="14000.00000"></scales>
<clustering>
<clus scale="   33.310">  1  3  2 -1</clus>
<clus scale="   94.828">  1  4  2 -1</clus>
<clus scale="  199.613">  2  5  1 -1</clus>
<clus scale="   33.310">  1  3  2 -1</clus>
</clustering>
</event>
<event>
 6    0  0.4582113E+002  0.9116070E+02  0.7546771E-02  0.1300065E+00
         21   -1    0    0  506  501  0.00000000000E+00  0.00000000000E+00  0.48486574532E+03  0.48486574532E+03  0.00000000000E+00 0.  1.
         21   -1    0    0  505  502 -0.00000000000E+00 -0.00000000000E+00 -0.50991853732E+03  0.50991853732E+03  0.00000000000E+00 0. -1.
         21    1    1    2  503  504  0.11359854706E+03  0.61450584158E+02 -0.21933634630E+03  0.25453729981E+03  0.00000000000E+00 0. -1.
         21    1    1    2  504  502 -0.28048248273E+02 -0.30202235714E+02 -0.26206100857E+03  0.26528258798E+03  0.00000000000E+00 0. -1.
         21    1    1    2  505  501 -0.75605047388E+02  0.18839602879E+02  0.22688940127E+03  0.23989550691E+03  0.00000000000E+00 0.  1.
         21    1    1    2  506  503 -0.99452514017E+01 -0.50087951323E+02  0.22945516159E+03  0.23506888793E+03  0.00000000000E+00 0. -1.
<scales pt_clust_3="91.16070" pt_clust_4="41.21746" pt_clust_5="14000.00000" pt_clust_6="51.46628"></scales>
<clustering>
<clus scale="   41.217">  2  4  1 -1</clus>
<clus scale="   51.466">  1  6  2 -1</clus>
<clus scale="   91.161">  2  3  1 -1</clus>
<clus scale="   51.466">  1  3  2 -1</clus>
</clustering>
</event>
<event>
 6    0  0.4582113E+002  0.9741582E+02  0.7546771E-02  0.1285826E+00
         21   -1    0    0  504  501  0.00000000000E+00  0.00000000000E+00  0.28964734686E+03  0.28964734686E+03  0.00000000000E+00 0. -1.
         21   -1    0    0  503  502 -0.00000000000E+00 -0.00000000000E+00 -0.23708988592E+03  0.23708988592E+03  0.00000000000E+00 0.  1.
         21    1    1    2  503  505  0.86149224374E+02  0.84724717326E+02  0.39685523482E+02  0.12718060922E+03  0.00000000000E+00 0.  1.
         21    1    1    2  504  506 -0.45012132874E+02 -0.78535227323E+02  0.16090220146E+03  0.18461688024E+03  0.00000000000E+00 0. -1.
         21    1    1    2  505  501 -0.24064974392E+02  0.22840168002E+02  0.23163987729E+02  0.40464386741E+02  0.00000000000E+00 0. -1.
         21    1    1    2  506  502 -0.17072117108E+02 -0.29029658005E+02 -0.17119425173E+03  0.17447535657E+03  0.00000000000E+00 0.  1.
<scales pt_clust_3="97.41582" pt_clust_4="14000.00000" pt_clust_5="33.17825" pt_clust_6="33.63054"></scales>
<clustering>
<clus scale="   33.178">  1  5  2 -1</clus>
<clus scale="   33.631">  2  6  1 -1</clus>
<clus scale="   97.416">  2  3  1 -1</clus>
<clus scale="   33.178">  1  3  2 -1</clus>
</clustering>
</event>
<event>
 6    0  0.4582113E+002  0.1207340E+03  0.7546771E-02  0.1241891E+00
         21   -1    0    0  505  501  0.00000000000E+00  0.00000000000E+00  0.64364526321E+03  0.64364526321E+03  0.00000000000E+00 0. -1.
         21   -1    0    0  503  502 -0.00000000000E+00 -0.00000000000E+00 -0.86250546386E+02  0.86250546386E+02  0.00000000000E+00 0. -1.
         21    1    1    2  503  501  0.18330648504E+02 -0.10541612282E+03  0.43223445759E+03  0.44528103256E+03  0.00000000000E+00 0. -1.
         21    1    1    2  504  506 -0.15401395135E-01  0.37267790914E+02  0.28119954450E+02  0.46686403964E+02  0.00000000000E+00 0.  1.
         21    1    1    2  505  504 -0.56577471537E+02  0.66553504137E+02  0.14939751362E+03  0.17306067224E+03  0.00000000000E+00 0.  1.
         21    1    1    2  506  502  0.38262224428E+02  0.15948277725E+01 -0.52357208843E+02  0.64867700835E+02  0.00000000000E+00 0. -1.
<scales pt_clust_3="108.54488" pt_clust_4="34.53018" pt_clust_5="34.53018" pt_clust_6="38.29545"></scales>
<clustering>
<clus scale="   34.530">  4  5 -1 -1</clus>
<clus scale="   38.295">  2  6  1 -1</clus>
<clus scale="  108.545">  1  3  2 -1</clus>
<clus scale="  108.545">  1  3  2 -1</clus>
</clustering>
</event>
<event>
 6    0  0.4582113E+002  0.7142311E+02  0.7546771E-02  0.1355319E+00
         21   -1    0    0  506  501  0.00000000000E+00  0.00000000000E+00  0.11598016503E+03  0.11598016503E+03  0.00000000000E+00 0. -1.
         21   -1    0    0  504  502 -0.00000000000E+00 -0.00000000000E+00 -0.47282731298E+03  0.47282731298E+03  0.00000000000E+00 0.  1.
         21    1    1    2  503  502 -0.32844393802E+02 -0.59523483045E+00 -0.21218473036E+03  0.21471252480E+03  0.00000000000E+00 0.  1.
         21    1    1    2  504  505 -0.69394578482E+01  0.60274024278E+02 -0.17011422078E+03  0.18060997256E+03  0.00000000000E+00 0.  1.
         21    1    1    2  505  501 -0.41985236264E+02  0.38033125049E+02 -0.17067378189E+02  0.59165649353E+02  0.00000000000E+00 0. -1.
         21    1    1    2  506  503  0.81769087914E+02 -0.97711914496E+02  0.42519181379E+02  0.13431933129E+03  0.00000000000E+00 0. -1.
<scales pt_clust_3="32.84979" pt_clust_4="14000.00000" pt_clust_5="60.25960" pt_clust_6="71.42311"></scales>
<clustering>
<clus scale="   32.850">  2  3  1 -1</clus>
<clus scale="   60.260">  1  5  2 -1</clus>
<clus scale="   71.423">  1  6  2 -1</clus>
<clus scale="   60.260">  1  3  2 -1</clus>
</clustering>
</event>
<event>
 6    0  0.4582113E+002  0.4989170E+03  0.7546771E-02  0.1014062E+00
         21   -1    0    0  505  501  0.00000000000E+00  0.00000000000E+00  0.22049259078E+04  0.22049259078E+04  0.00000000000E+00 0. -1.
         21   -1    0    0  504  502 -0.00000000000E+00 -0.00000000000E+00 -0.58774370402E+03  0.58774370402E+03  0.00000000000E+00 0. -1.
         21    1    1    2  503  502  0.36164203223E+03  0.64992325295E+02  0.93176163187E+03  0.10015930813E+04  0.00000000000E+00 0. -1.
         21    1    1    2  504  506 -0.49259226163E+03  0.17362990598E+03 -0.40103291761E+03  0.65849972018E+03  0.00000000000E+00 0. -1.
         21    1    1    2  505  503  0.12904727656E+03 -0.19570132556E+03  0.59904409067E+03  0.64327756916E+03  0.00000000000E+00 0. -1.
         21    1    1    2  506  501  0.19029528391E+01 -0.42920905713E+02  0.48740939884E+03  0.48929924122E+03  0.00000000000E+00 0. -1.
<scales pt_clust_3="14000.00000" pt_clust_4="498.91697" pt_clust_5="247.89246" pt_clust_6="42.96307"></scales>
<clustering>
<clus scale="   42.963">  1  6  2 -1</clus>
<clus scale="  247.892">  1  5  2 -1</clus>
<clus scale="  498.917">  2  4  1 -1</clus>
<clus scale="   42.963">  1  3  2 -1</clus>
</clustering>
</event>
<event>
 6    0  0.4582113E+002  0.2692411E+03  0.7546771E-02  0.1101715E+00
         21   -1    0    0  504  501  0.00000000000E+00  0.00000000000E+00  0.12436601923E+04  0.12436601923E+04  0.00000000000E+00 0. -1.
         21   -1    0    0  506  502 -0.00000000000E+00 -0.00000000000E+00 -0.16371179881E+03  0.16371179881E+03  0.00000000000E+00 0.  1.
         21    1    1    2  503  502  0.23065028578E+02 -0.37338684425E+02  0.11253535225E+02  0.45308000981E+02  0.00000000000E+00 0.  1.
         21    1    1    2  504  505  0.96293443516E+02  0.25231750118E+02  0.16602907454E+03  0.19358388897E+03  0.00000000000E+00 0. -1.
         21    1    1    2  505  503  0.17744504342E+03 -0.85291972736E+02  0.82284006695E+03  0.84606574203E+03  0.00000000000E+00 0. -1.
         21    1    1    2  506  501 -0.29680351552E+03  0.97398907043E+02  0.79825716791E+02  0.32241435914E+03  0.00000000000E+00 0.  1.
<scales pt_clust_3="43.88819" pt_clust_4="100.82808" pt_clust_5="269.24114" pt_clust_6="14000.00000"></scales>
<clustering>
<clus scale="   43.888">  2  3  1 -1</clus>
<clus scale="  100.828">  1  4  2 -1</clus>
<clus scale="  269.241">  1  5  2 -1</clus>
<clus scale="  100.828">  1  3  2 -1</clus>
</clustering>
</event>
<event>
 6    0  0.4582113E+002  0.2186050E+03  0.7546771E-02  0.1134927E+00
         21   -1    0    0  503  501  0.00000000000E+00  0.00000000000E+00  0.11870138989E+04  0.11870138989E+04  0.00000000000E+00 0. -1.
         21   -1    0    0  504  502 -0.00000000000E+00 -0.00000000000E+00 -0.42193656743E+03  0.42193656743E+03  0.00000000000E+00 0. -1.
         21    1    1    2  503  506  0.42996761118E+02 -0.47803411020E+01  0.18571518553E+03  0.19068744915E+03  0.00000000000E+00 0. -1.
         21    1    1    2  504  505 -0.15807587543E+03 -0.83930121652E+02  0.15122239273E+03  0.23430847142E+03  0.00000000000E+00 0. -1.
         21    1    1    2  505  501 -0.54369682373E+02 -0.61426292254E+02  0.76976474893E+03  0.77412338838E+03  0.00000000000E+00 0. -1.
         21    1    1    2  506  502  0.16944879669E+03  0.15013675501E+03 -0.34162499569E+03  0.40983115741E+03  0.00000000000E+00 0. -1.
<scales pt_clust_3="43.26168" pt_clust_4="14000.00000" pt_clust_5="68.46595" pt_clust_6="218.60499"></scales>
<clustering>
<clus scale="   43.262">  1  3  2 -1</clus>
<clus scale="   68.466">  1  5  2 -1</clus>
<clus scale="  218.605">  2  6  1 -1</clus>
<clus scale="   43.262">  1  3  2 -1</clus>
</clustering>
</event>
<event>
 6    0  0.4582113E+002  0.1505634E+03  0.7546771E-02  0.1199782E+00
         21   -1    0    0  502  501  0.00000000000E+00  0.00000000000E+00  0.41623540027E+03  0.41623540027E+03  0.00000000000E+00 0. -1.
         21   -1    0    0  503  502 -0.00000000000E+00 -0.00000000000E+00 -0.14991147326E+03  0.14991147326E+03  0.00000000000E+00 0. -1.
         21    1    1    2  503  504  0.53749907671E+01  0.30530826100E+02 -0.75085530321E+02  0.81233359721E+02  0.00000000000E+00 0. -1.
         21    1    1    2  504  505 -0.69855437515E+02 -0.50956681324E+02  0.17150362263E+02  0.88150442130E+02  0.00000000000E+00 0. -1.
         21    1    1    2  505  506 -0.67870135364E+02 -0.28077125450E+02  0.51406255556E+02  0.89650897141E+02  0.00000000000E+00 0. -1.
         21    1    1    2  506  501  0.13235058211E+03  0.48502980674E+02  0.27285283951E+03  0.30711217453E+03  0.00000000000E+00 0. -1.
<scales pt_clust_3="31.00035" pt_clust_4="39.33261" pt_clust_5="39.33261" pt_clust_6="144.81265"></scales>
<clustering>
<clus scale="   31.000">  2  3  1 -1</clus>
<clus scale="   39.333">  4  5 -1 -1</clus>
<clus scale="  144.813">  1  6  2 -1</clus>
<clus scale="  144.813">  1  3  2 -1</clus>
</clustering>
</event>
<event>
 6    0  0.4582113E+002  0.8950544E+02  0.7546771E-02  0.1304054E+00
         21   -1    0    0  506  501  0.00000000000E+00  0.00000000000E+00  0.15412897597E+04  0.15412897597E+04  0.00000000000E+00 0. -1.
         21   -1    0    0  503  502 -0.00000000000E+00 -0.00000000000E+00 -0.10463600679E+03  0.10463600679E+03  0.00000000000E+00 0. -1.
         21    1    1    2  503  501  0.55343821235E+01  0.64169205596E+02  0.12379872820E+03  0.13955085609E+03  0.00000000000E+00 0.  1.
         21    1    1    2  504  502 -0.34503404503E+02 -0.39293851217E+02 -0.72348276824E+02  0.89267938394E+02  0.00000000000E+00 0. -1.
         21    1    1    2  505  504  0.10214207775E+03 -0.69455327487E+02  0.25174867587E+03  0.28041833457E+03  0.00000000000E+00 0.  1.
         21    1    1    2  506  505 -0.73173055370E+02  0.44579973108E+02  0.11334546256E+04  0.11366886374E+04  0.00000000000E+00 0. -1.
<scales pt_clust_3="51.51659" pt_clust_4="52.29237" pt_clust_5="14000.00000" pt_clust_6="89.50544"></scales>
<clustering>
<clus scale="   52.292">  2  4  1 -1</clus>
<clus scale="   51.517">  2  3  1 -1</clus>
<clus scale="   89.505">  1  6  2 -1</clus>
<clus scale="   89.505">  1  3  2 -1</clus>
</clustering>
</event>
<event>
 6    0  0.4582113E+002  0.1191112E+03  0.7546771E-02  0.1244571E+00
         21   -1    0    0  505  501  0.00000000000E+00  0.00000000000E+00  0.33130042235E+03  0.33130042235E+03  0.00000000000E+00 0. -1.
         21   -1    0    0  504  502 -0.00000000000E+00 -0.00000000000E+00 -0.84696285286E+03  0.84696285286E+03  0.00000000000E+00 0. -1.
         21    1    1    2  503  502 -0.56555423097E+02 -0.73133442724E+01 -0.13345864832E+03  0.14513170466E+03  0.00000000000E+00 0. -1.
         21    1    1    2  504  506  0.64205602965E+02 -0.11285521970E+03 -0.67361638283E+03  0.68601580979E+03  0.00000000000E+00 0. -1.
         21    1    1    2  505  503  0.40048824001E+02  0.32987493021E+02  0.15959232662E+02  0.54284252844E+02  0.00000000000E+00 0. -1.
         21    1    1    2  506  501 -0.47699003869E+02  0.87181070948E+02  0.27545336797E+03  0.29283150792E+03  0.00000000000E+00 0. -1.
<scales pt_clust_3="56.16289" pt_clust_4="119.11121" pt_clust_5="51.88529" pt_clust_6="14000.00000"></scales>
<clustering>
<clus scale="   51.885">  1  5  2 -1</clus>
<clus scale="   56.163">  2  3  1 -1</clus>
<clus scale="  119.111">  2  4  1 -1</clus>
<clus scale="   51.885">  1  3  2 -1</clus>
</clustering>
</event>
<event>
 6    0  0.4582113E+002  0.1694198E+03  0.7546771E-02  0.1178454E+00
         21   -1    0    0  505  501  0.00000000000E+00  0.00000000000E+00  0.12194544042E+03  0.12194544042E+03  0.00000000000E+00 0. -1.
         21   -1    0    0  506  502 -0.00000000000E+00 -0.00000000000E+00 -0.54386209868E+03  0.54386209868E+03  0.00000000000E+00 0. -1.
         21    1    1    2  503  501 -0.31973329729E+02  0.34118835049E+02  0.18888309377E+02  0.50429722885E+02  0.00000000000E+00 0.  1.
         21    1    1    2  504  502  0.20292430687E+02  0.16812499136E+03 -0.17072353279E+03  0.24046687945E+03  0.00000000000E+00 0. -1.
         21    1    1    2  505  504  0.23201894690E+01 -0.31993914348E+02  0.20449456891E+02  0.38041741832E+02  0.00000000000E+00 0. -1.
         21    1    1    2  506  503  0.93607095731E+01 -0.17024991206E+03 -0.29053089173E+03  0.33686919493E+03  0.00000000000E+00 0. -1.
<scales pt_clust_3="38.19029" pt_clust_4="14000.00000" pt_clust_5="32.07793" pt_clust_6="169.41977"></scales>
<clustering>
<clus scale="   32.078">  1  5  2 -1</clus>
<clus scale="   38.190">  1  3  2 -1</clus>
<clus scale="  169.420">  2  6  1 -1</clus>
<clus scale="   32.078">  1  3  2 -1</clus>
</clustering>
</event>
<event>
 6    0  0.4582113E+002  0.1130663E+03  0.7546771E-02  0.1254995E+00
         21   -1    0    0  504  501  0.00000000000E+00  0.00000000000E+00  0.48306191850E+02  0.48306191850E+02  0.00000000000E+00 0. -1.
         21   -1    0    0  501  502 -0.00000000000E+00 -0.00000000000E+00 -0.59441900962E+03  0.59441900962E+03  0.00000000000E+00 0. -1.
         21    1    1    2  503  505 -0.17162428427E+02  0.69951845334E+02 -0.11103254995E+03  0.13234816494E+03  0.00000000000E+00 0. -1.
         21    1    1    2  504  506 -0.59981807125E+02 -0.19796505972E+02 -0.13884539821E+02  0.64672245057E+02  0.00000000000E+00 0. -1.
         21    1    1    2  505  502  0.62784113365E+02 -0.86128791786E+02 -0.29290677026E+03  0.31169598927E+03  0.00000000000E+00 0. -1.
         21    1    1    2  506  503  0.14360122187E+02  0.35973452424E+02 -0.12828895774E+03  0.13400880220E+03  0.00000000000E+00 0. -1.
<scales pt_clust_3="36.24772" pt_clust_4="63.16422" pt_clust_5="101.68954" pt_clust_6="36.24772"></scales>
<clustering>
<clus scale="   36.248">  3  6 -1 -1</clus>
<clus scale="   63.164">  1  4  2 -1</clus>
<clus scale="  101.690">  2  5  1 -1</clus>
<clus scale="   63.164">  1  3  2 -1</clus>
</clustering>
</event>
<event>
 6    0  0.4582113E+002  0.8894827E+02  0.7546771E-02  0.1305419E+00
         21   -1    0    0  506  501  0.00000000000E+00  0.00000000000E+00  0.73716787703E+03  0.73716787703E+03  0.00000000000E+00 0. -1.
         21   -1    0    0  503  502 -0.00000000000E+00 -0.00000000000E+00 -0.45814596855E+02  0.45814596855E+02  0.00000000000E+00 0. -1.
         21    1    1    2  503  505 -0.41469974606E+02 -0.80375714195E+02  0.84944661559E+02  0.12407904639E+03  0.00000000000E+00 0. -1.
         21    1    1    2  504  502  0.95939445638E+02 -0.10394624741E+02  0.11166552586E+03  0.14758595841E+03  0.00000000000E+00 0. -1.
         21    1    1    2  505  501 -0.17550506290E+02  0.86171498167E+02  0.39952766617E+03  0.40909155870E+03  0.00000000000E+00 0. -1.
         21    1    1    2  506  504 -0.36918964742E+02  0.45988407693E+01  0.95215426584E+02  0.10222591038E+03  0.00000000000E+00 0. -1.
<scales pt_clust_3="87.98914" pt_clust_4="88.94827" pt_clust_5="14000.00000" pt_clust_6="37.20429"></scales>
<clustering>
<clus scale="   37.204">  1  6  2 -1</clus>
<clus scale="   88.948">  2  4  1 -1</clus>
<clus scale="   87.989">  2  3  1 -1</clus>
<clus scale="   37.204">  1  3  2 -1</clus>
</clustering>
</event>
<event>
 6    0  0.4582113E+002  0.7816074E+02  0.7546771E-02  0.1334354E+00
         21   -1    0    0  506  501  0.00000000000E+00  0.00000000000E+00  0.34233454258E+03  0.34233454258E+03  0.00000000000E+00 0.  1.
         21   -1    0    0  503  502 -0.00000000000E+00 -0.00000000000E+00 -0.16090964337E+03  0.16090964337E+03  0.00000000000E+00 0. -1.
         21    1    1    2  503  504  0.22602033667E+02  0.72510001340E+02 -0.11459316021E+03  0.13747779671E+03  0.00000000000E+00 0. -1.
         21    1    1    2  504  505 -0.42847909792E+02 -0.91893992103E+02  0.93994171486E+02  0.13825828522E+03  0.00000000000E+00 0.  1.
         21    1    1    2  505  501  0.59473839189E+02  0.21962605015E+02  0.14491062300E+03  0.15817263425E+03  0.00000000000E+00 0.  1.
         21    1    1    2  506  502 -0.39227963065E+02 -0.25786142516E+01  0.57113264940E+02  0.69335469781E+02  0.00000000000E+00 0.  1.
<scales pt_clust_3="14000.00000" pt_clust_4="78.16074" pt_clust_5="43.36086" pt_clust_6="39.31262"></scales>
<clustering>
<clus scale="   39.313">  1  6  2 -1</clus>
<clus scale="   43.361">  1  5  2 -1</clus>
<clus scale="   78.161">  1  4  2 -1</clus>
<clus scale="   39.313">  1  3  2 -1</clus>
</clustering>
</event>
<event>
 6    0  0.4582113E+002  0.1047753E+03  0.7546771E-02  0.1270563E+00
         21   -1    0    0  503  501  0.00000000000E+00  0.00000000000E+00  0.15447416958E+04  0.15447416958E+04  0.00000000000E+00 0. -1.
         21   -1    0    0  506  502 -0.00000000000E+00 -0.00000000000E+00 -0.26682846351E+03  0.26682846351E+03  0.00000000000E+00 0.  1.
         21    1    1    2  503  505 -0.66029446333E+00  0.75289935048E+02  0.78061847876E+03  0.78424117444E+03  0.00000000000E+00 0. -1.
         21    1    1    2  504  501 -0.44363637251E+02 -0.24280255655E+02  0.33307554930E+03  0.33689313538E+03  0.00000000000E+00 0. -1.
         21    1    1    2  505  502 -0.28462157814E+02 -0.12550683297E+03  0.40657362860E+03  0.42645536111E+03  0.00000000000E+00 0. -1.
         21    1    1    2  506  504  0.73486089529E+02  0.74497153581E+02 -0.24235442435E+03  0.26398048839E+03  0.00000000000E+00 0.  1.
<scales pt_clust_3="66.42391" pt_clust_4="50.57334" pt_clust_5="14000.00000" pt_clust_6="104.77531"></scales>
<clustering>
<clus scale="   50.573">  1  4  2 -1</clus>
<clus scale="   66.424">  1  3  2 -1</clus>
<clus scale="  104.775">  2  6  1 -1</clus>
<clus scale="   50.573">  1  3  2 -1</clus>
</clustering>
</event>
<event>
 6    0  0.4582113E+002  0.1092192E+03  0.7546771E-02  0.1262023E+00
         21   -1    0    0  503  501  0.00000000000E+00  0.00000000000E+00  0.12600631025E+03  0.12600631025E+03  0.00000000000E+00 0. -1.
         21   -1    0    0  504  502 -0.00000000000E+00 -0.00000000000E+00 -0.21565845795E+03  0.21565845795E+03  0.00000000000E+00 0. -1.
         21    1    1    2  503  506 -0.78345226855E+01 -0.54873087048E+02  0.41629368200E+02  0.69321279018E+02  0.00000000000E+00 0. -1.
         21    1    1    2  504  505  0.77474341607E+02  0.71238796572E+02 -0.12319962972E+03  0.16203514590E+03  0.00000000000E+00 0. -1.
         21    1    1    2  505  501 -0.61082130870E+02  0.26112304154E+02 -0.12474825368E+01  0.66441217272E+02  0.00000000000E+00 0. -1.
         21    1    1    2  506  502 -0.85576880518E+01 -0.42478013679E+02 -0.68344036502E+01  0.43867126007E+02  0.00000000000E+00 0. -1.
<scales pt_clust_3="38.08036" pt_clust_4="100.36856" pt_clust_5="66.42951" pt_clust_6="38.08036"></scales>
<clustering>
<clus scale="   38.080">  3  6 -1 -1</clus>
<clus scale="   66.430">  1  5  2 -1</clus>
<clus scale="  100.369">  2  4  1 -1</clus>
<clus scale="   66.430">  1  3  2 -1</clus>
</clustering>
</event>
<event>
 6    0  0.4582113E+002  0.8285083E+02  0.7546771E-02  0.1321150E+00
         21   -1    0    0  503  501  0.00000000000E+00  0.00000000000E+00  0.50790023320E+02  0.50790023320E+02  0.00000000000E+00 0.  1.
         21   -1    0    0  505  502 -0.00000000000E+00 -0.00000000000E+00 -0.66194277038E+03  0.66194277038E+03  0.00000000000E+00 0. -1.
         21    1    1    2  503  502  0.72740366548E+01 -0.72183925977E+02 -0.36315730555E+02  0.81131147314E+02  0.00000000000E+00 0.  1.
         21    1    1    2  504  501  0.37173276284E+02  0.13027975042E+03 -0.24368252481E+03  0.27881147526E+03  0.00000000000E+00 0. -1.
         21    1    1    2  505  506  0.96597117423E+01 -0.28522159579E+02 -0.24499688544E+03  0.24684063177E+03  0.00000000000E+00 0. -1.
         21    1    1    2  506  504 -0.54107024681E+02 -0.29573664864E+02 -0.86157606248E+02  0.10594953935E+03  0.00000000000E+00 0. -1.
<scales pt_clust_3="82.85083" pt_clust_4="14000.00000" pt_clust_5="30.11351" pt_clust_6="63.23503"></scales>
<clustering>
<clus scale="   30.114">  2  5  1 -1</clus>
<clus scale="   63.235">  2  6  1 -1</clus>
<clus scale="   82.851">  1  3  2 -1</clus>
<clus scale="   82.851">  1  3  2 -1</clus>
</clustering>
</event>
<event>
 6    0  0.4582113E+002  0.1857563E+03  0.7546771E-02  0.1162345E+00
         21   -1    0    0  506  501  0.00000000000E+00  0.00000000000E+00  0.28292239605E+03  0.28292239605E+03  0.00000000000E+00 0.  1.
         21   -1    0    0  505  502 -0.00000000000E+00 -0.00000000000E+00 -0.70950686209E+03  0.70950686209E+03  0.00000000000E+00 0. -1.
         21    1    1    2  503  504  0.19023067118E+02  0.66510260894E+02  0.70033713475E+02  0.98438879056E+02  0.00000000000E+00 0.  1.
         21    1    1    2  504  502  0.13683547539E+03  0.95321536548E+02 -0.23990655662E+02  0.16848054551E+03  0.00000000000E+00 0.  1.
         21    1    1    2  505  501 -0.97848641850E+02 -0.16597347390E+03 -0.57574233107E+03  0.60712501392E+03  0.00000000000E+00 0. -1.
         21    1    1    2  506  503 -0.58009900658E+02  0.41416764549E+01  0.10311480721E+03  0.11838481965E+03  0.00000000000E+00 0.  1.
<scales pt_clust_3="69.17259" pt_clust_4="14000.00000" pt_clust_5="185.75634" pt_clust_6="58.15756"></scales>
<clustering>
<clus scale="   58.158">  1  6  2 -1</clus>
<clus scale="   69.173">  1  3  2 -1</clus>
<clus scale="  185.756">  2  5  1 -1</clus>
<clus scale="   58.158">  1  3  2 -1</clus>
</clustering>
</event>
<event>
 6    0  0.4582113E+002  0.1185029E+03  0.7546771E-02  0.1245587E+00
         21   -1    0    0  506  501  0.00000000000E+00  0.00000000000E+00  0.43965284028E+03  0.43965284028E+03  0.00000000000E+00 0.  1.
         21   -1    0    0  505  502 -0.00000000000E+00 -0.00000000000E+00 -0.13470624009E+03  0.13470624009E+03  0.00000000000E+00 0.  1.
         21    1    1    2  503  502 -0.11733512531E+03  0.15748280802E+02 -0.70270045330E+02  0.13767141770E+03  0.00000000000E+00 0.  1.
         21    1    1    2  504  503 -0.13917614150E+02 -0.33750130564E+02  0.56043169432E+02  0.66885036717E+02  0.00000000000E+00 0.  1.
         21    1    1    2  505  501  0.12446344624E+03  0.53727661402E+02  0.17641983419E+03  0.22248992999E+03  0.00000000000E+00 0.  1.
         21    1    1    2  506  504  0.67892932212E+01 -0.35725811641E+02  0.14275364189E+03  0.14731269597E+03  0.00000000000E+00 0.  1.
<scales pt_clust_3="14000.00000" pt_clust_4="43.05803" pt_clust_5="118.50292" pt_clust_6="36.36520"></scales>
<clustering>
<clus scale="   36.365">  1  6  2 -1</clus>
<clus scale="   43.058">  1  4  2 -1</clus>
<clus scale="  118.503">  1  5  2 -1</clus>
<clus scale="   36.365">  1  3  2 -1</clus>
</clustering>
</event>
<event>
 6    0  0.4582113E+002  0.1554541E+03  0.7546771E-02  0.1193927E+00
         21   -1    0    0  504  501  0.00000000000E+00  0.00000000000E+00  0.13514098832E+04  0.13514098832E+04  0.00000000000E+00 0. -1.
         21   -1    0    0  503  502 -0.00000000000E+00 -0.00000000000E+00 -0.16117469013E+03  0.16117469013E+03  0.00000000000E+00 0. -1.
         21    1    1    2  503  505 -0.43318177707E+02 -0.15612200141E+03 -0.47341634109E+02  0.16879506558E+03  0.00000000000E+00 0. -1.
         21    1    1    2  504  506  0.46705592617E+02  0.22885242886E+02  0.99867094865E+03  0.10000244049E+04  0.00000000000E+00 0. -1.
         21    1    1    2  505  501  0.46171982605E+02 -0.18768314656E+02  0.15579520629E+03  0.16357337166E+03  0.00000000000E+00 0. -1.
         21    1    1    2  506  502 -0.49559397515E+02  0.15200507318E+03  0.83110672259E+02  0.18019173121E+03  0.00000000000E+00 0. -1.
<scales pt_clust_3="155.45414" pt_clust_4="85.72255" pt_clust_5="49.84076" pt_clust_6="14000.00000"></scales>
<clustering>
<clus scale="   49.841">  1  5  2 -1</clus>
<clus scale="   85.723">  1  4  2 -1</clus>
<clus scale="  155.454">  2  3  1 -1</clus>
<clus scale="   49.841">  1  3  2 -1</clus>
</clustering>
</event>
<event>
 6    0  0.4582113E+002  0.1654543E+03  0.7546771E-02  0.1182673E+00
         21   -1    0    0  503  501  0.00000000000E+00  0.00000000000E+00  0.13462756214E+04  0.13462756214E+04  0.00000000000E+00 0. -1.
         21   -1    0    0  504  502 -0.00000000000E+00 -0.00000000000E+00 -0.12702249128E+03  0.12702249128E+03  0.00000000000E+00 0. -1.
         21    1    1    2  503  502 -0.29068155455E+02 -0.11461232519E+03  0.46781363114E+03  0.48252516642E+03  0.00000000000E+00 0. -1.
         21    1    1    2  504  506 -0.78879515875E+02  0.26559202937E+02 -0.57838682697E+02  0.10135424264E+03  0.00000000000E+00 0. -1.
         21    1    1    2  505  501  0.22481295785E+03  0.84834222796E+02  0.64063406985E+03  0.68421467598E+03  0.00000000000E+00 0. -1.
         21    1    1    2  506  505 -0.11686528652E+03  0.32188994528E+01  0.16864411181E+03  0.20520402763E+03  0.00000000000E+00 0. -1.
<scales pt_clust_3="117.96011" pt_clust_4="83.23082" pt_clust_5="14000.00000" pt_clust_6="165.45432"></scales>
<clustering>
<clus scale="   83.231">  2  4  1 -1</clus>
<clus scale="  117.960">  1  3  2 -1</clus>
<clus scale="  165.454">  2  6  1 -1</clus>
<clus scale="  117.960">  1  3  2 -1</clus>
</clustering>
</event>
<event>
 6    0  0.4582113E+002  0.1114067E+03  0.7546771E-02  0.1257987E+00
         21   -1    0    0  503  501  0.00000000000E+00  0.00000000000E+00  0.30874611048E+02  0.30874611048E+02  0.00000000000E+00 0. -1.
         21   -1    0    0  506  502 -0.00000000000E+00 -0.00000000000E+00 -0.60533244722E+03  0.60533244722E+03  0.00000000000E+00 0. -1.
         21    1    1    2  503  505 -0.49441695716E+02 -0.25693790390E+01 -0.75681363030E+02  0.90436451135E+02  0.00000000000E+00 0. -1.
         21    1    1    2  504  502 -0.26256670208E+02  0.17191566507E+02 -0.19159449563E+03  0.19414791641E+03  0.00000000000E+00 0. -1.
         21    1    1    2  505  504 -0.38820740405E+02  0.28696743840E+02 -0.97909071151E+02  0.10916381821E+03  0.00000000000E+00 0. -1.
         21    1    1    2  506  501  0.11451910633E+03 -0.43318931308E+02 -0.20927290636E+03  0.24245887251E+03  0.00000000000E+00 0. -1.
<scales pt_clust_3="34.68174" pt_clust_4="31.38412" pt_clust_5="34.68174" pt_clust_6="105.72471"></scales>
<clustering>
<clus scale="   31.384">  2  4  1 -1</clus>
<clus scale="   34.682">  3  5 -1 -1</clus>
<clus scale="  105.725">  2  6  1 -1</clus>
<clus scale="  111.407">  1  3  2 -1</clus>
</clustering>
</event>
<event>
 6    0  0.4582113E+002  0.6026404E+02  0.7546771E-02  0.1396727E+00
         21   -1    0    0  506  501  0.00000000000E+00  0.00000000000E+00  0.73746767693E+03  0.73746767693E+03  0.00000000000E+00 0.  1.
         21   -1    0    0  504  502 -0.00000000000E+00 -0.00000000000E+00 -0.10996079816E+04  0.10996079816E+04  0.00000000000E+00 0.  1.
         21    1    1    2  503  501  0.23371327066E+01  0.49139190451E+02  0.13278816851E+03  0.14160797973E+03  0.00000000000E+00 0.  1.
         21    1    1    2  504  503  0.10168361637E+03 -0.51954178952E+02  0.68988465851E+02  0.13340990581E+03  0.00000000000E+00 0.  1.
         21    1    1    2  505  502 -0.54183748603E+02  0.25338256311E+02 -0.10606438602E+04  0.10623291882E+04  0.00000000000E+00 0.  1.
         21    1    1    2  506  505 -0.49837000475E+02 -0.22523267810E+02  0.49672692120E+03  0.49972858479E+03  0.00000000000E+00 0.  1.
<scales pt_clust_3="49.19474" pt_clust_4="60.26404" pt_clust_5="14000.00000" pt_clust_6="51.26071"></scales>
<clustering>
<clus scale="   49.195">  1  3  2 -1</clus>
<clus scale="   51.261">  1  6  2 -1</clus>
<clus scale="   60.264">  1  4  2 -1</clus>
<clus scale="   49.195">  1  3  2 -1</clus>
</clustering>
</event>
<event>
 6    0  0.4582113E+002  0.1310793E+03  0.7546771E-02  0.1225863E+00
         21   -1    0    0  503  501  0.00000000000E+00  0.00000000000E+00  0.89276242639E+02  0.89276242639E+02  0.00000000000E+00 0. -1.
         21   -1    0    0  504  502 -0.00000000000E+00 -0.00000000000E+00 -0.16422860996E+04  0.16422860996E+04  0.00000000000E+00 0. -1.
         21    1    1    2  503  505 -0.43075091560E+02  0.65336286986E+02  0.18935950167E+02  0.80516235125E+02  0.00000000000E+00 0. -1.
         21    1    1    2  504  506  0.11119072544E+03 -0.11459119330E+03 -0.12255562494E+04  0.12359136861E+04  0.00000000000E+00 0. -1.
         21    1    1    2  505  502 -0.97824871179E+02  0.27864984174E+02 -0.36149309418E+03  0.37553085080E+03  0.00000000000E+00 0. -1.
         21    1    1    2  506  501  0.29709237299E+02  0.21389922146E+02  0.15103536460E+02  0.39601570220E+02  0.00000000000E+00 0. -1.
<scales pt_clust_3="84.72132" pt_clust_4="14000.00000" pt_clust_5="131.07934" pt_clust_6="36.60830"></scales>
<clustering>
<clus scale="   36.608">  1  6  2 -1</clus>
<clus scale="   84.721">  1  3  2 -1</clus>
<clus scale="  131.079">  1  5  2 -1</clus>
<clus scale="   36.608">  1  3  2 -1</clus>
</clustering>
</event>
<event>
 6    0  0.4582113E+002  0.7104710E+02  0.7546771E-02  0.1356568E+00
         21   -1    0    0  504  501  0.00000000000E+00  0.00000000000E+00  0.91744501548E+02  0.91744501548E+02  0.00000000000E+00 0. -1.
         21   -1    0    0  503  502 -0.00000000000E+00 -0.00000000000E+00 -0.54132993896E+03  0.54132993896E+03  0.00000000000E+00 0. -1.
         21    1    1    2  503  506  0.73231345841E+02  0.14090359552E+02 -0.13823108634E+03  0.15706432273E+03  0.00000000000E+00 0.  1.
         21    1    1    2  504  505 -0.25350186383E+02 -0.55599403793E+02 -0.25301800990E+02  0.66137030362E+02  0.00000000000E+00 0. -1.
         21    1    1    2  505  502 -0.18934715949E+02 -0.39197797812E+02 -0.31605179303E+03  0.31903561980E+03  0.00000000000E+00 0. -1.
         21    1    1    2  506  501 -0.28946443509E+02  0.80706842054E+02  0.29999242942E+02  0.90837467618E+02  0.00000000000E+00 0. -1.
<scales pt_clust_3="61.86889" pt_clust_4="71.04710" pt_clust_5="43.53149" pt_clust_6="14000.00000"></scales>
<clustering>
<clus scale="   43.531">  2  5  1 -1</clus>
<clus scale="   61.869">  2  3  1 -1</clus>
<clus scale="   71.047">  2  4  1 -1</clus>
<clus scale="   71.047">  1  3  2 -1</clus>
</clustering>
</event>
<event>
 6    0  0.4582113E+002  0.1207941E+03  0.7546771E-02  0.1241793E+00
         21   -1    0    0  503  501  0.00000000000E+00  0.00000000000E+00  0.69605147844E+02  0.69605147844E+02  0.00000000000E+00 0.  1.
         21   -1    0    0  501  502 -0.00000000000E+00 -0.00000000000E+00 -0.19658813451E+04  0.19658813451E+04  0.00000000000E+00 0.  1.
         21    1    1    2  503  505 -0.56186833087E+02 -0.39225086204E+02 -0.16712382729E+01  0.68544588680E+02  0.00000000000E+00 0.  1.
         21    1    1    2  504  502 -0.78543448693E+02  0.53778670443E+02 -0.17594544118E+04  0.17620275384E+04  0.00000000000E+00 0.  1.
         21    1    1    2  505  506  0.39550914792E+02 -0.38444687561E+02 -0.39192072107E+02  0.67663042931E+02  0.00000000000E+00 0.  1.
         21    1    1    2  506  504  0.95179366987E+02  0.23891103322E+02 -0.95958475055E+02  0.13725132296E+03  0.00000000000E+00 0.  1.
<scales pt_clust_3="68.52421" pt_clust_4="96.07834" pt_clust_5="54.88875" pt_clust_6="54.88875"></scales>
<clustering>
<clus scale="   54.889">  5  6 -1 -1</clus>
<clus scale="   68.524">  1  3  2 -1</clus>
<clus scale="   96.078">  2  4  1 -1</clus>
<clus scale="   68.524">  1  3  2 -1</clus>
</clustering>
</event>
<event>
 6    0  0.4582113E+002  0.1276841E+03  0.7546771E-02  0.1230933E+00
         21   -1    0    0  504  501  0.00000000000E+00  0.00000000000E+00  0.85745324354E+02  0.85745324354E+02  0.00000000000E+00 0.  1.
         21   -1    0    0  503  502 -0.00000000000E+00 -0.00000000000E+00 -0.10896914235E+04  0.10896914235E+04  0.00000000000E+00 0.  1.
         21    1    1    2  503  505  0.28988315165E+02  0.32731273083E+02 -0.11661648959E+02  0.45250996786E+02  0.00000000000E+00 0.  1.
         21    1    1    2  504  506 -0.10880177327E+03 -0.12506461416E+03 -0.88661900086E+03  0.90198239244E+03  0.00000000000E+00 0.  1.
         21    1    1    2  505  501  0.47549467729E+02  0.57734150658E+02  0.32954970694E+02  0.81732576901E+02  0.00000000000E+00 0.  1.
         21    1    1    2  506  502  0.32263990376E+02  0.34599190419E+02 -0.13862041998E+03  0.14647078169E+03  0.00000000000E+00 0.  1.
<scales pt_clust_3="30.86256" pt_clust_4="121.13556" pt_clust_5="30.86256" pt_clust_6="47.30823"></scales>
<clustering>
<clus scale="   30.863">  3  5 -1 -1</clus>
<clus scale="   47.308">  2  6  1 -1</clus>
<clus scale="  121.136">  2  4  1 -1</clus>
<clus scale="  127.684">  1  3  2 -1</clus>
</clustering>
</event>
<event>
 6    0  0.4582113E+002  0.1735131E+03  0.7546771E-02  0.1174233E+00
         21   -1    0    0  506  501  0.00000000000E+00  0.00000000000E+00  0.11993786111E+04  0.11993786111E+04  0.00000000000E+00 0.  1.
         21   -1    0    0  505  502 -0.00000000000E+00 -0.00000000000E+00 -0.64670420967E+02  0.64670420967E+02  0.00000000000E+00 0. -1.
         21    1    1    2  503  504  0.52088793220E+02 -0.13964389906E+03  0.22746142318E+03  0.27194183194E+03  0.00000000000E+00 0. -1.
         21    1    1    2  504  502 -0.14463612410E+02 -0.42693602915E+02 -0.19048337289E+01  0.45117271697E+02  0.00000000000E+00 0. -1.
         21    1    1    2  505  501 -0.54325447596E+02 -0.21084366048E+02  0.15129744214E+03  0.16213180054E+03  0.00000000000E+00 0. -1.
         21    1    1    2  506  503  0.16700266786E+02  0.20342186802E+03  0.75785415849E+03  0.78485812785E+03  0.00000000000E+00 0.  1.
<scales pt_clust_3="14000.00000" pt_clust_4="45.07704" pt_clust_5="62.24776" pt_clust_6="173.51308"></scales>
<clustering>
<clus scale="   45.077">  2  4  1 -1</clus>
<clus scale="   62.248">  1  5  2 -1</clus>
<clus scale="  173.513">  1  6  2 -1</clus>
<clus scale="   62.248">  1  3  2 -1</clus>
</clustering>
</event>
<event>
 6    0  0.4582113E+002  0.1571289E+03  0.7546771E-02  0.1191977E+00
         21   -1    0    0  503  501  0.00000000000E+00  0.00000000000E+00  0.68906804691E+03  0.68906804691E+03  0.00000000000E+00 0.  1.
         21   -1    0    0  504  502 -0.00000000000E+00 -0.00000000000E+00 -0.18481544205E+03  0.18481544205E+03  0.00000000000E+00 0.  1.
         21    1    1    2  503  506 -0.71973476157E+01  0.74005757957E+02  0.10388178401E+03  0.12775006486E+03  0.00000000000E+00 0. -1.
         21    1    1    2  504  501  0.42734840808E+02 -0.14203460838E+03 -0.11828001169E+03  0.18971098482E+03  0.00000000000E+00 0.  1.
         21    1    1    2  505  502  0.31375507615E+02 -0.68407151247E+01  0.43441242296E+01  0.32405081034E+02  0.00000000000E+00 0.  1.
         21    1    1    2  506  505 -0.66913000807E+02  0.74869565552E+02  0.51430670831E+03  0.52401735824E+03  0.00000000000E+00 0.  1.
<scales pt_clust_3="73.69788" pt_clust_4="157.12894" pt_clust_5="32.11258" pt_clust_6="14000.00000"></scales>
<clustering>
<clus scale="   32.113">  2  5  1 -1</clus>
<clus scale="   73.698">  1  3  2 -1</clus>
<clus scale="  157.129">  2  4  1 -1</clus>
<clus scale="   73.698">  1  3  2 -1</clus>
</clustering>
</event>
<event>
 6    0  0.4582113E+002  0.1136699E+03  0.7546771E-02  0.1253921E+00
         21   -1    0    0  505  501  0.00000000000E+00  0.00000000000E+00  0.30438638811E+02  0.30438638811E+02  0.00000000000E+00 0. -1.
         21   -1    0    0  506  502 -0.00000000000E+00 -0.00000000000E+00 -0.26844102991E+04  0.26844102991E+04  0.00000000000E+00 0.  1.
         21    1    1    2  503  504  0.78983914910E+02 -0.11769303656E+02 -0.16657669496E+03  0.18472891118E+03  0.00000000000E+00 0. -1.
         21    1    1    2  504  501  0.43572644574E+02  0.38160857489E+01 -0.75467392733E+01  0.44385708728E+02  0.00000000000E+00 0. -1.
         21    1    1    2  505  502  0.94186289893E+00 -0.38700533113E+02 -0.50980392098E+03  0.51127160709E+03  0.00000000000E+00 0.  1.
         21    1    1    2  506  503 -0.12349842238E+03  0.46653751021E+02 -0.19700443051E+04  0.19744627109E+04  0.00000000000E+00 0.  1.
<scales pt_clust_3="113.66987" pt_clust_4="43.71274" pt_clust_5="38.71199" pt_clust_6="14000.00000"></scales>
<clustering>
<clus scale="   38.712">  2  5  1 -1</clus>
<clus scale="   43.713">  1  4  2 -1</clus>
<clus scale="  113.670">  1  3  2 -1</clus>
<clus scale="   43.713">  1  3  2 -1</clus>
</clustering>
</event>
<event>
 6    0  0.4582113E+002  0.1145291E+03  0.7546771E-02  0.1252405E+00
         21   -1    0    0  503  501  0.00000000000E+00  0.00000000000E+00  0.13851155397E+04  0.13851155397E+04  0.00000000000E+00 0.  1.
         21   -1    0    0  504  502 -0.00000000000E+00 -0.00000000000E+00 -0.13560243664E+03  0.13560243664E+03  0.00000000000E+00 0. -1.
         21    1    1    2  503  505  0.38342948578E+02  0.91937368629E+01  0.38149824409E+03  0.38353046391E+03  0.00000000000E+00 0.  1.
         21    1    1    2  504  501 -0.87573785372E+02 -0.14742267148E+03  0.85343212741E+03  0.87048779890E+03  0.00000000000E+00 0.  1.
         21    1    1    2  505  506  0.65077657100E+02  0.25488645629E+02  0.10166046831E+03  0.12336783749E+03  0.00000000000E+00 0. -1.
         21    1    1    2  506  502 -0.15846820305E+02  0.11274028899E+03 -0.87077736695E+02  0.14333187609E+03  0.00000000000E+00 0. -1.
<scales pt_clust_3="39.42977" pt_clust_4="114.52912" pt_clust_5="74.27649" pt_clust_6="14000.00000"></scales>
<clustering>
<clus scale="   39.430">  1  3  2 -1</clus>
<clus scale="   74.276">  1  5  2 -1</clus>
<clus scale="  114.529">  1  4  2 -1</clus>
<clus scale="   39.430">  1  3  2 -1</clus>
</clustering>
</event>
<event>
 6    0  0.4582113E+002  0.7471731E+02  0.7546771E-02  0.1344749E+00
         21   -1    0    0  505  501  0.00000000000E+00  0.00000000000E+00  0.25575584864E+02  0.25575584864E+02  0.00000000000E+00 0.  1.
         21   -1    0    0  506  502 -0.00000000000E+00 -0.00000000000E+00 -0.76975433689E+03  0.76975433689E+03  0.00000000000E+00 0.  1.
         21    1    1    2  503  501 -0.74307838519E+02  0.47890911378E+00 -0.14382403289E+03  0.16188649312E+03  0.00000000000E+00 0.  1.
         21    1    1    2  504  502  0.75721477765E+02 -0.15983739231E+02 -0.16294195064E+03  0.18038653329E+03  0.00000000000E+00 0.  1.
         21    1    1    2  505  504  0.78754786089E+01 -0.47296487565E+02 -0.11750886990E+03  0.12691459886E+03  0.00000000000E+00 0.  1.
         21    1    1    2  506  503 -0.92891178547E+01  0.62801317682E+02 -0.31990389860E+03  0.32614229648E+03  0.00000000000E+00 0.  1.
<scales pt_clust_3="74.71731" pt_clust_4="14000.00000" pt_clust_5="47.94769" pt_clust_6="56.32066"></scales>
<clustering>
<clus scale="   47.948">  1  5  2 -1</clus>
<clus scale="   56.321">  2  6  1 -1</clus>
<clus scale="   74.717">  1  3  2 -1</clus>
<clus scale="   47.948">  1  3  2 -1</clus>
</clustering>
</event>
<event>
 6    0  0.4582113E+002  0.9959077E+02  0.7546771E-02  0.1281159E+00
         21   -1    0    0  505  501  0.00000000000E+00  0.00000000000E+00  0.32718315405E+03  0.32718315405E+03  0.00000000000E+00 0. -1.
         21   -1    0    0  506  502 -0.00000000000E+00 -0.00000000000E+00 -0.70336551478E+03  0.70336551478E+03  0.00000000000E+00 0. -1.
         21    1    1    2  503  501 -0.38439401224E+02 -0.30230197778E+01 -0.14539815437E+02  0.41208402638E+02  0.00000000000E+00 0. -1.
         21    1    1    2  504  502  0.32229396685E+02  0.93850049603E+02 -0.64573402267E+03  0.65331385555E+03  0.00000000000E+00 0. -1.
         21    1    1    2  505  504 -0.26036921314E+02 -0.12283038565E+03  0.24811057356E+03  0.27807207991E+03  0.00000000000E+00 0. -1.
         21    1    1    2  506  503  0.32246925853E+02  0.32003355828E+02  0.35980903815E+02  0.57954330732E+02  0.00000000000E+00 0. -1.
<scales pt_clust_3="38.55809" pt_clust_4="99.59077" pt_clust_5="14000.00000" pt_clust_6="41.19975"></scales>
<clustering>
<clus scale="   38.558">  1  3  2 -1</clus>
<clus scale="   41.200">  1  6  2 -1</clus>
<clus scale="   99.591">  2  4  1 -1</clus>
<clus scale="   38.558">  1  3  2 -1</clus>
</clustering>
</event>
<event>
 6    0  0.4582113E+002  0.1997960E+03  0.7546771E-02  0.1149911E+00
         21   -1    0    0  505  501  0.00000000000E+00  0.00000000000E+00  0.40693468453E+03  0.40693468453E+03  0.00000000000E+00 0. -1.
         21   -1    0    0  506  502 -0.00000000000E+00 -0.00000000000E+00 -0.21351138515E+04  0.21351138515E+04  0.00000000000E+00 0. -1.
         21    1    1    2  503  501 -0.14333550081E+02  0.60979860083E+02  0.78639134258E+02  0.10053908409E+03  0.00000000000E+00 0.  1.
         21    1    1    2  504  503 -0.71490045880E+02  0.11798442163E+03  0.28336550376E+03  0.31516211563E+03  0.00000000000E+00 0. -1.
         21    1    1    2  505  502  0.74259486257E+02 -0.31777560426E+02 -0.17899935215E+04  0.17918150271E+04  0.00000000000E+00 0. -1.
         21    1    1    2  506  504  0.11564109704E+02 -0.14718672129E+03 -0.30019028350E+03  0.33453230915E+03  0.00000000000E+00 0. -1.
<scales pt_clust_3="32.77886" pt_clust_4="32.77886" pt_clust_5="80.77304" pt_clust_6="193.78390"></scales>
<clustering>
<clus scale="   32.779">  3  4 -1 -1</clus>
<clus scale="   80.773">  2  5  1 -1</clus>
<clus scale="  193.784">  2  6  1 -1</clus>
<clus scale="  199.796">  1  3  2 -1</clus>
</clustering>
</event>
<event>
 6    0  0.4582113E+002  0.1319151E+03  0.7546771E-02  0.1224641E+00
         21   -1    0    0  505  501  0.00000000000E+00  0.00000000000E+00  0.18725489410E+03  0.18725489410E+03  0.00000000000E+00 0. -1.
         21   -1    0    0  504  502 -0.00000000000E+00 -0.00000000000E+00 -0.23290489833E+04  0.23290489833E+04  0.00000000000E+00 0. -1.
         21    1    1    2  503  506  0.43981008081E+01  0.57049134828E+02  0.53694308415E+02  0.78466717986E+02  0.00000000000E+00 0. -1.
         21    1    1    2  504  503 -0.30921091918E+02  0.63710689303E+01 -0.21734718172E+04  0.21737010937E+04  0.00000000000E+00 0. -1.
         21    1    1    2  505  502 -0.16969350169E+02 -0.12520214115E+03 -0.95777416222E+02  0.15854604521E+03  0.00000000000E+00 0. -1.
         21    1    1    2  506  501  0.43492341279E+02  0.61781937389E+02  0.73760835807E+02  0.10559002053E+03  0.00000000000E+00 0. -1.
<scales pt_clust_3="30.36791" pt_clust_4="31.57063" pt_clust_5="127.21574" pt_clust_6="30.36791"></scales>
<clustering>
<clus scale="   30.368">  3  6 -1 -1</clus>
<clus scale="   31.571">  2  4  1 -1</clus>
<clus scale="  127.216">  2  5  1 -1</clus>
<clus scale="  131.915">  1  3  2 -1</clus>
</clustering>
</event>
<event>
 6    0  0.4582113E+002  0.1045959E+03  0.7546771E-02  0.1270918E+00
         21   -1    0    0  502  501  0.00000000000E+00  0.00000000000E+00  0.36303187770E+03  0.36303187770E+03  0.00000000000E+00 0.  1.
         21   -1    0    0  505  502 -0.00000000000E+00 -0.00000000000E+00 -0.62395259021E+02  0.62395259021E+02  0.00000000000E+00 0.  1.
         21    1    1    2  503  501  0.43002769424E+02  0.39407269318E+02  0.90934313360E+02  0.10803342260E+03  0.00000000000E+00 0.  1.
         21    1    1    2  504  506  0.15470916433E+02 -0.68869837025E+02  0.22832261344E+02  0.74187032999E+02  0.00000000000E+00 0.  1.
         21    1    1    2  505  504 -0.62146924251E+02 -0.26361945252E+02  0.25077001021E+02  0.72014223120E+02  0.00000000000E+00 0.  1.
         21    1    1    2  506  503  0.36732383936E+01  0.55824512959E+02  0.16179304296E+03  0.17119245800E+03  0.00000000000E+00 0.  1.
<scales pt_clust_3="52.26733" pt_clust_4="89.95597" pt_clust_5="67.50698" pt_clust_6="52.26733"></scales>
<clustering>
<clus scale="   52.267">  3  6 -1 -1</clus>
<clus scale="   67.507">  2  5  1 -1</clus>
<clus scale="   89.956">  2  4  1 -1</clus>
<clus scale="  104.596">  1  3  2 -1</clus>
</clustering>
</event>
<event>
 6    0  0.4582113E+002  0.8293054E+02  0.7546771E-02  0.1320935E+00
         21   -1    0    0  506  501  0.00000000000E+00  0.00000000000E+00  0.30591373609E+03  0.30591373609E+03  0.00000000000E+00 0.  1.
         21   -1    0    0  503  502 -0.00000000000E+00 -0.00000000000E+00 -0.15689657907E+04  0.15689657907E+04  0.00000000000E+00 0. -1.
         21    1    1    2  503  505  0.11747313767E+03 -0.11266429461E+02 -0.34608103176E+03  0.36564867161E+03  0.00000000000E+00 0. -1.
         21    1    1    2  504  502 -0.58322344355E+02  0.56274527888E+02 -0.11953381892E+04  0.11980825118E+04  0.00000000000E+00 0. -1.
         21    1    1    2  505  501 -0.55011577670E+02 -0.74839965942E+02  0.25946811494E+03  0.27559208416E+03  0.00000000000E+00 0.  1.
         21    1    1    2  506  504 -0.41392156457E+01  0.29831867515E+02  0.18899051454E+02  0.35556259245E+02  0.00000000000E+00 0.  1.
<scales pt_clust_3="14000.00000" pt_clust_4="82.93054" pt_clust_5="74.92592" pt_clust_6="30.11766"></scales>
<clustering>
<clus scale="   30.118">  1  6  2 -1</clus>
<clus scale="   74.926">  1  5  2 -1</clus>
<clus scale="   82.931">  2  4  1 -1</clus>
<clus scale="   30.118">  1  3  2 -1</clus>
</clustering>
</event>
<event>
 6    0  0.4582113E+002  0.8760731E+02  0.7546771E-02  0.1308752E+00
         21   -1    0    0  505  501  0.00000000000E+00  0.00000000000E+00  0.12688566209E+03  0.12688566209E+03  0.00000000000E+00 0.  1.
         21   -1    0    0  501  502 -0.00000000000E+00 -0.00000000000E+00 -0.49481813471E+03  0.49481813471E+03  0.00000000000E+00 0.  1.
         21    1    1    2  503  504  0.37774660015E+02  0.47768573411E+02  0.42669228466E+02  0.74360100880E+02  0.00000000000E+00 0.  1.
         21    1    1    2  504  502 -0.87289642110E+02  0.34854188802E+02 -0.40005578529E+03  0.41094881365E+03  0.00000000000E+00 0.  1.
         21    1    1    2  505  506  0.50726842798E+02 -0.39748097592E+01  0.16064837301E+02  0.53358136121E+02  0.00000000000E+00 0. -1.
         21    1    1    2  506  503 -0.12118607033E+01 -0.78647952454E+02 -0.26610753105E+02  0.83036746157E+02  0.00000000000E+00 0.  1.
<scales pt_clust_3="87.60731" pt_clust_4="14000.00000" pt_clust_5="50.88233" pt_clust_6="81.13731"></scales>
<clustering>
<clus scale="   50.882">  1  5  2 -1</clus>
<clus scale="   81.137">  1  6  2 -1</clus>
<clus scale="   87.607">  1  3  2 -1</clus>
<clus scale="   50.882">  1  3  2 -1</clus>
</clustering>
</event>
<event>
 6    0  0.4582113E+002  0.9762900E+02  0.7546771E-02  0.1285362E+00
         21   -1    0    0  505  501  0.00000000000E+00  0.00000000000E+00  0.64272435864E+03  0.64272435864E+03  0.00000000000E+00 0. -1.
         21   -1    0    0  503  502 -0.00000000000E+00 -0.00000000000E+00 -0.41127349506E+03  0.41127349506E+03  0.00000000000E+00 0.  1.
         21    1    1    2  503  504  0.38084946639E+02 -0.33568646722E+02 -0.87750799497E+02  0.10137810422E+03  0.00000000000E+00 0.  1.
         21    1    1    2  504  501  0.12260239642E+03  0.15959777606E+02  0.48763570962E+03  0.50306525164E+03  0.00000000000E+00 0. -1.
         21    1    1    2  505  506 -0.67907713181E+02  0.16894804821E+02  0.12420369248E+03  0.14256033518E+03  0.00000000000E+00 0. -1.
         21    1    1    2  506  502 -0.92779629878E+02  0.71406429485E+00 -0.29263773903E+03  0.30699416267E+03  0.00000000000E+00 0.  1.
<scales pt_clust_3="50.76728" pt_clust_4="97.62900" pt_clust_5="14000.00000" pt_clust_6="64.67478"></scales>
<clustering>
<clus scale="   50.767">  2  3  1 -1</clus>
<clus scale="   64.675">  2  6  1 -1</clus>
<clus scale="   97.629">  1  4  2 -1</clus>
<clus scale="   97.629">  1  3  2 -1</clus>
</clustering>
</event>
<event>
 6    0  0.4582113E+002  0.1284044E+03  0.7546771E-02  0.1229843E+00
         21   -1    0    0  505  501  0.00000000000E+00  0.00000000000E+00  0.42359560210E+02  0.42359560210E+02  0.00000000000E+00 0.  1.
         21   -1    0    0  503  502 -0.00000000000E+00 -0.00000000000E+00 -0.89303253762E+03  0.89303253762E+03  0.00000000000E+00 0.  1.
         21    1    1    2  503  504  0.13125057683E+02 -0.28145285827E+02 -0.11358408636E+03  0.11775299965E+03  0.00000000000E+00 0.  1.
         21    1    1    2  504  501  0.37960550841E+02  0.18719591583E+01 -0.61934904690E+02  0.72666636569E+02  0.00000000000E+00 0.  1.
         21    1    1    2  505  506  0.41389416277E+02  0.11086947989E+03 -0.95920697098E+02  0.15233484658E+03  0.00000000000E+00 0.  1.
         21    1    1    2  506  502 -0.92475024801E+02 -0.84596153225E+02 -0.57923328926E+03  0.59263761502E+03  0.00000000000E+00 0.  1.
<scales pt_clust_3="31.05518" pt_clust_4="39.10094" pt_clust_5="14000.00000" pt_clust_6="128.40444"></scales>
<clustering>
<clus scale="   31.055">  2  3  1 -1</clus>
<clus scale="   39.101">  1  4  2 -1</clus>
<clus scale="  128.404">  2  6  1 -1</clus>
<clus scale="   39.101">  1  3  2 -1</clus>
</clustering>
</event>
<event>
 6    0  0.4582113E+002  0.4733192E+03  0.7546771E-02  0.1020988E+00
         21   -1    0    0  503  501  0.00000000000E+00  0.00000000000E+00  0.81640929094E+03  0.81640929094E+03  0.00000000000E+00 0.  1.
         21   -1    0    0  504  502 -0.00000000000E+00 -0.00000000000E+00 -0.28472347638E+04  0.28472347638E+04  0.00000000000E+00 0.  1.
         21    1    1    2  503  505 -0.86627248665E+02 -0.10451599615E+03  0.25367150589E+03  0.28771010855E+03  0.00000000000E+00 0. -1.
         21    1    1    2  504  501 -0.29348187521E+02 -0.11575752251E+03 -0.17163553520E+04  0.17205048138E+04  0.00000000000E+00 0.  1.
         21    1    1    2  505  506 -0.11849242738E+03 -0.30251813447E+03  0.40921448008E+03  0.52250757673E+03  0.00000000000E+00 0.  1.
         21    1    1    2  506  502  0.23446786357E+03  0.52279165313E+03 -0.97735610691E+03  0.11329215557E+04  0.00000000000E+00 0.  1.
<scales pt_clust_3="62.28220" pt_clust_4="119.41993" pt_clust_5="62.28220" pt_clust_6="463.40810"></scales>
<clustering>
<clus scale="   62.282">  3  5 -1 -1</clus>
<clus scale="  119.420">  2  4  1 -1</clus>
<clus scale="  463.408">  2  6  1 -1</clus>
<clus scale="  473.319">  1  3  2 -1</clus>
</clustering>
</event>
<event>
 6    0  0.4582113E+002  0.7001390E+02  0.7546771E-02  0.1360046E+00
         21   -1    0    0  503  501  0.00000000000E+00  0.00000000000E+00  0.56782283432E+03  0.56782283432E+03  0.00000000000E+00 0. -1.
         21   -1    0    0  504  502 -0.00000000000E+00 -0.00000000000E+00 -0.41413879492E+03  0.41413879492E+03  0.00000000000E+00 0.  1.
         21    1    1    2  503  505  0.33447163728E+02  0.37994525765E+02  0.15186961867E+03  0.16008334649E+03  0.00000000000E+00 0. -1.
         21    1    1    2  504  501 -0.76999439256E+01 -0.76334277469E+02  0.20902399954E+03  0.22265947866E+03  0.00000000000E+00 0.  1.
         21    1    1    2  505  506 -0.67648428870E+02  0.64007159935E+02  0.18331487414E+03  0.20561510045E+03  0.00000000000E+00 0. -1.
         21    1    1    2  506  502  0.41901209067E+02 -0.25667408231E+02 -0.39052445295E+03  0.39360370364E+03  0.00000000000E+00 0.  1.
<scales pt_clust_3="52.95728" pt_clust_4="70.01390" pt_clust_5="14000.00000" pt_clust_6="49.13784"></scales>
<clustering>
<clus scale="   49.138">  2  6  1 -1</clus>
<clus scale="   52.957">  1  3  2 -1</clus>
<clus scale="   70.014">  1  4  2 -1</clus>
<clus scale="   52.957">  1  3  2 -1</clus>
</clustering>
</event>
<event>
 6    0  0.4582113E+002  0.1344574E+03  0.7546771E-02  0.1220988E+00
         21   -1    0    0  505  501  0.00000000000E+00  0.00000000000E+00  0.63120695700E+02  0.63120695700E+02  0.00000000000E+00 0. -1.
         21   -1    0    0  503  502 -0.00000000000E+00 -0.00000000000E+00 -0.91553516725E+03  0.91553516725E+03  0.00000000000E+00 0.  1.
         21    1    1    2  503  506 -0.63447689840E+02  0.46494627588E+00 -0.42194749957E+03  0.42669136143E+03  0.00000000000E+00 0.  1.
         21    1    1    2  504  501  0.72386398840E+01  0.47914857952E+02 -0.69290210166E+02  0.84553916200E+02  0.00000000000E+00 0.  1.
         21    1    1    2  505  502  0.15028472550E+03 -0.48587485169E+01 -0.85684633331E+02  0.17306346393E+03  0.00000000000E+00 0. -1.
         21    1    1    2  506  504 -0.94075675548E+02 -0.43521055711E+02 -0.27549212848E+03  0.29434712139E+03  0.00000000000E+00 0.  1.
<scales pt_clust_3="63.18826" pt_clust_4="48.45855" pt_clust_5="14000.00000" pt_clust_6="134.45740"></scales>
<clustering>
<clus scale="   48.459">  1  4  2 -1</clus>
<clus scale="   63.188">  2  3  1 -1</clus>
<clus scale="  134.457">  2  6  1 -1</clus>
<clus scale="   48.459">  1  3  2 -1</clus>
</clustering>
</event>
<event>
 6    0  0.4582113E+002  0.6277602E+02  0.7546771E-02  0.1386538E+00
         21   -1    0    0  506  501  0.00000000000E+00  0.00000000000E+00  0.36772014740E+03  0.36772014740E+03  0.00000000000E+00 0. -1.
         21   -1    0    0  505  502 -0.00000000000E+00 -0.00000000000E+00 -0.26984140374E+03  0.26984140374E+03  0.00000000000E+00 0.  1.
         21    1    1    2  503  504 -0.52930243244E+02  0.75550226975E+02 -0.20505813988E+03  0.22485170263E+03  0.00000000000E+00 0.  1.
         21    1    1    2  504  502  0.18817777025E+02 -0.25695861807E+02 -0.31983381196E+02  0.45136711432E+02  0.00000000000E+00 0.  1.
         21    1    1    2  505  501  0.82603804187E+02 -0.16944692026E+02  0.13438486714E+03  0.15864994034E+03  0.00000000000E+00 0. -1.
         21    1    1    2  506  503 -0.48491337968E+02 -0.32909673143E+02  0.20053539760E+03  0.20892319673E+03  0.00000000000E+00 0. -1.
<scales pt_clust_3="62.77602" pt_clust_4="31.84943" pt_clust_5="14000.00000" pt_clust_6="58.58639"></scales>
<clustering>
<clus scale="   31.849">  2  4  1 -1</clus>
<clus scale="   58.586">  1  6  2 -1</clus>
<clus scale="   62.776">  2  3  1 -1</clus>
<clus scale="   58.586">  1  3  2 -1</clus>
</clustering>
</event>
<event>
 6    0  0.4582113E+002  0.8698099E+02  0.7546771E-02  0.1310332E+00
         21   -1    0    0  505  501  0.00000000000E+00  0.00000000000E+00  0.17300353840E+04  0.17300353840E+04  0.00000000000E+00 0.  1.
         21   -1    0    0  506  502 -0.00000000000E+00 -0.00000000000E+00 -0.80170360150E+03  0.80170360150E+03  0.00000000000E+00 0.  1.
         21    1    1    2  503  501 -0.64933704057E+02 -0.28333939955E+02  0.15665568838E+04  0.15681580495E+04  0.00000000000E+00 0.  1.
         21    1    1    2  504  502  0.74451794153E+02  0.89044490910E+02 -0.76038796593E+03  0.76919558614E+03  0.00000000000E+00 0.  1.
         21    1    1    2  505  504  0.39497176311E+02 -0.55270859443E+02  0.12781475149E+03  0.14474634896E+03  0.00000000000E+00 0. -1.
         21    1    1    2  506  503 -0.49015266408E+02 -0.54396915122E+01 -0.56518868407E+01  0.49639000893E+02  0.00000000000E+00 0. -1.
<scales pt_clust_3="86.98099" pt_clust_4="14000.00000" pt_clust_5="67.67138" pt_clust_6="49.31619"></scales>
<clustering>
<clus scale="   49.316">  2  6  1 -1</clus>
<clus scale="   67.671">  1  5  2 -1</clus>
<clus scale="   86.981">  1  3  2 -1</clus>
<clus scale="   67.671">  1  3  2 -1</clus>
</clustering>
</event>
<event>
 6    0  0.4582113E+002  0.9748702E+02  0.7546771E-02  0.1285671E+00
         21   -1    0    0  503  501  0.00000000000E+00  0.00000000000E+00  0.36628373596E+03  0.36628373596E+03  0.00000000000E+00 0.  1.
         21   -1    0    0  505  502 -0.00000000000E+00 -0.00000000000E+00 -0.33626097444E+03  0.33626097444E+03  0.00000000000E+00 0. -1.
         21    1    1    2  503  506 -0.11145751540E+03 -0.11143785425E+03  0.23469322681E+03  0.28270494125E+03  0.00000000000E+00 0.  1.
         21    1    1    2  504  501  0.87757080678E+02  0.12412955272E+02  0.69061588825E+02  0.11236053452E+03  0.00000000000E+00 0.  1.
         21    1    1    2  505  504  0.24930569099E+02  0.43209247780E+02 -0.31731778785E+02  0.59122568907E+02  0.00000000000E+00 0. -1.
         21    1    1    2  506  502 -0.12301343782E+01  0.55815651200E+02 -0.24200027533E+03  0.24835666572E+03  0.00000000000E+00 0. -1.
<scales pt_clust_3="14000.00000" pt_clust_4="90.96565" pt_clust_5="49.88559" pt_clust_6="97.48702"></scales>
<clustering>
<clus scale="   49.886">  2  5  1 -1</clus>
<clus scale="   90.966">  1  4  2 -1</clus>
<clus scale="   97.487">  2  6  1 -1</clus>
<clus scale="   90.966">  1  3  2 -1</clus>
</clustering>
</event>
<event>
 6    0  0.4582113E+002  0.1974884E+03  0.7546771E-02  0.1151875E+00
         21   -1    0    0  502  501  0.00000000000E+00  0.00000000000E+00  0.49186474887E+03  0.49186474887E+03  0.00000000000E+00 0. -1.
         21   -1    0    0  503  502 -0.00000000000E+00 -0.00000000000E+00 -0.11501074296E+03  0.11501074296E+03  0.00000000000E+00 0. -1.
         21    1    1    2  503  505  0.24444410581E+02  0.30820040704E+02 -0.18036712587E+02  0.43275017258E+02  0.00000000000E+00 0. -1.
         21    1    1    2  504  506 -0.24112641669E+02 -0.59136613967E+02  0.15015783810E+03  0.16317455360E+03  0.00000000000E+00 0. -1.
         21    1    1    2  505  504 -0.25208285129E+02  0.16334773630E+03  0.73352242809E+02  0.18082724385E+03  0.00000000000E+00 0. -1.
         21    1    1    2  506  501  0.24876516217E+02 -0.13503116304E+03  0.17138063759E+03  0.21959867712E+03  0.00000000000E+00 0. -1.
<scales pt_clust_3="39.33706" pt_clust_4="50.40765" pt_clust_5="183.23492" pt_clust_6="50.40765"></scales>
<clustering>
<clus scale="   39.337">  2  3  1 -1</clus>
<clus scale="   50.408">  4  6 -1 -1</clus>
<clus scale="  183.235">  2  5  1 -1</clus>
<clus scale="  197.488">  1  3  2 -1</clus>
</clustering>
</event>
<event>
 6    0  0.4582113E+002  0.7559075E+02  0.7546771E-02  0.1342051E+00
         21   -1    0    0  506  501  0.00000000000E+00  0.00000000000E+00  0.68051660023E+03  0.68051660023E+03  0.00000000000E+00 0.  1.
         21   -1    0    0  505  502 -0.00000000000E+00 -0.00000000000E+00 -0.47062641660E+03  0.47062641660E+03  0.00000000000E+00 0. -1.
         21    1    1    2  503  502 -0.26316296957E+02 -0.23703515494E+02 -0.12524618838E+03  0.13015764225E+03  0.00000000000E+00 0. -1.
         21    1    1    2  504  503  0.58499396844E+02  0.83984015740E+02 -0.31228044325E+03  0.32862527226E+03  0.00000000000E+00 0. -1.
         21    1    1    2  505  501  0.58184980267E+02 -0.50358716086E+02  0.56320904649E+03  0.56844166126E+03  0.00000000000E+00 0.  1.
         21    1    1    2  506  504 -0.90368080154E+02 -0.99217841602E+01  0.84207768778E+02  0.12391844106E+03  0.00000000000E+00 0. -1.
<scales pt_clust_3="35.41757" pt_clust_4="70.52050" pt_clust_5="75.59075" pt_clust_6="14000.00000"></scales>
<clustering>
<clus scale="   35.418">  2  3  1 -1</clus>
<clus scale="   70.520">  2  4  1 -1</clus>
<clus scale="   75.591">  1  5  2 -1</clus>
<clus scale="   75.591">  1  3  2 -1</clus>
</clustering>
</event>
<event>
 6    0  0.4582113E+002  0.8520280E+02  0.7546771E-02  0.1314903E+00
         21   -1    0    0  505  501  0.00000000000E+00  0.00000000000E+00  0.26891320958E+03  0.26891320958E+03  0.00000000000E+00 0.  1.
         21   -1    0    0  506  502 -0.00000000000E+00 -0.00000000000E+00 -0.32711200060E+03  0.32711200060E+03  0.00000000000E+00 0.  1.
         21    1    1    2  503  501  0.10274626466E+03  0.56963350972E+02  0.11522167000E+03  0.16455288357E+03  0.00000000000E+00 0.  1.
         21    1    1    2  504  502 -0.27705827136E+02 -0.28376254291E+02 -0.47542986430E+02  0.61912520733E+02  0.00000000000E+00 0.  1.
         21    1    1    2  505  504 -0.42833025721E+02 -0.59693976045E+02  0.10844918810E+03  0.13099337872E+03  0.00000000000E+00 0.  1.
         21    1    1    2  506  503 -0.32207411802E+02  0.31106879365E+02 -0.23432666269E+03  0.23856642715E+03  0.00000000000E+00 0.  1.
<scales pt_clust_3="14000.00000" pt_clust_4="39.65885" pt_clust_5="85.20280" pt_clust_6="56.62914"></scales>
<clustering>
<clus scale="   39.659">  2  4  1 -1</clus>
<clus scale="   56.629">  2  6  1 -1</clus>
<clus scale="   85.203">  1  5  2 -1</clus>
<clus scale="   85.203">  1  3  2 -1</clus>
</clustering>
</event>
<event>
 6    0  0.4582113E+002  0.7692233E+02  0.7546771E-02  0.1338019E+00
         21   -1    0    0  504  501  0.00000000000E+00  0.00000000000E+00  0.11349685312E+04  0.11349685312E+04  0.00000000000E+00 0. -1.
         21   -1    0    0  506  502 -0.00000000000E+00 -0.00000000000E+00 -0.84384318523E+02  0.84384318523E+02  0.00000000000E+00 0. -1.
         21    1    1    2  503  502 -0.31515893398E+02 -0.66933335330E+02 -0.47775212334E+02  0.88066984896E+02  0.00000000000E+00 0. -1.
         21    1    1    2  504  505 -0.46792422401E+02 -0.21242768654E+02  0.16874758124E+03  0.17639878738E+03  0.00000000000E+00 0.  1.
         21    1    1    2  505  503  0.95748467513E+02  0.12279406891E+03  0.50379965893E+03  0.52731418407E+03  0.00000000000E+00 0. -1.
         21    1    1    2  506  501 -0.17440151713E+02 -0.34617964921E+02  0.42581218483E+03  0.42757289336E+03  0.00000000000E+00 0. -1.
<scales pt_clust_3="14000.00000" pt_clust_4="59.04250" pt_clust_5="76.92233" pt_clust_6="38.76290"></scales>
<clustering>
<clus scale="   38.763">  1  6  2 -1</clus>
<clus scale="   59.042">  1  4  2 -1</clus>
<clus scale="   76.922">  1  5  2 -1</clus>
<clus scale="   38.763">  1  3  2 -1</clus>
</clustering>
</event>
<event>
 6    0  0.4582113E+002  0.1408787E+03  0.7546771E-02  0.1212151E+00
         21   -1    0    0  504  501  0.00000000000E+00  0.00000000000E+00  0.18929198028E+03  0.18929198028E+03  0.00000000000E+00 0.  1.
         21   -1    0    0  505  502 -0.00000000000E+00 -0.00000000000E+00 -0.20841949999E+04  0.20841949999E+04  0.00000000000E+00 0. -1.
         21    1    1    2  503  501 -0.16239119243E+01  0.37416960299E+02 -0.14209143109E+02  0.40057031291E+02  0.00000000000E+00 0.  1.
         21    1    1    2  504  502 -0.88756712369E+02 -0.21469202284E+03  0.76486159491E+02  0.24458240177E+03  0.00000000000E+00 0.  1.
         21    1    1    2  505  506  0.52629302334E+02  0.12910913422E+03 -0.18999530171E+04  0.19050618046E+04  0.00000000000E+00 0. -1.
         21    1    1    2  506  503  0.37751321959E+02  0.48165928327E+02 -0.57227018871E+02  0.83785742523E+02  0.00000000000E+00 0. -1.
<scales pt_clust_3="31.33381" pt_clust_4="140.87874" pt_clust_5="14000.00000" pt_clust_6="101.16278"></scales>
<clustering>
<clus scale="   31.334">  3  6 -1 -1</clus>
<clus scale="  101.163">  1  3  2 -1</clus>
<clus scale="  140.879">  1  4  2 -1</clus>
<clus scale="  101.163">  1  3  2 -1</clus>
</clustering>
</event>
<event>
 6    0  0.4582113E+002  0.9397826E+02  0.7546771E-02  0.1293494E+00
         21   -1    0    0  505  501  0.00000000000E+00  0.00000000000E+00  0.15295970148E+03  0.15295970148E+03  0.00000000000E+00 0. -1.
         21   -1    0    0  506  502 -0.00000000000E+00 -0.00000000000E+00 -0.11548860995E+04  0.11548860995E+04  0.00000000000E+00 0. -1.
         21    1    1    2  503  502  0.39922165714E+02 -0.77185074026E+02 -0.26229446747E+03  0.27631449950E+03  0.00000000000E+00 0. -1.
         21    1    1    2  504  501 -0.77793257085E+02  0.11475795058E+03  0.46814536411E+02  0.14633105920E+03  0.00000000000E+00 0. -1.
         21    1    1    2  505  503  0.82295934351E+01 -0.54086599243E+02  0.33763400101E+02  0.64288829606E+02  0.00000000000E+00 0. -1.
         21    1    1    2  506  504  0.29641497936E+02  0.16513722692E+02 -0.82020986704E+03  0.82091141266E+03  0.00000000000E+00 0. -1.
<scales pt_clust_3="14000.00000" pt_clust_4="93.97826" pt_clust_5="54.18679" pt_clust_6="33.93113"></scales>
<clustering>
<clus scale="   33.931">  2  6  1 -1</clus>
<clus scale="   54.187">  1  5  2 -1</clus>
<clus scale="   93.978">  1  4  2 -1</clus>
<clus scale="   54.187">  1  3  2 -1</clus>
</clustering>
</event>
<event>
 6    0  0.4582113E+002  0.1204526E+03  0.7546771E-02  0.1242352E+00
         21   -1    0    0  505  501  0.00000000000E+00  0.00000000000E+00  0.19142381959E+03  0.19142381959E+03  0.00000000000E+00 0. -1.
         21   -1    0    0  504  502 -0.00000000000E+00 -0.00000000000E+00 -0.13217765288E+03  0.13217765288E+03  0.00000000000E+00 0.  1.
         21    1    1    2  503  506  0.52340753976E+02 -0.30459663606E+02  0.47627695890E+01  0.60745613898E+02  0.00000000000E+00 0.  1.
         21    1    1    2  504  503  0.75501855200E+01 -0.41426340789E+02 -0.37918881859E+02  0.56665585800E+02  0.00000000000E+00 0.  1.
         21    1    1    2  505  502 -0.10508988661E+03  0.63696637207E+02  0.10147439299E+03  0.15936812195E+03  0.00000000000E+00 0. -1.
         21    1    1    2  506  501  0.45198947114E+02  0.81893671878E+01 -0.90721140186E+01  0.46822150825E+02  0.00000000000E+00 0.  1.
<scales pt_clust_3="34.20321" pt_clust_4="42.10875" pt_clust_5="113.87067" pt_clust_6="34.20321"></scales>
<clustering>
<clus scale="   34.203">  3  6 -1 -1</clus>
<clus scale="   42.109">  2  4  1 -1</clus>
<clus scale="  113.871">  1  5  2 -1</clus>
<clus scale="  113.871">  1  3  2 -1</clus>
</clustering>
</event>
<event>
 6    0  0.4582113E+002  0.8793659E+02  0.7546771E-02  0.1307927E+00
         21   -1    0    0  505  501  0.00000000000E+00  0.00000000000E+00  0.98940879452E+03  0.98940879452E+03  0.00000000000E+00 0. -1.
         21   -1    0    0  503  502 -0.00000000000E+00 -0.00000000000E+00 -0.17301676290E+03  0.17301676290E+03  0.00000000000E+00 0. -1.
         21    1    1    2  503  506 -0.66690030224E+02 -0.51101080820E+02 -0.13998283698E+03  0.16326075842E+03  0.00000000000E+00 0. -1.
         21    1    1    2  504  501 -0.10445419230E+02  0.59123023217E+02  0.67450033487E+03  0.67716714362E+03  0.00000000000E+00 0.  1.
         21    1    1    2  505  502  0.47040210272E+01  0.57320702934E+02  0.91244166785E+02  0.10785772467E+03  0.00000000000E+00 0.  1.
         21    1    1    2  506  504  0.72431428426E+02 -0.65342645331E+02  0.19063036695E+03  0.21413993071E+03  0.00000000000E+00 0. -1.
<scales pt_clust_3="83.51417" pt_clust_4="87.93659" pt_clust_5="57.51340" pt_clust_6="14000.00000"></scales>
<clustering>
<clus scale="   57.513">  1  5  2 -1</clus>
<clus scale="   83.514">  2  3  1 -1</clus>
<clus scale="   87.937">  1  4  2 -1</clus>
<clus scale="   57.513">  1  3  2 -1</clus>
</clustering>
</event>
<event>
 6    0  0.4582113E+002  0.6682861E+02  0.7546771E-02  0.1371222E+00
         21   -1    0    0  504  501  0.00000000000E+00  0.00000000000E+00  0.22041101084E+02  0.22041101084E+02  0.00000000000E+00 0. -1.
         21   -1    0    0  505  502 -0.00000000000E+00 -0.00000000000E+00 -0.18199911270E+04  0.18199911270E+04  0.00000000000E+00 0. -1.
         21    1    1    2  503  502 -0.61938450974E+02  0.15156726556E+02 -0.15859640147E+03  0.17093541654E+03  0.00000000000E+00 0.  1.
         21    1    1    2  504  503  0.36092304882E+02 -0.71809872456E+02 -0.11396557822E+03  0.13945416907E+03  0.00000000000E+00 0. -1.
         21    1    1    2  505  506 -0.42973624115E+02  0.89070516253E+01 -0.84160823102E+03  0.84275173240E+03  0.00000000000E+00 0. -1.
         21    1    1    2  506  501  0.68819770207E+02  0.47746094275E+02 -0.68377981520E+03  0.68889091006E+03  0.00000000000E+00 0. -1.
<scales pt_clust_3="14000.00000" pt_clust_4="66.82861" pt_clust_5="43.88699" pt_clust_6="66.40849"></scales>
<clustering>
<clus scale="   43.887">  2  5  1 -1</clus>
<clus scale="   66.408">  2  6  1 -1</clus>
<clus scale="   66.829">  1  4  2 -1</clus>
<clus scale="   66.829">  1  3  2 -1</clus>
</clustering>
</event>
<event>
 6    0  0.4582113E+002  0.1552559E+03  0.7546771E-02  0.1194159E+00
         21   -1    0    0  506  501  0.00000000000E+00  0.00000000000E+00  0.45397898068E+03  0.45397898068E+03  0.00000000000E+00 0. -1.
         21   -1    0    0  504  502 -0.00000000000E+00 -0.00000000000E+00 -0.18622482219E+03  0.18622482219E+03  0.00000000000E+00 0. -1.
         21    1    1    2  503  501 -0.10907563425E+02  0.46017452706E+02  0.16923432492E+03  0.17571806288E+03  0.00000000000E+00 0. -1.
         21    1    1    2  504  505 -0.29877257007E+02 -0.14664378565E+03 -0.13206698907E+03  0.19959644275E+03  0.00000000000E+00 0. -1.
         21    1    1    2  505  503  0.10501056290E+02  0.97011998425E+02  0.19477331842E+03  0.21784913493E+03  0.00000000000E+00 0. -1.
         21    1    1    2  506  502  0.30283764142E+02  0.36143345230E+01  0.35813504224E+02  0.47040162303E+02  0.00000000000E+00 0. -1.
<scales pt_clust_3="30.03155" pt_clust_4="148.89063" pt_clust_5="30.03155" pt_clust_6="30.49868"></scales>
<clustering>
<clus scale="   30.499">  1  6  2 -1</clus>
<clus scale="   30.032">  3  5 -1 -1</clus>
<clus scale="  148.891">  2  4  1 -1</clus>
<clus scale="   30.499">  1  3  2 -1</clus>
</clustering>
</event>
<event>
 6    0  0.4582113E+002  0.1399418E+03  0.7546771E-02  0.1213407E+00
         21   -1    0    0  506  501  0.00000000000E+00  0.00000000000E+00  0.36901466904E+03  0.36901466904E+03  0.00000000000E+00 0.  1.
         21   -1    0    0  504  502 -0.00000000000E+00 -0.00000000000E+00 -0.45183937695E+03  0.45183937695E+03  0.00000000000E+00 0.  1.
         21    1    1    2  503  505 -0.10154230412E+02  0.11728628303E+03  0.34642355058E+02  0.12271623098E+03  0.00000000000E+00 0.  1.
         21    1    1    2  504  503  0.41392330392E+02 -0.15906943131E+01 -0.82723949999E+02  0.92515443181E+02  0.00000000000E+00 0.  1.
         21    1    1    2  505  501 -0.39943728792E+02 -0.14744387641E+03  0.26403266170E+03  0.30503843136E+03  0.00000000000E+00 0.  1.
         21    1    1    2  506  502  0.87056288116E+01  0.31748287701E+02 -0.29877577467E+03  0.30058394048E+03  0.00000000000E+00 0.  1.
<scales pt_clust_3="14000.00000" pt_clust_4="49.31591" pt_clust_5="139.94183" pt_clust_6="32.92023"></scales>
<clustering>
<clus scale="   32.920">  2  6  1 -1</clus>
<clus scale="   49.316">  2  4  1 -1</clus>
<clus scale="  139.942">  1  5  2 -1</clus>
<clus scale="  139.942">  1  3  2 -1</clus>
</clustering>
</event>
<event>
 6    0  0.4582113E+002  0.2130702E+03  0.7546771E-02  0.1139158E+00
         21   -1    0    0  506  501  0.00000000000E+00  0.00000000000E+00  0.42504248604E+03  0.42504248604E+03  0.00000000000E+00 0.  1.
         21   -1    0    0  504  502 -0.00000000000E+00 -0.00000000000E+00 -0.33278283415E+03  0.33278283415E+03  0.00000000000E+00 0.  1.
         21    1    1    2  503  501  0.19190420370E+03  0.57142946635E+02  0.35194642937E+03  0.40491829904E+03  0.00000000000E+00 0.  1.
         21    1    1    2  504  503 -0.79757561770E+01 -0.32563433548E+02 -0.15991065810E+02  0.37144368036E+02  0.00000000000E+00 0.  1.
         21    1    1    2  505  502 -0.14690675596E+03 -0.15704930062E+02 -0.23355892545E+03  0.27636572043E+03  0.00000000000E+00 0.  1.
         21    1    1    2  506  505 -0.37021691571E+02 -0.88745830253E+01 -0.10136786216E+02  0.39396932690E+02  0.00000000000E+00 0. -1.
<scales pt_clust_3="198.78200" pt_clust_4="33.52596" pt_clust_5="38.13082" pt_clust_6="38.13082"></scales>
<clustering>
<clus scale="   33.526">  2  4  1 -1</clus>
<clus scale="   38.131">  5  6 -1 -1</clus>
<clus scale="  198.782">  1  3  2 -1</clus>
<clus scale="  198.782">  1  3  2 -1</clus>
</clustering>
</event>
<event>
 6    0  0.4582113E+002  0.8089956E+02  0.7546771E-02  0.1326518E+00
         21   -1    0    0  504  501  0.00000000000E+00  0.00000000000E+00  0.19510125149E+03  0.19510125149E+03  0.00000000000E+00 0.  1.
         21   -1    0    0  505  502 -0.00000000000E+00 -0.00000000000E+00 -0.90021308017E+03  0.90021308017E+03  0.00000000000E+00 0. -1.
         21    1    1    2  503  506  0.56343838828E+02  0.52287460047E+02 -0.27954260013E+03  0.28991838841E+03  0.00000000000E+00 0. -1.
         21    1    1    2  504  503  0.12872114176E+02 -0.79390466546E+02  0.14911978915E+03  0.16942623474E+03  0.00000000000E+00 0.  1.
         21    1    1    2  505  501  0.27685107252E+02  0.15557226481E+02  0.17182500357E+02  0.36107212269E+02  0.00000000000E+00 0.  1.
         21    1    1    2  506  502 -0.96901060256E+02  0.11545780018E+02 -0.59187151806E+03  0.59986249625E+03  0.00000000000E+00 0. -1.
<scales pt_clust_3="14000.00000" pt_clust_4="75.55409" pt_clust_5="31.75677" pt_clust_6="80.89956"></scales>
<clustering>
<clus scale="   31.757">  1  5  2 -1</clus>
<clus scale="   75.554">  1  4  2 -1</clus>
<clus scale="   80.900">  2  6  1 -1</clus>
<clus scale="   31.757">  1  3  2 -1</clus>
</clustering>
</event>
<event>
 6    0  0.4582113E+002  0.7388078E+02  0.7546771E-02  0.1347372E+00
         21   -1    0    0  503  501  0.00000000000E+00  0.00000000000E+00  0.27681553221E+03  0.27681553221E+03  0.00000000000E+00 0.  1.
         21   -1    0    0  504  502 -0.00000000000E+00 -0.00000000000E+00 -0.38820155225E+03  0.38820155225E+03  0.00000000000E+00 0.  1.
         21    1    1    2  503  502  0.71079546080E+01 -0.48061074137E+02  0.16341603575E+03  0.17048516242E+03  0.00000000000E+00 0.  1.
         21    1    1    2  504  506  0.27601652635E+02 -0.45534517382E+02 -0.30496911953E+03  0.30958263415E+03  0.00000000000E+00 0.  1.
         21    1    1    2  505  501  0.40244195080E+02 -0.55024288760E+01  0.44056484056E+02  0.59923666014E+02  0.00000000000E+00 0. -1.
         21    1    1    2  506  505 -0.74953802322E+02  0.99098020395E+02 -0.13889420315E+02  0.12502562188E+03  0.00000000000E+00 0.  1.
<scales pt_clust_3="14000.00000" pt_clust_4="53.51031" pt_clust_5="40.61862" pt_clust_6="73.88078"></scales>
<clustering>
<clus scale="   40.619">  1  5  2 -1</clus>
<clus scale="   53.510">  2  4  1 -1</clus>
<clus scale="   73.881">  2  6  1 -1</clus>
<clus scale="   40.619">  1  3  2 -1</clus>
</clustering>
</event>
<event>
 6    0  0.4582113E+002  0.1962672E+03  0.7546771E-02  0.1152927E+00
         21   -1    0    0  503  501  0.00000000000E+00  0.00000000000E+00  0.61299164105E+02  0.61299164105E+02  0.00000000000E+00 0.  1.
         21   -1    0    0  505  502 -0.00000000000E+00 -0.00000000000E+00 -0.20956865810E+04  0.20956865810E+04  0.00000000000E+00 0.  1.
         21    1    1    2  503  504 -0.18976232136E+03 -0.89652213127E+02 -0.11763480171E+04  0.11949233931E+04  0.00000000000E+00 0.  1.
         21    1    1    2  504  502  0.19307780685E+02  0.38207450598E+02 -0.72891878494E+03  0.73017476998E+03  0.00000000000E+00 0.  1.
         21    1    1    2  505  506  0.19347423332E+02  0.35548876373E+02 -0.31535956278E+02  0.51308497730E+02  0.00000000000E+00 0.  1.
         21    1    1    2  506  501  0.15110711735E+03  0.15895886156E+02 -0.97584658553E+02  0.18057908432E+03  0.00000000000E+00 0.  1.
<scales pt_clust_3="181.99562" pt_clust_4="42.80887" pt_clust_5="37.92074" pt_clust_6="37.92074"></scales>
<clustering>
<clus scale="   37.921">  5  6 -1 -1</clus>
<clus scale="   42.809">  2  4  1 -1</clus>
<clus scale="  181.996">  2  3  1 -1</clus>
<clus scale="  196.267">  1  3  2 -1</clus>
</clustering>
</event>
<event>
 6    0  0.4582113E+002  0.2197688E+03  0.7546771E-02  0.1134056E+00
         21   -1    0    0  505  501  0.00000000000E+00  0.00000000000E+00  0.10522426392E+04  0.10522426392E+04  0.00000000000E+00 0. -1.
         21   -1    0    0  506  502 -0.00000000000E+00 -0.00000000000E+00 -0.13626741301E+03  0.13626741301E+03  0.00000000000E+00 0. -1.
         21    1    1    2  503  504  0.89662446729E+02 -0.34778251213E+02  0.72885094814E+02  0.12066945826E+03  0.00000000000E+00 0. -1.
         21    1    1    2  504  502  0.85143114635E+02  0.14608053688E+02 -0.66612470164E+01  0.86643623043E+02  0.00000000000E+00 0. -1.
         21    1    1    2  505  503  0.10661629832E+03 -0.12959483016E+03  0.35448328776E+03  0.39219925596E+03  0.00000000000E+00 0. -1.
         21    1    1    2  506  501 -0.28142185968E+03  0.14976502769E+03  0.49526809063E+03  0.58899771496E+03  0.00000000000E+00 0. -1.
<scales pt_clust_3="82.78364" pt_clust_4="82.78364" pt_clust_5="167.81494" pt_clust_6="201.66568"></scales>
<clustering>
<clus scale="   82.784">  3  4 -1 -1</clus>
<clus scale="  167.815">  1  5  2 -1</clus>
<clus scale="  201.666">  1  6  2 -1</clus>
<clus scale="  167.815">  1  3  2 -1</clus>
</clustering>
</event>
<event>
 6    0  0.4582113E+002  0.9713924E+02  0.7546771E-02  0.1286429E+00
         21   -1    0    0  504  501  0.00000000000E+00  0.00000000000E+00  0.95770667378E+03  0.95770667378E+03  0.00000000000E+00 0. -1.
         21   -1    0    0  503  502 -0.00000000000E+00 -0.00000000000E+00 -0.17180902279E+03  0.17180902279E+03  0.00000000000E+00 0.  1.
         21    1    1    2  503  501  0.34301728906E+02  0.13406084846E+02  0.19938993469E+02  0.41879531724E+02  0.00000000000E+00 0. -1.
         21    1    1    2  504  506 -0.95080174364E+02 -0.16534396317E+02  0.86588674101E+03  0.87124822758E+03  0.00000000000E+00 0. -1.
         21    1    1    2  505  502 -0.61020673783E+02 -0.22307641155E+02 -0.18025029592E+02  0.67424440485E+02  0.00000000000E+00 0.  1.
         21    1    1    2  506  505  0.12179911924E+03  0.25435952625E+02 -0.81903053890E+02  0.14896349677E+03  0.00000000000E+00 0.  1.
<scales pt_clust_3="36.82841" pt_clust_4="14000.00000" pt_clust_5="55.19022" pt_clust_6="97.13924"></scales>
<clustering>
<clus scale="   36.828">  2  3  1 -1</clus>
<clus scale="   55.190">  2  5  1 -1</clus>
<clus scale="   97.139">  2  6  1 -1</clus>
<clus scale="   97.139">  1  3  2 -1</clus>
</clustering>
</event>
<event>
 6    0  0.1324855E+003  0.1183221E+03  0.7546771E-02  0.1245891E+00
         21   -1    0    0  504  501  0.00000000000E+00  0.00000000000E+00  0.51552388783E+03  0.51552388783E+03  0.00000000000E+00 0.  1.
         21   -1    0    0  503  502 -0.00000000000E+00 -0.00000000000E+00 -0.39632051509E+03  0.39632051509E+03  0.00000000000E+00 0. -1.
         21    1    1    2  503  506  0.10361787415E+03  0.57524880465E+02 -0.35745461739E+03  0.37658940401E+03  0.00000000000E+00 0. -1.
         21    1    1    2  504  502 -0.53778844012E+02 -0.12979347405E+01  0.44080207248E+03  0.44407242180E+03  0.00000000000E+00 0.  1.
         21    1    1    2  505  501 -0.14816366787E+02 -0.43928563681E+02  0.24076847162E+02  0.52239238137E+02  0.00000000000E+00 0. -1.
         21    1    1    2  506  505 -0.35022663346E+02 -0.12298382044E+02  0.11779070492E+02  0.38943338973E+02  0.00000000000E+00 0. -1.
<scales pt_clust_3="112.32496" pt_clust_4="53.79450" pt_clust_5="33.27923" pt_clust_6="33.27923"></scales>
<clustering>
<clus scale="   33.279">  5  6 -1 -1</clus>
<clus scale="   53.795">  1  4  2 -1</clus>
<clus scale="  112.325">  2  3  1 -1</clus>
<clus scale="   53.795">  1  3  2 -1</clus>
</clustering>
</event>
<event>
 6    0  0.4582113E+002  0.9629034E+02  0.7546771E-02  0.1288296E+00
         21   -1    0    0  506  501  0.00000000000E+00  0.00000000000E+00  0.17870455673E+03  0.17870455673E+03  0.00000000000E+00 0.  1.
         21   -1    0    0  503  502 -0.00000000000E+00 -0.00000000000E+00 -0.13786592750E+04  0.13786592750E+04  0.00000000000E+00 0.  1.
         21    1    1    2  503  504  0.15565897742E+03 -0.96095013213E+02  0.37054250699E+02  0.18664668845E+03  0.00000000000E+00 0.  1.
         21    1    1    2  504  501  0.88569856368E+00  0.55513460363E+02  0.32480034867E+02  0.64323257134E+02  0.00000000000E+00 0.  1.
         21    1    1    2  505  502 -0.94041224867E+02 -0.17079920294E+02 -0.11765306908E+04  0.11804066850E+04  0.00000000000E+00 0.  1.
         21    1    1    2  506  505 -0.62503451114E+02  0.57661473144E+02 -0.92958313095E+02  0.12598720117E+03  0.00000000000E+00 0.  1.
<scales pt_clust_3="96.29034" pt_clust_4="55.52053" pt_clust_5="14000.00000" pt_clust_6="89.87985"></scales>
<clustering>
<clus scale="   55.521">  1  4  2 -1</clus>
<clus scale="   89.880">  1  6  2 -1</clus>
<clus scale="   96.290">  1  3  2 -1</clus>
<clus scale="   55.521">  1  3  2 -1</clus>
</clustering>
</event>
<event>
 6    0  0.4582113E+002  0.1150335E+03  0.7546771E-02  0.1251523E+00
         21   -1    0    0  506  501  0.00000000000E+00  0.00000000000E+00  0.62516304444E+03  0.62516304444E+03  0.00000000000E+00 0. -1.
         21   -1    0    0  505  502 -0.00000000000E+00 -0.00000000000E+00 -0.38113774694E+02  0.38113774694E+02  0.00000000000E+00 0. -1.
         21    1    1    2  503  501 -0.56914891230E+02  0.19802810341E+02  0.22322733431E+03  0.23121829279E+03  0.00000000000E+00 0. -1.
         21    1    1    2  504  503 -0.24030734110E+02  0.28088607024E+02  0.68338363810E+02  0.77695418105E+02  0.00000000000E+00 0. -1.
         21    1    1    2  505  504 -0.19890399421E+02  0.42948674105E+02  0.29547120475E+02  0.55796495633E+02  0.00000000000E+00 0. -1.
         21    1    1    2  506  502  0.10083602476E+03 -0.90840091470E+02  0.26593645115E+03  0.29856661260E+03  0.00000000000E+00 0. -1.
<scales pt_clust_3="31.04655" pt_clust_4="31.04655" pt_clust_5="47.33093" pt_clust_6="107.98776"></scales>
<clustering>
<clus scale="   31.047">  3  4 -1 -1</clus>
<clus scale="   47.331">  2  5  1 -1</clus>
<clus scale="  107.988">  2  6  1 -1</clus>
<clus scale="  115.033">  1  3  2 -1</clus>
</clustering>
</event>
<event>
 6    0  0.4582113E+002  0.1333383E+03  0.7546771E-02  0.1222585E+00
         21   -1    0    0  503  501  0.00000000000E+00  0.00000000000E+00  0.29128225311E+03  0.29128225311E+03  0.00000000000E+00 0.  1.
         21   -1    0    0  505  502 -0.00000000000E+00 -0.00000000000E+00 -0.94108138250E+03  0.94108138250E+03  0.00000000000E+00 0. -1.
         21    1    1    2  503  504 -0.13589216542E+03  0.45976708064E+02  0.22126252110E+03  0.26369990814E+03  0.00000000000E+00 0.  1.
         21    1    1    2  504  502  0.53988522984E+02 -0.50744601710E+02 -0.79104341721E+03  0.79450579804E+03  0.00000000000E+00 0. -1.
         21    1    1    2  505  506 -0.17035411418E+02  0.33325089634E+02 -0.57722104604E+02  0.68793954685E+02  0.00000000000E+00 0.  1.
         21    1    1    2  506  501  0.98939053855E+02 -0.28557195987E+02 -0.22296128682E+02  0.10536397475E+03  0.00000000000E+00 0.  1.
<scales pt_clust_3="133.33834" pt_clust_4="43.77886" pt_clust_5="37.42682" pt_clust_6="14000.00000"></scales>
<clustering>
<clus scale="   37.427">  2  5  1 -1</clus>
<clus scale="   43.779">  2  4  1 -1</clus>
<clus scale="  133.338">  1  3  2 -1</clus>
<clus scale="  133.338">  1  3  2 -1</clus>
</clustering>
</event>
<event>
 6    0  0.4582113E+002  0.1292096E+03  0.7546771E-02  0.1228633E+00
         21   -1    0    0  504  501  0.00000000000E+00  0.00000000000E+00  0.23826250054E+03  0.23826250054E+03  0.00000000000E+00 0.  1.
         21   -1    0    0  503  502 -0.00000000000E+00 -0.00000000000E+00 -0.33266348625E+03  0.33266348625E+03  0.00000000000E+00 0. -1.
         21    1    1    2  503  505  0.70011547027E+02 -0.28708037899E+02  0.86808050371E+02  0.11515817716E+03  0.00000000000E+00 0.  1.
         21    1    1    2  504  506 -0.62962801167E+02  0.73927584995E+02 -0.27616371622E+03  0.29273879195E+03  0.00000000000E+00 0. -1.
         21    1    1    2  505  501  0.23452444497E+02 -0.43307909475E+02  0.11593306013E+03  0.12596057561E+03  0.00000000000E+00 0.  1.
         21    1    1    2  506  502 -0.30501190357E+02 -0.19116376202E+01 -0.20978379988E+02  0.37068442083E+02  0.00000000000E+00 0. -1.
<scales pt_clust_3="45.29803" pt_clust_4="116.54455" pt_clust_5="45.29803" pt_clust_6="30.56104"></scales>
<clustering>
<clus scale="   30.561">  2  6  1 -1</clus>
<clus scale="   45.298">  3  5 -1 -1</clus>
<clus scale="  116.545">  2  4  1 -1</clus>
<clus scale="  129.210">  1  3  2 -1</clus>
</clustering>
</event>
<event>
 6    0  0.4582113E+002  0.9966136E+02  0.7546771E-02  0.1281010E+00
         21   -1    0    0  503  501  0.00000000000E+00  0.00000000000E+00  0.37332966570E+03  0.37332966570E+03  0.00000000000E+00 0. -1.
         21   -1    0    0  506  502 -0.00000000000E+00 -0.00000000000E+00 -0.25863668634E+03  0.25863668634E+03  0.00000000000E+00 0. -1.
         21    1    1    2  503  504 -0.11542363037E+03  0.72566210855E+02  0.20663512546E+03  0.24756119341E+03  0.00000000000E+00 0. -1.
         21    1    1    2  504  505  0.55552589903E+02  0.43849130750E+02  0.70273261259E+02  0.99735488972E+02  0.00000000000E+00 0.  1.
         21    1    1    2  505  502  0.19576029719E+02 -0.63160348898E+02 -0.19810907789E+03  0.20885319570E+03  0.00000000000E+00 0. -1.
         21    1    1    2  506  501  0.40295010751E+02 -0.53254992707E+02  0.35893670527E+02  0.75816473959E+02  0.00000000000E+00 0. -1.
<scales pt_clust_3="99.66136" pt_clust_4="66.50005" pt_clust_5="66.12451" pt_clust_6="14000.00000"></scales>
<clustering>
<clus scale="   66.125">  2  5  1 -1</clus>
<clus scale="   66.500">  2  4  1 -1</clus>
<clus scale="   99.661">  2  3  1 -1</clus>
<clus scale="   99.661">  1  3  2 -1</clus>
</clustering>
</event>
<event>
 6    0  0.4582113E+002  0.1229821E+03  0.7546771E-02  0.1238257E+00
         21   -1    0    0  502  501  0.00000000000E+00  0.00000000000E+00  0.34213327754E+03  0.34213327754E+03  0.00000000000E+00 0.  1.
         21   -1    0    0  506  502 -0.00000000000E+00 -0.00000000000E+00 -0.18012014798E+03  0.18012014798E+03  0.00000000000E+00 0.  1.
         21    1    1    2  503  501  0.22806203581E+02 -0.55228407177E+02  0.16983796039E+03  0.18004230800E+03  0.00000000000E+00 0.  1.
         21    1    1    2  504  505 -0.79084556436E+02  0.70175974530E+02 -0.29450043151E+02  0.10975581766E+03  0.00000000000E+00 0.  1.
         21    1    1    2  505  503  0.43097876709E+02 -0.46782955447E+02  0.11583034112E+03  0.13214666027E+03  0.00000000000E+00 0.  1.
         21    1    1    2  506  504  0.13180476146E+02  0.31835388094E+02 -0.94205128797E+02  0.10030863960E+03  0.00000000000E+00 0.  1.
<scales pt_clust_3="32.23125" pt_clust_4="118.40053" pt_clust_5="32.23125" pt_clust_6="34.45601"></scales>
<clustering>
<clus scale="   32.231">  3  5 -1 -1</clus>
<clus scale="   34.456">  2  6  1 -1</clus>
<clus scale="  118.401">  2  4  1 -1</clus>
<clus scale="  122.982">  1  3  2 -1</clus>
</clustering>
</event>
<event>
 6    0  0.4582113E+002  0.2847129E+03  0.7546771E-02  0.1093142E+00
         21   -1    0    0  502  501  0.00000000000E+00  0.00000000000E+00  0.23400518256E+04  0.23400518256E+04  0.00000000000E+00 0.  1.
         21   -1    0    0  504  502 -0.00000000000E+00 -0.00000000000E+00 -0.79001854060E+02  0.79001854060E+02  0.00000000000E+00 0. -1.
         21    1    1    2  503  505 -0.15270733646E+03 -0.12634671361E+03  0.19846168422E+03  0.28048184032E+03  0.00000000000E+00 0. -1.
         21    1    1    2  504  503 -0.77689931362E+02 -0.15080861946E+00  0.25520949406E+02  0.81774488912E+02  0.00000000000E+00 0. -1.
         21    1    1    2  505  506  0.17925217996E+03  0.14188218516E+03  0.17418399531E+04  0.17567778234E+04  0.00000000000E+00 0.  1.
         21    1    1    2  506  501  0.51145087859E+02 -0.15384662930E+02  0.29522738485E+03  0.30001952708E+03  0.00000000000E+00 0.  1.
<scales pt_clust_3="68.51787" pt_clust_4="68.51787" pt_clust_5="284.20415" pt_clust_6="52.25415"></scales>
<clustering>
<clus scale="   52.254">  5  6 -1 -1</clus>
<clus scale="   68.518">  3  4 -1 -1</clus>
<clus scale="  284.204">  1  5  2 -1</clus>
<clus scale="  284.204">  1  3  2 -1</clus>
</clustering>
</event>
<event>
 6    0  0.4582113E+002  0.1216260E+03  0.7546771E-02  0.1240439E+00
         21   -1    0    0  505  501  0.00000000000E+00  0.00000000000E+00  0.48215117571E+03  0.48215117571E+03  0.00000000000E+00 0.  1.
         21   -1    0    0  503  502 -0.00000000000E+00 -0.00000000000E+00 -0.26445420955E+03  0.26445420955E+03  0.00000000000E+00 0.  1.
         21    1    1    2  503  501 -0.11418587698E+03  0.99709375655E+02 -0.20971306483E+03  0.25876619496E+03  0.00000000000E+00 0.  1.
         21    1    1    2  504  502  0.51776240547E+01 -0.42566516307E+02  0.44524648088E+01  0.43110793825E+02  0.00000000000E+00 0.  1.
         21    1    1    2  505  506  0.32874141831E+02  0.11602665010E+02  0.10632911297E+03  0.11189821849E+03  0.00000000000E+00 0. -1.
         21    1    1    2  506  504  0.76134111092E+02 -0.68745524358E+02  0.31662845321E+03  0.33283017798E+03  0.00000000000E+00 0.  1.
<scales pt_clust_3="14000.00000" pt_clust_4="42.45452" pt_clust_5="34.86160" pt_clust_6="121.62600"></scales>
<clustering>
<clus scale="   34.862">  1  5  2 -1</clus>
<clus scale="   42.455">  2  4  1 -1</clus>
<clus scale="  121.626">  1  6  2 -1</clus>
<clus scale="   34.862">  1  3  2 -1</clus>
</clustering>
</event>
<event>
 6    0  0.4582113E+002  0.3503765E+03  0.7546771E-02  0.1062461E+00
         21   -1    0    0  504  501  0.00000000000E+00  0.00000000000E+00  0.41194683558E+03  0.41194683558E+03  0.00000000000E+00 0.  1.
         21   -1    0    0  503  502 -0.00000000000E+00 -0.00000000000E+00 -0.25832138911E+04  0.25832138911E+04  0.00000000000E+00 0.  1.
         21    1    1    2  503  505 -0.40803229225E+02 -0.80676783971E+01 -0.17574916257E+04  0.17579837330E+04  0.00000000000E+00 0.  1.
         21    1    1    2  504  502  0.21095559046E+02 -0.30943865762E+02  0.23041583543E+02  0.43971127026E+02  0.00000000000E+00 0.  1.
         21    1    1    2  505  506  0.37956872828E+03 -0.39762792660E+02 -0.66006526943E+03  0.76245633257E+03  0.00000000000E+00 0.  1.
         21    1    1    2  506  501 -0.35986105810E+03  0.78774336819E+02  0.22324825609E+03  0.43074953410E+03  0.00000000000E+00 0.  1.
<scales pt_clust_3="41.58361" pt_clust_4="37.45057" pt_clust_5="350.37648" pt_clust_6="14000.00000"></scales>
<clustering>
<clus scale="   37.451">  1  4  2 -1</clus>
<clus scale="   41.584">  2  3  1 -1</clus>
<clus scale="  350.376">  2  5  1 -1</clus>
<clus scale="   37.451">  1  3  2 -1</clus>
</clustering>
</event>
<event>
 6    0  0.4582113E+002  0.6273173E+02  0.7546771E-02  0.1386713E+00
         21   -1    0    0  503  501  0.00000000000E+00  0.00000000000E+00  0.12305069469E+03  0.12305069469E+03  0.00000000000E+00 0. -1.
         21   -1    0    0  506  502 -0.00000000000E+00 -0.00000000000E+00 -0.16772810062E+03  0.16772810062E+03  0.00000000000E+00 0. -1.
         21    1    1    2  503  505 -0.38453089555E+02 -0.41205049553E+02 -0.31192625585E+01  0.56446665126E+02  0.00000000000E+00 0. -1.
         21    1    1    2  504  501 -0.29547401759E+02  0.48451287033E+02  0.10739374405E+02  0.57757340040E+02  0.00000000000E+00 0. -1.
         21    1    1    2  505  502  0.38358861731E+01 -0.63380247370E+02 -0.64433079142E+02  0.90462099617E+02  0.00000000000E+00 0. -1.
         21    1    1    2  506  504  0.64164605140E+02  0.56134009889E+02  0.12135561365E+02  0.86112690521E+02  0.00000000000E+00 0. -1.
<scales pt_clust_3="56.36041" pt_clust_4="54.86611" pt_clust_5="14000.00000" pt_clust_6="62.73173"></scales>
<clustering>
<clus scale="   56.360">  1  3  2 -1</clus>
<clus scale="   54.866">  1  4  2 -1</clus>
<clus scale="   62.732">  1  6  2 -1</clus>
<clus scale="   56.360">  1  3  2 -1</clus>
</clustering>
</event>
<event>
 6    0  0.4582113E+002  0.1047512E+03  0.7546771E-02  0.1270611E+00
         21   -1    0    0  503  501  0.00000000000E+00  0.00000000000E+00  0.80637441026E+03  0.80637441026E+03  0.00000000000E+00 0. -1.
         21   -1    0    0  506  502 -0.00000000000E+00 -0.00000000000E+00 -0.81252035693E+02  0.81252035693E+02  0.00000000000E+00 0. -1.
         21    1    1    2  503  505  0.84769779901E+01  0.46824099446E+02  0.12544595515E+03  0.13416796603E+03  0.00000000000E+00 0. -1.
         21    1    1    2  504  501 -0.10131680061E+03  0.28942041564E-01  0.53836098597E+03  0.54781168857E+03  0.00000000000E+00 0. -1.
         21    1    1    2  505  502  0.12961033976E+03 -0.15747415690E+02  0.37860051722E+01  0.13061835671E+03  0.00000000000E+00 0. -1.
         21    1    1    2  506  504 -0.36770517142E+02 -0.31105625797E+02  0.57529428269E+02  0.75028434637E+02  0.00000000000E+00 0.  1.
<scales pt_clust_3="47.58524" pt_clust_4="14000.00000" pt_clust_5="104.75124" pt_clust_6="44.66457"></scales>
<clustering>
<clus scale="   47.585">  1  3  2 -1</clus>
<clus scale="   44.665">  2  6  1 -1</clus>
<clus scale="  104.751">  2  5  1 -1</clus>
<clus scale="   47.585">  1  3  2 -1</clus>
</clustering>
</event>
<event>
 6    0  0.4582113E+002  0.2280333E+03  0.7546771E-02  0.1128032E+00
         21   -1    0    0  504  501  0.00000000000E+00  0.00000000000E+00  0.15827816370E+03  0.15827816370E+03  0.00000000000E+00 0.  1.
         21   -1    0    0  505  502 -0.00000000000E+00 -0.00000000000E+00 -0.47971846302E+03  0.47971846302E+03  0.00000000000E+00 0.  1.
         21    1    1    2  503  506  0.86303303341E+02 -0.44358133678E+02 -0.15951086350E+03  0.18670731042E+03  0.00000000000E+00 0.  1.
         21    1    1    2  504  502 -0.18842671181E+03  0.12708597928E+03  0.41622785673E+01  0.22731651154E+03  0.00000000000E+00 0.  1.
         21    1    1    2  505  503 -0.22160987606E+01 -0.30114247624E+02 -0.54975411850E+02  0.62722204296E+02  0.00000000000E+00 0.  1.
         21    1    1    2  506  501  0.10433950723E+03 -0.52613597980E+02 -0.11111630254E+03  0.16125060047E+03  0.00000000000E+00 0.  1.
<scales pt_clust_3="42.06721" pt_clust_4="223.40938" pt_clust_5="30.19568" pt_clust_6="42.06721"></scales>
<clustering>
<clus scale="   30.196">  2  5  1 -1</clus>
<clus scale="   42.067">  3  6 -1 -1</clus>
<clus scale="  223.409">  1  4  2 -1</clus>
<clus scale="  223.409">  1  3  2 -1</clus>
</clustering>
</event>
<event>
 6    0  0.4582113E+002  0.1378296E+03  0.7546771E-02  0.1216280E+00
         21   -1    0    0  504  501  0.00000000000E+00  0.00000000000E+00  0.70596952515E+03  0.70596952515E+03  0.00000000000E+00 0. -1.
         21   -1    0    0  506  502 -0.00000000000E+00 -0.00000000000E+00 -0.64282221410E+03  0.64282221410E+03  0.00000000000E+00 0. -1.
         21    1    1    2  503  505 -0.81829170206E+01 -0.11618859500E+03  0.27691775147E+03  0.30041669530E+03  0.00000000000E+00 0. -1.
         21    1    1    2  504  502 -0.53474527385E+02  0.15965227718E+03  0.13910667433E+03  0.21840110240E+03  0.00000000000E+00 0. -1.
         21    1    1    2  505  501  0.31984091368E+02 -0.21060914526E+02  0.23642180960E+03  0.23950326986E+03  0.00000000000E+00 0. -1.
         21    1    1    2  506  503  0.29673353038E+02 -0.22402767659E+02 -0.58929892435E+03  0.59047067168E+03  0.00000000000E+00 0. -1.
<scales pt_clust_3="14000.00000" pt_clust_4="137.82961" pt_clust_5="39.37544" pt_clust_6="37.18053"></scales>
<clustering>
<clus scale="   37.181">  2  6  1 -1</clus>
<clus scale="   39.375">  1  5  2 -1</clus>
<clus scale="  137.830">  2  4  1 -1</clus>
<clus scale="   39.375">  1  3  2 -1</clus>
</clustering>
</event>
<event>
 6    0  0.4582113E+002  0.1167980E+03  0.7546771E-02  0.1248475E+00
         21   -1    0    0  504  501  0.00000000000E+00  0.00000000000E+00  0.64658710663E+03  0.64658710663E+03  0.00000000000E+00 0.  1.
         21   -1    0    0  503  502 -0.00000000000E+00 -0.00000000000E+00 -0.37001698728E+03  0.37001698728E+03  0.00000000000E+00 0.  1.
         21    1    1    2  503  505  0.68265184391E+02 -0.84053086653E+02 -0.34162301913E+03  0.35837319093E+03  0.00000000000E+00 0.  1.
         21    1    1    2  504  502 -0.68572790299E+02 -0.11567263846E+02  0.65523687564E+02  0.95547803712E+02  0.00000000000E+00 0.  1.
         21    1    1    2  505  506 -0.83224393297E+01  0.33016253162E+02  0.10032466193E+03  0.10594514505E+03  0.00000000000E+00 0.  1.
         21    1    1    2  506  501  0.86300452373E+01  0.62604097337E+02  0.45234478900E+03  0.45673795421E+03  0.00000000000E+00 0.  1.
<scales pt_clust_3="107.77924" pt_clust_4="69.54156" pt_clust_5="33.03412" pt_clust_6="33.03412"></scales>
<clustering>
<clus scale="   33.034">  5  6 -1 -1</clus>
<clus scale="   69.542">  1  4  2 -1</clus>
<clus scale="  107.779">  2  3  1 -1</clus>
<clus scale="   69.542">  1  3  2 -1</clus>
</clustering>
</event>
<event>
 6    0  0.4582113E+002  0.1246694E+03  0.7546771E-02  0.1235587E+00
         21   -1    0    0  503  501  0.00000000000E+00  0.00000000000E+00  0.28787077803E+03  0.28787077803E+03  0.00000000000E+00 0. -1.
         21   -1    0    0  506  502 -0.00000000000E+00 -0.00000000000E+00 -0.12888057926E+03  0.12888057926E+03  0.00000000000E+00 0.  1.
         21    1    1    2  503  502 -0.51071191755E+02  0.41564650966E+02 -0.74894167977E+02  0.99724737323E+02  0.00000000000E+00 0.  1.
         21    1    1    2  504  505  0.27555924989E+02 -0.44911024442E+02  0.84948901285E+02  0.99963217975E+02  0.00000000000E+00 0. -1.
         21    1    1    2  505  501  0.79949892068E+02 -0.67262905642E+00  0.13792690526E+03  0.15942480631E+03  0.00000000000E+00 0.  1.
         21    1    1    2  506  504 -0.56434625301E+02  0.40190025320E+01  0.11008560197E+02  0.57638595679E+02  0.00000000000E+00 0. -1.
<scales pt_clust_3="107.56074" pt_clust_4="51.17039" pt_clust_5="51.17039" pt_clust_6="56.57755"></scales>
<clustering>
<clus scale="   51.170">  4  5 -1 -1</clus>
<clus scale="   56.578">  2  6  1 -1</clus>
<clus scale="  107.561">  2  3  1 -1</clus>
<clus scale="  124.669">  1  3  2 -1</clus>
</clustering>
</event>
<event>
 6    0  0.4582113E+002  0.1623501E+03  0.7546771E-02  0.1186069E+00
         21   -1    0    0  503  501  0.00000000000E+00  0.00000000000E+00  0.16019433350E+04  0.16019433350E+04  0.00000000000E+00 0. -1.
         21   -1    0    0  505  502 -0.00000000000E+00 -0.00000000000E+00 -0.22328956384E+03  0.22328956384E+03  0.00000000000E+00 0.  1.
         21    1    1    2  503  502 -0.13534303437E+02  0.32430008733E+02  0.41478158667E+03  0.41626751913E+03  0.00000000000E+00 0. -1.
         21    1    1    2  504  501  0.29351736098E+02 -0.42638476673E+02  0.35193948783E+03  0.35572597206E+03  0.00000000000E+00 0. -1.
         21    1    1    2  505  506 -0.98153122980E+01  0.15118865037E+03 -0.18771973884E+03  0.24123235418E+03  0.00000000000E+00 0.  1.
         21    1    1    2  506  504 -0.60021203635E+01 -0.14098018243E+03  0.79965243545E+03  0.81200705342E+03  0.00000000000E+00 0. -1.
<scales pt_clust_3="35.14090" pt_clust_4="34.13050" pt_clust_5="152.25675" pt_clust_6="34.13050"></scales>
<clustering>
<clus scale="   34.130">  4  6 -1 -1</clus>
<clus scale="   35.141">  1  3  2 -1</clus>
<clus scale="  152.257">  2  5  1 -1</clus>
<clus scale="   35.141">  1  3  2 -1</clus>
</clustering>
</event>
<event>
 6    0  0.4582113E+002  0.1053389E+03  0.7546771E-02  0.1269453E+00
         21   -1    0    0  502  501  0.00000000000E+00  0.00000000000E+00  0.14840522828E+03  0.14840522828E+03  0.00000000000E+00 0. -1.
         21   -1    0    0  504  502 -0.00000000000E+00 -0.00000000000E+00 -0.49342173778E+03  0.49342173778E+03  0.00000000000E+00 0.  1.
         21    1    1    2  503  506 -0.69827034643E+02 -0.38579103368E+02 -0.18430294779E+03  0.20082763392E+03  0.00000000000E+00 0.  1.
         21    1    1    2  504  505  0.31582855311E+02 -0.74880217907E+01 -0.22547775626E+03  0.22780203201E+03  0.00000000000E+00 0.  1.
         21    1    1    2  505  503 -0.40807324415E+02 -0.28559959052E+02 -0.38733696089E+02  0.63096816082E+02  0.00000000000E+00 0.  1.
         21    1    1    2  506  501  0.79051503747E+02  0.74627084211E+02  0.10349789064E+03  0.15010048404E+03  0.00000000000E+00 0. -1.
<scales pt_clust_3="105.33889" pt_clust_4="32.45839" pt_clust_5="45.92356" pt_clust_6="14000.00000"></scales>
<clustering>
<clus scale="   32.458">  2  4  1 -1</clus>
<clus scale="   45.924">  2  5  1 -1</clus>
<clus scale="  105.339">  2  3  1 -1</clus>
<clus scale="  105.339">  1  3  2 -1</clus>
</clustering>
</event>
<event>
 6    0  0.4582113E+002  0.8520721E+02  0.7546771E-02  0.1314892E+00
         21   -1    0    0  506  501  0.00000000000E+00  0.00000000000E+00  0.45411853894E+03  0.45411853894E+03  0.00000000000E+00 0. -1.
         21   -1    0    0  505  502 -0.00000000000E+00 -0.00000000000E+00 -0.13137571139E+04  0.13137571139E+04  0.00000000000E+00 0.  1.
         21    1    1    2  503  504  0.11362952996E+02 -0.68591642252E+02  0.25826860524E+03  0.26746327325E+03  0.00000000000E+00 0. -1.
         21    1    1    2  504  502  0.25356265659E+02 -0.18462285102E+02 -0.27457674435E+02  0.41685969639E+02  0.00000000000E+00 0.  1.
         21    1    1    2  505  501 -0.78190372173E+02  0.86104113965E+02 -0.12695592256E+04  0.12748757900E+04  0.00000000000E+00 0.  1.
         21    1    1    2  506  503  0.41471153517E+02  0.94981338915E+00  0.17910971981E+03  0.18385061993E+03  0.00000000000E+00 0. -1.
<scales pt_clust_3="14000.00000" pt_clust_4="31.36553" pt_clust_5="85.20721" pt_clust_6="41.52824"></scales>
<clustering>
<clus scale="   31.366">  2  4  1 -1</clus>
<clus scale="   41.528">  1  6  2 -1</clus>
<clus scale="   85.207">  2  5  1 -1</clus>
<clus scale="   41.528">  1  3  2 -1</clus>
</clustering>
</event>
<event>
 6    0  0.4582113E+002  0.1501848E+03  0.7546771E-02  0.1200246E+00
         21   -1    0    0  505  501  0.00000000000E+00  0.00000000000E+00  0.15438985244E+03  0.15438985244E+03  0.00000000000E+00 0. -1.
         21   -1    0    0  504  502 -0.00000000000E+00 -0.00000000000E+00 -0.45146528937E+03  0.45146528937E+03  0.00000000000E+00 0. -1.
         21    1    1    2  503  501 -0.35448210460E+02  0.34775864091E+02 -0.34633165510E+01  0.49778819890E+02  0.00000000000E+00 0. -1.
         21    1    1    2  504  503 -0.10727144952E+03 -0.35935395631E+02 -0.12292499263E+03  0.16706008007E+03  0.00000000000E+00 0. -1.
         21    1    1    2  505  506  0.17857806144E+03  0.50121804792E+02  0.22204241276E+02  0.18680296484E+03  0.00000000000E+00 0. -1.
         21    1    1    2  506  502 -0.35858401461E+02 -0.48962273251E+02 -0.19289136903E+03  0.20221327702E+03  0.00000000000E+00 0. -1.
<scales pt_clust_3="49.65820" pt_clust_4="150.18479" pt_clust_5="14000.00000" pt_clust_6="60.46141"></scales>
<clustering>
<clus scale="   49.658">  1  3  2 -1</clus>
<clus scale="   60.461">  2  6  1 -1</clus>
<clus scale="  150.185">  2  4  1 -1</clus>
<clus scale="   49.658">  1  3  2 -1</clus>
</clustering>
</event>
<event>
 6    0  0.4582113E+002  0.1883569E+03  0.7546771E-02  0.1159952E+00
         21   -1    0    0  505  501  0.00000000000E+00  0.00000000000E+00  0.14670087101E+04  0.14670087101E+04  0.00000000000E+00 0. -1.
         21   -1    0    0  506  502 -0.00000000000E+00 -0.00000000000E+00 -0.38966155178E+03  0.38966155178E+03  0.00000000000E+00 0.  1.
         21    1    1    2  503  502 -0.84741348340E+01  0.30530134012E+02 -0.31724072124E+03  0.31881903215E+03  0.00000000000E+00 0.  1.
         21    1    1    2  504  501  0.49454596872E+02  0.79774033528E+02  0.10068825466E+04  0.10112478016E+04  0.00000000000E+00 0. -1.
         21    1    1    2  505  503 -0.58891065130E+02 -0.18242686332E+03  0.76084046972E+02  0.20624378831E+03  0.00000000000E+00 0. -1.
         21    1    1    2  506  504  0.17910603092E+02  0.72122695777E+02  0.31162128595E+03  0.32035963979E+03  0.00000000000E+00 0.  1.
<scales pt_clust_3="31.68438" pt_clust_4="75.64064" pt_clust_5="168.41313" pt_clust_6="75.64064"></scales>
<clustering>
<clus scale="   31.684">  2  3  1 -1</clus>
<clus scale="   75.641">  4  6 -1 -1</clus>
<clus scale="  168.413">  2  5  1 -1</clus>
<clus scale="  188.357">  1  3  2 -1</clus>
</clustering>
</event>
<event>
 6    0  0.4582113E+002  0.1751923E+03  0.7546771E-02  0.1172539E+00
         21   -1    0    0  504  501  0.00000000000E+00  0.00000000000E+00  0.11726923667E+03  0.11726923667E+03  0.00000000000E+00 0.  1.
         21   -1    0    0  505  502 -0.00000000000E+00 -0.00000000000E+00 -0.58068000748E+03  0.58068000748E+03  0.00000000000E+00 0.  1.
         21    1    1    2  503  501 -0.28442247109E+02 -0.42420711737E+02 -0.14409502837E+02  0.53067051708E+02  0.00000000000E+00 0.  1.
         21    1    1    2  504  506  0.41678121700E+02 -0.12716693374E+02  0.26690258941E+02  0.51099413315E+02  0.00000000000E+00 0.  1.
         21    1    1    2  505  503  0.15509013163E+03 -0.42009885474E+02 -0.20215505189E+03  0.25823331391E+03  0.00000000000E+00 0.  1.
         21    1    1    2  506  502 -0.16832600622E+03  0.97147290585E+02 -0.27353647503E+03  0.33554946522E+03  0.00000000000E+00 0.  1.
<scales pt_clust_3="49.04434" pt_clust_4="43.57499" pt_clust_5="175.19231" pt_clust_6="14000.00000"></scales>
<clustering>
<clus scale="   43.575">  1  4  2 -1</clus>
<clus scale="   49.044">  1  3  2 -1</clus>
<clus scale="  175.192">  2  5  1 -1</clus>
<clus scale="   43.575">  1  3  2 -1</clus>
</clustering>
</event>
<event>
 6    0  0.4582113E+002  0.1370826E+03  0.7546771E-02  0.1217309E+00
         21   -1    0    0  504  501  0.00000000000E+00  0.00000000000E+00  0.16760313666E+04  0.16760313666E+04  0.00000000000E+00 0. -1.
         21   -1    0    0  503  502 -0.00000000000E+00 -0.00000000000E+00 -0.62585806968E+02  0.62585806968E+02  0.00000000000E+00 0. -1.
         21    1    1    2  503  505  0.39392949016E+02 -0.68334802346E+02  0.40740310041E+03  0.41496835526E+03  0.00000000000E+00 0. -1.
         21    1    1    2  504  506 -0.35749877396E+02 -0.21132469304E+02  0.10255052446E+04  0.10263457710E+04  0.00000000000E+00 0. -1.
         21    1    1    2  505  501 -0.89796525328E+01 -0.42150285583E+02  0.15786330167E+03  0.16364016240E+03  0.00000000000E+00 0. -1.
         21    1    1    2  506  502  0.53365809136E+01  0.13161755723E+03  0.22673912947E+02  0.13366288489E+03  0.00000000000E+00 0. -1.
<scales pt_clust_3="34.11259" pt_clust_4="41.52872" pt_clust_5="34.11259" pt_clust_6="129.08077"></scales>
<clustering>
<clus scale="   34.113">  3  5 -1 -1</clus>
<clus scale="   41.529">  1  4  2 -1</clus>
<clus scale="  129.081">  2  6  1 -1</clus>
<clus scale="   41.529">  1  3  2 -1</clus>
</clustering>
</event>
<event>
 6    0  0.4582113E+002  0.1354532E+03  0.7546771E-02  0.1219581E+00
         21   -1    0    0  506  501  0.00000000000E+00  0.00000000000E+00  0.94529085201E+03  0.94529085201E+03  0.00000000000E+00 0. -1.
         21   -1    0    0  505  502 -0.00000000000E+00 -0.00000000000E+00 -0.14109680133E+04  0.14109680133E+04  0.00000000000E+00 0. -1.
         21    1    1    2  503  502  0.64375458523E+02 -0.15562183076E+02 -0.10264149830E+04  0.10285495119E+04  0.00000000000E+00 0. -1.
         21    1    1    2  504  503 -0.19038328241E+03  0.64068047949E+02 -0.34906940591E+03  0.40274056057E+03  0.00000000000E+00 0. -1.
         21    1    1    2  505  501  0.75952965480E+02 -0.63422573881E+02  0.75792152279E+03  0.76435352459E+03  0.00000000000E+00 0. -1.
         21    1    1    2  506  504  0.50054858411E+02  0.14916709008E+02  0.15188570481E+03  0.16061526821E+03  0.00000000000E+00 0. -1.
<scales pt_clust_3="66.29084" pt_clust_4="135.45324" pt_clust_5="14000.00000" pt_clust_6="52.23023"></scales>
<clustering>
<clus scale="   52.230">  1  6  2 -1</clus>
<clus scale="   66.291">  2  3  1 -1</clus>
<clus scale="  135.453">  2  4  1 -1</clus>
<clus scale="   52.230">  1  3  2 -1</clus>
</clustering>
</event>
<event>
 6    0  0.4582113E+002  0.1351799E+03  0.7546771E-02  0.1219966E+00
         21   -1    0    0  504  501  0.00000000000E+00  0.00000000000E+00  0.53887764247E+03  0.53887764247E+03  0.00000000000E+00 0.  1.
         21   -1    0    0  503  502 -0.00000000000E+00 -0.00000000000E+00 -0.23343207285E+04  0.23343207285E+04  0.00000000000E+00 0. -1.
         21    1    1    2  503  505  0.51178947416E+01  0.17011969940E+03 -0.21885326418E+04  0.21951405489E+04  0.00000000000E+00 0. -1.
         21    1    1    2  504  506 -0.26335776523E+02 -0.94536412727E+02  0.47091055773E+03  0.48102750424E+03  0.00000000000E+00 0.  1.
         21    1    1    2  505  501  0.25998553034E+02 -0.40795415214E+02  0.46949610917E+02  0.67412585083E+02  0.00000000000E+00 0.  1.
         21    1    1    2  506  502 -0.47806712524E+01 -0.34787871456E+02 -0.12477061290E+03  0.12961773282E+03  0.00000000000E+00 0.  1.
<scales pt_clust_3="135.17988" pt_clust_4="14000.00000" pt_clust_5="48.49972" pt_clust_6="35.11482"></scales>
<clustering>
<clus scale="   35.115">  2  6  1 -1</clus>
<clus scale="   48.500">  1  5  2 -1</clus>
<clus scale="  135.180">  2  3  1 -1</clus>
<clus scale="   48.500">  1  3  2 -1</clus>
</clustering>
</event>
<event>
 6    0  0.4582113E+002  0.1091262E+03  0.7546771E-02  0.1262197E+00
         21   -1    0    0  506  501  0.00000000000E+00  0.00000000000E+00  0.48382624578E+03  0.48382624578E+03  0.00000000000E+00 0. -1.
         21   -1    0    0  505  502 -0.00000000000E+00 -0.00000000000E+00 -0.46972177681E+03  0.46972177681E+03  0.00000000000E+00 0. -1.
         21    1    1    2  503  502  0.38344556887E+02  0.24564274749E+02 -0.45014297287E+00  0.45540215914E+02  0.00000000000E+00 0.  1.
         21    1    1    2  504  503 -0.59345588841E+02  0.95522256919E+02  0.13433388773E+03  0.17519130650E+03  0.00000000000E+00 0. -1.
         21    1    1    2  505  501  0.80808201072E+02 -0.29053659659E+02 -0.41205335740E+03  0.42090622453E+03  0.00000000000E+00 0. -1.
         21    1    1    2  506  504 -0.59807169118E+02 -0.91032872009E+02  0.29227408162E+03  0.31191027564E+03  0.00000000000E+00 0. -1.
<scales pt_clust_3="45.53799" pt_clust_4="14000.00000" pt_clust_5="109.12624" pt_clust_6="108.00828"></scales>
<clustering>
<clus scale="   45.538">  2  3  1 -1</clus>
<clus scale="  108.008">  1  6  2 -1</clus>
<clus scale="  109.126">  2  5  1 -1</clus>
<clus scale="  108.008">  1  3  2 -1</clus>
</clustering>
</event>
<event>
 6    0  0.4582113E+002  0.1193157E+03  0.7546771E-02  0.1244230E+00
         21   -1    0    0  503  501  0.00000000000E+00  0.00000000000E+00  0.36500826621E+03  0.36500826621E+03  0.00000000000E+00 0.  1.
         21   -1    0    0  506  502 -0.00000000000E+00 -0.00000000000E+00 -0.33817094488E+03  0.33817094488E+03  0.00000000000E+00 0. -1.
         21    1    1    2  503  502  0.30914662338E+02 -0.71814890160E+02  0.20479241355E+03  0.21921000763E+03  0.00000000000E+00 0.  1.
         21    1    1    2  504  501 -0.30368032228E+02  0.25284440387E+01  0.51524278809E+02  0.59861187071E+02  0.00000000000E+00 0. -1.
         21    1    1    2  505  504  0.85982512168E+02 -0.22251768263E+02  0.60829895633E+02  0.10764947651E+03  0.00000000000E+00 0.  1.
         21    1    1    2  506  505 -0.86529142277E+02  0.91538214384E+02 -0.29030926666E+03  0.31645853988E+03  0.00000000000E+00 0. -1.
<scales pt_clust_3="70.80609" pt_clust_4="30.47311" pt_clust_5="119.31571" pt_clust_6="14000.00000"></scales>
<clustering>
<clus scale="   30.473">  1  4  2 -1</clus>
<clus scale="   70.806">  1  3  2 -1</clus>
<clus scale="  119.316">  1  5  2 -1</clus>
<clus scale="   30.473">  1  3  2 -1</clus>
</clustering>
</event>
<event>
 6    0  0.4582113E+002  0.1495415E+03  0.7546771E-02  0.1201037E+00
         21   -1    0    0  506  501  0.00000000000E+00  0.00000000000E+00  0.51224657078E+02  0.51224657078E+02  0.00000000000E+00 0. -1.
         21   -1    0    0  504  502 -0.00000000000E+00 -0.00000000000E+00 -0.98456042045E+03  0.98456042045E+03  0.00000000000E+00 0.  1.
         21    1    1    2  503  505  0.55195362140E+02  0.89007363722E+02 -0.69110962943E+02  0.12547973541E+03  0.00000000000E+00 0. -1.
         21    1    1    2  504  503 -0.18584451449E+01 -0.45934477820E+02 -0.30631407719E+03  0.30974464314E+03  0.00000000000E+00 0.  1.
         21    1    1    2  505  501  0.49737217057E+02  0.10495366145E+02 -0.27932893684E+02  0.58001638086E+02  0.00000000000E+00 0.  1.
         21    1    1    2  506  502 -0.10307413405E+03 -0.53568252047E+02 -0.52997782956E+03  0.54255906090E+03  0.00000000000E+00 0.  1.
<scales pt_clust_3="40.24027" pt_clust_4="45.97206" pt_clust_5="40.24027" pt_clust_6="137.93625"></scales>
<clustering>
<clus scale="   40.240">  3  5 -1 -1</clus>
<clus scale="   45.972">  2  4  1 -1</clus>
<clus scale="  137.936">  2  6  1 -1</clus>
<clus scale="  149.542">  1  3  2 -1</clus>
</clustering>
</event>
<event>
 6    0  0.4582113E+002  0.9704374E+02  0.7546771E-02  0.1286638E+00
         21   -1    0    0  504  501  0.00000000000E+00  0.00000000000E+00  0.38866010870E+04  0.38866010870E+04  0.00000000000E+00 0.  1.
         21   -1    0    0  506  502 -0.00000000000E+00 -0.00000000000E+00 -0.14475869919E+02  0.14475869919E+02  0.00000000000E+00 0.  1.
         21    1    1    2  503  501 -0.95671982032E+02  0.36990460556E+02  0.19311768181E+04  0.19338989956E+04  0.00000000000E+00 0.  1.
         21    1    1    2  504  502  0.97009247640E+02  0.18844292149E+02  0.14225730711E+04  0.14260014180E+04  0.00000000000E+00 0.  1.
         21    1    1    2  505  503  0.40256134319E+02 -0.53652608505E+02  0.47960865492E+03  0.48427638867E+03  0.00000000000E+00 0.  1.
         21    1    1    2  506  505 -0.41593399927E+02 -0.21821441996E+01  0.38766672952E+02  0.56900154680E+02  0.00000000000E+00 0.  1.
<scales pt_clust_3="14000.00000" pt_clust_4="97.04374" pt_clust_5="58.97670" pt_clust_6="41.65060"></scales>
<clustering>
<clus scale="   41.651">  2  6  1 -1</clus>
<clus scale="   58.977">  2  5  1 -1</clus>
<clus scale="   97.044">  2  4  1 -1</clus>
<clus scale="   97.044">  1  3  2 -1</clus>
</clustering>
</event>
<event>
 6    0  0.4582113E+002  0.1426343E+03  0.7546771E-02  0.1209828E+00
         21   -1    0    0  503  501  0.00000000000E+00  0.00000000000E+00  0.30246298952E+04  0.30246298952E+04  0.00000000000E+00 0. -1.
         21   -1    0    0  504  502 -0.00000000000E+00 -0.00000000000E+00 -0.14302181708E+03  0.14302181708E+03  0.00000000000E+00 0. -1.
         21    1    1    2  503  505  0.65466138569E+01 -0.47661781500E+02  0.17186541597E+04  0.17193273755E+04  0.00000000000E+00 0. -1.
         21    1    1    2  504  501 -0.32233907771E+02  0.13114756269E+02  0.45389218582E+02  0.57194429848E+02  0.00000000000E+00 0. -1.
         21    1    1    2  505  506  0.42786043718E+02 -0.90077506638E+02  0.12229610426E+04  0.12270200954E+04  0.00000000000E+00 0. -1.
         21    1    1    2  506  502 -0.17098749804E+02  0.12462453187E+03 -0.10539634274E+03  0.16410981156E+03  0.00000000000E+00 0. -1.
<scales pt_clust_3="48.06668" pt_clust_4="34.79974" pt_clust_5="14000.00000" pt_clust_6="142.63430"></scales>
<clustering>
<clus scale="   34.800">  2  4  1 -1</clus>
<clus scale="   48.067">  1  3  2 -1</clus>
<clus scale="  142.634">  2  6  1 -1</clus>
<clus scale="   48.067">  1  3  2 -1</clus>
</clustering>
</event>
<event>
 6    0  0.4582113E+002  0.2297833E+03  0.7546771E-02  0.1126792E+00
         21   -1    0    0  505  501  0.00000000000E+00  0.00000000000E+00  0.18377577290E+03  0.18377577290E+03  0.00000000000E+00 0.  1.
         21   -1    0    0  503  502 -0.00000000000E+00 -0.00000000000E+00 -0.12789524193E+04  0.12789524193E+04  0.00000000000E+00 0.  1.
         21    1    1    2  503  506  0.63409502126E+01  0.50352128807E+02  0.35169076213E+02  0.61744703795E+02  0.00000000000E+00 0.  1.
         21    1    1    2  504  502  0.21819207768E+03  0.62807599576E+02 -0.10452501459E+04  0.10696263108E+04  0.00000000000E+00 0.  1.
         21    1    1    2  505  504 -0.21272839449E+03 -0.16150330784E+03 -0.88777607425E+02  0.28145719363E+03  0.00000000000E+00 0.  1.
         21    1    1    2  506  501 -0.11804633403E+02  0.48343579460E+02  0.36820307276E+01  0.49899983918E+02  0.00000000000E+00 0.  1.
<scales pt_clust_3="104.66675" pt_clust_4="14000.00000" pt_clust_5="229.78327" pt_clust_6="34.07967"></scales>
<clustering>
<clus scale="   34.080">  3  6 -1 -1</clus>
<clus scale="  104.667">  1  3  2 -1</clus>
<clus scale="  229.783">  1  5  2 -1</clus>
<clus scale="  104.667">  1  3  2 -1</clus>
</clustering>
</event>
<event>
 6    0  0.4582113E+002  0.1116852E+03  0.7546771E-02  0.1257481E+00
         21   -1    0    0  504  501  0.00000000000E+00  0.00000000000E+00  0.21297743684E+03  0.21297743684E+03  0.00000000000E+00 0. -1.
         21   -1    0    0  503  502 -0.00000000000E+00 -0.00000000000E+00 -0.11158728682E+03  0.11158728682E+03  0.00000000000E+00 0. -1.
         21    1    1    2  503  505 -0.48489025654E+02 -0.31002773718E+02 -0.13684747915E+02  0.59157669939E+02  0.00000000000E+00 0. -1.
         21    1    1    2  504  506  0.64007158822E+02  0.70459655520E+02  0.10408651130E+03  0.14105134268E+03  0.00000000000E+00 0. -1.
         21    1    1    2  505  501 -0.58145200083E+02 -0.27697901039E+02  0.35763846645E+02  0.73668790824E+02  0.00000000000E+00 0. -1.
         21    1    1    2  506  502  0.42627066915E+02 -0.11758980764E+02 -0.24775460019E+02  0.50686920221E+02  0.00000000000E+00 0.  1.
<scales pt_clust_3="43.66908" pt_clust_4="100.67189" pt_clust_5="43.66908" pt_clust_6="44.21923"></scales>
<clustering>
<clus scale="   44.219">  2  6  1 -1</clus>
<clus scale="   43.669">  3  5 -1 -1</clus>
<clus scale="  100.672">  1  4  2 -1</clus>
<clus scale="  100.672">  1  3  2 -1</clus>
</clustering>
</event>
<event>
 6    0  0.4582113E+002  0.1721047E+03  0.7546771E-02  0.1175671E+00
         21   -1    0    0  504  501  0.00000000000E+00  0.00000000000E+00  0.46087060708E+03  0.46087060708E+03  0.00000000000E+00 0. -1.
         21   -1    0    0  505  502 -0.00000000000E+00 -0.00000000000E+00 -0.26821154135E+03  0.26821154135E+03  0.00000000000E+00 0. -1.
         21    1    1    2  503  506 -0.68978651436E+01 -0.66362060937E+02  0.23924236297E+03  0.24837151993E+03  0.00000000000E+00 0. -1.
         21    1    1    2  504  503 -0.30566009455E+02 -0.15996300312E+02  0.77970521104E+02  0.85261742410E+02  0.00000000000E+00 0. -1.
         21    1    1    2  505  501 -0.13970781510E+03 -0.52424344740E+02 -0.76591619344E+02  0.16772853566E+03  0.00000000000E+00 0. -1.
         21    1    1    2  506  502  0.17717168970E+03  0.13478270599E+03 -0.47962198995E+02  0.22772035042E+03  0.00000000000E+00 0. -1.
<scales pt_clust_3="81.11282" pt_clust_4="34.49873" pt_clust_5="14000.00000" pt_clust_6="172.10467"></scales>
<clustering>
<clus scale="   34.499">  1  4  2 -1</clus>
<clus scale="   81.113">  1  3  2 -1</clus>
<clus scale="  172.105">  1  6  2 -1</clus>
<clus scale="   34.499">  1  3  2 -1</clus>
</clustering>
</event>
<event>
 6    0  0.4582113E+002  0.1368883E+03  0.7546771E-02  0.1217578E+00
         21   -1    0    0  504  501  0.00000000000E+00  0.00000000000E+00  0.67551915934E+03  0.67551915934E+03  0.00000000000E+00 0. -1.
         21   -1    0    0  506  502 -0.00000000000E+00 -0.00000000000E+00 -0.71694682966E+02  0.71694682966E+02  0.00000000000E+00 0. -1.
         21    1    1    2  503  502 -0.85646286269E+01 -0.32763825434E+02 -0.23029027940E+02  0.40953110364E+02  0.00000000000E+00 0.  1.
         21    1    1    2  504  503  0.10870697665E+03  0.69929477981E+02  0.54526517806E+03  0.56037617103E+03  0.00000000000E+00 0. -1.
         21    1    1    2  505  501 -0.29552096567E+02 -0.33709644192E+02  0.11350751420E+02  0.46243984267E+02  0.00000000000E+00 0. -1.
         21    1    1    2  506  505 -0.70590251454E+02 -0.34560083545E+01  0.70237574834E+02  0.99640576637E+02  0.00000000000E+00 0. -1.
<scales pt_clust_3="33.86475" pt_clust_4="124.58940" pt_clust_5="49.96090" pt_clust_6="49.96090"></scales>
<clustering>
<clus scale="   33.865">  2  3  1 -1</clus>
<clus scale="   49.961">  5  6 -1 -1</clus>
<clus scale="  124.589">  1  4  2 -1</clus>
<clus scale="  124.589">  1  3  2 -1</clus>
</clustering>
</event>
<event>
 6    0  0.4582113E+002  0.8122435E+02  0.7546771E-02  0.1325612E+00
         21   -1    0    0  503  501  0.00000000000E+00  0.00000000000E+00  0.91577671411E+02  0.91577671411E+02  0.00000000000E+00 0.  1.
         21   -1    0    0  504  502 -0.00000000000E+00 -0.00000000000E+00 -0.35780346373E+03  0.35780346373E+03  0.00000000000E+00 0.  1.
         21    1    1    2  503  505 -0.22734493745E+02  0.21844412082E+02  0.12109752113E+02  0.33773978760E+02  0.00000000000E+00 0. -1.
         21    1    1    2  504  501  0.13165740912E+02  0.72224421769E+02 -0.19382006002E+03  0.20725809876E+03  0.00000000000E+00 0.  1.
         21    1    1    2  505  506  0.51678230777E+01  0.47208696823E+02 -0.33334673938E+02  0.58022133170E+02  0.00000000000E+00 0.  1.
         21    1    1    2  506  502  0.44009297546E+01 -0.14127753067E+03 -0.51180810477E+02  0.15032692446E+03  0.00000000000E+00 0.  1.
<scales pt_clust_3="31.52833" pt_clust_4="81.22435" pt_clust_5="51.14867" pt_clust_6="14000.00000"></scales>
<clustering>
<clus scale="   31.528">  1  3  2 -1</clus>
<clus scale="   51.149">  1  5  2 -1</clus>
<clus scale="   81.224">  2  4  1 -1</clus>
<clus scale="   31.528">  1  3  2 -1</clus>
</clustering>
</event>
<event>
 6    0  0.4582113E+002  0.1267784E+03  0.7546771E-02  0.1232316E+00
         21   -1    0    0  503  501  0.00000000000E+00  0.00000000000E+00  0.22394324571E+04  0.22394324571E+04  0.00000000000E+00 0. -1.
         21   -1    0    0  504  502 -0.00000000000E+00 -0.00000000000E+00 -0.69511645400E+03  0.69511645400E+03  0.00000000000E+00 0.  1.
         21    1    1    2  503  506  0.85967343736E+02  0.25113663924E+02  0.13338027715E+04  0.13368062363E+04  0.00000000000E+00 0. -1.
         21    1    1    2  504  501 -0.62888054088E+02 -0.34126763067E+02 -0.66272621445E+03  0.66657751134E+03  0.00000000000E+00 0.  1.
         21    1    1    2  505  502 -0.53585380171E+02  0.22903788361E+02  0.10017365342E+01  0.58283616613E+02  0.00000000000E+00 0. -1.
         21    1    1    2  506  505  0.30506090522E+02 -0.13890689218E+02  0.87223770958E+03  0.87288154685E+03  0.00000000000E+00 0. -1.
<scales pt_clust_3="30.05480" pt_clust_4="116.87298" pt_clust_5="58.27501" pt_clust_6="30.05480"></scales>
<clustering>
<clus scale="   30.055">  3  6 -1 -1</clus>
<clus scale="   58.275">  2  5  1 -1</clus>
<clus scale="  116.873">  2  4  1 -1</clus>
<clus scale="  126.778">  1  3  2 -1</clus>
</clustering>
</event>
<event>
 6    0  0.4582113E+002  0.1238364E+03  0.7546771E-02  0.1236899E+00
         21   -1    0    0  503  501  0.00000000000E+00  0.00000000000E+00  0.40032883341E+02  0.40032883341E+02  0.00000000000E+00 0. -1.
         21   -1    0    0  501  502 -0.00000000000E+00 -0.00000000000E+00 -0.61072951095E+03  0.61072951095E+03  0.00000000000E+00 0. -1.
         21    1    1    2  503  504  0.30419264560E+02 -0.41021871839E+02 -0.48409148309E+02  0.70367402009E+02  0.00000000000E+00 0. -1.
         21    1    1    2  504  505 -0.17326990659E+02 -0.82594974785E+02 -0.85104349975E+02  0.11985368100E+03  0.00000000000E+00 0. -1.
         21    1    1    2  505  506 -0.30119203802E+02  0.90308979317E+02 -0.21365294515E+03  0.23390267026E+03  0.00000000000E+00 0. -1.
         21    1    1    2  506  502  0.17026929900E+02  0.33307867307E+02 -0.22353018417E+03  0.22663864102E+03  0.00000000000E+00 0. -1.
<scales pt_clust_3="43.51920" pt_clust_4="43.51920" pt_clust_5="111.48892" pt_clust_6="37.40762"></scales>
<clustering>
<clus scale="   37.408">  2  6  1 -1</clus>
<clus scale="   43.519">  3  4 -1 -1</clus>
<clus scale="  111.489">  2  5  1 -1</clus>
<clus scale="  123.836">  1  3  2 -1</clus>
</clustering>
</event>
<event>
 6    0  0.4582113E+002  0.1064855E+03  0.7546771E-02  0.1267220E+00
         21   -1    0    0  504  501  0.00000000000E+00  0.00000000000E+00  0.25356405131E+02  0.25356405131E+02  0.00000000000E+00 0. -1.
         21   -1    0    0  503  502 -0.00000000000E+00 -0.00000000000E+00 -0.23375210110E+04  0.23375210110E+04  0.00000000000E+00 0. -1.
         21    1    1    2  503  506  0.14134616875E+01 -0.34998716594E+02 -0.19162778692E+03  0.19480276373E+03  0.00000000000E+00 0. -1.
         21    1    1    2  504  502  0.10995584837E+03  0.41630172353E+02 -0.19618236663E+04  0.19653435979E+04  0.00000000000E+00 0. -1.
         21    1    1    2  505  501 -0.26952808427E+02 -0.27399735829E+02 -0.38726616874E+02  0.54561435650E+02  0.00000000000E+00 0. -1.
         21    1    1    2  506  505 -0.84416501635E+02  0.20768280071E+02 -0.11998653575E+03  0.14816961891E+03  0.00000000000E+00 0. -1.
<scales pt_clust_3="35.02725" pt_clust_4="14000.00000" pt_clust_5="38.95949" pt_clust_6="106.48546"></scales>
<clustering>
<clus scale="   35.027">  2  3  1 -1</clus>
<clus scale="   38.959">  1  5  2 -1</clus>
<clus scale="  106.485">  1  6  2 -1</clus>
<clus scale="   38.959">  1  3  2 -1</clus>
</clustering>
</event>
<event>
 6    0  0.4582113E+002  0.1299957E+03  0.7546771E-02  0.1227462E+00
         21   -1    0    0  505  501  0.00000000000E+00  0.00000000000E+00  0.25241145072E+02  0.25241145072E+02  0.00000000000E+00 0.  1.
         21   -1    0    0  504  502 -0.00000000000E+00 -0.00000000000E+00 -0.15137735697E+04  0.15137735697E+04  0.00000000000E+00 0.  1.
         21    1    1    2  503  506  0.36683198974E+01  0.54810059183E+02 -0.13391151015E+03  0.14474077418E+03  0.00000000000E+00 0.  1.
         21    1    1    2  504  501 -0.72989178541E+02 -0.11657258900E+03 -0.65153990123E+03  0.66589851448E+03  0.00000000000E+00 0.  1.
         21    1    1    2  505  503  0.25578403210E+02  0.61406100402E+02 -0.81248129719E+02  0.10500582108E+03  0.00000000000E+00 0.  1.
         21    1    1    2  506  502  0.43742455434E+02  0.35642941557E+00 -0.62183288352E+03  0.62336960503E+03  0.00000000000E+00 0.  1.
<scales pt_clust_3="37.66737" pt_clust_4="123.21024" pt_clust_5="37.66737" pt_clust_6="43.74391"></scales>
<clustering>
<clus scale="   37.667">  3  5 -1 -1</clus>
<clus scale="   43.744">  2  6  1 -1</clus>
<clus scale="  123.210">  2  4  1 -1</clus>
<clus scale="  129.996">  1  3  2 -1</clus>
</clustering>
</event>
<event>
 6    0  0.4582113E+002  0.1192029E+03  0.7546771E-02  0.1244418E+00
         21   -1    0    0  505  501  0.00000000000E+00  0.00000000000E+00  0.68435262803E+03  0.68435262803E+03  0.00000000000E+00 0.  1.
         21   -1    0    0  506  502 -0.00000000000E+00 -0.00000000000E+00 -0.15537838298E+03  0.15537838298E+03  0.00000000000E+00 0. -1.
         21    1    1    2  503  502  0.30442065701E+02  0.79780647735E+02  0.28257161262E+02  0.89945195979E+02  0.00000000000E+00 0. -1.
         21    1    1    2  504  501  0.24228409471E+02  0.31948121738E+02  0.16168144067E+03  0.16657907001E+03  0.00000000000E+00 0.  1.
         21    1    1    2  505  503 -0.29541699848E+02  0.30836415307E+02  0.41672994685E+03  0.41891221651E+03  0.00000000000E+00 0.  1.
         21    1    1    2  506  504 -0.25128775325E+02 -0.14256518478E+03 -0.77694303739E+02  0.16429452850E+03  0.00000000000E+00 0. -1.
<scales pt_clust_3="119.20294" pt_clust_4="40.09611" pt_clust_5="57.38845" pt_clust_6="14000.00000"></scales>
<clustering>
<clus scale="   40.096">  1  4  2 -1</clus>
<clus scale="   57.388">  1  5  2 -1</clus>
<clus scale="  119.203">  1  3  2 -1</clus>
<clus scale="   40.096">  1  3  2 -1</clus>
</clustering>
</event>
<event>
 6    0  0.4582113E+002  0.1751901E+03  0.7546771E-02  0.1172541E+00
         21   -1    0    0  505  501  0.00000000000E+00  0.00000000000E+00  0.65304898914E+02  0.65304898914E+02  0.00000000000E+00 0.  1.
         21   -1    0    0  503  502 -0.00000000000E+00 -0.00000000000E+00 -0.13080600608E+04  0.13080600608E+04  0.00000000000E+00 0.  1.
         21    1    1    2  503  506  0.47064689574E+02  0.87602581483E+02 -0.52615736994E+03  0.53547257187E+03  0.00000000000E+00 0.  1.
         21    1    1    2  504  502  0.13286921740E+02 -0.63049010190E+02 -0.65183718328E+02  0.91654989555E+02  0.00000000000E+00 0.  1.
         21    1    1    2  505  504  0.62604014908E+02 -0.99199073878E+02 -0.49402957764E+02  0.12728067873E+03  0.00000000000E+00 0.  1.
         21    1    1    2  506  501 -0.12295562622E+03  0.74645502585E+02 -0.60201111583E+03  0.61895671953E+03  0.00000000000E+00 0.  1.
<scales pt_clust_3="99.44495" pt_clust_4="38.64532" pt_clust_5="38.64532" pt_clust_6="167.25050"></scales>
<clustering>
<clus scale="   38.645">  4  5 -1 -1</clus>
<clus scale="   99.445">  2  3  1 -1</clus>
<clus scale="  167.250">  2  6  1 -1</clus>
<clus scale="  175.190">  1  3  2 -1</clus>
</clustering>
</event>
<event>
 6    0  0.4582113E+002  0.1039235E+03  0.7546771E-02  0.1272255E+00
         21   -1    0    0  504  501  0.00000000000E+00  0.00000000000E+00  0.27193596018E+03  0.27193596018E+03  0.00000000000E+00 0. -1.
         21   -1    0    0  503  502 -0.00000000000E+00 -0.00000000000E+00 -0.62543320406E+03  0.62543320406E+03  0.00000000000E+00 0. -1.
         21    1    1    2  503  506 -0.23835168286E+02  0.67428048771E+02 -0.10679003978E+03  0.12852536561E+03  0.00000000000E+00 0. -1.
         21    1    1    2  504  502 -0.36198674175E+02 -0.18510860789E+02 -0.45080917904E+03  0.45263883162E+03  0.00000000000E+00 0. -1.
         21    1    1    2  505  501 -0.75635772266E+02  0.31907603805E+02  0.86915973239E+02  0.11955438775E+03  0.00000000000E+00 0.  1.
         21    1    1    2  506  505  0.13566961473E+03 -0.80824791786E+02  0.11718600170E+03  0.19665057926E+03  0.00000000000E+00 0. -1.
<scales pt_clust_3="73.15044" pt_clust_4="40.65705" pt_clust_5="103.92348" pt_clust_6="14000.00000"></scales>
<clustering>
<clus scale="   40.657">  2  4  1 -1</clus>
<clus scale="   73.150">  2  3  1 -1</clus>
<clus scale="  103.923">  1  5  2 -1</clus>
<clus scale="  103.923">  1  3  2 -1</clus>
</clustering>
</event>
<event>
 6    0  0.4582113E+002  0.8568339E+02  0.7546771E-02  0.1313655E+00
         21   -1    0    0  506  501  0.00000000000E+00  0.00000000000E+00  0.22552780541E+03  0.22552780541E+03  0.00000000000E+00 0. -1.
         21   -1    0    0  505  502 -0.00000000000E+00 -0.00000000000E+00 -0.28904500887E+03  0.28904500887E+03  0.00000000000E+00 0. -1.
         21    1    1    2  503  502 -0.19966574780E+02  0.56452336960E+02  0.72932740124E+00  0.59883740491E+02  0.00000000000E+00 0. -1.
         21    1    1    2  504  501 -0.27794842675E+02 -0.19510095739E+02  0.40458906974E+02  0.52821589038E+02  0.00000000000E+00 0.  1.
         21    1    1    2  505  504 -0.55014404772E+01 -0.94625314454E+02 -0.23295156578E+03  0.25149681505E+03  0.00000000000E+00 0. -1.
         21    1    1    2  506  503  0.53262857932E+02  0.57683073233E+02  0.12824612794E+03  0.15037066970E+03  0.00000000000E+00 0. -1.
<scales pt_clust_3="85.68339" pt_clust_4="33.95876" pt_clust_5="14000.00000" pt_clust_6="52.96267"></scales>
<clustering>
<clus scale="   33.959">  1  4  2 -1</clus>
<clus scale="   52.963">  1  6  2 -1</clus>
<clus scale="   85.683">  1  3  2 -1</clus>
<clus scale="   33.959">  1  3  2 -1</clus>
</clustering>
</event>
<event>
 6    0  0.4582113E+002  0.8771803E+02  0.7546771E-02  0.1308474E+00
         21   -1    0    0  504  501  0.00000000000E+00  0.00000000000E+00  0.36739428586E+03  0.36739428586E+03  0.00000000000E+00 0. -1.
         21   -1    0    0  505  502 -0.00000000000E+00 -0.00000000000E+00 -0.13193230595E+04  0.13193230595E+04  0.00000000000E+00 0. -1.
         21    1    1    2  503  501 -0.43269662261E+02 -0.76601742943E+02  0.24683533412E+03  0.26204536413E+03  0.00000000000E+00 0. -1.
         21    1    1    2  504  506 -0.26541476083E+02  0.72353437145E+02 -0.24435794566E+03  0.25622309698E+03  0.00000000000E+00 0. -1.
         21    1    1    2  505  503  0.10010140756E+03  0.36083910890E+02  0.79990295829E+02  0.13311944954E+03  0.00000000000E+00 0. -1.
         21    1    1    2  506  502 -0.30290269213E+02 -0.31835605092E+02 -0.10343964579E+04  0.10353294347E+04  0.00000000000E+00 0. -1.
<scales pt_clust_3="87.71803" pt_clust_4="69.25122" pt_clust_5="14000.00000" pt_clust_6="43.94322"></scales>
<clustering>
<clus scale="   43.943">  2  6  1 -1</clus>
<clus scale="   69.251">  2  4  1 -1</clus>
<clus scale="   87.718">  1  3  2 -1</clus>
<clus scale="   87.718">  1  3  2 -1</clus>
</clustering>
</event>
<event>
 6    0  0.4582113E+002  0.6849057E+02  0.7546771E-02  0.1365302E+00
         21   -1    0    0  505  501  0.00000000000E+00  0.00000000000E+00  0.15441191723E+03  0.15441191723E+03  0.00000000000E+00 0. -1.
         21   -1    0    0  503  502 -0.00000000000E+00 -0.00000000000E+00 -0.14693187708E+03  0.14693187708E+03  0.00000000000E+00 0. -1.
         21    1    1    2  503  504 -0.63542004527E+02  0.31893004714E+02 -0.47817504319E+02  0.85681175344E+02  0.00000000000E+00 0. -1.
         21    1    1    2  504  501 -0.56420502164E+02  0.25700724928E+01  0.29803199910E+02  0.63860074083E+02  0.00000000000E+00 0. -1.
         21    1    1    2  505  506  0.47791538705E+02 -0.46909188508E+02  0.38759757694E+02  0.77374556249E+02  0.00000000000E+00 0. -1.
         21    1    1    2  506  502  0.72170967986E+02  0.12446111301E+02 -0.13265413141E+02  0.74427988636E+02  0.00000000000E+00 0. -1.
<scales pt_clust_3="68.49057" pt_clust_4="56.47901" pt_clust_5="48.71205" pt_clust_6="14000.00000"></scales>
<clustering>
<clus scale="   56.479">  1  4  2 -1</clus>
<clus scale="   48.712">  1  5  2 -1</clus>
<clus scale="   68.491">  2  3  1 -1</clus>
<clus scale="   56.479">  1  3  2 -1</clus>
</clustering>
</event>
<event>
 6    0  0.4582113E+002  0.6977493E+02  0.7546771E-02  0.1360860E+00
         21   -1    0    0  504  501  0.00000000000E+00  0.00000000000E+00  0.60387389456E+03  0.60387389456E+03  0.00000000000E+00 0. -1.
         21   -1    0    0  506  502 -0.00000000000E+00 -0.00000000000E+00 -0.15136361111E+03  0.15136361111E+03  0.00000000000E+00 0.  1.
         21    1    1    2  503  502 -0.19644761225E+02  0.65651305398E+02 -0.12310087634E+03  0.14088944708E+03  0.00000000000E+00 0.  1.
         21    1    1    2  504  503  0.64433428360E+02 -0.98130532098E+02  0.29487372888E+03  0.31738270904E+03  0.00000000000E+00 0. -1.
         21    1    1    2  505  501 -0.38079583357E+02 -0.10264896886E+02  0.21277219845E+03  0.21639646764E+03  0.00000000000E+00 0. -1.
         21    1    1    2  506  505 -0.67090837768E+01  0.42744123586E+02  0.67965232469E+02  0.80568881901E+02  0.00000000000E+00 0. -1.
<scales pt_clust_3="69.77493" pt_clust_4="14000.00000" pt_clust_5="39.43885" pt_clust_6="43.11322"></scales>
<clustering>
<clus scale="   39.439">  1  5  2 -1</clus>
<clus scale="   43.113">  1  6  2 -1</clus>
<clus scale="   69.775">  2  3  1 -1</clus>
<clus scale="   39.439">  1  3  2 -1</clus>
</clustering>
</event>
<event>
 6    0  0.4951436E+002  0.1207144E+03  0.7546771E-02  0.1241923E+00
         21   -1    0    0  505  501  0.00000000000E+00  0.00000000000E+00  0.42188764751E+03  0.42188764751E+03  0.00000000000E+00 0.  1.
         21   -1    0    0  506  502 -0.00000000000E+00 -0.00000000000E+00 -0.29394108356E+03  0.29394108356E+03  0.00000000000E+00 0.  1.
         21    1    1    2  503  501 -0.38622474729E+02  0.14734270873E+03  0.35431458580E+03  0.38566876342E+03  0.00000000000E+00 0.  1.
         21    1    1    2  504  502 -0.23294129834E+02 -0.50338554016E+02 -0.11253134945E+02  0.56596992422E+02  0.00000000000E+00 0.  1.
         21    1    1    2  505  504  0.23335300553E+02 -0.25353512348E+02  0.85933878505E+01  0.35513140597E+02  0.00000000000E+00 0.  1.
         21    1    1    2  506  503  0.38581304010E+02 -0.71650642365E+02 -0.22370827476E+03  0.23804983463E+03  0.00000000000E+00 0.  1.
<scales pt_clust_3="120.71438" pt_clust_4="56.24496" pt_clust_5="34.45775" pt_clust_6="14000.00000"></scales>
<clustering>
<clus scale="   34.458">  1  5  2 -1</clus>
<clus scale="   56.245">  2  4  1 -1</clus>
<clus scale="  120.714">  1  3  2 -1</clus>
<clus scale="   34.458">  1  3  2 -1</clus>
</clustering>
</event>
<event>
 6    0  0.4582113E+002  0.1300091E+03  0.7546771E-02  0.1227442E+00
         21   -1    0    0  503  501  0.00000000000E+00  0.00000000000E+00  0.62464918867E+03  0.62464918867E+03  0.00000000000E+00 0.  1.
         21   -1    0    0  506  502 -0.00000000000E+00 -0.00000000000E+00 -0.15676717844E+03  0.15676717844E+03  0.00000000000E+00 0.  1.
         21    1    1    2  503  502  0.30422008183E+02  0.38962692490E+02  0.11183208235E+03  0.12227021154E+03  0.00000000000E+00 0. -1.
         21    1    1    2  504  501 -0.53091306437E+02 -0.15209118440E+03  0.46449199412E+03  0.49163322487E+03  0.00000000000E+00 0.  1.
         21    1    1    2  505  504 -0.11955525660E+02  0.73977860829E+02 -0.70895613907E+02  0.10315932608E+03  0.00000000000E+00 0.  1.
         21    1    1    2  506  505  0.34624823914E+02  0.39150631079E+02 -0.37546452332E+02  0.64353604621E+02  0.00000000000E+00 0.  1.
<scales pt_clust_3="49.43268" pt_clust_4="117.95521" pt_clust_5="45.65783" pt_clust_6="45.65783"></scales>
<clustering>
<clus scale="   45.658">  5  6 -1 -1</clus>
<clus scale="   49.433">  1  3  2 -1</clus>
<clus scale="  117.955">  1  4  2 -1</clus>
<clus scale="   49.433">  1  3  2 -1</clus>
</clustering>
</event>
<event>
 6    0  0.4582113E+002  0.1180202E+03  0.7546771E-02  0.1246399E+00
         21   -1    0    0  504  501  0.00000000000E+00  0.00000000000E+00  0.16536740192E+04  0.16536740192E+04  0.00000000000E+00 0. -1.
         21   -1    0    0  506  502 -0.00000000000E+00 -0.00000000000E+00 -0.10073119924E+03  0.10073119924E+03  0.00000000000E+00 0. -1.
         21    1    1    2  503  501  0.36928259295E+02  0.31412436700E+02  0.10187938510E+04  0.10199467380E+04  0.00000000000E+00 0. -1.
         21    1    1    2  504  502  0.88909759910E+02  0.44349659178E+02 -0.17319910396E+01  0.99372216788E+02  0.00000000000E+00 0. -1.
         21    1    1    2  505  503  0.34799424569E+02  0.22474051313E+02  0.40180446095E+03  0.40393428645E+03  0.00000000000E+00 0. -1.
         21    1    1    2  506  505 -0.16063744377E+03 -0.98236147191E+02  0.13407649899E+03  0.23115197714E+03  0.00000000000E+00 0. -1.
<scales pt_clust_3="96.63130" pt_clust_4="118.02021" pt_clust_5="33.18737" pt_clust_6="14000.00000"></scales>
<clustering>
<clus scale="   33.187">  3  5 -1 -1</clus>
<clus scale="   96.631">  1  3  2 -1</clus>
<clus scale="  118.020">  2  4  1 -1</clus>
<clus scale="   96.631">  1  3  2 -1</clus>
</clustering>
</event>
<event>
 6    0  0.4582113E+002  0.7173137E+02  0.7546771E-02  0.1354302E+00
         21   -1    0    0  504  501  0.00000000000E+00  0.00000000000E+00  0.39620830940E+02  0.39620830940E+02  0.00000000000E+00 0. -1.
         21   -1    0    0  503  502 -0.00000000000E+00 -0.00000000000E+00 -0.59124909311E+03  0.59124909311E+03  0.00000000000E+00 0. -1.
         21    1    1    2  503  505  0.43908738735E+02  0.81562890860E+01 -0.12961167828E+03  0.13709007818E+03  0.00000000000E+00 0. -1.
         21    1    1    2  504  506 -0.23919615785E+02 -0.20826108330E+02 -0.36137345779E+02  0.48081000067E+02  0.00000000000E+00 0.  1.
         21    1    1    2  505  501  0.79403592912E+02  0.66401311391E+00 -0.46851092107E+02  0.92197593853E+02  0.00000000000E+00 0. -1.
         21    1    1    2  506  502 -0.99392715862E+02  0.12005806130E+02 -0.33902814600E+03  0.35350125195E+03  0.00000000000E+00 0. -1.
<scales pt_clust_3="41.66233" pt_clust_4="31.71553" pt_clust_5="71.73137" pt_clust_6="14000.00000"></scales>
<clustering>
<clus scale="   31.716">  1  4  2 -1</clus>
<clus scale="   41.662">  2  3  1 -1</clus>
<clus scale="   71.731">  1  5  2 -1</clus>
<clus scale="   31.716">  1  3  2 -1</clus>
</clustering>
</event>
<event>
 6    0  0.4582113E+002  0.8300412E+02  0.7546771E-02  0.1320736E+00
         21   -1    0    0  506  501  0.00000000000E+00  0.00000000000E+00  0.68955896254E+03  0.68955896254E+03  0.00000000000E+00 0.  1.
         21   -1    0    0  503  502 -0.00000000000E+00 -0.00000000000E+00 -0.85376309136E+02  0.85376309136E+02  0.00000000000E+00 0.  1.
         21    1    1    2  503  505  0.32265874916E+02 -0.62913369173E+02  0.99745982951E+01  0.71404981030E+02  0.00000000000E+00 0. -1.
         21    1    1    2  504  502 -0.36018288349E+02  0.90912804561E+02 -0.13740522333E+01  0.97797459826E+02  0.00000000000E+00 0.  1.
         21    1    1    2  505  501 -0.41954861120E+01 -0.64174626707E+02  0.48182369815E+03  0.48609676086E+03  0.00000000000E+00 0.  1.
         21    1    1    2  506  504  0.79478995455E+01  0.36175191318E+02  0.11375840919E+03  0.11963606996E+03  0.00000000000E+00 0.  1.
<scales pt_clust_3="14000.00000" pt_clust_4="83.00412" pt_clust_5="33.70766" pt_clust_6="37.03800"></scales>
<clustering>
<clus scale="   37.038">  1  6  2 -1</clus>
<clus scale="   33.708">  1  5  2 -1</clus>
<clus scale="   83.004">  1  4  2 -1</clus>
<clus scale="   37.038">  1  3  2 -1</clus>
</clustering>
</event>
