<event>
 5    0  0.5634041E-005  0.4162009E+03  0.7546771E-02  0.1038310E+00
         21   -1    0    0  502  501  0.00000000000E+00  0.00000000000E+00  0.11091113881E+04  0.11091113881E+04  0.00000000000E+00 0.  1.
         21   -1    0    0  501  502 -0.00000000000E+00 -0.00000000000E+00 -0.15618194299E+03  0.15618194299E+03  0.00000000000E+00 0.  1.
         25    1    1    2    0    0  0.90122368182E+02 -0.14237422696E+03 -0.26322089100E+02  0.21144813578E+03  0.12500000000E+03 0.  0.
         25    1    1    2    0    0 -0.81762579930E+01 -0.84441236114E+01  0.65034614682E+03  0.66235433501E+03  0.12500000000E+03 0.  0.
         25    1    1    2    0    0 -0.81946110189E+02  0.15081835058E+03  0.32890538742E+03  0.39149086033E+03  0.12500000000E+03 0.  0.
</event>
<event>
 5    0  0.5634041E-005  0.2372389E+03  0.7546771E-02  0.1121646E+00
         21   -1    0    0  502  501  0.00000000000E+00  0.00000000000E+00  0.31768375312E+03  0.31768375312E+03  0.00000000000E+00 0.  1.
         21   -1    0    0  501  502 -0.00000000000E+00 -0.00000000000E+00 -0.17716452765E+03  0.17716452765E+03  0.00000000000E+00 0.  1.
         25    1    1    2    0    0 -0.10024664811E+03 -0.31846977315E+02 -0.12253848658E+02  0.16382544744E+03  0.12500000000E+03 0.  0.
         25    1    1    2    0    0  0.10146328753E+03 -0.96791093867E+01  0.73103000734E+02  0.17708058220E+03  0.12500000000E+03 0.  0.
         25    1    1    2    0    0 -0.12166394200E+01  0.41526086701E+02  0.79670073396E+02  0.15394225113E+03  0.12500000000E+03 0.  0.
</event>
<event>
 5    0  0.5634041E-005  0.3917267E+03  0.7546771E-02  0.1046683E+00
         21   -1    0    0  502  501  0.00000000000E+00  0.00000000000E+00  0.13530038803E+03  0.13530038803E+03  0.00000000000E+00 0. -1.
         21   -1    0    0  501  502 -0.00000000000E+00 -0.00000000000E+00 -0.11341416939E+04  0.11341416939E+04  0.00000000000E+00 0. -1.
         25    1    1    2    0    0 -0.24535862949E+03 -0.59549444260E+01 -0.21730273677E+03  0.35083015525E+03  0.12500000000E+03 0.  0.
         25    1    1    2    0    0  0.95664595457E+02  0.13361043263E+02 -0.68098696333E+03  0.69906972223E+03  0.12500000000E+03 0.  0.
         25    1    1    2    0    0  0.14969403403E+03 -0.74060988367E+01 -0.10055160581E+03  0.21954220450E+03  0.12500000000E+03 0.  0.
</event>
<event>
 5    0  0.5634041E-005  0.3140124E+03  0.7546771E-02  0.1078438E+00
         21   -1    0    0  502  501  0.00000000000E+00  0.00000000000E+00  0.11405555618E+04  0.11405555618E+04  0.00000000000E+00 0.  1.
         21   -1    0    0  501  502 -0.00000000000E+00 -0.00000000000E+00 -0.86452391568E+02  0.86452391568E+02  0.00000000000E+00 0.  1.
         25    1    1    2    0    0 -0.60561414519E+02 -0.15481764889E+02  0.47078003781E+03  0.49108676827E+03  0.12500000000E+03 0.  0.
         25    1    1    2    0    0 -0.49245189963E+02 -0.15741375494E+03  0.23764570502E+03  0.31512641922E+03  0.12500000000E+03 0.  0.
         25    1    1    2    0    0  0.10980660448E+03  0.17289551983E+03  0.34567742738E+03  0.42079476585E+03  0.12500000000E+03 0.  0.
</event>
<event>
 5    0  0.5634041E-005  0.3029586E+03  0.7546771E-02  0.1083771E+00
         21   -1    0    0  502  501  0.00000000000E+00  0.00000000000E+00  0.32313500226E+03  0.32313500226E+03  0.00000000000E+00 0.  1.
         21   -1    0    0  501  502 -0.00000000000E+00 -0.00000000000E+00 -0.28404204066E+03  0.28404204066E+03  0.00000000000E+00 0.  1.
         25    1    1    2    0    0 -0.82061184038E+02  0.12894329261E+03 -0.32327228529E+02  0.20007613636E+03  0.12500000000E+03 0.  0.
         25    1    1    2    0    0  0.25499303929E+01 -0.72481189238E+02 -0.98355303815E+02  0.17481072830E+03  0.12500000000E+03 0.  0.
         25    1    1    2    0    0  0.79511253645E+02 -0.56462103376E+02  0.16977549394E+03  0.23229017826E+03  0.12500000000E+03 0.  0.
</event>
<event>
 5    0  0.7116989E-005  0.2962902E+03  0.7546771E-02  0.1087110E+00
         21   -1    0    0  502  501  0.00000000000E+00  0.00000000000E+00  0.32575086337E+03  0.32575086337E+03  0.00000000000E+00 0.  1.
         21   -1    0    0  501  502 -0.00000000000E+00 -0.00000000000E+00 -0.26949396437E+03  0.26949396437E+03  0.00000000000E+00 0.  1.
         25    1    1    2    0    0  0.14060180593E+03  0.45813535119E+02  0.52029848625E+02  0.20049900992E+03  0.12500000000E+03 0.  0.
         25    1    1    2    0    0 -0.15620021758E+03 -0.77583555813E+02 -0.91603921725E+02  0.23331093969E+03  0.12500000000E+03 0.  0.
         25    1    1    2    0    0  0.15598411646E+02  0.31770020694E+02  0.95830972100E+02  0.16143487812E+03  0.12500000000E+03 0.  0.
</event>
<event>
 5    0  0.5634041E-005  0.3543522E+03  0.7546771E-02  0.1060843E+00
         21   -1    0    0  502  501  0.00000000000E+00  0.00000000000E+00  0.21863871014E+04  0.21863871014E+04  0.00000000000E+00 0. -1.
         21   -1    0    0  501  502 -0.00000000000E+00 -0.00000000000E+00 -0.57430574818E+02  0.57430574818E+02  0.00000000000E+00 0. -1.
         25    1    1    2    0    0  0.25720616452E+02 -0.12980185164E+03  0.42906615020E+03  0.46608243053E+03  0.12500000000E+03 0.  0.
         25    1    1    2    0    0 -0.13756809998E+03  0.11460995279E+03  0.31882696353E+03  0.38644023611E+03  0.12500000000E+03 0.  0.
         25    1    1    2    0    0  0.11184748353E+03  0.15191898852E+02  0.13810634128E+04  0.13912950096E+04  0.12500000000E+03 0.  0.
</event>
<event>
 5    0  0.5634041E-005  0.2761491E+03  0.7546771E-02  0.1097811E+00
         21   -1    0    0  502  501  0.00000000000E+00  0.00000000000E+00  0.68281364868E+03  0.68281364868E+03  0.00000000000E+00 0.  1.
         21   -1    0    0  501  502 -0.00000000000E+00 -0.00000000000E+00 -0.11168252548E+03  0.11168252548E+03  0.00000000000E+00 0.  1.
         25    1    1    2    0    0  0.42320417550E+02 -0.10109739202E+03  0.11484794031E+03  0.20205630356E+03  0.12500000000E+03 0.  0.
         25    1    1    2    0    0  0.38202752056E+02  0.27832985003E+01  0.37384467211E+03  0.39604549723E+03  0.12500000000E+03 0.  0.
         25    1    1    2    0    0 -0.80523169606E+02  0.98314093523E+02  0.82438510786E+02  0.19639437336E+03  0.12500000000E+03 0.  0.
</event>
<event>
 5    0  0.5634041E-005  0.2775276E+03  0.7546771E-02  0.1097047E+00
         21   -1    0    0  502  501  0.00000000000E+00  0.00000000000E+00  0.89298165703E+03  0.89298165703E+03  0.00000000000E+00 0. -1.
         21   -1    0    0  501  502 -0.00000000000E+00 -0.00000000000E+00 -0.86252133577E+02  0.86252133577E+02  0.00000000000E+00 0. -1.
         25    1    1    2    0    0 -0.14060049051E+03  0.89521340352E+01  0.14275025590E+03  0.23632874179E+03  0.12500000000E+03 0.  0.
         25    1    1    2    0    0  0.57934355847E+02  0.35285842390E+02  0.15445198816E+03  0.20995689298E+03  0.12500000000E+03 0.  0.
         25    1    1    2    0    0  0.82666134659E+02 -0.44237976425E+02  0.50952727938E+03  0.53294815584E+03  0.12500000000E+03 0.  0.
</event>
<event>
 5    0  0.5634041E-005  0.2123600E+03  0.7546771E-02  0.1139711E+00
         21   -1    0    0  502  501  0.00000000000E+00  0.00000000000E+00  0.46952238923E+03  0.46952238923E+03  0.00000000000E+00 0.  1.
         21   -1    0    0  501  502 -0.00000000000E+00 -0.00000000000E+00 -0.96048188818E+02  0.96048188818E+02  0.00000000000E+00 0.  1.
         25    1    1    2    0    0 -0.25673313718E+02  0.13165769171E+02  0.11671709090E+03  0.17343683525E+03  0.12500000000E+03 0.  0.
         25    1    1    2    0    0 -0.80524845993E+01  0.53748951760E+02  0.18471245473E+03  0.22955932405E+03  0.12500000000E+03 0.  0.
         25    1    1    2    0    0  0.33725798317E+02 -0.66914720931E+02  0.72044654785E+02  0.16257441875E+03  0.12500000000E+03 0.  0.
</event>
<event>
 5    0  0.5634041E-005  0.2370391E+03  0.7546771E-02  0.1121781E+00
         21   -1    0    0  502  501  0.00000000000E+00  0.00000000000E+00  0.17039750282E+03  0.17039750282E+03  0.00000000000E+00 0. -1.
         21   -1    0    0  501  502 -0.00000000000E+00 -0.00000000000E+00 -0.32974398942E+03  0.32974398942E+03  0.00000000000E+00 0. -1.
         25    1    1    2    0    0 -0.14037348595E+02 -0.41629544552E+02 -0.31291707624E+02  0.13614050500E+03  0.12500000000E+03 0.  0.
         25    1    1    2    0    0  0.22743443896E+01 -0.93574698230E+02 -0.62166332009E+02  0.16808048556E+03  0.12500000000E+03 0.  0.
         25    1    1    2    0    0  0.11763004205E+02  0.13520424278E+03 -0.65888446969E+02  0.19592050168E+03  0.12500000000E+03 0.  0.
</event>
<event>
 5    0  0.5634041E-005  0.2624344E+03  0.7546771E-02  0.1105689E+00
         21   -1    0    0  502  501  0.00000000000E+00  0.00000000000E+00  0.24153193375E+03  0.24153193375E+03  0.00000000000E+00 0. -1.
         21   -1    0    0  501  502 -0.00000000000E+00 -0.00000000000E+00 -0.28514568726E+03  0.28514568726E+03  0.00000000000E+00 0. -1.
         25    1    1    2    0    0  0.14156178580E+03 -0.55741947062E+02  0.17788127883E+02  0.19770766640E+03  0.12500000000E+03 0.  0.
         25    1    1    2    0    0 -0.12191530863E+03  0.40492843704E+02  0.15838193267E+02  0.17994127163E+03  0.12500000000E+03 0.  0.
         25    1    1    2    0    0 -0.19646477166E+02  0.15249103357E+02 -0.77240074653E+02  0.14902868298E+03  0.12500000000E+03 0.  0.
</event>
<event>
 5    0  0.5634041E-005  0.2954183E+03  0.7546771E-02  0.1087554E+00
         21   -1    0    0  502  501  0.00000000000E+00  0.00000000000E+00  0.87668663189E+02  0.87668663189E+02  0.00000000000E+00 0.  1.
         21   -1    0    0  501  502 -0.00000000000E+00 -0.00000000000E+00 -0.99547522347E+03  0.99547522347E+03  0.00000000000E+00 0.  1.
         25    1    1    2    0    0 -0.97559187516E+02 -0.17401683499E+02 -0.22350844308E+03  0.27459358657E+03  0.12500000000E+03 0.  0.
         25    1    1    2    0    0 -0.25613860689E+02  0.15255207696E+03 -0.23682225413E+03  0.30925391848E+03  0.12500000000E+03 0.  0.
         25    1    1    2    0    0  0.12317304820E+03 -0.13515039346E+03 -0.44747586307E+03  0.49929638161E+03  0.12500000000E+03 0.  0.
</event>
<event>
 5    0  0.5634041E-005  0.4027849E+03  0.7546771E-02  0.1042820E+00
         21   -1    0    0  502  501  0.00000000000E+00  0.00000000000E+00  0.12348306957E+03  0.12348306957E+03  0.00000000000E+00 0. -1.
         21   -1    0    0  501  502 -0.00000000000E+00 -0.00000000000E+00 -0.13138295843E+04  0.13138295843E+04  0.00000000000E+00 0. -1.
         25    1    1    2    0    0  0.19948195427E+02  0.12894851156E+03 -0.33522869124E+02  0.18377821386E+03  0.12500000000E+03 0.  0.
         25    1    1    2    0    0 -0.71714189935E+02 -0.21145047270E+03 -0.36347650738E+03  0.44451591520E+03  0.12500000000E+03 0.  0.
         25    1    1    2    0    0  0.51765994508E+02  0.82501961142E+02 -0.79334713819E+03  0.80901852479E+03  0.12500000000E+03 0.  0.
</event>
<event>
 5    0  0.5634041E-005  0.3240323E+03  0.7546771E-02  0.1073808E+00
         21   -1    0    0  502  501  0.00000000000E+00  0.00000000000E+00  0.12927259022E+03  0.12927259022E+03  0.00000000000E+00 0. -1.
         21   -1    0    0  501  502 -0.00000000000E+00 -0.00000000000E+00 -0.81221347149E+03  0.81221347149E+03  0.00000000000E+00 0. -1.
         25    1    1    2    0    0  0.54616481351E+01 -0.97950941785E+02 -0.22015730356E+03  0.27151142685E+03  0.12500000000E+03 0.  0.
         25    1    1    2    0    0 -0.14938965568E+03  0.13202007666E+03 -0.40411159877E+03  0.46762993288E+03  0.12500000000E+03 0.  0.
         25    1    1    2    0    0  0.14392800754E+03 -0.34069134872E+02 -0.58671978932E+02  0.20234470198E+03  0.12500000000E+03 0.  0.
</event>
<event>
 5    0  0.5634041E-005  0.3948295E+03  0.7546771E-02  0.1045585E+00
         21   -1    0    0  502  501  0.00000000000E+00  0.00000000000E+00  0.80986292158E+02  0.80986292158E+02  0.00000000000E+00 0.  1.
         21   -1    0    0  501  502 -0.00000000000E+00 -0.00000000000E+00 -0.19248973328E+04  0.19248973328E+04  0.00000000000E+00 0.  1.
         25    1    1    2    0    0 -0.39711157397E+02  0.32377653624E+02 -0.27991139733E+03  0.31080649741E+03  0.12500000000E+03 0.  0.
         25    1    1    2    0    0  0.44851489462E+01  0.19919943309E+03 -0.12983816618E+04  0.13195152407E+04  0.12500000000E+03 0.  0.
         25    1    1    2    0    0  0.35226008451E+02 -0.23157708672E+03 -0.26561798151E+03  0.37556188686E+03  0.12500000000E+03 0.  0.
</event>
<event>
 5    0  0.5634041E-005  0.2380785E+03  0.7546771E-02  0.1121080E+00
         21   -1    0    0  502  501  0.00000000000E+00  0.00000000000E+00  0.14086997707E+03  0.14086997707E+03  0.00000000000E+00 0. -1.
         21   -1    0    0  501  502 -0.00000000000E+00 -0.00000000000E+00 -0.40236653157E+03  0.40236653157E+03  0.00000000000E+00 0. -1.
         25    1    1    2    0    0 -0.43185703622E+02  0.15436525004E+01  0.94102814773E+01  0.13259314182E+03  0.12500000000E+03 0.  0.
         25    1    1    2    0    0 -0.21778497761E+02  0.33321916328E+02 -0.22132601896E+03  0.25728361732E+03  0.12500000000E+03 0.  0.
         25    1    1    2    0    0  0.64964201383E+02 -0.34865568829E+02 -0.49580817020E+02  0.15335974950E+03  0.12500000000E+03 0.  0.
</event>
<event>
 5    0  0.5634041E-005  0.2645377E+03  0.7546771E-02  0.1104447E+00
         21   -1    0    0  502  501  0.00000000000E+00  0.00000000000E+00  0.27327717948E+03  0.27327717948E+03  0.00000000000E+00 0. -1.
         21   -1    0    0  501  502 -0.00000000000E+00 -0.00000000000E+00 -0.25607766750E+03  0.25607766750E+03  0.00000000000E+00 0. -1.
         25    1    1    2    0    0 -0.18982665198E+02  0.54920929724E+02  0.11552325037E+03  0.17985347224E+03  0.12500000000E+03 0.  0.
         25    1    1    2    0    0  0.10458798619E+03 -0.14283746137E+02 -0.10163685294E+03  0.19260768971E+03  0.12500000000E+03 0.  0.
         25    1    1    2    0    0 -0.85605320993E+02 -0.40637183588E+02  0.33131145532E+01  0.15689368502E+03  0.12500000000E+03 0.  0.
</event>
<event>
 5    0  0.5634041E-005  0.3308733E+03  0.7546771E-02  0.1070751E+00
         21   -1    0    0  502  501  0.00000000000E+00  0.00000000000E+00  0.74963869412E+03  0.74963869412E+03  0.00000000000E+00 0.  1.
         21   -1    0    0  501  502 -0.00000000000E+00 -0.00000000000E+00 -0.14603991838E+03  0.14603991838E+03  0.00000000000E+00 0.  1.
         25    1    1    2    0    0  0.18326345306E+03  0.55456520797E+02  0.60865771561E+02  0.23662324711E+03  0.12500000000E+03 0.  0.
         25    1    1    2    0    0 -0.57620443275E+02 -0.91880187173E+02  0.13712070349E+03  0.21491666200E+03  0.12500000000E+03 0.  0.
         25    1    1    2    0    0 -0.12564300979E+03  0.36423666377E+02  0.40561230069E+03  0.44413870339E+03  0.12500000000E+03 0.  0.
</event>
<event>
 5    0  0.5634041E-005  0.2864663E+03  0.7546771E-02  0.1092209E+00
         21   -1    0    0  502  501  0.00000000000E+00  0.00000000000E+00  0.81038593186E+03  0.81038593186E+03  0.00000000000E+00 0.  1.
         21   -1    0    0  501  502 -0.00000000000E+00 -0.00000000000E+00 -0.10126400866E+03  0.10126400866E+03  0.00000000000E+00 0.  1.
         25    1    1    2    0    0  0.63065301376E+02 -0.46547882791E+02  0.10701084161E+03  0.18226425281E+03  0.12500000000E+03 0.  0.
         25    1    1    2    0    0 -0.72511719648E+02 -0.59528411431E+02  0.67716587611E+02  0.17032943812E+03  0.12500000000E+03 0.  0.
         25    1    1    2    0    0  0.94464182724E+01  0.10607629422E+03  0.53439449397E+03  0.55905624959E+03  0.12500000000E+03 0.  0.
</event>
<event>
 5    0  0.5887404E-005  0.3445070E+03  0.7546771E-02  0.1064892E+00
         21   -1    0    0  502  501  0.00000000000E+00  0.00000000000E+00  0.17406681992E+03  0.17406681992E+03  0.00000000000E+00 0.  1.
         21   -1    0    0  501  502 -0.00000000000E+00 -0.00000000000E+00 -0.68183639934E+03  0.68183639934E+03  0.00000000000E+00 0.  1.
         25    1    1    2    0    0  0.13219224173E+03 -0.90996740958E+02 -0.20086351653E+03  0.28587820468E+03  0.12500000000E+03 0.  0.
         25    1    1    2    0    0 -0.49013234958E+02 -0.98948936596E+02 -0.28066800282E+03  0.32648540099E+03  0.12500000000E+03 0.  0.
         25    1    1    2    0    0 -0.83179006776E+02  0.18994567755E+03 -0.26238060074E+02  0.24353961359E+03  0.12500000000E+03 0.  0.
</event>
<event>
 5    0  0.5634041E-005  0.3393554E+03  0.7546771E-02  0.1067071E+00
         21   -1    0    0  502  501  0.00000000000E+00  0.00000000000E+00  0.12512941873E+03  0.12512941873E+03  0.00000000000E+00 0. -1.
         21   -1    0    0  501  502 -0.00000000000E+00 -0.00000000000E+00 -0.92034392630E+03  0.92034392630E+03  0.00000000000E+00 0. -1.
         25    1    1    2    0    0  0.47669699347E+02 -0.54036366577E+02 -0.26096898135E+02  0.14662324932E+03  0.12500000000E+03 0.  0.
         25    1    1    2    0    0 -0.12625129983E+02 -0.16065709125E+03 -0.25287709661E+03  0.32487216080E+03  0.12500000000E+03 0.  0.
         25    1    1    2    0    0 -0.35044569364E+02  0.21469345783E+03 -0.51624051282E+03  0.57397793490E+03  0.12500000000E+03 0.  0.
</event>
<event>
 5    0  0.5634041E-005  0.3536661E+03  0.7546771E-02  0.1061120E+00
         21   -1    0    0  502  501  0.00000000000E+00  0.00000000000E+00  0.10431654536E+03  0.10431654536E+03  0.00000000000E+00 0.  1.
         21   -1    0    0  501  502 -0.00000000000E+00 -0.00000000000E+00 -0.11990402136E+04  0.11990402136E+04  0.00000000000E+00 0.  1.
         25    1    1    2    0    0  0.16143486195E+03  0.12886656389E+03 -0.17707578239E+03  0.29941382508E+03  0.12500000000E+03 0.  0.
         25    1    1    2    0    0 -0.17363522372E+03 -0.13578379019E+03 -0.41891695204E+03  0.48959456829E+03  0.12500000000E+03 0.  0.
         25    1    1    2    0    0  0.12200361777E+02  0.69172262955E+01 -0.49873093382E+03  0.51434836560E+03  0.12500000000E+03 0.  0.
</event>
<event>
 5    0  0.5634041E-005  0.2413828E+03  0.7546771E-02  0.1118875E+00
         21   -1    0    0  502  501  0.00000000000E+00  0.00000000000E+00  0.12698181269E+03  0.12698181269E+03  0.00000000000E+00 0. -1.
         21   -1    0    0  501  502 -0.00000000000E+00 -0.00000000000E+00 -0.45885058638E+03  0.45885058638E+03  0.00000000000E+00 0. -1.
         25    1    1    2    0    0 -0.79945124030E+02 -0.61742888622E+02 -0.16487744138E+03  0.23024547298E+03  0.12500000000E+03 0.  0.
         25    1    1    2    0    0 -0.28702287730E+02 -0.43464453014E+01 -0.32896514577E+02  0.13247601133E+03  0.12500000000E+03 0.  0.
         25    1    1    2    0    0  0.10864741176E+03  0.66089333924E+02 -0.13409481773E+03  0.22311091476E+03  0.12500000000E+03 0.  0.
</event>
<event>
 5    0  0.5634041E-005  0.3938560E+03  0.7546771E-02  0.1045928E+00
         21   -1    0    0  502  501  0.00000000000E+00  0.00000000000E+00  0.20839661362E+04  0.20839661362E+04  0.00000000000E+00 0.  1.
         21   -1    0    0  501  502 -0.00000000000E+00 -0.00000000000E+00 -0.74436231287E+02  0.74436231287E+02  0.00000000000E+00 0.  1.
         25    1    1    2    0    0 -0.22169173282E+03  0.22304884324E+02  0.35699827380E+03  0.43899601338E+03  0.12500000000E+03 0.  0.
         25    1    1    2    0    0  0.21837788897E+03  0.91177788878E+02  0.65309258681E+03  0.70580253507E+03  0.12500000000E+03 0.  0.
         25    1    1    2    0    0  0.33138438535E+01 -0.11348267320E+03  0.99943904428E+03  0.10136038190E+04  0.12500000000E+03 0.  0.
</event>
<event>
 5    0  0.5634041E-005  0.2333797E+03  0.7546771E-02  0.1124283E+00
         21   -1    0    0  502  501  0.00000000000E+00  0.00000000000E+00  0.91358106355E+03  0.91358106355E+03  0.00000000000E+00 0.  1.
         21   -1    0    0  501  502 -0.00000000000E+00 -0.00000000000E+00 -0.59618204392E+02  0.59618204392E+02  0.00000000000E+00 0.  1.
         25    1    1    2    0    0  0.28010452154E+02 -0.86087700889E+01  0.31361829414E+03  0.33888070286E+03  0.12500000000E+03 0.  0.
         25    1    1    2    0    0 -0.33827542825E+02  0.46856451165E+02  0.46136714570E+03  0.48148153942E+03  0.12500000000E+03 0.  0.
         25    1    1    2    0    0  0.58170906709E+01 -0.38247681076E+02  0.78977419322E+02  0.15283702567E+03  0.12500000000E+03 0.  0.
</event>
<event>
 5    0  0.5634041E-005  0.2548767E+03  0.7546771E-02  0.1110261E+00
         21   -1    0    0  502  501  0.00000000000E+00  0.00000000000E+00  0.66346265198E+03  0.66346265198E+03  0.00000000000E+00 0.  1.
         21   -1    0    0  501  502 -0.00000000000E+00 -0.00000000000E+00 -0.97913782208E+02  0.97913782208E+02  0.00000000000E+00 0.  1.
         25    1    1    2    0    0  0.19312203931E+02 -0.15677628512E+02  0.65819087205E+02  0.14344302526E+03  0.12500000000E+03 0.  0.
         25    1    1    2    0    0 -0.62954136963E+02 -0.11196058134E+03  0.25994854870E+03  0.31574775234E+03  0.12500000000E+03 0.  0.
         25    1    1    2    0    0  0.43641933032E+02  0.12763820985E+03  0.23978123387E+03  0.30218565659E+03  0.12500000000E+03 0.  0.
</event>
<event>
 5    0  0.5634041E-005  0.3861129E+03  0.7546771E-02  0.1048697E+00
         21   -1    0    0  502  501  0.00000000000E+00  0.00000000000E+00  0.15666631169E+03  0.15666631169E+03  0.00000000000E+00 0.  1.
         21   -1    0    0  501  502 -0.00000000000E+00 -0.00000000000E+00 -0.95159704454E+03  0.95159704454E+03  0.00000000000E+00 0.  1.
         25    1    1    2    0    0  0.22135329079E+03  0.10282213366E+03 -0.29621860924E+03  0.40365843850E+03  0.12500000000E+03 0.  0.
         25    1    1    2    0    0 -0.25503758912E+02 -0.76658191977E+02 -0.43863899323E+03  0.46320199319E+03  0.12500000000E+03 0.  0.
         25    1    1    2    0    0 -0.19584953187E+03 -0.26163941686E+02 -0.60073130370E+02  0.24140292453E+03  0.12500000000E+03 0.  0.
</event>
<event>
 5    0  0.5634041E-005  0.2177805E+03  0.7546771E-02  0.1135549E+00
         21   -1    0    0  502  501  0.00000000000E+00  0.00000000000E+00  0.93816771275E+03  0.93816771275E+03  0.00000000000E+00 0. -1.
         21   -1    0    0  501  502 -0.00000000000E+00 -0.00000000000E+00 -0.50554238020E+02  0.50554238020E+02  0.00000000000E+00 0. -1.
         25    1    1    2    0    0  0.17581067837E+02 -0.32751437295E+02  0.39502264769E+03  0.41599235904E+03  0.12500000000E+03 0.  0.
         25    1    1    2    0    0  0.20454808095E+02  0.96482371494E+01  0.37323640016E+03  0.39426120537E+03  0.12500000000E+03 0.  0.
         25    1    1    2    0    0 -0.38035875933E+02  0.23103200146E+02  0.11935442688E+03  0.17846838636E+03  0.12500000000E+03 0.  0.
</event>
<event>
 5    0  0.5634041E-005  0.2570543E+03  0.7546771E-02  0.1108926E+00
         21   -1    0    0  502  501  0.00000000000E+00  0.00000000000E+00  0.24317420292E+04  0.24317420292E+04  0.00000000000E+00 0. -1.
         21   -1    0    0  501  502 -0.00000000000E+00 -0.00000000000E+00 -0.27172658590E+02  0.27172658590E+02  0.00000000000E+00 0. -1.
         25    1    1    2    0    0 -0.69062247711E+01 -0.84140449926E+02  0.89562443407E+03  0.90823754500E+03  0.12500000000E+03 0.  0.
         25    1    1    2    0    0  0.75286194901E+02  0.11208501076E+03  0.11297279809E+04  0.11446140711E+04  0.12500000000E+03 0.  0.
         25    1    1    2    0    0 -0.68379970130E+02 -0.27944560837E+02  0.37921695563E+03  0.40606307175E+03  0.12500000000E+03 0.  0.
</event>
<event>
 5    0  0.5634041E-005  0.2416625E+03  0.7546771E-02  0.1118690E+00
         21   -1    0    0  502  501  0.00000000000E+00  0.00000000000E+00  0.13828738050E+04  0.13828738050E+04  0.00000000000E+00 0.  1.
         21   -1    0    0  501  502 -0.00000000000E+00 -0.00000000000E+00 -0.42231436173E+02  0.42231436173E+02  0.00000000000E+00 0.  1.
         25    1    1    2    0    0  0.38386660459E+02 -0.71192137383E+00  0.54611285877E+03  0.56154990611E+03  0.12500000000E+03 0.  0.
         25    1    1    2    0    0  0.43945615290E+01  0.76285248388E+02  0.18868685251E+03  0.23888591336E+03  0.12500000000E+03 0.  0.
         25    1    1    2    0    0 -0.42781221988E+02 -0.75573327014E+02  0.60584265757E+03  0.62466942173E+03  0.12500000000E+03 0.  0.
</event>
<event>
 5    0  0.5634041E-005  0.6812215E+03  0.7546771E-02  0.9749896E-01
         21   -1    0    0  502  501  0.00000000000E+00  0.00000000000E+00  0.89797754617E+03  0.89797754617E+03  0.00000000000E+00 0. -1.
         21   -1    0    0  501  502 -0.00000000000E+00 -0.00000000000E+00 -0.51678661861E+03  0.51678661861E+03  0.00000000000E+00 0.  1.
         25    1    1    2    0    0 -0.37355523266E+03  0.17751763778E+03  0.11682642970E+03  0.44758176711E+03  0.12500000000E+03 0.  0.
         25    1    1    2    0    0 -0.23510569315E+03 -0.65052105666E+02 -0.19621686718E+02  0.27480260915E+03  0.12500000000E+03 0.  0.
         25    1    1    2    0    0  0.60866092582E+03 -0.11246553212E+03  0.28398618457E+03  0.69237978852E+03  0.12500000000E+03 0.  0.
</event>
<event>
 5    0  0.5634041E-005  0.2620551E+03  0.7546771E-02  0.1105915E+00
         21   -1    0    0  502  501  0.00000000000E+00  0.00000000000E+00  0.91296069676E+02  0.91296069676E+02  0.00000000000E+00 0.  1.
         21   -1    0    0  501  502 -0.00000000000E+00 -0.00000000000E+00 -0.75219968922E+03  0.75219968922E+03  0.00000000000E+00 0.  1.
         25    1    1    2    0    0 -0.59081280395E+02 -0.24727063746E+01 -0.36451774519E+02  0.14300504829E+03  0.12500000000E+03 0.  0.
         25    1    1    2    0    0  0.73282645005E+02 -0.75840589848E+02 -0.39291119058E+03  0.42558940871E+03  0.12500000000E+03 0.  0.
         25    1    1    2    0    0 -0.14201364610E+02  0.78313296223E+02 -0.23154065445E+03  0.27490130190E+03  0.12500000000E+03 0.  0.
</event>
<event>
 5    0  0.5634041E-005  0.3935524E+03  0.7546771E-02  0.1046035E+00
         21   -1    0    0  502  501  0.00000000000E+00  0.00000000000E+00  0.55767178687E+02  0.55767178687E+02  0.00000000000E+00 0.  1.
         21   -1    0    0  501  502 -0.00000000000E+00 -0.00000000000E+00 -0.27773229458E+04  0.27773229458E+04  0.00000000000E+00 0.  1.
         25    1    1    2    0    0 -0.10672438143E+03 -0.26145141374E+03 -0.12672808372E+04  0.13043667643E+04  0.12500000000E+03 0.  0.
         25    1    1    2    0    0 -0.16511386215E+02  0.15537432447E+03 -0.11107637341E+04  0.11286429371E+04  0.12500000000E+03 0.  0.
         25    1    1    2    0    0  0.12323576765E+03  0.10607708926E+03 -0.34351119581E+03  0.40008042310E+03  0.12500000000E+03 0.  0.
</event>
<event>
 5    0  0.5634041E-005  0.2349859E+03  0.7546771E-02  0.1123179E+00
         21   -1    0    0  502  501  0.00000000000E+00  0.00000000000E+00  0.43695531391E+02  0.43695531391E+02  0.00000000000E+00 0.  1.
         21   -1    0    0  501  502 -0.00000000000E+00 -0.00000000000E+00 -0.12637078800E+04  0.12637078800E+04  0.00000000000E+00 0.  1.
         25    1    1    2    0    0 -0.84341057736E+02  0.17894924363E+01 -0.22928979754E+03  0.27443656381E+03  0.12500000000E+03 0.  0.
         25    1    1    2    0    0 -0.23544238359E+02 -0.12459925898E+01 -0.42061428954E+03  0.43942833799E+03  0.12500000000E+03 0.  0.
         25    1    1    2    0    0  0.10788529610E+03 -0.54349984651E+00 -0.57010826156E+03  0.59353850962E+03  0.12500000000E+03 0.  0.
</event>
<event>
 5    0  0.5634041E-005  0.2134397E+03  0.7546771E-02  0.1138871E+00
         21   -1    0    0  502  501  0.00000000000E+00  0.00000000000E+00  0.19954810888E+03  0.19954810888E+03  0.00000000000E+00 0. -1.
         21   -1    0    0  501  502 -0.00000000000E+00 -0.00000000000E+00 -0.22829832542E+03  0.22829832542E+03  0.00000000000E+00 0. -1.
         25    1    1    2    0    0  0.64462132122E+02  0.18763705068E+02 -0.69466067984E+02  0.15798094096E+03  0.12500000000E+03 0.  0.
         25    1    1    2    0    0 -0.30130049526E+02 -0.15387783004E+02 -0.11645034014E+02  0.13002003910E+03  0.12500000000E+03 0.  0.
         25    1    1    2    0    0 -0.34332082597E+02 -0.33759220635E+01  0.52360885465E+02  0.13984545424E+03  0.12500000000E+03 0.  0.
</event>
<event>
 5    0  0.5634041E-005  0.2587635E+03  0.7546771E-02  0.1107888E+00
         21   -1    0    0  502  501  0.00000000000E+00  0.00000000000E+00  0.12444505837E+03  0.12444505837E+03  0.00000000000E+00 0.  1.
         21   -1    0    0  501  502 -0.00000000000E+00 -0.00000000000E+00 -0.53805722354E+03  0.53805722354E+03  0.00000000000E+00 0.  1.
         25    1    1    2    0    0  0.54455520399E+02 -0.64583910496E+02 -0.18311881533E+03  0.23726353644E+03  0.12500000000E+03 0.  0.
         25    1    1    2    0    0  0.68775358877E+02  0.39418201516E+02 -0.19430176460E+03  0.24425810186E+03  0.12500000000E+03 0.  0.
         25    1    1    2    0    0 -0.12323087928E+03  0.25165708980E+02 -0.36191585242E+02  0.18098064360E+03  0.12500000000E+03 0.  0.
</event>
<event>
 5    0  0.5634041E-005  0.3284197E+03  0.7546771E-02  0.1071838E+00
         21   -1    0    0  502  501  0.00000000000E+00  0.00000000000E+00  0.61373831575E+03  0.61373831575E+03  0.00000000000E+00 0. -1.
         21   -1    0    0  501  502 -0.00000000000E+00 -0.00000000000E+00 -0.17574181017E+03  0.17574181017E+03  0.00000000000E+00 0. -1.
         25    1    1    2    0    0  0.13219380646E+03 -0.16547134705E+02  0.38259910985E+03  0.42397651938E+03  0.12500000000E+03 0.  0.
         25    1    1    2    0    0 -0.11871015190E+03 -0.70882145902E+02 -0.32098488476E+02  0.18913405757E+03  0.12500000000E+03 0.  0.
         25    1    1    2    0    0 -0.13483654561E+02  0.87429280607E+02  0.87495884216E+02  0.17636954897E+03  0.12500000000E+03 0.  0.
</event>
<event>
 5    0  0.5634041E-005  0.2106178E+03  0.7546771E-02  0.1141078E+00
         21   -1    0    0  502  501  0.00000000000E+00  0.00000000000E+00  0.50145315910E+03  0.50145315910E+03  0.00000000000E+00 0.  1.
         21   -1    0    0  501  502 -0.00000000000E+00 -0.00000000000E+00 -0.88462612122E+02  0.88462612122E+02  0.00000000000E+00 0.  1.
         25    1    1    2    0    0 -0.10108885010E+02 -0.69500813855E+01  0.13301400620E+03  0.18294321259E+03  0.12500000000E+03 0.  0.
         25    1    1    2    0    0 -0.23374033407E+02 -0.47896384806E+02  0.20958105606E+03  0.24977915881E+03  0.12500000000E+03 0.  0.
         25    1    1    2    0    0  0.33482918417E+02  0.54846466191E+02  0.70395484716E+02  0.15719339982E+03  0.12500000000E+03 0.  0.
</event>
<event>
 5    0  0.5634041E-005  0.2436377E+03  0.7546771E-02  0.1117393E+00
         21   -1    0    0  502  501  0.00000000000E+00  0.00000000000E+00  0.11994051111E+04  0.11994051111E+04  0.00000000000E+00 0.  1.
         21   -1    0    0  501  502 -0.00000000000E+00 -0.00000000000E+00 -0.49490625427E+02  0.49490625427E+02  0.00000000000E+00 0.  1.
         25    1    1    2    0    0 -0.27441050452E+02  0.15904813743E+02  0.59345768376E+03  0.60730799169E+03  0.12500000000E+03 0.  0.
         25    1    1    2    0    0  0.38615009778E+00  0.30611887855E+02  0.45218714122E+03  0.47014407098E+03  0.12500000000E+03 0.  0.
         25    1    1    2    0    0  0.27054900355E+02 -0.46516701599E+02  0.10426966064E+03  0.17144367381E+03  0.12500000000E+03 0.  0.
</event>
<event>
 5    0  0.5634041E-005  0.3144514E+03  0.7546771E-02  0.1078232E+00
         21   -1    0    0  502  501  0.00000000000E+00  0.00000000000E+00  0.91731908580E+02  0.91731908580E+02  0.00000000000E+00 0.  1.
         21   -1    0    0  501  502 -0.00000000000E+00 -0.00000000000E+00 -0.10779204606E+04  0.10779204606E+04  0.00000000000E+00 0.  1.
         25    1    1    2    0    0 -0.20295289927E+03  0.10810177715E+03 -0.43307511171E+03  0.50601870116E+03  0.12500000000E+03 0.  0.
         25    1    1    2    0    0  0.17329929366E+02 -0.47486415349E+02 -0.19982755431E+03  0.24106293277E+03  0.12500000000E+03 0.  0.
         25    1    1    2    0    0  0.18562296991E+03 -0.60615361797E+02 -0.35328588604E+03  0.42257073528E+03  0.12500000000E+03 0.  0.
</event>
<event>
 5    0  0.5634041E-005  0.2904504E+03  0.7546771E-02  0.1090114E+00
         21   -1    0    0  502  501  0.00000000000E+00  0.00000000000E+00  0.20963155292E+03  0.20963155292E+03  0.00000000000E+00 0.  1.
         21   -1    0    0  501  502 -0.00000000000E+00 -0.00000000000E+00 -0.40242725820E+03  0.40242725820E+03  0.00000000000E+00 0.  1.
         25    1    1    2    0    0  0.35092882047E+02  0.19349153485E+03 -0.13370454371E+03  0.26864919400E+03  0.12500000000E+03 0.  0.
         25    1    1    2    0    0 -0.44520062905E+01 -0.16399428971E+03 -0.36112160347E+02  0.20938728601E+03  0.12500000000E+03 0.  0.
         25    1    1    2    0    0 -0.30640875756E+02 -0.29497245142E+02 -0.22979001220E+02  0.13402233111E+03  0.12500000000E+03 0.  0.
</event>
<event>
 5    0  0.5634041E-005  0.3628130E+03  0.7546771E-02  0.1057476E+00
         21   -1    0    0  502  501  0.00000000000E+00  0.00000000000E+00  0.41860804382E+02  0.41860804382E+02  0.00000000000E+00 0.  1.
         21   -1    0    0  501  502 -0.00000000000E+00 -0.00000000000E+00 -0.31445475241E+04  0.31445475241E+04  0.00000000000E+00 0.  1.
         25    1    1    2    0    0 -0.18901254011E+03  0.29213148979E+02 -0.41978429710E+03  0.47793619290E+03  0.12500000000E+03 0.  0.
         25    1    1    2    0    0  0.48859604646E+02  0.55268043525E+02 -0.15686836095E+04  0.15753841069E+04  0.12500000000E+03 0.  0.
         25    1    1    2    0    0  0.14015293546E+03 -0.84481192503E+02 -0.11142188131E+04  0.11330880286E+04  0.12500000000E+03 0.  0.
</event>
<event>
 5    0  0.5634041E-005  0.4275206E+03  0.7546771E-02  0.1034646E+00
         21   -1    0    0  502  501  0.00000000000E+00  0.00000000000E+00  0.20930314024E+03  0.20930314024E+03  0.00000000000E+00 0. -1.
         21   -1    0    0  501  502 -0.00000000000E+00 -0.00000000000E+00 -0.87324952576E+03  0.87324952576E+03  0.00000000000E+00 0. -1.
         25    1    1    2    0    0  0.15919942007E+03 -0.12316894472E+03 -0.30609749195E+03  0.38708619049E+03  0.12500000000E+03 0.  0.
         25    1    1    2    0    0 -0.51257345723E+01  0.24176961393E+03 -0.37533223560E+03  0.46365731576E+03  0.12500000000E+03 0.  0.
         25    1    1    2    0    0 -0.15407368550E+03 -0.11860066921E+03  0.17483342022E+02  0.23180915976E+03  0.12500000000E+03 0.  0.
</event>
<event>
 5    0  0.5634041E-005  0.2645242E+03  0.7546771E-02  0.1104455E+00
         21   -1    0    0  502  501  0.00000000000E+00  0.00000000000E+00  0.15398192442E+03  0.15398192442E+03  0.00000000000E+00 0.  1.
         21   -1    0    0  501  502 -0.00000000000E+00 -0.00000000000E+00 -0.45442378606E+03  0.45442378606E+03  0.00000000000E+00 0.  1.
         25    1    1    2    0    0 -0.11531969303E+03  0.45936649243E+02 -0.81517680360E+00  0.17616603491E+03  0.12500000000E+03 0.  0.
         25    1    1    2    0    0  0.30583528308E+02 -0.76201064085E+02 -0.99174001467E+02  0.17945037458E+03  0.12500000000E+03 0.  0.
         25    1    1    2    0    0  0.84736164723E+02  0.30264414843E+02 -0.20045268337E+03  0.25278930098E+03  0.12500000000E+03 0.  0.
</event>
<event>
 5    0  0.5634041E-005  0.3385032E+03  0.7546771E-02  0.1067435E+00
         21   -1    0    0  502  501  0.00000000000E+00  0.00000000000E+00  0.22435214642E+03  0.22435214642E+03  0.00000000000E+00 0. -1.
         21   -1    0    0  501  502 -0.00000000000E+00 -0.00000000000E+00 -0.51073471027E+03  0.51073471027E+03  0.00000000000E+00 0. -1.
         25    1    1    2    0    0  0.15279141707E+03  0.10781756308E+03 -0.18298058112E+03  0.28995988879E+03  0.12500000000E+03 0.  0.
         25    1    1    2    0    0 -0.19352864697E+02  0.11730023324E+02 -0.17409935983E+03  0.21551731697E+03  0.12500000000E+03 0.  0.
         25    1    1    2    0    0 -0.13343855238E+03 -0.11954758641E+03  0.70697377102E+02  0.22960965094E+03  0.12500000000E+03 0.  0.
</event>
<event>
 5    0  0.6416131E-005  0.2813506E+03  0.7546771E-02  0.1094954E+00
         21   -1    0    0  502  501  0.00000000000E+00  0.00000000000E+00  0.47730382329E+03  0.47730382329E+03  0.00000000000E+00 0.  1.
         21   -1    0    0  501  502 -0.00000000000E+00 -0.00000000000E+00 -0.16584440971E+03  0.16584440971E+03  0.00000000000E+00 0.  1.
         25    1    1    2    0    0 -0.99980780195E+02  0.28368985625E+02  0.19597328236E+03  0.25462027247E+03  0.12500000000E+03 0.  0.
         25    1    1    2    0    0  0.20136833581E+02 -0.19447420590E+02 -0.73839256000E+02  0.14785442151E+03  0.12500000000E+03 0.  0.
         25    1    1    2    0    0  0.79843946614E+02 -0.89215650351E+01  0.18932538722E+03  0.24067353901E+03  0.12500000000E+03 0.  0.
</event>
<event>
 5    0  0.5634041E-005  0.2588905E+03  0.7546771E-02  0.1107812E+00
         21   -1    0    0  502  501  0.00000000000E+00  0.00000000000E+00  0.88207912201E+03  0.88207912201E+03  0.00000000000E+00 0. -1.
         21   -1    0    0  501  502 -0.00000000000E+00 -0.00000000000E+00 -0.75984418209E+02  0.75984418209E+02  0.00000000000E+00 0. -1.
         25    1    1    2    0    0 -0.33507237591E+02 -0.87337876501E+00  0.24598668290E+03  0.27795313620E+03  0.12500000000E+03 0.  0.
         25    1    1    2    0    0  0.42636210979E+02 -0.96694766226E+01  0.30660057209E+02  0.13592786459E+03  0.12500000000E+03 0.  0.
         25    1    1    2    0    0 -0.91289733888E+01  0.10542855388E+02  0.52944796369E+03  0.54418253942E+03  0.12500000000E+03 0.  0.
</event>
<event>
 5    0  0.5634041E-005  0.2936039E+03  0.7546771E-02  0.1088482E+00
         21   -1    0    0  502  501  0.00000000000E+00  0.00000000000E+00  0.95293764903E+03  0.95293764903E+03  0.00000000000E+00 0. -1.
         21   -1    0    0  501  502 -0.00000000000E+00 -0.00000000000E+00 -0.90460510531E+02  0.90460510531E+02  0.00000000000E+00 0. -1.
         25    1    1    2    0    0  0.80856403780E+02 -0.17318285136E+02  0.18832123622E+03  0.24068146801E+03  0.12500000000E+03 0.  0.
         25    1    1    2    0    0  0.21539216174E+02  0.46167180155E+02  0.61278901851E+03  0.62747966307E+03  0.12500000000E+03 0.  0.
         25    1    1    2    0    0 -0.10239561995E+03 -0.28848895019E+02  0.61366883776E+02  0.17523702849E+03  0.12500000000E+03 0.  0.
</event>
<event>
 5    0  0.5634041E-005  0.2712964E+03  0.7546771E-02  0.1100540E+00
         21   -1    0    0  502  501  0.00000000000E+00  0.00000000000E+00  0.10107165840E+04  0.10107165840E+04  0.00000000000E+00 0. -1.
         21   -1    0    0  501  502 -0.00000000000E+00 -0.00000000000E+00 -0.72821320984E+02  0.72821320984E+02  0.00000000000E+00 0. -1.
         25    1    1    2    0    0  0.33640906175E+02  0.12960177498E+03  0.20109214147E+03  0.27201356586E+03  0.12500000000E+03 0.  0.
         25    1    1    2    0    0 -0.36464780169E+02 -0.19639985004E+02  0.14115717715E+03  0.19304340927E+03  0.12500000000E+03 0.  0.
         25    1    1    2    0    0  0.28238739940E+01 -0.10996178998E+03  0.59564594440E+03  0.61848092986E+03  0.12500000000E+03 0.  0.
</event>
<event>
 5    0  0.5634041E-005  0.2746752E+03  0.7546771E-02  0.1098633E+00
         21   -1    0    0  502  501  0.00000000000E+00  0.00000000000E+00  0.14143307489E+03  0.14143307489E+03  0.00000000000E+00 0.  1.
         21   -1    0    0  501  502 -0.00000000000E+00 -0.00000000000E+00 -0.53344302848E+03  0.53344302848E+03  0.00000000000E+00 0.  1.
         25    1    1    2    0    0  0.35225128233E+02 -0.90621634787E+02 -0.19302681009E+03  0.24967466785E+03  0.12500000000E+03 0.  0.
         25    1    1    2    0    0  0.58830039925E+02 -0.58293821895E+02 -0.34879813591E+02  0.15395046172E+03  0.12500000000E+03 0.  0.
         25    1    1    2    0    0 -0.94055168158E+02  0.14891545668E+03 -0.16410332991E+03  0.27125097379E+03  0.12500000000E+03 0.  0.
</event>
<event>
 5    0  0.5634041E-005  0.2996209E+03  0.7546771E-02  0.1085430E+00
         21   -1    0    0  502  501  0.00000000000E+00  0.00000000000E+00  0.12207821252E+03  0.12207821252E+03  0.00000000000E+00 0.  1.
         21   -1    0    0  501  502 -0.00000000000E+00 -0.00000000000E+00 -0.73537009323E+03  0.73537009323E+03  0.00000000000E+00 0.  1.
         25    1    1    2    0    0 -0.47638124076E+02 -0.17004228141E+02 -0.45754003179E+03  0.47699729070E+03  0.12500000000E+03 0.  0.
         25    1    1    2    0    0  0.51089398633E+02  0.34456230709E+02  0.42242077135E+02  0.14562538092E+03  0.12500000000E+03 0.  0.
         25    1    1    2    0    0 -0.34512745565E+01 -0.17452002568E+02 -0.19799392605E+03  0.23482563413E+03  0.12500000000E+03 0.  0.
</event>
<event>
 5    0  0.5634041E-005  0.2667567E+03  0.7546771E-02  0.1103150E+00
         21   -1    0    0  502  501  0.00000000000E+00  0.00000000000E+00  0.61109007834E+03  0.61109007834E+03  0.00000000000E+00 0. -1.
         21   -1    0    0  501  502 -0.00000000000E+00 -0.00000000000E+00 -0.11644623273E+03  0.11644623273E+03  0.00000000000E+00 0. -1.
         25    1    1    2    0    0  0.94813635536E+02  0.39811055671E+02  0.19269103551E+03  0.25165329484E+03  0.12500000000E+03 0.  0.
         25    1    1    2    0    0 -0.13242867174E+03 -0.11659703000E+03  0.18393476628E+03  0.28388240303E+03  0.12500000000E+03 0.  0.
         25    1    1    2    0    0  0.37615036202E+02  0.76785974325E+02  0.11801804382E+03  0.19200061320E+03  0.12500000000E+03 0.  0.
</event>
<event>
 5    0  0.5634041E-005  0.3292646E+03  0.7546771E-02  0.1071463E+00
         21   -1    0    0  502  501  0.00000000000E+00  0.00000000000E+00  0.21261237059E+03  0.21261237059E+03  0.00000000000E+00 0. -1.
         21   -1    0    0  501  502 -0.00000000000E+00 -0.00000000000E+00 -0.50991945577E+03  0.50991945577E+03  0.00000000000E+00 0. -1.
         25    1    1    2    0    0 -0.74968334429E+02 -0.57870902430E+02  0.93495742203E+02  0.18258079397E+03  0.12500000000E+03 0.  0.
         25    1    1    2    0    0 -0.31010843858E+02 -0.25350075679E+02 -0.29425769252E+02  0.13451830608E+03  0.12500000000E+03 0.  0.
         25    1    1    2    0    0  0.10597917829E+03  0.83220978109E+02 -0.36137705813E+03  0.40543272632E+03  0.12500000000E+03 0.  0.
</event>
<event>
 5    0  0.5634041E-005  0.2500253E+03  0.7546771E-02  0.1113289E+00
         21   -1    0    0  502  501  0.00000000000E+00  0.00000000000E+00  0.59851685106E+03  0.59851685106E+03  0.00000000000E+00 0. -1.
         21   -1    0    0  501  502 -0.00000000000E+00 -0.00000000000E+00 -0.10444593810E+03  0.10444593810E+03  0.00000000000E+00 0. -1.
         25    1    1    2    0    0 -0.19450019122E+02 -0.36894821953E+02  0.59240925632E+02  0.14447843576E+03  0.12500000000E+03 0.  0.
         25    1    1    2    0    0  0.91265145083E+02 -0.67835540563E+02  0.17357249045E+03  0.24224656181E+03  0.12500000000E+03 0.  0.
         25    1    1    2    0    0 -0.71815125962E+02  0.10473036252E+03  0.26125749688E+03  0.31623779158E+03  0.12500000000E+03 0.  0.
</event>
<event>
 5    0  0.5634041E-005  0.3784264E+03  0.7546771E-02  0.1051517E+00
         21   -1    0    0  502  501  0.00000000000E+00  0.00000000000E+00  0.20141319014E+03  0.20141319014E+03  0.00000000000E+00 0.  1.
         21   -1    0    0  501  502 -0.00000000000E+00 -0.00000000000E+00 -0.71100888248E+03  0.71100888248E+03  0.00000000000E+00 0.  1.
         25    1    1    2    0    0  0.10832935251E+03 -0.69666312926E+02  0.81784223615E+02  0.19723666749E+03  0.12500000000E+03 0.  0.
         25    1    1    2    0    0  0.31209904644E+01 -0.61847898202E+02 -0.41776883164E+03  0.44044375326E+03  0.12500000000E+03 0.  0.
         25    1    1    2    0    0 -0.11145034297E+03  0.13151421113E+03 -0.17361108431E+03  0.27474165187E+03  0.12500000000E+03 0.  0.
</event>
<event>
 5    0  0.5634041E-005  0.3108581E+03  0.7546771E-02  0.1079935E+00
         21   -1    0    0  502  501  0.00000000000E+00  0.00000000000E+00  0.76691534355E+02  0.76691534355E+02  0.00000000000E+00 0. -1.
         21   -1    0    0  501  502 -0.00000000000E+00 -0.00000000000E+00 -0.12600183639E+04  0.12600183639E+04  0.00000000000E+00 0. -1.
         25    1    1    2    0    0 -0.57584305078E+02 -0.19504289868E+03 -0.47509326085E+03  0.53169191363E+03  0.12500000000E+03 0.  0.
         25    1    1    2    0    0  0.55912792342E+02 -0.12856691930E+02 -0.21276429226E+03  0.25334794046E+03  0.12500000000E+03 0.  0.
         25    1    1    2    0    0  0.16715127359E+01  0.20789959061E+03 -0.49546927641E+03  0.55167004414E+03  0.12500000000E+03 0.  0.
</event>
<event>
 5    0  0.5634041E-005  0.3854199E+03  0.7546771E-02  0.1048949E+00
         21   -1    0    0  502  501  0.00000000000E+00  0.00000000000E+00  0.34728652024E+03  0.34728652024E+03  0.00000000000E+00 0.  1.
         21   -1    0    0  501  502 -0.00000000000E+00 -0.00000000000E+00 -0.42774051386E+03  0.42774051386E+03  0.00000000000E+00 0.  1.
         25    1    1    2    0    0 -0.24726973261E+03  0.76670310595E+02  0.31726193704E+02  0.28922691534E+03  0.12500000000E+03 0.  0.
         25    1    1    2    0    0 -0.58734518067E+00  0.25657378481E+02 -0.13905063599E+03  0.18872923837E+03  0.12500000000E+03 0.  0.
         25    1    1    2    0    0  0.24785707779E+03 -0.10232768908E+03  0.26870448667E+02  0.29707088039E+03  0.12500000000E+03 0.  0.
</event>
<event>
 5    0  0.5634041E-005  0.2298361E+03  0.7546771E-02  0.1126755E+00
         21   -1    0    0  502  501  0.00000000000E+00  0.00000000000E+00  0.17936722709E+03  0.17936722709E+03  0.00000000000E+00 0. -1.
         21   -1    0    0  501  502 -0.00000000000E+00 -0.00000000000E+00 -0.29450551624E+03  0.29450551624E+03  0.00000000000E+00 0. -1.
         25    1    1    2    0    0  0.39992042696E+02 -0.57022437449E+02 -0.13983054525E+03  0.20007124540E+03  0.12500000000E+03 0.  0.
         25    1    1    2    0    0 -0.42537280629E+02  0.33317956616E+02  0.48080376810E+02  0.14441685882E+03  0.12500000000E+03 0.  0.
         25    1    1    2    0    0  0.25452379331E+01  0.23704480833E+02 -0.23388120701E+02  0.12938463911E+03  0.12500000000E+03 0.  0.
</event>
<event>
 5    0  0.5634041E-005  0.3355605E+03  0.7546771E-02  0.1068703E+00
         21   -1    0    0  502  501  0.00000000000E+00  0.00000000000E+00  0.53566239718E+03  0.53566239718E+03  0.00000000000E+00 0. -1.
         21   -1    0    0  501  502 -0.00000000000E+00 -0.00000000000E+00 -0.21020864562E+03  0.21020864562E+03  0.00000000000E+00 0. -1.
         25    1    1    2    0    0 -0.51588703182E+02  0.24677402182E+02 -0.12993027046E+03  0.18914873422E+03  0.12500000000E+03 0.  0.
         25    1    1    2    0    0  0.11474131251E+03  0.23684655409E+02  0.26338981000E+03  0.31420649852E+03  0.12500000000E+03 0.  0.
         25    1    1    2    0    0 -0.63152609328E+02 -0.48362057591E+02  0.19199421202E+03  0.24251581006E+03  0.12500000000E+03 0.  0.
</event>
<event>
 5    0  0.5634041E-005  0.4137910E+03  0.7546771E-02  0.1039106E+00
         21   -1    0    0  502  501  0.00000000000E+00  0.00000000000E+00  0.14100255705E+04  0.14100255705E+04  0.00000000000E+00 0.  1.
         21   -1    0    0  501  502 -0.00000000000E+00 -0.00000000000E+00 -0.12143252643E+03  0.12143252643E+03  0.00000000000E+00 0.  1.
         25    1    1    2    0    0  0.92335149908E+02 -0.11989661542E+03  0.71532839793E+03  0.74176862645E+03  0.12500000000E+03 0.  0.
         25    1    1    2    0    0  0.11836134576E+03  0.38286777055E+02  0.48618454915E+03  0.51718053066E+03  0.12500000000E+03 0.  0.
         25    1    1    2    0    0 -0.21069649567E+03  0.81609838363E+02  0.87080097033E+02  0.27250893986E+03  0.12500000000E+03 0.  0.
</event>
<event>
 5    0  0.5634041E-005  0.2341231E+03  0.7546771E-02  0.1123771E+00
         21   -1    0    0  502  501  0.00000000000E+00  0.00000000000E+00  0.42601535397E+03  0.42601535397E+03  0.00000000000E+00 0. -1.
         21   -1    0    0  501  502 -0.00000000000E+00 -0.00000000000E+00 -0.12866579920E+03  0.12866579920E+03  0.00000000000E+00 0. -1.
         25    1    1    2    0    0 -0.38692268425E+02  0.17553799130E+02  0.64399427551E+02  0.14689286493E+03  0.12500000000E+03 0.  0.
         25    1    1    2    0    0  0.70891797596E+02  0.58399572415E+02  0.20228464102E+03  0.25491220649E+03  0.12500000000E+03 0.  0.
         25    1    1    2    0    0 -0.32199529171E+02 -0.75953371545E+02  0.30665486198E+02  0.15287608175E+03  0.12500000000E+03 0.  0.
</event>
<event>
 5    0  0.5634041E-005  0.2396347E+03  0.7546771E-02  0.1120036E+00
         21   -1    0    0  502  501  0.00000000000E+00  0.00000000000E+00  0.12707698054E+03  0.12707698054E+03  0.00000000000E+00 0. -1.
         21   -1    0    0  501  502 -0.00000000000E+00 -0.00000000000E+00 -0.45188994666E+03  0.45188994666E+03  0.00000000000E+00 0. -1.
         25    1    1    2    0    0  0.48927711485E+02  0.58712498401E+02 -0.91076704624E+02  0.17251389667E+03  0.12500000000E+03 0.  0.
         25    1    1    2    0    0  0.78959771596E+02 -0.16923013269E+02 -0.10844923948E+03  0.18413927189E+03  0.12500000000E+03 0.  0.
         25    1    1    2    0    0 -0.12788748308E+03 -0.41789485132E+02 -0.12528702201E+03  0.22231375864E+03  0.12500000000E+03 0.  0.
</event>
<event>
 5    0  0.5634041E-005  0.3736166E+03  0.7546771E-02  0.1053319E+00
         21   -1    0    0  502  501  0.00000000000E+00  0.00000000000E+00  0.62622677260E+02  0.62622677260E+02  0.00000000000E+00 0. -1.
         21   -1    0    0  501  502 -0.00000000000E+00 -0.00000000000E+00 -0.22290539969E+04  0.22290539969E+04  0.00000000000E+00 0. -1.
         25    1    1    2    0    0 -0.11750910360E+03  0.16490386389E+03 -0.11084586215E+04  0.11337138922E+04  0.12500000000E+03 0.  0.
         25    1    1    2    0    0  0.14142028775E+03  0.10864715159E+02 -0.79422206107E+03  0.81641375669E+03  0.12500000000E+03 0.  0.
         25    1    1    2    0    0 -0.23911184143E+02 -0.17576857905E+03 -0.26375063701E+03  0.34154902523E+03  0.12500000000E+03 0.  0.
</event>
<event>
 5    0  0.5634041E-005  0.2924341E+03  0.7546771E-02  0.1089085E+00
         21   -1    0    0  502  501  0.00000000000E+00  0.00000000000E+00  0.13496003658E+03  0.13496003658E+03  0.00000000000E+00 0.  1.
         21   -1    0    0  501  502 -0.00000000000E+00 -0.00000000000E+00 -0.63365223383E+03  0.63365223383E+03  0.00000000000E+00 0.  1.
         25    1    1    2    0    0 -0.97785723045E+02  0.17859124370E+03 -0.28163052814E+03  0.36932050354E+03  0.12500000000E+03 0.  0.
         25    1    1    2    0    0  0.85303646493E+02 -0.13064994169E+03 -0.11657178639E+03  0.23143055276E+03  0.12500000000E+03 0.  0.
         25    1    1    2    0    0  0.12482076552E+02 -0.47941302013E+02 -0.10048988272E+03  0.16786121411E+03  0.12500000000E+03 0.  0.
</event>
<event>
 5    0  0.5634041E-005  0.2647872E+03  0.7546771E-02  0.1104301E+00
         21   -1    0    0  502  501  0.00000000000E+00  0.00000000000E+00  0.10831825747E+04  0.10831825747E+04  0.00000000000E+00 0. -1.
         21   -1    0    0  501  502 -0.00000000000E+00 -0.00000000000E+00 -0.64728031144E+02  0.64728031144E+02  0.00000000000E+00 0. -1.
         25    1    1    2    0    0 -0.20734481075E+02 -0.13619195462E+03  0.27565744034E+03  0.33255103612E+03  0.12500000000E+03 0.  0.
         25    1    1    2    0    0 -0.67276043270E+02  0.18164050503E+02  0.31482485107E+03  0.34582609153E+03  0.12500000000E+03 0.  0.
         25    1    1    2    0    0  0.88010524345E+02  0.11802790411E+03  0.42797225214E+03  0.46953347820E+03  0.12500000000E+03 0.  0.
</event>
<event>
 5    0  0.5634041E-005  0.2926976E+03  0.7546771E-02  0.1088949E+00
         21   -1    0    0  502  501  0.00000000000E+00  0.00000000000E+00  0.71788543514E+03  0.71788543514E+03  0.00000000000E+00 0. -1.
         21   -1    0    0  501  502 -0.00000000000E+00 -0.00000000000E+00 -0.11933925153E+03  0.11933925153E+03  0.00000000000E+00 0. -1.
         25    1    1    2    0    0  0.39650699477E+02 -0.20519938891E+02  0.39576356084E+00  0.13273433049E+03  0.12500000000E+03 0.  0.
         25    1    1    2    0    0  0.10887254994E+02  0.23222988673E+02  0.54466719024E+03  0.55941504060E+03  0.12500000000E+03 0.  0.
         25    1    1    2    0    0 -0.50537954471E+02 -0.27030497824E+01  0.53483229816E+02  0.14507531558E+03  0.12500000000E+03 0.  0.
</event>
<event>
 5    0  0.5634041E-005  0.2480157E+03  0.7546771E-02  0.1114565E+00
         21   -1    0    0  502  501  0.00000000000E+00  0.00000000000E+00  0.21025319381E+03  0.21025319381E+03  0.00000000000E+00 0.  1.
         21   -1    0    0  501  502 -0.00000000000E+00 -0.00000000000E+00 -0.29256053380E+03  0.29256053380E+03  0.00000000000E+00 0.  1.
         25    1    1    2    0    0 -0.73142694783E+02  0.27604945039E+02  0.27952345203E+02  0.15006072235E+03  0.12500000000E+03 0.  0.
         25    1    1    2    0    0  0.13076207138E+03 -0.40425391218E+02 -0.17294384912E+02  0.18616397964E+03  0.12500000000E+03 0.  0.
         25    1    1    2    0    0 -0.57619376594E+02  0.12820446179E+02 -0.92965300279E+02  0.16658902561E+03  0.12500000000E+03 0.  0.
</event>
<event>
 5    0  0.6511262E-005  0.3687731E+03  0.7546771E-02  0.1055163E+00
         21   -1    0    0  502  501  0.00000000000E+00  0.00000000000E+00  0.15829200548E+03  0.15829200548E+03  0.00000000000E+00 0.  1.
         21   -1    0    0  501  502 -0.00000000000E+00 -0.00000000000E+00 -0.85913138229E+03  0.85913138229E+03  0.00000000000E+00 0.  1.
         25    1    1    2    0    0  0.15015573797E+02 -0.95583447346E+02 -0.47717783925E+00  0.15807242189E+03  0.12500000000E+03 0.  0.
         25    1    1    2    0    0  0.14838410673E+03  0.13799061108E+03 -0.18086039453E+03  0.29898952186E+03  0.12500000000E+03 0.  0.
         25    1    1    2    0    0 -0.16339968053E+03 -0.42407163731E+02 -0.51950180444E+03  0.56036144402E+03  0.12500000000E+03 0.  0.
</event>
<event>
 5    0  0.5634041E-005  0.2987519E+03  0.7546771E-02  0.1085866E+00
         21   -1    0    0  502  501  0.00000000000E+00  0.00000000000E+00  0.18447026658E+03  0.18447026658E+03  0.00000000000E+00 0. -1.
         21   -1    0    0  501  502 -0.00000000000E+00 -0.00000000000E+00 -0.48383255364E+03  0.48383255364E+03  0.00000000000E+00 0. -1.
         25    1    1    2    0    0  0.46275368939E+02 -0.62481679037E+02 -0.34432603949E+02  0.15118192419E+03  0.12500000000E+03 0.  0.
         25    1    1    2    0    0  0.11181559156E+03 -0.37654422342E+02 -0.31655872363E+01  0.17191743071E+03  0.12500000000E+03 0.  0.
         25    1    1    2    0    0 -0.15809096050E+03  0.10013610138E+03 -0.26176409587E+03  0.34520346533E+03  0.12500000000E+03 0.  0.
</event>
<event>
 5    0  0.5634041E-005  0.2651780E+03  0.7546771E-02  0.1104072E+00
         21   -1    0    0  502  501  0.00000000000E+00  0.00000000000E+00  0.48598130611E+03  0.48598130611E+03  0.00000000000E+00 0. -1.
         21   -1    0    0  501  502 -0.00000000000E+00 -0.00000000000E+00 -0.14469558533E+03  0.14469558533E+03  0.00000000000E+00 0. -1.
         25    1    1    2    0    0  0.27359196733E+02  0.77122563802E+02  0.27528193681E+02  0.15191845490E+03  0.12500000000E+03 0.  0.
         25    1    1    2    0    0 -0.88906717788E+02 -0.90802995349E+01  0.31710761447E+02  0.15689942224E+03  0.12500000000E+03 0.  0.
         25    1    1    2    0    0  0.61547521055E+02 -0.68042264267E+02  0.28204676565E+03  0.32185901430E+03  0.12500000000E+03 0.  0.
</event>
<event>
 5    0  0.7325803E-005  0.3461239E+03  0.7546771E-02  0.1064217E+00
         21   -1    0    0  502  501  0.00000000000E+00  0.00000000000E+00  0.38857115456E+03  0.38857115456E+03  0.00000000000E+00 0. -1.
         21   -1    0    0  501  502 -0.00000000000E+00 -0.00000000000E+00 -0.30831361084E+03  0.30831361084E+03  0.00000000000E+00 0. -1.
         25    1    1    2    0    0  0.58969882890E+02 -0.10477441566E+03  0.16600005401E+03  0.24007528652E+03  0.12500000000E+03 0.  0.
         25    1    1    2    0    0 -0.12209287086E+03  0.19902265073E+03 -0.10904306621E+03  0.28641242101E+03  0.12500000000E+03 0.  0.
         25    1    1    2    0    0  0.63122987973E+02 -0.94248235067E+02  0.23300555922E+02  0.17039705787E+03  0.12500000000E+03 0.  0.
</event>
<event>
 5    0  0.5634041E-005  0.7520037E+03  0.7546771E-02  0.9632212E-01
         21   -1    0    0  502  501  0.00000000000E+00  0.00000000000E+00  0.34714412194E+04  0.34714412194E+04  0.00000000000E+00 0.  1.
         21   -1    0    0  501  502 -0.00000000000E+00 -0.00000000000E+00 -0.16290341264E+03  0.16290341264E+03  0.00000000000E+00 0.  1.
         25    1    1    2    0    0  0.19303009308E+02 -0.46935743954E+03  0.10129221572E+04  0.11235236129E+04  0.12500000000E+03 0.  0.
         25    1    1    2    0    0  0.30611570721E+03  0.15983853553E+03  0.17724022946E+04  0.18100525069E+04  0.12500000000E+03 0.  0.
         25    1    1    2    0    0 -0.32541871652E+03  0.30951890401E+03  0.52321335493E+03  0.70076851226E+03  0.12500000000E+03 0.  0.
</event>
<event>
 5    0  0.5634041E-005  0.3261330E+03  0.7546771E-02  0.1072861E+00
         21   -1    0    0  502  501  0.00000000000E+00  0.00000000000E+00  0.16565284838E+03  0.16565284838E+03  0.00000000000E+00 0. -1.
         21   -1    0    0  501  502 -0.00000000000E+00 -0.00000000000E+00 -0.64208202273E+03  0.64208202273E+03  0.00000000000E+00 0. -1.
         25    1    1    2    0    0 -0.95889638317E+02 -0.23321237778E+02  0.70049100106E+02  0.17398442256E+03  0.12500000000E+03 0.  0.
         25    1    1    2    0    0  0.13514804423E+03 -0.11566569947E+02 -0.29132840469E+03  0.34481302002E+03  0.12500000000E+03 0.  0.
         25    1    1    2    0    0 -0.39258405911E+02  0.34887807725E+02 -0.25514986976E+03  0.28893742852E+03  0.12500000000E+03 0.  0.
</event>
<event>
 5    0  0.5634041E-005  0.3592966E+03  0.7546771E-02  0.1058863E+00
         21   -1    0    0  502  501  0.00000000000E+00  0.00000000000E+00  0.63824402466E+03  0.63824402466E+03  0.00000000000E+00 0.  1.
         21   -1    0    0  501  502 -0.00000000000E+00 -0.00000000000E+00 -0.20226438065E+03  0.20226438065E+03  0.00000000000E+00 0.  1.
         25    1    1    2    0    0 -0.27089765656E+02  0.15123604873E+03  0.61675538988E+02  0.20744895745E+03  0.12500000000E+03 0.  0.
         25    1    1    2    0    0 -0.16863439719E+03 -0.77758686247E+02  0.30774714900E+03  0.38054865776E+03  0.12500000000E+03 0.  0.
         25    1    1    2    0    0  0.19572416285E+03 -0.73477362486E+02  0.66556956024E+02  0.25251079010E+03  0.12500000000E+03 0.  0.
</event>
<event>
 5    0  0.5634041E-005  0.4471043E+03  0.7546771E-02  0.1028589E+00
         21   -1    0    0  502  501  0.00000000000E+00  0.00000000000E+00  0.20091887189E+03  0.20091887189E+03  0.00000000000E+00 0. -1.
         21   -1    0    0  501  502 -0.00000000000E+00 -0.00000000000E+00 -0.99493994542E+03  0.99493994542E+03  0.00000000000E+00 0. -1.
         25    1    1    2    0    0 -0.27208225538E+03  0.24847692624E+03 -0.49551661095E+03  0.63002479975E+03  0.12500000000E+03 0.  0.
         25    1    1    2    0    0  0.41787008950E+02 -0.74280705048E+02 -0.16549157902E+03  0.22422363833E+03  0.12500000000E+03 0.  0.
         25    1    1    2    0    0  0.23029524643E+03 -0.17419622119E+03 -0.13301288357E+03  0.34161037924E+03  0.12500000000E+03 0.  0.
</event>
<event>
 5    0  0.5634041E-005  0.3143961E+03  0.7546771E-02  0.1078258E+00
         21   -1    0    0  502  501  0.00000000000E+00  0.00000000000E+00  0.11388719679E+04  0.11388719679E+04  0.00000000000E+00 0. -1.
         21   -1    0    0  501  502 -0.00000000000E+00 -0.00000000000E+00 -0.86791942311E+02  0.86791942311E+02  0.00000000000E+00 0. -1.
         25    1    1    2    0    0 -0.74451098292E+02  0.11965944965E+03  0.55976734159E+03  0.59061478701E+03  0.12500000000E+03 0.  0.
         25    1    1    2    0    0  0.14425295561E+02 -0.10523208823E+03  0.50300767384E+02  0.17157228431E+03  0.12500000000E+03 0.  0.
         25    1    1    2    0    0  0.60025802730E+02 -0.14427361428E+02  0.44201191657E+03  0.46347683884E+03  0.12500000000E+03 0.  0.
</event>
<event>
 5    0  0.5634041E-005  0.3590703E+03  0.7546771E-02  0.1058953E+00
         21   -1    0    0  502  501  0.00000000000E+00  0.00000000000E+00  0.27522003198E+03  0.27522003198E+03  0.00000000000E+00 0.  1.
         21   -1    0    0  501  502 -0.00000000000E+00 -0.00000000000E+00 -0.46846696861E+03  0.46846696861E+03  0.00000000000E+00 0.  1.
         25    1    1    2    0    0  0.65858678015E+02  0.56092831915E+02  0.13428434296E+03  0.20283258127E+03  0.12500000000E+03 0.  0.
         25    1    1    2    0    0  0.11820957135E+03  0.32731466185E+02 -0.68579771720E+02  0.18807720948E+03  0.12500000000E+03 0.  0.
         25    1    1    2    0    0 -0.18406824937E+03 -0.88824298100E+02 -0.25895150786E+03  0.35277720984E+03  0.12500000000E+03 0.  0.
</event>
<event>
 5    0  0.5634041E-005  0.2523803E+03  0.7546771E-02  0.1111810E+00
         21   -1    0    0  502  501  0.00000000000E+00  0.00000000000E+00  0.78616307201E+02  0.78616307201E+02  0.00000000000E+00 0. -1.
         21   -1    0    0  501  502 -0.00000000000E+00 -0.00000000000E+00 -0.81021118725E+03  0.81021118725E+03  0.00000000000E+00 0. -1.
         25    1    1    2    0    0  0.45278310422E+02  0.93619264103E+02 -0.23001614426E+03  0.28168620595E+03  0.12500000000E+03 0.  0.
         25    1    1    2    0    0 -0.10922101631E+02 -0.27631057143E+02 -0.42243305303E+03  0.44153986447E+03  0.12500000000E+03 0.  0.
         25    1    1    2    0    0 -0.34356208790E+02 -0.65988206960E+02 -0.79145682762E+02  0.16560142403E+03  0.12500000000E+03 0.  0.
</event>
<event>
 5    0  0.5634041E-005  0.2859964E+03  0.7546771E-02  0.1092458E+00
         21   -1    0    0  502  501  0.00000000000E+00  0.00000000000E+00  0.73883687270E+03  0.73883687270E+03  0.00000000000E+00 0.  1.
         21   -1    0    0  501  502 -0.00000000000E+00 -0.00000000000E+00 -0.11070637431E+03  0.11070637431E+03  0.00000000000E+00 0.  1.
         25    1    1    2    0    0  0.14589621564E+03  0.46518060540E+02  0.25954305990E+03  0.32624720020E+03  0.12500000000E+03 0.  0.
         25    1    1    2    0    0  0.26436339842E+02 -0.84687272567E+02  0.12722811835E+03  0.19920544244E+03  0.12500000000E+03 0.  0.
         25    1    1    2    0    0 -0.17233255548E+03  0.38169212027E+02  0.24135932014E+03  0.32409060438E+03  0.12500000000E+03 0.  0.
</event>
<event>
 5    0  0.5634041E-005  0.2352161E+03  0.7546771E-02  0.1123021E+00
         21   -1    0    0  502  501  0.00000000000E+00  0.00000000000E+00  0.14039543314E+03  0.14039543314E+03  0.00000000000E+00 0. -1.
         21   -1    0    0  501  502 -0.00000000000E+00 -0.00000000000E+00 -0.39407706259E+03  0.39407706259E+03  0.00000000000E+00 0. -1.
         25    1    1    2    0    0  0.29397227249E+02 -0.51667576039E+02 -0.77100577795E+01  0.13862965186E+03  0.12500000000E+03 0.  0.
         25    1    1    2    0    0 -0.72773859219E+02 -0.24290284942E+02 -0.68698222155E+02  0.16195832259E+03  0.12500000000E+03 0.  0.
         25    1    1    2    0    0  0.43376631970E+02  0.75957860982E+02 -0.17727334952E+03  0.23388452128E+03  0.12500000000E+03 0.  0.
</event>
<event>
 5    0  0.5634041E-005  0.3253857E+03  0.7546771E-02  0.1073197E+00
         21   -1    0    0  502  501  0.00000000000E+00  0.00000000000E+00  0.11894181217E+03  0.11894181217E+03  0.00000000000E+00 0.  1.
         21   -1    0    0  501  502 -0.00000000000E+00 -0.00000000000E+00 -0.89014812231E+03  0.89014812231E+03  0.00000000000E+00 0.  1.
         25    1    1    2    0    0 -0.13095916406E+03 -0.41535455931E+02 -0.14643181195E+03  0.23652224484E+03  0.12500000000E+03 0.  0.
         25    1    1    2    0    0  0.11300235762E+02  0.18456672996E+03 -0.37779357077E+03  0.43880013132E+03  0.12500000000E+03 0.  0.
         25    1    1    2    0    0  0.11965892830E+03 -0.14303127403E+03 -0.24698092742E+03  0.33376755832E+03  0.12500000000E+03 0.  0.
</event>
<event>
 5    0  0.5634041E-005  0.3966457E+03  0.7546771E-02  0.1044947E+00
         21   -1    0    0  502  501  0.00000000000E+00  0.00000000000E+00  0.61220586757E+03  0.61220586757E+03  0.00000000000E+00 0. -1.
         21   -1    0    0  501  502 -0.00000000000E+00 -0.00000000000E+00 -0.25698516737E+03  0.25698516737E+03  0.00000000000E+00 0. -1.
         25    1    1    2    0    0 -0.16015592661E+03 -0.59991450430E+02  0.27807242555E+03  0.34956854664E+03  0.12500000000E+03 0.  0.
         25    1    1    2    0    0  0.18654921889E+03 -0.14366030460E+03 -0.17994017395E+01  0.26658419314E+03  0.12500000000E+03 0.  0.
         25    1    1    2    0    0 -0.26393292280E+02  0.20365175503E+03  0.78947676400E+02  0.25303829515E+03  0.12500000000E+03 0.  0.
</event>
<event>
 5    0  0.5634041E-005  0.4044777E+03  0.7546771E-02  0.1042240E+00
         21   -1    0    0  502  501  0.00000000000E+00  0.00000000000E+00  0.67120699624E+03  0.67120699624E+03  0.00000000000E+00 0.  1.
         21   -1    0    0  501  502 -0.00000000000E+00 -0.00000000000E+00 -0.24374327125E+03  0.24374327125E+03  0.00000000000E+00 0.  1.
         25    1    1    2    0    0 -0.24424767647E+03  0.17810539532E+03  0.11927903583E+03  0.34818234833E+03  0.12500000000E+03 0.  0.
         25    1    1    2    0    0  0.20114171725E+03 -0.21902716881E+03  0.27629793627E+03  0.42473102157E+03  0.12500000000E+03 0.  0.
         25    1    1    2    0    0  0.43105959226E+02  0.40921773496E+02  0.31886752881E+02  0.14203689759E+03  0.12500000000E+03 0.  0.
</event>
<event>
 5    0  0.5634041E-005  0.4869839E+03  0.7546771E-02  0.1017233E+00
         21   -1    0    0  502  501  0.00000000000E+00  0.00000000000E+00  0.10141455089E+04  0.10141455089E+04  0.00000000000E+00 0.  1.
         21   -1    0    0  501  502 -0.00000000000E+00 -0.00000000000E+00 -0.23384542016E+03  0.23384542016E+03  0.00000000000E+00 0.  1.
         25    1    1    2    0    0  0.56529191818E+02  0.62845612386E+02  0.85660893130E+03  0.86979824195E+03  0.12500000000E+03 0.  0.
         25    1    1    2    0    0  0.61811004408E+01  0.52508408451E+02  0.62935255819E+02  0.14960342705E+03  0.12500000000E+03 0.  0.
         25    1    1    2    0    0 -0.62710292259E+02 -0.11535402084E+03 -0.13924409837E+03  0.22858926005E+03  0.12500000000E+03 0.  0.
</event>
<event>
 5    0  0.5634041E-005  0.3073768E+03  0.7546771E-02  0.1081610E+00
         21   -1    0    0  502  501  0.00000000000E+00  0.00000000000E+00  0.63238026168E+03  0.63238026168E+03  0.00000000000E+00 0.  1.
         21   -1    0    0  501  502 -0.00000000000E+00 -0.00000000000E+00 -0.14940453859E+03  0.14940453859E+03  0.00000000000E+00 0.  1.
         25    1    1    2    0    0 -0.25438732092E+02  0.88623959835E+02 -0.57098509030E+02  0.16548889715E+03  0.12500000000E+03 0.  0.
         25    1    1    2    0    0  0.26707748562E+02 -0.10159007954E+03  0.37350662739E+03  0.40763470019E+03  0.12500000000E+03 0.  0.
         25    1    1    2    0    0 -0.12690164699E+01  0.12966119702E+02  0.16656760472E+03  0.20866120292E+03  0.12500000000E+03 0.  0.
</event>
<event>
 5    0  0.5634041E-005  0.2847369E+03  0.7546771E-02  0.1093130E+00
         21   -1    0    0  502  501  0.00000000000E+00  0.00000000000E+00  0.37486589901E+02  0.37486589901E+02  0.00000000000E+00 0. -1.
         21   -1    0    0  501  502 -0.00000000000E+00 -0.00000000000E+00 -0.21627763993E+04  0.21627763993E+04  0.00000000000E+00 0. -1.
         25    1    1    2    0    0  0.11132964598E+03  0.20221701935E+02 -0.79999602202E+03  0.81757069576E+03  0.12500000000E+03 0.  0.
         25    1    1    2    0    0 -0.50977838398E+02 -0.55045089657E+02 -0.19550972063E+03  0.24388061171E+03  0.12500000000E+03 0.  0.
         25    1    1    2    0    0 -0.60351807580E+02  0.34823387722E+02 -0.11297840668E+04  0.11388116818E+04  0.12500000000E+03 0.  0.
</event>
<event>
 5    0  0.5634041E-005  0.3880015E+03  0.7546771E-02  0.1048015E+00
         21   -1    0    0  502  501  0.00000000000E+00  0.00000000000E+00  0.59893690672E+03  0.59893690672E+03  0.00000000000E+00 0.  1.
         21   -1    0    0  501  502 -0.00000000000E+00 -0.00000000000E+00 -0.25135392850E+03  0.25135392850E+03  0.00000000000E+00 0.  1.
         25    1    1    2    0    0 -0.73621760904E+02 -0.11455733952E+03 -0.46291700481E+02  0.19055568543E+03  0.12500000000E+03 0.  0.
         25    1    1    2    0    0  0.16678887918E+03  0.10407457857E+03  0.43909442985E+03  0.49707038379E+03  0.12500000000E+03 0.  0.
         25    1    1    2    0    0 -0.93167118272E+02  0.10482760947E+02 -0.45219751135E+02  0.16266476600E+03  0.12500000000E+03 0.  0.
</event>
<event>
 5    0  0.5634041E-005  0.2145575E+03  0.7546771E-02  0.1138007E+00
         21   -1    0    0  502  501  0.00000000000E+00  0.00000000000E+00  0.24418651282E+03  0.24418651282E+03  0.00000000000E+00 0. -1.
         21   -1    0    0  501  502 -0.00000000000E+00 -0.00000000000E+00 -0.18852368867E+03  0.18852368867E+03  0.00000000000E+00 0. -1.
         25    1    1    2    0    0  0.17440150599E+02 -0.41260411620E+02 -0.16340300825E+02  0.13378559658E+03  0.12500000000E+03 0.  0.
         25    1    1    2    0    0 -0.68756373743E+02  0.44020931899E+02  0.67098094929E+02  0.16368395071E+03  0.12500000000E+03 0.  0.
         25    1    1    2    0    0  0.51316223144E+02 -0.27605202797E+01  0.49050300508E+01  0.13524065420E+03  0.12500000000E+03 0.  0.
</event>
<event>
 5    0  0.6009178E-005  0.2938452E+03  0.7546771E-02  0.1088358E+00
         21   -1    0    0  502  501  0.00000000000E+00  0.00000000000E+00  0.60576851008E+03  0.60576851008E+03  0.00000000000E+00 0.  1.
         21   -1    0    0  501  502 -0.00000000000E+00 -0.00000000000E+00 -0.14253796301E+03  0.14253796301E+03  0.00000000000E+00 0.  1.
         25    1    1    2    0    0 -0.65878166018E+02 -0.43704327194E+02  0.57910470916E+02  0.15883520899E+03  0.12500000000E+03 0.  0.
         25    1    1    2    0    0 -0.44525176797E+02  0.21476436718E+02 -0.16410201764E+02  0.13541795828E+03  0.12500000000E+03 0.  0.
         25    1    1    2    0    0  0.11040334282E+03  0.22227890476E+02  0.42173027792E+03  0.45405330583E+03  0.12500000000E+03 0.  0.
</event>
<event>
 5    0  0.5634041E-005  0.2953913E+03  0.7546771E-02  0.1087567E+00
         21   -1    0    0  502  501  0.00000000000E+00  0.00000000000E+00  0.10773163215E+03  0.10773163215E+03  0.00000000000E+00 0. -1.
         21   -1    0    0  501  502 -0.00000000000E+00 -0.00000000000E+00 -0.80993896940E+03  0.80993896940E+03  0.00000000000E+00 0. -1.
         25    1    1    2    0    0 -0.10265725736E+03 -0.13306738994E+03 -0.34822803067E+03  0.40636585006E+03  0.12500000000E+03 0.  0.
         25    1    1    2    0    0  0.28227429583E+02  0.12155979600E+03 -0.66184831341E+02  0.18862397431E+03  0.12500000000E+03 0.  0.
         25    1    1    2    0    0  0.74429827773E+02  0.11507593941E+02 -0.28779447524E+03  0.32268077718E+03  0.12500000000E+03 0.  0.
</event>
<event>
 5    0  0.5634041E-005  0.3152377E+03  0.7546771E-02  0.1077862E+00
         21   -1    0    0  502  501  0.00000000000E+00  0.00000000000E+00  0.69759274981E+02  0.69759274981E+02  0.00000000000E+00 0.  1.
         21   -1    0    0  501  502 -0.00000000000E+00 -0.00000000000E+00 -0.14245393645E+04  0.14245393645E+04  0.00000000000E+00 0.  1.
         25    1    1    2    0    0 -0.29626134723E+02  0.14715916865E+03 -0.33732583077E+03  0.38980411091E+03  0.12500000000E+03 0.  0.
         25    1    1    2    0    0  0.12596548053E+03  0.13364742453E+02 -0.26595989025E+03  0.32000872152E+03  0.12500000000E+03 0.  0.
         25    1    1    2    0    0 -0.96339345808E+02 -0.16052391110E+03 -0.75149436854E+03  0.78448580709E+03  0.12500000000E+03 0.  0.
</event>
<event>
 5    0  0.5634041E-005  0.2732462E+03  0.7546771E-02  0.1099436E+00
         21   -1    0    0  502  501  0.00000000000E+00  0.00000000000E+00  0.76630085664E+02  0.76630085664E+02  0.00000000000E+00 0. -1.
         21   -1    0    0  501  502 -0.00000000000E+00 -0.00000000000E+00 -0.97433633489E+03  0.97433633489E+03  0.00000000000E+00 0. -1.
         25    1    1    2    0    0  0.20654395719E+02 -0.13867275957E+03 -0.21578461521E+03  0.28608519443E+03  0.12500000000E+03 0.  0.
         25    1    1    2    0    0 -0.39874028832E+02  0.14300570517E+03 -0.26035116869E+03  0.32472804148E+03  0.12500000000E+03 0.  0.
         25    1    1    2    0    0  0.19219633113E+02 -0.43329455968E+01 -0.42157046533E+03  0.44015318464E+03  0.12500000000E+03 0.  0.
</event>
<event>
 5    0  0.5634041E-005  0.3409832E+03  0.7546771E-02  0.1066378E+00
         21   -1    0    0  502  501  0.00000000000E+00  0.00000000000E+00  0.10840202773E+03  0.10840202773E+03  0.00000000000E+00 0.  1.
         21   -1    0    0  501  502 -0.00000000000E+00 -0.00000000000E+00 -0.10725771432E+04  0.10725771432E+04  0.00000000000E+00 0.  1.
         25    1    1    2    0    0  0.16588185590E+03  0.28676865492E+02 -0.14917004433E+03  0.25732441559E+03  0.12500000000E+03 0.  0.
         25    1    1    2    0    0  0.22157507755E+02  0.11120223283E+03 -0.33213219266E+03  0.37255024512E+03  0.12500000000E+03 0.  0.
         25    1    1    2    0    0 -0.18803936365E+03 -0.13987909832E+03 -0.48287287847E+03  0.55110451022E+03  0.12500000000E+03 0.  0.
</event>
<event>
 5    0  0.5634041E-005  0.3588665E+03  0.7546771E-02  0.1059034E+00
         21   -1    0    0  502  501  0.00000000000E+00  0.00000000000E+00  0.92688296253E+03  0.92688296253E+03  0.00000000000E+00 0.  1.
         21   -1    0    0  501  502 -0.00000000000E+00 -0.00000000000E+00 -0.13894432719E+03  0.13894432719E+03  0.00000000000E+00 0.  1.
         25    1    1    2    0    0 -0.13422272547E+03 -0.20301568044E+03  0.13395877453E+03  0.30463266373E+03  0.12500000000E+03 0.  0.
         25    1    1    2    0    0  0.65621617025E+02  0.30748732911E+02  0.38606490467E+03  0.41221692325E+03  0.12500000000E+03 0.  0.
         25    1    1    2    0    0  0.68601108442E+02  0.17226694753E+03  0.26791495613E+03  0.34897770274E+03  0.12500000000E+03 0.  0.
</event>
<event>
 5    0  0.5634041E-005  0.2346081E+03  0.7546771E-02  0.1123438E+00
         21   -1    0    0  502  501  0.00000000000E+00  0.00000000000E+00  0.11328169364E+03  0.11328169364E+03  0.00000000000E+00 0. -1.
         21   -1    0    0  501  502 -0.00000000000E+00 -0.00000000000E+00 -0.48587673469E+03  0.48587673469E+03  0.00000000000E+00 0. -1.
         25    1    1    2    0    0  0.12070314996E+02 -0.25445951062E+02 -0.30016994922E+03  0.32637430559E+03  0.12500000000E+03 0.  0.
         25    1    1    2    0    0 -0.22752639080E+02 -0.21781271421E+02 -0.33245681336E+02  0.13312543595E+03  0.12500000000E+03 0.  0.
         25    1    1    2    0    0  0.10682324084E+02  0.47227222483E+02 -0.39179410488E+02  0.13965868680E+03  0.12500000000E+03 0.  0.
</event>
<event>
 5    0  0.5634041E-005  0.2412291E+03  0.7546771E-02  0.1118977E+00
         21   -1    0    0  502  501  0.00000000000E+00  0.00000000000E+00  0.43075175665E+03  0.43075175665E+03  0.00000000000E+00 0.  1.
         21   -1    0    0  501  502 -0.00000000000E+00 -0.00000000000E+00 -0.13509286886E+03  0.13509286886E+03  0.00000000000E+00 0.  1.
         25    1    1    2    0    0 -0.61775262763E+02 -0.59158760262E+02  0.13675526444E+03  0.20406602940E+03  0.12500000000E+03 0.  0.
         25    1    1    2    0    0  0.27381789175E+02 -0.48474691174E+02  0.13386379788E+03  0.19142642045E+03  0.12500000000E+03 0.  0.
         25    1    1    2    0    0  0.34393473588E+02  0.10763345144E+03  0.25039825475E+02  0.17035217566E+03  0.12500000000E+03 0.  0.
</event>
<event>
 5    0  0.5634041E-005  0.2265998E+03  0.7546771E-02  0.1129056E+00
         21   -1    0    0  502  501  0.00000000000E+00  0.00000000000E+00  0.81266589294E+02  0.81266589294E+02  0.00000000000E+00 0. -1.
         21   -1    0    0  501  502 -0.00000000000E+00 -0.00000000000E+00 -0.63183968232E+03  0.63183968232E+03  0.00000000000E+00 0. -1.
         25    1    1    2    0    0 -0.33449155254E+02  0.46770490301E+02 -0.10674353039E+03  0.17414220060E+03  0.12500000000E+03 0.  0.
         25    1    1    2    0    0  0.12814179638E+01 -0.10505422160E+03 -0.25778407122E+03  0.30514858493E+03  0.12500000000E+03 0.  0.
         25    1    1    2    0    0  0.32167737290E+02  0.58283731302E+02 -0.18604549142E+03  0.23381548609E+03  0.12500000000E+03 0.  0.
</event>
<event>
 5    0  0.5634041E-005  0.3524020E+03  0.7546771E-02  0.1061633E+00
         21   -1    0    0  502  501  0.00000000000E+00  0.00000000000E+00  0.22639834880E+03  0.22639834880E+03  0.00000000000E+00 0. -1.
         21   -1    0    0  501  502 -0.00000000000E+00 -0.00000000000E+00 -0.54853379768E+03  0.54853379768E+03  0.00000000000E+00 0. -1.
         25    1    1    2    0    0 -0.13173464441E+03  0.23115434629E+02 -0.31851104738E+03  0.36737259991E+03  0.12500000000E+03 0.  0.
         25    1    1    2    0    0  0.42342335591E+02 -0.14012548342E+03  0.64093322923E+02  0.20288168604E+03  0.12500000000E+03 0.  0.
         25    1    1    2    0    0  0.89392308823E+02  0.11701004879E+03 -0.67717724424E+02  0.20467786054E+03  0.12500000000E+03 0.  0.
</event>
<event>
 5    0  0.5634041E-005  0.3787187E+03  0.7546771E-02  0.1051408E+00
         21   -1    0    0  502  501  0.00000000000E+00  0.00000000000E+00  0.24979809990E+03  0.24979809990E+03  0.00000000000E+00 0. -1.
         21   -1    0    0  501  502 -0.00000000000E+00 -0.00000000000E+00 -0.57417499504E+03  0.57417499504E+03  0.00000000000E+00 0. -1.
         25    1    1    2    0    0  0.95837522396E+02  0.14771342262E+03 -0.11943710954E+03  0.24676772288E+03  0.12500000000E+03 0.  0.
         25    1    1    2    0    0  0.14577275745E+03  0.49755027565E+02 -0.38344443440E+02  0.20204097586E+03  0.12500000000E+03 0.  0.
         25    1    1    2    0    0 -0.24161027985E+03 -0.19746845019E+03 -0.16659534215E+03  0.37516439620E+03  0.12500000000E+03 0.  0.
</event>
<event>
 5    0  0.5634041E-005  0.2258203E+03  0.7546771E-02  0.1129617E+00
         21   -1    0    0  502  501  0.00000000000E+00  0.00000000000E+00  0.19619190391E+03  0.19619190391E+03  0.00000000000E+00 0. -1.
         21   -1    0    0  501  502 -0.00000000000E+00 -0.00000000000E+00 -0.25992319374E+03  0.25992319374E+03  0.00000000000E+00 0. -1.
         25    1    1    2    0    0  0.77183324778E+01  0.23942786553E+01  0.41446282722E+02  0.13193975738E+03  0.12500000000E+03 0.  0.
         25    1    1    2    0    0 -0.11799554312E+02  0.86576295309E+02 -0.41929096246E+02  0.15816995133E+03  0.12500000000E+03 0.  0.
         25    1    1    2    0    0  0.40812218344E+01 -0.88970573964E+02 -0.63248476298E+02  0.16600538894E+03  0.12500000000E+03 0.  0.
</event>
<event>
 5    0  0.5915648E-005  0.2586945E+03  0.7546771E-02  0.1107930E+00
         21   -1    0    0  502  501  0.00000000000E+00  0.00000000000E+00  0.16681020810E+03  0.16681020810E+03  0.00000000000E+00 0.  1.
         21   -1    0    0  501  502 -0.00000000000E+00 -0.00000000000E+00 -0.40119164579E+03  0.40119164579E+03  0.00000000000E+00 0.  1.
         25    1    1    2    0    0  0.57704801863E+02  0.53531695275E+01 -0.18339737833E+02  0.13899585089E+03  0.12500000000E+03 0.  0.
         25    1    1    2    0    0  0.86312802523E+02  0.46102939883E+02 -0.38329696645E+02  0.16330813388E+03  0.12500000000E+03 0.  0.
         25    1    1    2    0    0 -0.14401760439E+03 -0.51456109411E+02 -0.17771200322E+03  0.26569786912E+03  0.12500000000E+03 0.  0.
</event>
<event>
 5    0  0.5634041E-005  0.4423731E+03  0.7546771E-02  0.1030021E+00
         21   -1    0    0  502  501  0.00000000000E+00  0.00000000000E+00  0.34029371041E+03  0.34029371041E+03  0.00000000000E+00 0. -1.
         21   -1    0    0  501  502 -0.00000000000E+00 -0.00000000000E+00 -0.57507368278E+03  0.57507368278E+03  0.00000000000E+00 0. -1.
         25    1    1    2    0    0 -0.29279774812E+03  0.12010575537E+03 -0.75589318659E+02  0.34856083956E+03  0.12500000000E+03 0.  0.
         25    1    1    2    0    0 -0.43970018265E+02 -0.41027618037E+02  0.45352339570E+02  0.14593992823E+03  0.12500000000E+03 0.  0.
         25    1    1    2    0    0  0.33676776638E+03 -0.79078137334E+02 -0.20454299328E+03  0.42086662540E+03  0.12500000000E+03 0.  0.
</event>
<event>
 5    0  0.5634041E-005  0.2428538E+03  0.7546771E-02  0.1117906E+00
         21   -1    0    0  502  501  0.00000000000E+00  0.00000000000E+00  0.74431989810E+02  0.74431989810E+02  0.00000000000E+00 0. -1.
         21   -1    0    0  501  502 -0.00000000000E+00 -0.00000000000E+00 -0.79237378569E+03  0.79237378569E+03  0.00000000000E+00 0. -1.
         25    1    1    2    0    0  0.14110866704E+01  0.13132912817E+03 -0.36999427034E+03  0.41203166281E+03  0.12500000000E+03 0.  0.
         25    1    1    2    0    0 -0.41152188722E+01 -0.31818343598E+02 -0.19314483528E+03  0.23229134597E+03  0.12500000000E+03 0.  0.
         25    1    1    2    0    0  0.27041322018E+01 -0.99510784575E+02 -0.15480269026E+03  0.22248276672E+03  0.12500000000E+03 0.  0.
</event>
<event>
 5    0  0.5634041E-005  0.2827033E+03  0.7546771E-02  0.1094222E+00
         21   -1    0    0  502  501  0.00000000000E+00  0.00000000000E+00  0.48396089774E+03  0.48396089774E+03  0.00000000000E+00 0. -1.
         21   -1    0    0  501  502 -0.00000000000E+00 -0.00000000000E+00 -0.16513968975E+03  0.16513968975E+03  0.00000000000E+00 0. -1.
         25    1    1    2    0    0 -0.78521973676E+02 -0.41993536595E+02 -0.39247231290E+02  0.15841244468E+03  0.12500000000E+03 0.  0.
         25    1    1    2    0    0  0.86057231700E+02 -0.48018394500E+02  0.93927331391E+02  0.18482141900E+03  0.12500000000E+03 0.  0.
         25    1    1    2    0    0 -0.75352580239E+01  0.90011931095E+02  0.26414110789E+03  0.30586672381E+03  0.12500000000E+03 0.  0.
</event>
<event>
 5    0  0.6086906E-005  0.2947168E+03  0.7546771E-02  0.1087912E+00
         21   -1    0    0  502  501  0.00000000000E+00  0.00000000000E+00  0.25595798947E+03  0.25595798947E+03  0.00000000000E+00 0.  1.
         21   -1    0    0  501  502 -0.00000000000E+00 -0.00000000000E+00 -0.33934473842E+03  0.33934473842E+03  0.00000000000E+00 0.  1.
         25    1    1    2    0    0 -0.47204860023E+02  0.62247385655E+02 -0.18276459602E+03  0.23479977298E+03  0.12500000000E+03 0.  0.
         25    1    1    2    0    0  0.43774643095E+02  0.58397082011E+02  0.11663482364E+03  0.18589007679E+03  0.12500000000E+03 0.  0.
         25    1    1    2    0    0  0.34302169281E+01 -0.12064446767E+03 -0.17256976565E+02  0.17461287812E+03  0.12500000000E+03 0.  0.
</event>
<event>
 5    0  0.5634041E-005  0.3262385E+03  0.7546771E-02  0.1072813E+00
         21   -1    0    0  502  501  0.00000000000E+00  0.00000000000E+00  0.79723653771E+03  0.79723653771E+03  0.00000000000E+00 0.  1.
         21   -1    0    0  501  502 -0.00000000000E+00 -0.00000000000E+00 -0.13350061779E+03  0.13350061779E+03  0.00000000000E+00 0.  1.
         25    1    1    2    0    0 -0.55311926696E+02  0.12661059525E+03  0.48993689609E+02  0.19265262439E+03  0.12500000000E+03 0.  0.
         25    1    1    2    0    0  0.12381948689E+03  0.48349327877E+02  0.28995574170E+03  0.34259050627E+03  0.12500000000E+03 0.  0.
         25    1    1    2    0    0 -0.68507560190E+02 -0.17495992313E+03  0.32478648860E+03  0.39549402484E+03  0.12500000000E+03 0.  0.
</event>
<event>
 5    0  0.5634041E-005  0.2648722E+03  0.7546771E-02  0.1104251E+00
         21   -1    0    0  502  501  0.00000000000E+00  0.00000000000E+00  0.27607636371E+03  0.27607636371E+03  0.00000000000E+00 0.  1.
         21   -1    0    0  501  502 -0.00000000000E+00 -0.00000000000E+00 -0.25412264769E+03  0.25412264769E+03  0.00000000000E+00 0.  1.
         25    1    1    2    0    0 -0.64206505992E+02 -0.16323506238E+02  0.26339170654E+02  0.14390164759E+03  0.12500000000E+03 0.  0.
         25    1    1    2    0    0  0.23978978061E+02 -0.98554577646E+02 -0.97836775375E+02  0.18837470844E+03  0.12500000000E+03 0.  0.
         25    1    1    2    0    0  0.40227527930E+02  0.11487808388E+03  0.93451320743E+02  0.19792265537E+03  0.12500000000E+03 0.  0.
</event>
<event>
 5    0  0.5634041E-005  0.3861917E+03  0.7546771E-02  0.1048669E+00
         21   -1    0    0  502  501  0.00000000000E+00  0.00000000000E+00  0.22736516432E+03  0.22736516432E+03  0.00000000000E+00 0.  1.
         21   -1    0    0  501  502 -0.00000000000E+00 -0.00000000000E+00 -0.65596676782E+03  0.65596676782E+03  0.00000000000E+00 0.  1.
         25    1    1    2    0    0 -0.17668569539E+03 -0.67886016893E+02 -0.49591134723E+03  0.54532505037E+03  0.12500000000E+03 0.  0.
         25    1    1    2    0    0  0.13268538388E+03  0.40115443122E+01  0.54671968874E+02  0.19035631790E+03  0.12500000000E+03 0.  0.
         25    1    1    2    0    0  0.44000311511E+02  0.63874472581E+02  0.12637774852E+02  0.14765056388E+03  0.12500000000E+03 0.  0.
</event>
<event>
 5    0  0.5634041E-005  0.3125012E+03  0.7546771E-02  0.1079153E+00
         21   -1    0    0  502  501  0.00000000000E+00  0.00000000000E+00  0.73160439953E+03  0.73160439953E+03  0.00000000000E+00 0.  1.
         21   -1    0    0  501  502 -0.00000000000E+00 -0.00000000000E+00 -0.13348337711E+03  0.13348337711E+03  0.00000000000E+00 0.  1.
         25    1    1    2    0    0 -0.17368297927E+03  0.81772338093E+02  0.89843782284E+02  0.24606787231E+03  0.12500000000E+03 0.  0.
         25    1    1    2    0    0  0.80294594166E+01 -0.69601283113E+02  0.17444695106E+03  0.22575550838E+03  0.12500000000E+03 0.  0.
         25    1    1    2    0    0  0.16565351986E+03 -0.12171054980E+02  0.33383028908E+03  0.39326439596E+03  0.12500000000E+03 0.  0.
</event>
<event>
 5    0  0.5634041E-005  0.2711541E+03  0.7546771E-02  0.1100621E+00
         21   -1    0    0  502  501  0.00000000000E+00  0.00000000000E+00  0.67034634368E+03  0.67034634368E+03  0.00000000000E+00 0.  1.
         21   -1    0    0  501  502 -0.00000000000E+00 -0.00000000000E+00 -0.10968145013E+03  0.10968145013E+03  0.00000000000E+00 0.  1.
         25    1    1    2    0    0  0.29217957784E+02  0.23290061611E+02  0.37553369260E+02  0.13576218755E+03  0.12500000000E+03 0.  0.
         25    1    1    2    0    0  0.72366517161E+02 -0.12035871604E+03  0.26009270859E+03  0.32093044479E+03  0.12500000000E+03 0.  0.
         25    1    1    2    0    0 -0.10158447495E+03  0.97068654434E+02  0.26301881570E+03  0.32333516146E+03  0.12500000000E+03 0.  0.
</event>
<event>
 5    0  0.5634041E-005  0.4116681E+03  0.7546771E-02  0.1039813E+00
         21   -1    0    0  502  501  0.00000000000E+00  0.00000000000E+00  0.46102165352E+03  0.46102165352E+03  0.00000000000E+00 0. -1.
         21   -1    0    0  501  502 -0.00000000000E+00 -0.00000000000E+00 -0.36759794571E+03  0.36759794571E+03  0.00000000000E+00 0. -1.
         25    1    1    2    0    0 -0.77113680091E+02  0.21755956155E+02  0.36945802579E+03  0.39817593361E+03  0.12500000000E+03 0.  0.
         25    1    1    2    0    0  0.97290528200E+02  0.20925055238E+02 -0.24625570917E+03  0.29354757555E+03  0.12500000000E+03 0.  0.
         25    1    1    2    0    0 -0.20176848110E+02 -0.42681011393E+02 -0.29778608816E+02  0.13689609007E+03  0.12500000000E+03 0.  0.
</event>
<event>
 5    0  0.5634041E-005  0.3486281E+03  0.7546771E-02  0.1063180E+00
         21   -1    0    0  502  501  0.00000000000E+00  0.00000000000E+00  0.97984657305E+02  0.97984657305E+02  0.00000000000E+00 0.  1.
         21   -1    0    0  501  502 -0.00000000000E+00 -0.00000000000E+00 -0.12404142649E+04  0.12404142649E+04  0.00000000000E+00 0.  1.
         25    1    1    2    0    0 -0.18966219559E+03 -0.52150425800E+02 -0.32500553305E+03  0.39993125892E+03  0.12500000000E+03 0.  0.
         25    1    1    2    0    0  0.22065129336E+03 -0.90104445026E+02 -0.47769726296E+03  0.54829324208E+03  0.12500000000E+03 0.  0.
         25    1    1    2    0    0 -0.30989097769E+02  0.14225487083E+03 -0.33972681160E+03  0.39017442122E+03  0.12500000000E+03 0.  0.
</event>
<event>
 5    0  0.5634041E-005  0.2810094E+03  0.7546771E-02  0.1095139E+00
         21   -1    0    0  502  501  0.00000000000E+00  0.00000000000E+00  0.72933520814E+03  0.72933520814E+03  0.00000000000E+00 0.  1.
         21   -1    0    0  501  502 -0.00000000000E+00 -0.00000000000E+00 -0.10827159101E+03  0.10827159101E+03  0.00000000000E+00 0.  1.
         25    1    1    2    0    0 -0.27116082884E+02  0.17162380485E+03  0.27557933506E+03  0.34893979746E+03  0.12500000000E+03 0.  0.
         25    1    1    2    0    0  0.36405228702E+02 -0.72575531380E+02  0.27760101716E+03  0.31508708822E+03  0.12500000000E+03 0.  0.
         25    1    1    2    0    0 -0.92891458177E+01 -0.99048273466E+02  0.67883264904E+02  0.17357991347E+03  0.12500000000E+03 0.  0.
</event>
<event>
 5    0  0.5634041E-005  0.5643857E+03  0.7546771E-02  0.9982180E-01
         21   -1    0    0  502  501  0.00000000000E+00  0.00000000000E+00  0.31484156195E+03  0.31484156195E+03  0.00000000000E+00 0. -1.
         21   -1    0    0  501  502 -0.00000000000E+00 -0.00000000000E+00 -0.10117191180E+04  0.10117191180E+04  0.00000000000E+00 0. -1.
         25    1    1    2    0    0 -0.34611411189E+03  0.32872528449E+03 -0.46966373379E+03  0.68122266107E+03  0.12500000000E+03 0.  0.
         25    1    1    2    0    0  0.31517920906E+03 -0.21566434352E+03 -0.24879413389E+03  0.47262306751E+03  0.12500000000E+03 0.  0.
         25    1    1    2    0    0  0.30934902834E+02 -0.11306094097E+03  0.21580311610E+02  0.17271495140E+03  0.12500000000E+03 0.  0.
</event>
<event>
 5    0  0.5634041E-005  0.2752054E+03  0.7546771E-02  0.1098337E+00
         21   -1    0    0  502  501  0.00000000000E+00  0.00000000000E+00  0.60741051912E+03  0.60741051912E+03  0.00000000000E+00 0. -1.
         21   -1    0    0  501  502 -0.00000000000E+00 -0.00000000000E+00 -0.12468999930E+03  0.12468999930E+03  0.00000000000E+00 0. -1.
         25    1    1    2    0    0  0.70780304045E+02 -0.53680691008E+01  0.52835547400E+02  0.15315111059E+03  0.12500000000E+03 0.  0.
         25    1    1    2    0    0  0.89521554080E+02  0.72180694941E+02  0.23175166616E+03  0.28732907291E+03  0.12500000000E+03 0.  0.
         25    1    1    2    0    0 -0.16030185813E+03 -0.66812625840E+02  0.19813330626E+03  0.29162033492E+03  0.12500000000E+03 0.  0.
</event>
<event>
 5    0  0.5634041E-005  0.2688793E+03  0.7546771E-02  0.1101923E+00
         21   -1    0    0  502  501  0.00000000000E+00  0.00000000000E+00  0.20935508644E+03  0.20935508644E+03  0.00000000000E+00 0.  1.
         21   -1    0    0  501  502 -0.00000000000E+00 -0.00000000000E+00 -0.34532761847E+03  0.34532761847E+03  0.00000000000E+00 0.  1.
         25    1    1    2    0    0 -0.41155736176E+02 -0.39345040475E+02  0.14450870945E+02  0.13811464260E+03  0.12500000000E+03 0.  0.
         25    1    1    2    0    0 -0.19104984068E+02 -0.47265679178E+02  0.61923669416E+02  0.14852133072E+03  0.12500000000E+03 0.  0.
         25    1    1    2    0    0  0.60260720245E+02  0.86610719652E+02 -0.21234707239E+03  0.26804673159E+03  0.12500000000E+03 0.  0.
</event>
<event>
 5    0  0.5634041E-005  0.3416274E+03  0.7546771E-02  0.1066105E+00
         21   -1    0    0  502  501  0.00000000000E+00  0.00000000000E+00  0.25800233646E+04  0.25800233646E+04  0.00000000000E+00 0.  1.
         21   -1    0    0  501  502 -0.00000000000E+00 -0.00000000000E+00 -0.45235734492E+02  0.45235734492E+02  0.00000000000E+00 0.  1.
         25    1    1    2    0    0 -0.68764890918E+02 -0.51356871829E+02  0.47155532340E+03  0.49533378800E+03  0.12500000000E+03 0.  0.
         25    1    1    2    0    0 -0.34649711751E+01 -0.17960928278E+03  0.13269823929E+04  0.13449084621E+04  0.12500000000E+03 0.  0.
         25    1    1    2    0    0  0.72229862093E+02  0.23096615461E+03  0.73624991383E+03  0.78501684897E+03  0.12500000000E+03 0.  0.
</event>
<event>
 5    0  0.5634041E-005  0.3623892E+03  0.7546771E-02  0.1057642E+00
         21   -1    0    0  502  501  0.00000000000E+00  0.00000000000E+00  0.12266687284E+03  0.12266687284E+03  0.00000000000E+00 0. -1.
         21   -1    0    0  501  502 -0.00000000000E+00 -0.00000000000E+00 -0.10705899863E+04  0.10705899863E+04  0.00000000000E+00 0. -1.
         25    1    1    2    0    0 -0.35207802938E+02 -0.27530523689E+03 -0.47709707094E+03  0.56593213193E+03  0.12500000000E+03 0.  0.
         25    1    1    2    0    0  0.56877220197E+02  0.55517184530E+02 -0.25162427892E+03  0.29198793417E+03  0.12500000000E+03 0.  0.
         25    1    1    2    0    0 -0.21669417259E+02  0.21978805236E+03 -0.21920176359E+03  0.33533679304E+03  0.12500000000E+03 0.  0.
</event>
<event>
 5    0  0.5634041E-005  0.2944851E+03  0.7546771E-02  0.1088030E+00
         21   -1    0    0  502  501  0.00000000000E+00  0.00000000000E+00  0.49511036781E+02  0.49511036781E+02  0.00000000000E+00 0.  1.
         21   -1    0    0  501  502 -0.00000000000E+00 -0.00000000000E+00 -0.17515583133E+04  0.17515583133E+04  0.00000000000E+00 0.  1.
         25    1    1    2    0    0 -0.29107250791E+02 -0.53470683212E+02 -0.45178191711E+03  0.47269254980E+03  0.12500000000E+03 0.  0.
         25    1    1    2    0    0 -0.15823056720E+02 -0.98240669894E+02 -0.97023204777E+03  0.98329894990E+03  0.12500000000E+03 0.  0.
         25    1    1    2    0    0  0.44930307511E+02  0.15171135311E+03 -0.28003331162E+03  0.34507785036E+03  0.12500000000E+03 0.  0.
</event>
<event>
 5    0  0.5634041E-005  0.2771818E+03  0.7546771E-02  0.1097238E+00
         21   -1    0    0  502  501  0.00000000000E+00  0.00000000000E+00  0.80968636620E+02  0.80968636620E+02  0.00000000000E+00 0.  1.
         21   -1    0    0  501  502 -0.00000000000E+00 -0.00000000000E+00 -0.94888272940E+03  0.94888272940E+03  0.00000000000E+00 0.  1.
         25    1    1    2    0    0  0.69264612499E+02 -0.15480897342E+03 -0.18169149477E+03  0.27820892162E+03  0.12500000000E+03 0.  0.
         25    1    1    2    0    0 -0.76034111659E+01  0.78281863991E+02 -0.33300979748E+03  0.36428887893E+03  0.12500000000E+03 0.  0.
         25    1    1    2    0    0 -0.61661201333E+02  0.76527109432E+02 -0.35321280053E+03  0.38735356547E+03  0.12500000000E+03 0.  0.
</event>
<event>
 5    0  0.5634041E-005  0.2304990E+03  0.7546771E-02  0.1126289E+00
         21   -1    0    0  502  501  0.00000000000E+00  0.00000000000E+00  0.40160439353E+02  0.40160439353E+02  0.00000000000E+00 0.  1.
         21   -1    0    0  501  502 -0.00000000000E+00 -0.00000000000E+00 -0.13229384678E+04  0.13229384678E+04  0.00000000000E+00 0.  1.
         25    1    1    2    0    0  0.75331251739E+02 -0.32354076288E+02 -0.45703463605E+03  0.48086093862E+03  0.12500000000E+03 0.  0.
         25    1    1    2    0    0 -0.21606604622E+01 -0.58059128430E+02 -0.41967542886E+03  0.44173294697E+03  0.12500000000E+03 0.  0.
         25    1    1    2    0    0 -0.73170591277E+02  0.90413204718E+02 -0.40606796357E+03  0.44050502159E+03  0.12500000000E+03 0.  0.
</event>
<event>
 5    0  0.5634041E-005  0.3268851E+03  0.7546771E-02  0.1072524E+00
         21   -1    0    0  502  501  0.00000000000E+00  0.00000000000E+00  0.36000041405E+03  0.36000041405E+03  0.00000000000E+00 0. -1.
         21   -1    0    0  501  502 -0.00000000000E+00 -0.00000000000E+00 -0.29681587810E+03  0.29681587810E+03  0.00000000000E+00 0. -1.
         25    1    1    2    0    0 -0.17582706614E+03  0.10434992598E+03 -0.34922070195E+01  0.23966906298E+03  0.12500000000E+03 0.  0.
         25    1    1    2    0    0  0.58718557829E+02 -0.16767105408E+03  0.85749838602E+02  0.23353690550E+03  0.12500000000E+03 0.  0.
         25    1    1    2    0    0  0.11710850831E+03  0.63321128099E+02 -0.19073095634E+02  0.18361032368E+03  0.12500000000E+03 0.  0.
</event>
<event>
 5    0  0.5634041E-005  0.2634232E+03  0.7546771E-02  0.1105104E+00
         21   -1    0    0  502  501  0.00000000000E+00  0.00000000000E+00  0.22057788469E+03  0.22057788469E+03  0.00000000000E+00 0. -1.
         21   -1    0    0  501  502 -0.00000000000E+00 -0.00000000000E+00 -0.31459093137E+03  0.31459093137E+03  0.00000000000E+00 0. -1.
         25    1    1    2    0    0  0.44616623682E+02  0.13705550428E+03 -0.29181852030E+02  0.19300630780E+03  0.12500000000E+03 0.  0.
         25    1    1    2    0    0  0.55821079036E+02 -0.37781602120E+02  0.21338138042E+01  0.14203167071E+03  0.12500000000E+03 0.  0.
         25    1    1    2    0    0 -0.10043770272E+03 -0.99273902165E+02 -0.66965008460E+02  0.20013083754E+03  0.12500000000E+03 0.  0.
</event>
<event>
 5    0  0.5634041E-005  0.2563423E+03  0.7546771E-02  0.1109361E+00
         21   -1    0    0  502  501  0.00000000000E+00  0.00000000000E+00  0.30602008999E+03  0.30602008999E+03  0.00000000000E+00 0. -1.
         21   -1    0    0  501  502 -0.00000000000E+00 -0.00000000000E+00 -0.21472888300E+03  0.21472888300E+03  0.00000000000E+00 0. -1.
         25    1    1    2    0    0  0.71045737579E+02  0.11691849926E+03 -0.34186385767E+02  0.18844400036E+03  0.12500000000E+03 0.  0.
         25    1    1    2    0    0 -0.77225871701E+02 -0.10273868310E+03  0.94190297284E+02  0.20252378716E+03  0.12500000000E+03 0.  0.
         25    1    1    2    0    0  0.61801341216E+01 -0.14179816164E+02  0.31287295464E+02  0.12978118547E+03  0.12500000000E+03 0.  0.
</event>
<event>
 5    0  0.5634041E-005  0.2432710E+03  0.7546771E-02  0.1117633E+00
         21   -1    0    0  502  501  0.00000000000E+00  0.00000000000E+00  0.12231052488E+04  0.12231052488E+04  0.00000000000E+00 0. -1.
         21   -1    0    0  501  502 -0.00000000000E+00 -0.00000000000E+00 -0.48385671306E+02  0.48385671306E+02  0.00000000000E+00 0. -1.
         25    1    1    2    0    0  0.25787499792E+02  0.11643375823E+03  0.50950569242E+03  0.53799894591E+03  0.12500000000E+03 0.  0.
         25    1    1    2    0    0 -0.47597540336E+02 -0.11269122625E+03  0.30532706642E+03  0.35187278356E+03  0.12500000000E+03 0.  0.
         25    1    1    2    0    0  0.21810040545E+02 -0.37425319790E+01  0.35988681862E+03  0.38161919060E+03  0.12500000000E+03 0.  0.
</event>
<event>
 5    0  0.5634041E-005  0.2522511E+03  0.7546771E-02  0.1111890E+00
         21   -1    0    0  502  501  0.00000000000E+00  0.00000000000E+00  0.10398666198E+03  0.10398666198E+03  0.00000000000E+00 0.  1.
         21   -1    0    0  501  502 -0.00000000000E+00 -0.00000000000E+00 -0.61191121334E+03  0.61191121334E+03  0.00000000000E+00 0.  1.
         25    1    1    2    0    0  0.31445352150E+02  0.10787655427E+03 -0.24047328270E+03  0.29339148049E+03  0.12500000000E+03 0.  0.
         25    1    1    2    0    0  0.19957159813E+02  0.32235857623E+02 -0.86090863774E+02  0.15644192395E+03  0.12500000000E+03 0.  0.
         25    1    1    2    0    0 -0.51402511963E+02 -0.14011241189E+03 -0.18136040489E+03  0.26606447088E+03  0.12500000000E+03 0.  0.
</event>
<event>
 5    0  0.5634041E-005  0.3549780E+03  0.7546771E-02  0.1060590E+00
         21   -1    0    0  502  501  0.00000000000E+00  0.00000000000E+00  0.41273353743E+03  0.41273353743E+03  0.00000000000E+00 0.  1.
         21   -1    0    0  501  502 -0.00000000000E+00 -0.00000000000E+00 -0.30530438234E+03  0.30530438234E+03  0.00000000000E+00 0.  1.
         25    1    1    2    0    0  0.12487829227E+02 -0.65001325140E+02 -0.14925249502E+03  0.20562690830E+03  0.12500000000E+03 0.  0.
         25    1    1    2    0    0 -0.58048996760E+02  0.15991123152E+03  0.35870835129E+01  0.21113776346E+03  0.12500000000E+03 0.  0.
         25    1    1    2    0    0  0.45561167532E+02 -0.94909906382E+02  0.25309456660E+03  0.30127324800E+03  0.12500000000E+03 0.  0.
</event>
<event>
 5    0  0.5634041E-005  0.2962836E+03  0.7546771E-02  0.1087113E+00
         21   -1    0    0  502  501  0.00000000000E+00  0.00000000000E+00  0.22170414886E+03  0.22170414886E+03  0.00000000000E+00 0.  1.
         21   -1    0    0  501  502 -0.00000000000E+00 -0.00000000000E+00 -0.39595105630E+03  0.39595105630E+03  0.00000000000E+00 0.  1.
         25    1    1    2    0    0 -0.13603498420E+03  0.17642692650E+02  0.96451429561E+01  0.18583543880E+03  0.12500000000E+03 0.  0.
         25    1    1    2    0    0 -0.29330463248E+02 -0.35488150156E+02  0.26615821460E+02  0.13584213937E+03  0.12500000000E+03 0.  0.
         25    1    1    2    0    0  0.16536544745E+03  0.17845457506E+02 -0.21050787186E+03  0.29597762699E+03  0.12500000000E+03 0.  0.
</event>
<event>
 5    0  0.5634041E-005  0.3287673E+03  0.7546771E-02  0.1071684E+00
         21   -1    0    0  502  501  0.00000000000E+00  0.00000000000E+00  0.41247898355E+03  0.41247898355E+03  0.00000000000E+00 0.  1.
         21   -1    0    0  501  502 -0.00000000000E+00 -0.00000000000E+00 -0.26204469644E+03  0.26204469644E+03  0.00000000000E+00 0.  1.
         25    1    1    2    0    0  0.97338717414E+02 -0.74016755106E+02 -0.67768929384E+01  0.17499780633E+03  0.12500000000E+03 0.  0.
         25    1    1    2    0    0  0.48526456273E+02 -0.13200988790E+03  0.96094340995E+02  0.21128310352E+03  0.12500000000E+03 0.  0.
         25    1    1    2    0    0 -0.14586517369E+03  0.20602664300E+03  0.61116839058E+02  0.28824277014E+03  0.12500000000E+03 0.  0.
</event>
<event>
 5    0  0.5634041E-005  0.4065764E+03  0.7546771E-02  0.1041526E+00
         21   -1    0    0  502  501  0.00000000000E+00  0.00000000000E+00  0.83935895857E+02  0.83935895857E+02  0.00000000000E+00 0. -1.
         21   -1    0    0  501  502 -0.00000000000E+00 -0.00000000000E+00 -0.19694119215E+04  0.19694119215E+04  0.00000000000E+00 0. -1.
         25    1    1    2    0    0  0.82320511772E+02  0.31832598578E+03 -0.57312309037E+03  0.67246053906E+03  0.12500000000E+03 0.  0.
         25    1    1    2    0    0 -0.47798846154E+02 -0.13224505888E+03 -0.42096790699E+03  0.46109919107E+03  0.12500000000E+03 0.  0.
         25    1    1    2    0    0 -0.34521665618E+02 -0.18608092690E+03 -0.89138502824E+03  0.91978808719E+03  0.12500000000E+03 0.  0.
</event>
<event>
 5    0  0.5634041E-005  0.2540825E+03  0.7546771E-02  0.1110752E+00
         21   -1    0    0  502  501  0.00000000000E+00  0.00000000000E+00  0.27547884996E+04  0.27547884996E+04  0.00000000000E+00 0. -1.
         21   -1    0    0  501  502 -0.00000000000E+00 -0.00000000000E+00 -0.23434796972E+02  0.23434796972E+02  0.00000000000E+00 0. -1.
         25    1    1    2    0    0 -0.12037800023E+03 -0.29439734095E+02  0.10223940158E+04  0.10374353399E+04  0.12500000000E+03 0.  0.
         25    1    1    2    0    0  0.55519144916E+02 -0.12184448142E+02  0.12809204026E+04  0.12882596454E+04  0.12500000000E+03 0.  0.
         25    1    1    2    0    0  0.64858855313E+02  0.41624182237E+02  0.42803928423E+03  0.45252831127E+03  0.12500000000E+03 0.  0.
</event>
<event>
 5    0  0.6028734E-005  0.2991660E+03  0.7546771E-02  0.1085658E+00
         21   -1    0    0  502  501  0.00000000000E+00  0.00000000000E+00  0.24132557660E+03  0.24132557660E+03  0.00000000000E+00 0. -1.
         21   -1    0    0  501  502 -0.00000000000E+00 -0.00000000000E+00 -0.37086945082E+03  0.37086945082E+03  0.00000000000E+00 0. -1.
         25    1    1    2    0    0  0.12829841220E+03 -0.30559745568E+02 -0.17851916580E+03  0.25473215969E+03  0.12500000000E+03 0.  0.
         25    1    1    2    0    0 -0.10672316900E+03  0.86660849643E+02 -0.43408145548E+02  0.19081196179E+03  0.12500000000E+03 0.  0.
         25    1    1    2    0    0 -0.21575243207E+02 -0.56101104075E+02  0.92383437115E+02  0.16665090594E+03  0.12500000000E+03 0.  0.
</event>
<event>
 5    0  0.5634041E-005  0.2850846E+03  0.7546771E-02  0.1092944E+00
         21   -1    0    0  502  501  0.00000000000E+00  0.00000000000E+00  0.25532635164E+02  0.25532635164E+02  0.00000000000E+00 0.  1.
         21   -1    0    0  501  502 -0.00000000000E+00 -0.00000000000E+00 -0.31831122931E+04  0.31831122931E+04  0.00000000000E+00 0.  1.
         25    1    1    2    0    0  0.14625555692E+02  0.15584103721E+02 -0.45598942560E+03  0.47329496873E+03  0.12500000000E+03 0.  0.
         25    1    1    2    0    0  0.20097884902E+02 -0.74346909902E+02 -0.23690446948E+04  0.23735899296E+04  0.12500000000E+03 0.  0.
         25    1    1    2    0    0 -0.34723440594E+02  0.58762806182E+02 -0.33254553759E+03  0.36176002998E+03  0.12500000000E+03 0.  0.
</event>
<event>
 5    0  0.5634041E-005  0.3431289E+03  0.7546771E-02  0.1065471E+00
         21   -1    0    0  502  501  0.00000000000E+00  0.00000000000E+00  0.97407392391E+03  0.97407392391E+03  0.00000000000E+00 0. -1.
         21   -1    0    0  501  502 -0.00000000000E+00 -0.00000000000E+00 -0.12087115338E+03  0.12087115338E+03  0.00000000000E+00 0. -1.
         25    1    1    2    0    0  0.23422966037E+03  0.67364206394E+00  0.62783356396E+03  0.68166265236E+03  0.12500000000E+03 0.  0.
         25    1    1    2    0    0 -0.14184634843E+03 -0.59222120376E+01  0.10294449588E+03  0.21535558593E+03  0.12500000000E+03 0.  0.
         25    1    1    2    0    0 -0.92383311940E+02  0.52485699736E+01  0.12242471069E+03  0.19792683901E+03  0.12500000000E+03 0.  0.
</event>
<event>
 5    0  0.5634041E-005  0.4198351E+03  0.7546771E-02  0.1037120E+00
         21   -1    0    0  502  501  0.00000000000E+00  0.00000000000E+00  0.83440828100E+03  0.83440828100E+03  0.00000000000E+00 0. -1.
         21   -1    0    0  501  502 -0.00000000000E+00 -0.00000000000E+00 -0.21124136850E+03  0.21124136850E+03  0.00000000000E+00 0. -1.
         25    1    1    2    0    0  0.18248675808E+02 -0.11683370677E+03  0.16039609129E+03  0.23523400118E+03  0.12500000000E+03 0.  0.
         25    1    1    2    0    0  0.16009228263E+03 -0.60676397970E+02  0.48426734030E+03  0.52863127141E+03  0.12500000000E+03 0.  0.
         25    1    1    2    0    0 -0.17834095843E+03  0.17751010474E+03 -0.21496519101E+02  0.28178437692E+03  0.12500000000E+03 0.  0.
</event>
<event>
 5    0  0.7440895E-005  0.6532817E+03  0.7546771E-02  0.9800641E-01
         21   -1    0    0  502  501  0.00000000000E+00  0.00000000000E+00  0.48158796667E+03  0.48158796667E+03  0.00000000000E+00 0. -1.
         21   -1    0    0  501  502 -0.00000000000E+00 -0.00000000000E+00 -0.88618693399E+03  0.88618693399E+03  0.00000000000E+00 0. -1.
         25    1    1    2    0    0  0.31843567940E+03  0.14904232987E+03  0.15769832469E+03  0.40510327031E+03  0.12500000000E+03 0.  0.
         25    1    1    2    0    0 -0.14043232960E+03 -0.35642930369E+03 -0.10666683788E+03  0.41685237439E+03  0.12500000000E+03 0.  0.
         25    1    1    2    0    0 -0.17800334979E+03  0.20738697382E+03 -0.45563045413E+03  0.54581925596E+03  0.12500000000E+03 0.  0.
</event>
<event>
 5    0  0.5634041E-005  0.2602086E+03  0.7546771E-02  0.1107018E+00
         21   -1    0    0  502  501  0.00000000000E+00  0.00000000000E+00  0.18093669863E+04  0.18093669863E+04  0.00000000000E+00 0. -1.
         21   -1    0    0  501  502 -0.00000000000E+00 -0.00000000000E+00 -0.37421094104E+02  0.37421094104E+02  0.00000000000E+00 0. -1.
         25    1    1    2    0    0  0.15746723098E+02 -0.67431978246E+01  0.11980567764E+04  0.12046818955E+04  0.12500000000E+03 0.  0.
         25    1    1    2    0    0  0.49046177038E+01  0.67328104939E+02  0.35105888685E+03  0.37871423399E+03  0.12500000000E+03 0.  0.
         25    1    1    2    0    0 -0.20651340801E+02 -0.60584907114E+02  0.22283022898E+03  0.26339195089E+03  0.12500000000E+03 0.  0.
</event>
<event>
 5    0  0.5634041E-005  0.3708911E+03  0.7546771E-02  0.1054353E+00
         21   -1    0    0  502  501  0.00000000000E+00  0.00000000000E+00  0.17011710089E+03  0.17011710089E+03  0.00000000000E+00 0. -1.
         21   -1    0    0  501  502 -0.00000000000E+00 -0.00000000000E+00 -0.80862088732E+03  0.80862088732E+03  0.00000000000E+00 0. -1.
         25    1    1    2    0    0  0.56635481898E+02  0.55598849778E+02 -0.36561183643E+03  0.39445636621E+03  0.12500000000E+03 0.  0.
         25    1    1    2    0    0 -0.14402667959E+03  0.15517519715E+03 -0.19161713168E+03  0.31171325189E+03  0.12500000000E+03 0.  0.
         25    1    1    2    0    0  0.87391197696E+02 -0.21077404693E+03 -0.81274818328E+02  0.27256837012E+03  0.12500000000E+03 0.  0.
</event>
<event>
 5    0  0.5634041E-005  0.3697282E+03  0.7546771E-02  0.1054797E+00
         21   -1    0    0  502  501  0.00000000000E+00  0.00000000000E+00  0.34684890710E+03  0.34684890710E+03  0.00000000000E+00 0. -1.
         21   -1    0    0  501  502 -0.00000000000E+00 -0.00000000000E+00 -0.39411678065E+03  0.39411678065E+03  0.00000000000E+00 0. -1.
         25    1    1    2    0    0 -0.82601557691E+02  0.69154102350E+02 -0.25052814887E+03  0.29999110084E+03  0.12500000000E+03 0.  0.
         25    1    1    2    0    0  0.54752939895E+02  0.74547799086E+02  0.19350367745E+03  0.24824168055E+03  0.12500000000E+03 0.  0.
         25    1    1    2    0    0  0.27848617796E+02 -0.14370190144E+03  0.97565978735E+01  0.19273290635E+03  0.12500000000E+03 0.  0.
</event>
<event>
 5    0  0.5634041E-005  0.3646097E+03  0.7546771E-02  0.1056773E+00
         21   -1    0    0  502  501  0.00000000000E+00  0.00000000000E+00  0.20026314521E+04  0.20026314521E+04  0.00000000000E+00 0.  1.
         21   -1    0    0  501  502 -0.00000000000E+00 -0.00000000000E+00 -0.66382765289E+02  0.66382765289E+02  0.00000000000E+00 0.  1.
         25    1    1    2    0    0  0.62634928469E+02 -0.25688620963E+03  0.45600350299E+03  0.54173596309E+03  0.12500000000E+03 0.  0.
         25    1    1    2    0    0 -0.43070290868E+01  0.13230717773E+03  0.57454869871E+03  0.60270635219E+03  0.12500000000E+03 0.  0.
         25    1    1    2    0    0 -0.58327899383E+02  0.12457903190E+03  0.90569648509E+03  0.92457190209E+03  0.12500000000E+03 0.  0.
</event>
<event>
 5    0  0.5634041E-005  0.2587700E+03  0.7546771E-02  0.1107884E+00
         21   -1    0    0  502  501  0.00000000000E+00  0.00000000000E+00  0.61817365367E+03  0.61817365367E+03  0.00000000000E+00 0. -1.
         21   -1    0    0  501  502 -0.00000000000E+00 -0.00000000000E+00 -0.10832218502E+03  0.10832218502E+03  0.00000000000E+00 0. -1.
         25    1    1    2    0    0  0.38193757238E+02 -0.53986431691E+02  0.14422981027E+03  0.20199142573E+03  0.12500000000E+03 0.  0.
         25    1    1    2    0    0 -0.57149961516E+02 -0.19684697628E+02  0.35097997290E+03  0.37744608463E+03  0.12500000000E+03 0.  0.
         25    1    1    2    0    0  0.18956204278E+02  0.73671129320E+02  0.14641685479E+02  0.14705832832E+03  0.12500000000E+03 0.  0.
</event>
<event>
 5    0  0.5634041E-005  0.5812861E+03  0.7546771E-02  0.9945011E-01
         21   -1    0    0  502  501  0.00000000000E+00  0.00000000000E+00  0.64931053671E+03  0.64931053671E+03  0.00000000000E+00 0. -1.
         21   -1    0    0  501  502 -0.00000000000E+00 -0.00000000000E+00 -0.52038811493E+03  0.52038811493E+03  0.00000000000E+00 0. -1.
         25    1    1    2    0    0  0.29966013567E+03  0.17583197270E+02 -0.19446596437E+03  0.37887646672E+03  0.12500000000E+03 0.  0.
         25    1    1    2    0    0  0.13984211010E+03 -0.14730730069E+03  0.53178430224E+02  0.24435261823E+03  0.12500000000E+03 0.  0.
         25    1    1    2    0    0 -0.43950224577E+03  0.12972410342E+03  0.27020995592E+03  0.54646956670E+03  0.12500000000E+03 0.  0.
</event>
<event>
 5    0  0.5634041E-005  0.3175170E+03  0.7546771E-02  0.1076798E+00
         21   -1    0    0  502  501  0.00000000000E+00  0.00000000000E+00  0.97793801788E+03  0.97793801788E+03  0.00000000000E+00 0. -1.
         21   -1    0    0  501  502 -0.00000000000E+00 -0.00000000000E+00 -0.10309147227E+03  0.10309147227E+03  0.00000000000E+00 0. -1.
         25    1    1    2    0    0  0.17401742128E+03 -0.42579701080E+02  0.38347662713E+03  0.44133254742E+03  0.12500000000E+03 0.  0.
         25    1    1    2    0    0 -0.20759396509E+03 -0.51193081288E+02  0.32964851374E+03  0.41232163237E+03  0.12500000000E+03 0.  0.
         25    1    1    2    0    0  0.33576543814E+02  0.93772782368E+02  0.16172140474E+03  0.22737531036E+03  0.12500000000E+03 0.  0.
</event>
<event>
 5    0  0.5634041E-005  0.3283043E+03  0.7546771E-02  0.1071890E+00
         21   -1    0    0  502  501  0.00000000000E+00  0.00000000000E+00  0.19439777696E+04  0.19439777696E+04  0.00000000000E+00 0. -1.
         21   -1    0    0  501  502 -0.00000000000E+00 -0.00000000000E+00 -0.55444930509E+02  0.55444930509E+02  0.00000000000E+00 0. -1.
         25    1    1    2    0    0 -0.75965200142E+02 -0.15038370149E+03  0.65723240581E+03  0.68990246018E+03  0.12500000000E+03 0.  0.
         25    1    1    2    0    0  0.17849780651E+03  0.17776960206E+03  0.81020682029E+03  0.85762671950E+03  0.12500000000E+03 0.  0.
         25    1    1    2    0    0 -0.10253260636E+03 -0.27385900573E+02  0.42109361300E+03  0.45189352046E+03  0.12500000000E+03 0.  0.
</event>
<event>
 5    0  0.5634041E-005  0.4008296E+03  0.7546771E-02  0.1043493E+00
         21   -1    0    0  502  501  0.00000000000E+00  0.00000000000E+00  0.69679230535E+03  0.69679230535E+03  0.00000000000E+00 0. -1.
         21   -1    0    0  501  502 -0.00000000000E+00 -0.00000000000E+00 -0.23057713419E+03  0.23057713419E+03  0.00000000000E+00 0. -1.
         25    1    1    2    0    0 -0.26246218175E+03 -0.36057933936E+02  0.85329447318E+02  0.30511094053E+03  0.12500000000E+03 0.  0.
         25    1    1    2    0    0 -0.68678260603E+01 -0.84658172270E+02  0.21087471092E+03  0.25943653727E+03  0.12500000000E+03 0.  0.
         25    1    1    2    0    0  0.26933000781E+03  0.12071610621E+03  0.17001101292E+03  0.36282196174E+03  0.12500000000E+03 0.  0.
</event>
<event>
 5    0  0.5634041E-005  0.4678317E+03  0.7546771E-02  0.1022534E+00
         21   -1    0    0  502  501  0.00000000000E+00  0.00000000000E+00  0.29206256434E+03  0.29206256434E+03  0.00000000000E+00 0. -1.
         21   -1    0    0  501  502 -0.00000000000E+00 -0.00000000000E+00 -0.74938219252E+03  0.74938219252E+03  0.00000000000E+00 0. -1.
         25    1    1    2    0    0 -0.78024051684E+02 -0.33464058840E+03 -0.11801192449E+03  0.38421854506E+03  0.12500000000E+03 0.  0.
         25    1    1    2    0    0  0.14904511723E+03  0.24220404881E+03 -0.40890861985E+02  0.31332780091E+03  0.12500000000E+03 0.  0.
         25    1    1    2    0    0 -0.71021065542E+02  0.92436539584E+02 -0.29841684170E+03  0.34389841089E+03  0.12500000000E+03 0.  0.
</event>
<event>
 5    0  0.6497582E-005  0.2915673E+03  0.7546771E-02  0.1089534E+00
         21   -1    0    0  502  501  0.00000000000E+00  0.00000000000E+00  0.16958989015E+03  0.16958989015E+03  0.00000000000E+00 0. -1.
         21   -1    0    0  501  502 -0.00000000000E+00 -0.00000000000E+00 -0.50127698768E+03  0.50127698768E+03  0.00000000000E+00 0. -1.
         25    1    1    2    0    0  0.10913515869E+03 -0.26976884476E+02 -0.45324733950E+01  0.16817781802E+03  0.12500000000E+03 0.  0.
         25    1    1    2    0    0 -0.26735957363E+02  0.63912790342E+02 -0.31750091827E+03  0.34818312608E+03  0.12500000000E+03 0.  0.
         25    1    1    2    0    0 -0.82399201328E+02 -0.36935905866E+02 -0.96537058599E+01  0.15450593373E+03  0.12500000000E+03 0.  0.
</event>
<event>
 5    0  0.5634041E-005  0.6005272E+03  0.7546771E-02  0.9904313E-01
         21   -1    0    0  502  501  0.00000000000E+00  0.00000000000E+00  0.16481075733E+03  0.16481075733E+03  0.00000000000E+00 0. -1.
         21   -1    0    0  501  502 -0.00000000000E+00 -0.00000000000E+00 -0.21881636290E+04  0.21881636290E+04  0.00000000000E+00 0. -1.
         25    1    1    2    0    0 -0.44829302491E+02  0.26042430234E+03 -0.52659349214E+03  0.60229244522E+03  0.12500000000E+03 0.  0.
         25    1    1    2    0    0  0.22660796214E+03  0.22975811116E+03 -0.79211651249E+03  0.86441513609E+03  0.12500000000E+03 0.  0.
         25    1    1    2    0    0 -0.18177865965E+03 -0.49018241350E+03 -0.70464286703E+03  0.88626680501E+03  0.12500000000E+03 0.  0.
</event>
<event>
 5    0  0.5634041E-005  0.2261076E+03  0.7546771E-02  0.1129410E+00
         21   -1    0    0  502  501  0.00000000000E+00  0.00000000000E+00  0.16582941263E+03  0.16582941263E+03  0.00000000000E+00 0.  1.
         21   -1    0    0  501  502 -0.00000000000E+00 -0.00000000000E+00 -0.30829666669E+03  0.30829666669E+03  0.00000000000E+00 0.  1.
         25    1    1    2    0    0 -0.33937407842E+02  0.14075367891E+02 -0.10624678390E+03  0.16811675324E+03  0.12500000000E+03 0.  0.
         25    1    1    2    0    0 -0.31589584022E+02 -0.74644976483E+02 -0.31956979517E+02  0.15236805070E+03  0.12500000000E+03 0.  0.
         25    1    1    2    0    0  0.65526991864E+02  0.60569608591E+02 -0.42634906398E+01  0.15364127538E+03  0.12500000000E+03 0.  0.
</event>
<event>
 5    0  0.5634041E-005  0.2775334E+03  0.7546771E-02  0.1097044E+00
         21   -1    0    0  502  501  0.00000000000E+00  0.00000000000E+00  0.11497429292E+03  0.11497429292E+03  0.00000000000E+00 0. -1.
         21   -1    0    0  501  502 -0.00000000000E+00 -0.00000000000E+00 -0.66993050081E+03  0.66993050081E+03  0.00000000000E+00 0. -1.
         25    1    1    2    0    0 -0.20434160555E+02 -0.22836303613E+02  0.22845718259E+02  0.13071334485E+03  0.12500000000E+03 0.  0.
         25    1    1    2    0    0  0.69734152487E+02 -0.13401002064E+02 -0.16647181371E+03  0.21995523099E+03  0.12500000000E+03 0.  0.
         25    1    1    2    0    0 -0.49299991932E+02  0.36237305677E+02 -0.41133011244E+03  0.43423621789E+03  0.12500000000E+03 0.  0.
</event>
<event>
 5    0  0.5634041E-005  0.3977896E+03  0.7546771E-02  0.1044548E+00
         21   -1    0    0  502  501  0.00000000000E+00  0.00000000000E+00  0.14237348562E+03  0.14237348562E+03  0.00000000000E+00 0. -1.
         21   -1    0    0  501  502 -0.00000000000E+00 -0.00000000000E+00 -0.11114187297E+04  0.11114187297E+04  0.00000000000E+00 0. -1.
         25    1    1    2    0    0  0.91783817443E+01  0.61482254080E+02 -0.84432554555E+03  0.85578907281E+03  0.12500000000E+03 0.  0.
         25    1    1    2    0    0 -0.87978782006E+02 -0.87901330921E+01  0.51997790010E+02  0.16169818394E+03  0.12500000000E+03 0.  0.
         25    1    1    2    0    0  0.78800400262E+02 -0.52692120988E+02 -0.17671748852E+03  0.23630495857E+03  0.12500000000E+03 0.  0.
</event>
<event>
 5    0  0.5634041E-005  0.2201910E+03  0.7546771E-02  0.1133741E+00
         21   -1    0    0  502  501  0.00000000000E+00  0.00000000000E+00  0.11680338954E+03  0.11680338954E+03  0.00000000000E+00 0. -1.
         21   -1    0    0  501  502 -0.00000000000E+00 -0.00000000000E+00 -0.41509138147E+03  0.41509138147E+03  0.00000000000E+00 0. -1.
         25    1    1    2    0    0 -0.39688208023E+02  0.24944996806E+02 -0.14865437365E+03  0.19980122504E+03  0.12500000000E+03 0.  0.
         25    1    1    2    0    0  0.60491430502E+02 -0.71172314649E+02 -0.48185683498E+02  0.16331433382E+03  0.12500000000E+03 0.  0.
         25    1    1    2    0    0 -0.20803222479E+02  0.46227317844E+02 -0.10144793478E+03  0.16877921214E+03  0.12500000000E+03 0.  0.
</event>
<event>
 5    0  0.5634041E-005  0.3479635E+03  0.7546771E-02  0.1063454E+00
         21   -1    0    0  502  501  0.00000000000E+00  0.00000000000E+00  0.51482094253E+03  0.51482094253E+03  0.00000000000E+00 0.  1.
         21   -1    0    0  501  502 -0.00000000000E+00 -0.00000000000E+00 -0.23518578345E+03  0.23518578345E+03  0.00000000000E+00 0. -1.
         25    1    1    2    0    0  0.51186991669E+02 -0.67336844472E+02  0.17564136084E+02  0.15194689077E+03  0.12500000000E+03 0.  0.
         25    1    1    2    0    0  0.13383382519E+03 -0.10273243925E+03 -0.58175622403E+01  0.21005782744E+03  0.12500000000E+03 0.  0.
         25    1    1    2    0    0 -0.18502081686E+03  0.17006928372E+03  0.26788858524E+03  0.38800200777E+03  0.12500000000E+03 0.  0.
</event>
<event>
 5    0  0.5634041E-005  0.2607316E+03  0.7546771E-02  0.1106704E+00
         21   -1    0    0  502  501  0.00000000000E+00  0.00000000000E+00  0.34558041178E+03  0.34558041178E+03  0.00000000000E+00 0.  1.
         21   -1    0    0  501  502 -0.00000000000E+00 -0.00000000000E+00 -0.19671540580E+03  0.19671540580E+03  0.00000000000E+00 0.  1.
         25    1    1    2    0    0 -0.11921482907E+03  0.64212361867E+02  0.53756862384E+02  0.19196406731E+03  0.12500000000E+03 0.  0.
         25    1    1    2    0    0  0.34909093239E+02 -0.97785479196E+02 -0.11098210405E+02  0.16287668650E+03  0.12500000000E+03 0.  0.
         25    1    1    2    0    0  0.84305735828E+02  0.33573117329E+02  0.10620635399E+03  0.18745506376E+03  0.12500000000E+03 0.  0.
</event>
<event>
 5    0  0.5634041E-005  0.5782991E+03  0.7546771E-02  0.9951480E-01
         21   -1    0    0  502  501  0.00000000000E+00  0.00000000000E+00  0.32876806662E+03  0.32876806662E+03  0.00000000000E+00 0. -1.
         21   -1    0    0  501  502 -0.00000000000E+00 -0.00000000000E+00 -0.10172210720E+04  0.10172210720E+04  0.00000000000E+00 0. -1.
         25    1    1    2    0    0 -0.47815954868E+03 -0.10031294290E+03 -0.30943659761E+03  0.59167157144E+03  0.12500000000E+03 0.  0.
         25    1    1    2    0    0 -0.92883994455E+00  0.87216988059E+02 -0.12801161866E+03  0.19904682932E+03  0.12500000000E+03 0.  0.
         25    1    1    2    0    0  0.47908838863E+03  0.13095954838E+02 -0.25100478908E+03  0.55527073783E+03  0.12500000000E+03 0.  0.
</event>
<event>
 5    0  0.5634041E-005  0.2705580E+03  0.7546771E-02  0.1100961E+00
         21   -1    0    0  502  501  0.00000000000E+00  0.00000000000E+00  0.63797874094E+02  0.63797874094E+02  0.00000000000E+00 0. -1.
         21   -1    0    0  501  502 -0.00000000000E+00 -0.00000000000E+00 -0.11473995248E+04  0.11473995248E+04  0.00000000000E+00 0. -1.
         25    1    1    2    0    0 -0.14558953849E+02  0.16012218253E+03 -0.28144582956E+03  0.34740154210E+03  0.12500000000E+03 0.  0.
         25    1    1    2    0    0  0.11955937158E+01 -0.71880232434E+02 -0.23068975567E+03  0.27204955547E+03  0.12500000000E+03 0.  0.
         25    1    1    2    0    0  0.13363360133E+02 -0.88241950091E+02 -0.57146606549E+03  0.59174630135E+03  0.12500000000E+03 0.  0.
</event>
<event>
 5    0  0.5634041E-005  0.2737009E+03  0.7546771E-02  0.1099180E+00
         21   -1    0    0  502  501  0.00000000000E+00  0.00000000000E+00  0.22772142837E+03  0.22772142837E+03  0.00000000000E+00 0.  1.
         21   -1    0    0  501  502 -0.00000000000E+00 -0.00000000000E+00 -0.32896417014E+03  0.32896417014E+03  0.00000000000E+00 0.  1.
         25    1    1    2    0    0 -0.98280636224E+02 -0.41657457047E+01 -0.10218127953E+03  0.18905673958E+03  0.12500000000E+03 0.  0.
         25    1    1    2    0    0 -0.24791953713E+02 -0.80420130483E+02 -0.62027097907E+02  0.16295520621E+03  0.12500000000E+03 0.  0.
         25    1    1    2    0    0  0.12307258994E+03  0.84585876187E+02  0.62965635658E+02  0.20467365272E+03  0.12500000000E+03 0.  0.
</event>
<event>
 5    0  0.5634041E-005  0.3077820E+03  0.7546771E-02  0.1081414E+00
         21   -1    0    0  502  501  0.00000000000E+00  0.00000000000E+00  0.10448667429E+03  0.10448667429E+03  0.00000000000E+00 0.  1.
         21   -1    0    0  501  502 -0.00000000000E+00 -0.00000000000E+00 -0.90662026847E+03  0.90662026847E+03  0.00000000000E+00 0.  1.
         25    1    1    2    0    0 -0.46229889384E+02  0.14070458888E+02  0.30147098102E+02  0.13736458062E+03  0.12500000000E+03 0.  0.
         25    1    1    2    0    0  0.52362528034E+02  0.17752080817E+02 -0.41353341076E+03  0.43553628153E+03  0.12500000000E+03 0.  0.
         25    1    1    2    0    0 -0.61326386503E+01 -0.31822539705E+02 -0.41874728153E+03  0.43820608061E+03  0.12500000000E+03 0.  0.
</event>
<event>
 5    0  0.5634041E-005  0.2151411E+03  0.7546771E-02  0.1137558E+00
         21   -1    0    0  502  501  0.00000000000E+00  0.00000000000E+00  0.19370663603E+03  0.19370663603E+03  0.00000000000E+00 0. -1.
         21   -1    0    0  501  502 -0.00000000000E+00 -0.00000000000E+00 -0.23894729542E+03  0.23894729542E+03  0.00000000000E+00 0. -1.
         25    1    1    2    0    0  0.28244575340E+02  0.11268117146E+02 -0.54971225029E+02  0.13989839914E+03  0.12500000000E+03 0.  0.
         25    1    1    2    0    0  0.30716311060E+01  0.16540859512E+02 -0.64289505996E+02  0.14156685888E+03  0.12500000000E+03 0.  0.
         25    1    1    2    0    0 -0.31316206446E+02 -0.27808976658E+02  0.74020071635E+02  0.15118867343E+03  0.12500000000E+03 0.  0.
</event>
<event>
 5    0  0.5634041E-005  0.5302943E+03  0.7546771E-02  0.1006161E+00
         21   -1    0    0  502  501  0.00000000000E+00  0.00000000000E+00  0.18091552841E+03  0.18091552841E+03  0.00000000000E+00 0. -1.
         21   -1    0    0  501  502 -0.00000000000E+00 -0.00000000000E+00 -0.15543832859E+04  0.15543832859E+04  0.00000000000E+00 0. -1.
         25    1    1    2    0    0  0.21589893506E+03 -0.31179311124E+03 -0.63028680285E+03  0.74613252725E+03  0.12500000000E+03 0.  0.
         25    1    1    2    0    0 -0.12617424911E+03  0.39470376726E+03 -0.67438259978E+03  0.80132883132E+03  0.12500000000E+03 0.  0.
         25    1    1    2    0    0 -0.89724685946E+02 -0.82910656016E+02 -0.68798354885E+02  0.18783745575E+03  0.12500000000E+03 0.  0.
</event>
<event>
 5    0  0.5634041E-005  0.2337199E+03  0.7546771E-02  0.1124049E+00
         21   -1    0    0  502  501  0.00000000000E+00  0.00000000000E+00  0.20479964911E+04  0.20479964911E+04  0.00000000000E+00 0.  1.
         21   -1    0    0  501  502 -0.00000000000E+00 -0.00000000000E+00 -0.26672400022E+02  0.26672400022E+02  0.00000000000E+00 0.  1.
         25    1    1    2    0    0  0.13887525509E+02 -0.11952982914E+02  0.21699644667E+03  0.25109399641E+03  0.12500000000E+03 0.  0.
         25    1    1    2    0    0  0.73732518973E+01 -0.13017804638E+02  0.65363202829E+03  0.66564529330E+03  0.12500000000E+03 0.  0.
         25    1    1    2    0    0 -0.21260777406E+02  0.24970787552E+02  0.11506956161E+04  0.11579296014E+04  0.12500000000E+03 0.  0.
</event>
<event>
 5    0  0.5634041E-005  0.3617687E+03  0.7546771E-02  0.1057886E+00
         21   -1    0    0  502  501  0.00000000000E+00  0.00000000000E+00  0.11514627619E+04  0.11514627619E+04  0.00000000000E+00 0. -1.
         21   -1    0    0  501  502 -0.00000000000E+00 -0.00000000000E+00 -0.11366113349E+03  0.11366113349E+03  0.00000000000E+00 0. -1.
         25    1    1    2    0    0  0.23086940424E+03  0.52345968977E+02  0.38330465818E+03  0.46753421614E+03  0.12500000000E+03 0.  0.
         25    1    1    2    0    0  0.20009659677E+02  0.27741517975E+02  0.77149297059E+02  0.15082106065E+03  0.12500000000E+03 0.  0.
         25    1    1    2    0    0 -0.25087906392E+03 -0.80087486953E+02  0.57734767313E+03  0.64676861856E+03  0.12500000000E+03 0.  0.
</event>
<event>
 5    0  0.5634041E-005  0.4270193E+03  0.7546771E-02  0.1034806E+00
         21   -1    0    0  502  501  0.00000000000E+00  0.00000000000E+00  0.12589471787E+03  0.12589471787E+03  0.00000000000E+00 0. -1.
         21   -1    0    0  501  502 -0.00000000000E+00 -0.00000000000E+00 -0.14483963868E+04  0.14483963868E+04  0.00000000000E+00 0. -1.
         25    1    1    2    0    0 -0.68773754506E+02  0.84018010744E+02 -0.12526767788E+04  0.12635715126E+04  0.12500000000E+03 0.  0.
         25    1    1    2    0    0  0.31275507453E+02 -0.65425902013E+02 -0.99685447830E+02  0.17555880647E+03  0.12500000000E+03 0.  0.
         25    1    1    2    0    0  0.37498247053E+02 -0.18592108730E+02  0.29860557707E+02  0.13516078553E+03  0.12500000000E+03 0.  0.
</event>
<event>
 5    0  0.5634041E-005  0.2202629E+03  0.7546771E-02  0.1133687E+00
         21   -1    0    0  502  501  0.00000000000E+00  0.00000000000E+00  0.15028847610E+04  0.15028847610E+04  0.00000000000E+00 0. -1.
         21   -1    0    0  501  502 -0.00000000000E+00 -0.00000000000E+00 -0.32281751443E+02  0.32281751443E+02  0.00000000000E+00 0. -1.
         25    1    1    2    0    0  0.50327863979E+02 -0.83321036180E+02  0.43913434046E+03  0.46683964906E+03  0.12500000000E+03 0.  0.
         25    1    1    2    0    0  0.76111963084E+00  0.13647553492E+02  0.49915916276E+03  0.51475402358E+03  0.12500000000E+03 0.  0.
         25    1    1    2    0    0 -0.51088983610E+02  0.69673482687E+02  0.53230950630E+03  0.55357283978E+03  0.12500000000E+03 0.  0.
</event>
<event>
 5    0  0.5634041E-005  0.2970395E+03  0.7546771E-02  0.1086730E+00
         21   -1    0    0  502  501  0.00000000000E+00  0.00000000000E+00  0.20996334036E+03  0.20996334036E+03  0.00000000000E+00 0.  1.
         21   -1    0    0  501  502 -0.00000000000E+00 -0.00000000000E+00 -0.42022797956E+03  0.42022797956E+03  0.00000000000E+00 0.  1.
         25    1    1    2    0    0  0.77618741307E+02 -0.11178481653E+03 -0.12913876639E+03  0.22543809614E+03  0.12500000000E+03 0.  0.
         25    1    1    2    0    0 -0.15968609092E+02  0.88366365345E+02  0.93512249373E+02  0.18009206474E+03  0.12500000000E+03 0.  0.
         25    1    1    2    0    0 -0.61650132215E+02  0.23418451183E+02 -0.17463812219E+03  0.22466115904E+03  0.12500000000E+03 0.  0.
</event>
<event>
 5    0  0.6020221E-005  0.5554324E+03  0.7546771E-02  0.1000244E+00
         21   -1    0    0  502  501  0.00000000000E+00  0.00000000000E+00  0.28809915570E+03  0.28809915570E+03  0.00000000000E+00 0. -1.
         21   -1    0    0  501  502 -0.00000000000E+00 -0.00000000000E+00 -0.10708296660E+04  0.10708296660E+04  0.00000000000E+00 0. -1.
         25    1    1    2    0    0 -0.14732737586E+03  0.25986438649E+03 -0.38397857554E+02  0.32608932903E+03  0.12500000000E+03 0.  0.
         25    1    1    2    0    0 -0.19075210422E+03 -0.24549219511E+03 -0.23738292977E+03  0.41064393149E+03  0.12500000000E+03 0.  0.
         25    1    1    2    0    0  0.33807948008E+03 -0.14372191376E+02 -0.50694972303E+03  0.62219556123E+03  0.12500000000E+03 0.  0.
</event>
<event>
 5    0  0.5634041E-005  0.2266641E+03  0.7546771E-02  0.1129010E+00
         21   -1    0    0  502  501  0.00000000000E+00  0.00000000000E+00  0.51870743148E+03  0.51870743148E+03  0.00000000000E+00 0.  1.
         21   -1    0    0  501  502 -0.00000000000E+00 -0.00000000000E+00 -0.99047407037E+02  0.99047407037E+02  0.00000000000E+00 0.  1.
         25    1    1    2    0    0 -0.41937324810E+01  0.19684750320E+02  0.17075425170E+03  0.21257255528E+03  0.12500000000E+03 0.  0.
         25    1    1    2    0    0  0.58209682331E+01  0.81297997140E+02  0.70407124326E+02  0.16500124595E+03  0.12500000000E+03 0.  0.
         25    1    1    2    0    0 -0.16272357521E+01 -0.10098274746E+03  0.17849864841E+03  0.24018103728E+03  0.12500000000E+03 0.  0.
</event>
<event>
 5    0  0.5904644E-005  0.4615818E+03  0.7546771E-02  0.1024323E+00
         21   -1    0    0  502  501  0.00000000000E+00  0.00000000000E+00  0.74321568637E+03  0.74321568637E+03  0.00000000000E+00 0. -1.
         21   -1    0    0  501  502 -0.00000000000E+00 -0.00000000000E+00 -0.28667017212E+03  0.28667017212E+03  0.00000000000E+00 0. -1.
         25    1    1    2    0    0  0.67514315088E+02  0.27507584043E+03  0.37173630910E+03  0.48377451796E+03  0.12500000000E+03 0.  0.
         25    1    1    2    0    0  0.26326476249E+02 -0.16291586400E+03  0.22674319811E+03  0.30703768496E+03  0.12500000000E+03 0.  0.
         25    1    1    2    0    0 -0.93840791337E+02 -0.11215997643E+03 -0.14193399296E+03  0.23907365557E+03  0.12500000000E+03 0.  0.
</event>
<event>
 5    0  0.5634041E-005  0.2179425E+03  0.7546771E-02  0.1135426E+00
         21   -1    0    0  502  501  0.00000000000E+00  0.00000000000E+00  0.59407151685E+03  0.59407151685E+03  0.00000000000E+00 0. -1.
         21   -1    0    0  501  502 -0.00000000000E+00 -0.00000000000E+00 -0.79954919846E+02  0.79954919846E+02  0.00000000000E+00 0. -1.
         25    1    1    2    0    0 -0.77160300794E+01 -0.38427132452E+02  0.57341013727E+02  0.14300060659E+03  0.12500000000E+03 0.  0.
         25    1    1    2    0    0  0.14928889954E+02  0.44488730056E+02  0.31293087649E+03  0.34022470856E+03  0.12500000000E+03 0.  0.
         25    1    1    2    0    0 -0.72128598746E+01 -0.60615976043E+01  0.14384470679E+03  0.19080112155E+03  0.12500000000E+03 0.  0.
</event>
<event>
 5    0  0.5634041E-005  0.3346201E+03  0.7546771E-02  0.1069111E+00
         21   -1    0    0  502  501  0.00000000000E+00  0.00000000000E+00  0.12871768594E+04  0.12871768594E+04  0.00000000000E+00 0. -1.
         21   -1    0    0  501  502 -0.00000000000E+00 -0.00000000000E+00 -0.86989303095E+02  0.86989303095E+02  0.00000000000E+00 0. -1.
         25    1    1    2    0    0 -0.12331736037E+03 -0.11523252798E+02  0.17775297850E+03  0.25012212635E+03  0.12500000000E+03 0.  0.
         25    1    1    2    0    0  0.11277323469E+02 -0.17167603205E+03  0.56113343728E+03  0.60007963841E+03  0.12500000000E+03 0.  0.
         25    1    1    2    0    0  0.11204003691E+03  0.18319928484E+03  0.46130114050E+03  0.52396439771E+03  0.12500000000E+03 0.  0.
</event>
<event>
 5    0  0.6523876E-005  0.3415975E+03  0.7546771E-02  0.1066118E+00
         21   -1    0    0  502  501  0.00000000000E+00  0.00000000000E+00  0.70580274536E+03  0.70580274536E+03  0.00000000000E+00 0.  1.
         21   -1    0    0  501  502 -0.00000000000E+00 -0.00000000000E+00 -0.16532787746E+03  0.16532787746E+03  0.00000000000E+00 0.  1.
         25    1    1    2    0    0 -0.19221574289E+03 -0.10045563498E+03  0.83572771133E+02  0.26390838276E+03  0.12500000000E+03 0.  0.
         25    1    1    2    0    0  0.16825401808E+03  0.96872238585E+02  0.15104927469E+03  0.27592486041E+03  0.12500000000E+03 0.  0.
         25    1    1    2    0    0  0.23961724810E+02  0.35833963957E+01  0.30585282209E+03  0.33129737965E+03  0.12500000000E+03 0.  0.
</event>
<event>
 5    0  0.5634041E-005  0.6031795E+03  0.7546771E-02  0.9898831E-01
         21   -1    0    0  502  501  0.00000000000E+00  0.00000000000E+00  0.54992362784E+03  0.54992362784E+03  0.00000000000E+00 0.  1.
         21   -1    0    0  501  502 -0.00000000000E+00 -0.00000000000E+00 -0.66159287950E+03  0.66159287950E+03  0.00000000000E+00 0. -1.
         25    1    1    2    0    0  0.12459614879E+03  0.88846929436E+02 -0.20148044919E+03  0.28220090107E+03  0.12500000000E+03 0.  0.
         25    1    1    2    0    0  0.33054795187E+03  0.57214368468E+02 -0.14001042109E+03  0.38439998758E+03  0.12500000000E+03 0.  0.
         25    1    1    2    0    0 -0.45514410065E+03 -0.14606129790E+03  0.22982161861E+03  0.54491561868E+03  0.12500000000E+03 0.  0.
</event>
<event>
 5    0  0.5634041E-005  0.3701677E+03  0.7546771E-02  0.1054629E+00
         21   -1    0    0  502  501  0.00000000000E+00  0.00000000000E+00  0.72956256119E+02  0.72956256119E+02  0.00000000000E+00 0. -1.
         21   -1    0    0  501  502 -0.00000000000E+00 -0.00000000000E+00 -0.18781686947E+04  0.18781686947E+04  0.00000000000E+00 0. -1.
         25    1    1    2    0    0 -0.13217900345E+02 -0.49071918886E+02 -0.27855115134E+03  0.30951334385E+03  0.12500000000E+03 0.  0.
         25    1    1    2    0    0 -0.10426307010E+02  0.42746613901E+02 -0.15068981831E+04  0.15127138246E+04  0.12500000000E+03 0.  0.
         25    1    1    2    0    0  0.23644207356E+02  0.63253049850E+01 -0.19763104187E+02  0.12889778242E+03  0.12500000000E+03 0.  0.
</event>
<event>
 5    0  0.5634041E-005  0.2465036E+03  0.7546771E-02  0.1115535E+00
         21   -1    0    0  502  501  0.00000000000E+00  0.00000000000E+00  0.21887393632E+03  0.21887393632E+03  0.00000000000E+00 0. -1.
         21   -1    0    0  501  502 -0.00000000000E+00 -0.00000000000E+00 -0.27762106507E+03  0.27762106507E+03  0.00000000000E+00 0. -1.
         25    1    1    2    0    0 -0.77196935530E+02  0.32397876876E+02 -0.47370121077E+02  0.15772735226E+03  0.12500000000E+03 0.  0.
         25    1    1    2    0    0  0.38977369901E+02  0.76779033424E+02 -0.57516497672E+02  0.16231883083E+03  0.12500000000E+03 0.  0.
         25    1    1    2    0    0  0.38219565629E+02 -0.10917691030E+03  0.46139489995E+02  0.17644881829E+03  0.12500000000E+03 0.  0.
</event>
<event>
 5    0  0.5634041E-005  0.3020044E+03  0.7546771E-02  0.1084243E+00
         21   -1    0    0  502  501  0.00000000000E+00  0.00000000000E+00  0.11132384314E+04  0.11132384314E+04  0.00000000000E+00 0. -1.
         21   -1    0    0  501  502 -0.00000000000E+00 -0.00000000000E+00 -0.81929125779E+02  0.81929125779E+02  0.00000000000E+00 0. -1.
         25    1    1    2    0    0 -0.43346806824E+02  0.88139654814E+02  0.87289063932E+02  0.18136131091E+03  0.12500000000E+03 0.  0.
         25    1    1    2    0    0 -0.44669640269E+02  0.21007946629E+02  0.65823400441E+03  0.67181375033E+03  0.12500000000E+03 0.  0.
         25    1    1    2    0    0  0.88016447093E+02 -0.10914760144E+03  0.28578623732E+03  0.34199249597E+03  0.12500000000E+03 0.  0.
</event>
<event>
 5    0  0.5634041E-005  0.2412750E+03  0.7546771E-02  0.1118946E+00
         21   -1    0    0  502  501  0.00000000000E+00  0.00000000000E+00  0.78392413360E+02  0.78392413360E+02  0.00000000000E+00 0.  1.
         21   -1    0    0  501  502 -0.00000000000E+00 -0.00000000000E+00 -0.74259236217E+03  0.74259236217E+03  0.00000000000E+00 0.  1.
         25    1    1    2    0    0  0.21203218749E+02  0.64453629237E+02 -0.29270136655E+03  0.32542731414E+03  0.12500000000E+03 0.  0.
         25    1    1    2    0    0  0.61903209188E+02 -0.97329881257E+02 -0.15536001258E+03  0.23036242446E+03  0.12500000000E+03 0.  0.
         25    1    1    2    0    0 -0.83106427937E+02  0.32876252020E+02 -0.21613856967E+03  0.26519503693E+03  0.12500000000E+03 0.  0.
</event>
<event>
 5    0  0.5634041E-005  0.2747178E+03  0.7546771E-02  0.1098609E+00
         21   -1    0    0  502  501  0.00000000000E+00  0.00000000000E+00  0.91355901233E+03  0.91355901233E+03  0.00000000000E+00 0.  1.
         21   -1    0    0  501  502 -0.00000000000E+00 -0.00000000000E+00 -0.82610812199E+02  0.82610812199E+02  0.00000000000E+00 0.  1.
         25    1    1    2    0    0  0.78639713216E+02  0.17405031449E+02  0.15278748522E+03  0.21320449163E+03  0.12500000000E+03 0.  0.
         25    1    1    2    0    0 -0.10407545822E+03  0.11102768475E+03  0.45377435343E+03  0.49466656610E+03  0.12500000000E+03 0.  0.
         25    1    1    2    0    0  0.25435745007E+02 -0.12843271620E+03  0.22438636149E+03  0.28829876680E+03  0.12500000000E+03 0.  0.
</event>
<event>
 5    0  0.5634041E-005  0.2575544E+03  0.7546771E-02  0.1108622E+00
         21   -1    0    0  502  501  0.00000000000E+00  0.00000000000E+00  0.16087513715E+04  0.16087513715E+04  0.00000000000E+00 0. -1.
         21   -1    0    0  501  502 -0.00000000000E+00 -0.00000000000E+00 -0.41233387107E+02  0.41233387107E+02  0.00000000000E+00 0. -1.
         25    1    1    2    0    0 -0.16722267242E+02  0.14975978594E+02  0.10591428298E+04  0.10667297915E+04  0.12500000000E+03 0.  0.
         25    1    1    2    0    0 -0.39890385288E+02 -0.28433896938E+02  0.16172277897E+03  0.21018797913E+03  0.12500000000E+03 0.  0.
         25    1    1    2    0    0  0.56612652529E+02  0.13457918343E+02  0.34665237564E+03  0.37306698799E+03  0.12500000000E+03 0.  0.
</event>
<event>
 5    0  0.8322375E-005  0.4383760E+03  0.7546771E-02  0.1031246E+00
         21   -1    0    0  502  501  0.00000000000E+00  0.00000000000E+00  0.64996403112E+03  0.64996403112E+03  0.00000000000E+00 0. -1.
         21   -1    0    0  501  502 -0.00000000000E+00 -0.00000000000E+00 -0.29566798176E+03  0.29566798176E+03  0.00000000000E+00 0. -1.
         25    1    1    2    0    0  0.13963131649E+03  0.19109328261E+03  0.24555257735E+03  0.36322804881E+03  0.12500000000E+03 0.  0.
         25    1    1    2    0    0 -0.14263854496E+03 -0.92666135594E+02  0.27867608429E+03  0.34959709259E+03  0.12500000000E+03 0.  0.
         25    1    1    2    0    0  0.30072284668E+01 -0.98427147014E+02 -0.16993261227E+03  0.23280687148E+03  0.12500000000E+03 0.  0.
</event>
<event>
 5    0  0.5634041E-005  0.2293733E+03  0.7546771E-02  0.1127082E+00
         21   -1    0    0  502  501  0.00000000000E+00  0.00000000000E+00  0.73328561039E+02  0.73328561039E+02  0.00000000000E+00 0. -1.
         21   -1    0    0  501  502 -0.00000000000E+00 -0.00000000000E+00 -0.71748469298E+03  0.71748469298E+03  0.00000000000E+00 0. -1.
         25    1    1    2    0    0  0.50580325875E+02  0.69404282500E+01 -0.32106569426E+03  0.34830262552E+03  0.12500000000E+03 0.  0.
         25    1    1    2    0    0 -0.18135132043E+02 -0.19185130098E+02 -0.27665387833E+03  0.30472827342E+03  0.12500000000E+03 0.  0.
         25    1    1    2    0    0 -0.32445193832E+02  0.12244701848E+02 -0.46436559350E+02  0.13778235508E+03  0.12500000000E+03 0.  0.
</event>
<event>
 5    0  0.5634041E-005  0.4037704E+03  0.7546771E-02  0.1042482E+00
         21   -1    0    0  502  501  0.00000000000E+00  0.00000000000E+00  0.24395971474E+03  0.24395971474E+03  0.00000000000E+00 0. -1.
         21   -1    0    0  501  502 -0.00000000000E+00 -0.00000000000E+00 -0.66826842019E+03  0.66826842019E+03  0.00000000000E+00 0. -1.
         25    1    1    2    0    0 -0.19892052860E+03  0.15413648292E+03 -0.24769512765E+03  0.37457350191E+03  0.12500000000E+03 0.  0.
         25    1    1    2    0    0  0.91303838539E+02 -0.11062613378E+03  0.98270412325E+02  0.21414155679E+03  0.12500000000E+03 0.  0.
         25    1    1    2    0    0  0.10761669006E+03 -0.43510349147E+02 -0.27488399012E+03  0.32351307623E+03  0.12500000000E+03 0.  0.
</event>
<event>
 5    0  0.5634041E-005  0.3081493E+03  0.7546771E-02  0.1081236E+00
         21   -1    0    0  502  501  0.00000000000E+00  0.00000000000E+00  0.14195377990E+03  0.14195377990E+03  0.00000000000E+00 0. -1.
         21   -1    0    0  501  502 -0.00000000000E+00 -0.00000000000E+00 -0.66892195740E+03  0.66892195740E+03  0.00000000000E+00 0. -1.
         25    1    1    2    0    0 -0.40235181723E+02 -0.10825247464E+03 -0.46322885690E+02  0.17637538902E+03  0.12500000000E+03 0.  0.
         25    1    1    2    0    0 -0.20929375752E+02  0.13844742198E+03 -0.70776618484E+02  0.20059924513E+03  0.12500000000E+03 0.  0.
         25    1    1    2    0    0  0.61164557476E+02 -0.30194947347E+02 -0.40986867333E+03  0.43390110315E+03  0.12500000000E+03 0.  0.
</event>
<event>
 5    0  0.5634041E-005  0.2948092E+03  0.7546771E-02  0.1087865E+00
         21   -1    0    0  502  501  0.00000000000E+00  0.00000000000E+00  0.26497202291E+03  0.26497202291E+03  0.00000000000E+00 0.  1.
         21   -1    0    0  501  502 -0.00000000000E+00 -0.00000000000E+00 -0.32800626697E+03  0.32800626697E+03  0.00000000000E+00 0.  1.
         25    1    1    2    0    0 -0.58429425687E+02  0.13525911657E+03 -0.19742140180E+02  0.19422610149E+03  0.12500000000E+03 0.  0.
         25    1    1    2    0    0 -0.78876588715E+02 -0.13382124430E+03 -0.69654465016E+02  0.21120223997E+03  0.12500000000E+03 0.  0.
         25    1    1    2    0    0  0.13730601440E+03 -0.14378722656E+01  0.26362361142E+02  0.18754994842E+03  0.12500000000E+03 0.  0.
</event>
<event>
 5    0  0.5634041E-005  0.2112339E+03  0.7546771E-02  0.1140593E+00
         21   -1    0    0  502  501  0.00000000000E+00  0.00000000000E+00  0.86857842315E+02  0.86857842315E+02  0.00000000000E+00 0. -1.
         21   -1    0    0  501  502 -0.00000000000E+00 -0.00000000000E+00 -0.51371036652E+03  0.51371036652E+03  0.00000000000E+00 0. -1.
         25    1    1    2    0    0  0.73109502810E+02  0.17479421198E+02 -0.12370100793E+03  0.19125236973E+03  0.12500000000E+03 0.  0.
         25    1    1    2    0    0  0.93798390948E+00 -0.11269563485E+02 -0.17586258048E+03  0.21605677515E+03  0.12500000000E+03 0.  0.
         25    1    1    2    0    0 -0.74047486720E+02 -0.62098577129E+01 -0.12728893579E+03  0.19325906395E+03  0.12500000000E+03 0.  0.
</event>
<event>
 5    0  0.5634041E-005  0.3551808E+03  0.7546771E-02  0.1060509E+00
         21   -1    0    0  502  501  0.00000000000E+00  0.00000000000E+00  0.10280429478E+04  0.10280429478E+04  0.00000000000E+00 0. -1.
         21   -1    0    0  501  502 -0.00000000000E+00 -0.00000000000E+00 -0.12271217985E+03  0.12271217985E+03  0.00000000000E+00 0. -1.
         25    1    1    2    0    0 -0.81274333532E+02  0.27933812051E+02  0.50791275795E+03  0.53008130021E+03  0.12500000000E+03 0.  0.
         25    1    1    2    0    0  0.76192307782E+02 -0.19714484174E+03  0.30305475056E+03  0.39004940485E+03  0.12500000000E+03 0.  0.
         25    1    1    2    0    0  0.50820257507E+01  0.16921102969E+03  0.94363259412E+02  0.23062442256E+03  0.12500000000E+03 0.  0.
</event>
<event>
 5    0  0.5634041E-005  0.2819609E+03  0.7546771E-02  0.1094623E+00
         21   -1    0    0  502  501  0.00000000000E+00  0.00000000000E+00  0.49363384561E+03  0.49363384561E+03  0.00000000000E+00 0.  1.
         21   -1    0    0  501  502 -0.00000000000E+00 -0.00000000000E+00 -0.16105444613E+03  0.16105444613E+03  0.00000000000E+00 0.  1.
         25    1    1    2    0    0 -0.23547435085E+02 -0.67879179009E+02 -0.26348714029E+02  0.14656506873E+03  0.12500000000E+03 0.  0.
         25    1    1    2    0    0 -0.60717244829E+02 -0.69632952441E+02  0.14718168430E+03  0.21406256113E+03  0.12500000000E+03 0.  0.
         25    1    1    2    0    0  0.84264679915E+02  0.13751213145E+03  0.21174642921E+03  0.29406066187E+03  0.12500000000E+03 0.  0.
</event>
<event>
 5    0  0.5634041E-005  0.2598797E+03  0.7546771E-02  0.1107216E+00
         21   -1    0    0  502  501  0.00000000000E+00  0.00000000000E+00  0.11483410428E+03  0.11483410428E+03  0.00000000000E+00 0.  1.
         21   -1    0    0  501  502 -0.00000000000E+00 -0.00000000000E+00 -0.58813061912E+03  0.58813061912E+03  0.00000000000E+00 0.  1.
         25    1    1    2    0    0  0.11783173119E+03  0.75813028400E+02 -0.16335478400E+03  0.24888093058E+03  0.12500000000E+03 0.  0.
         25    1    1    2    0    0 -0.14650659390E+03 -0.48876869756E+02 -0.21144079877E+03  0.29014710379E+03  0.12500000000E+03 0.  0.
         25    1    1    2    0    0  0.28674862720E+02 -0.26936158644E+02 -0.98500932072E+02  0.16393668904E+03  0.12500000000E+03 0.  0.
</event>
<event>
 5    0  0.5634041E-005  0.2768401E+03  0.7546771E-02  0.1097427E+00
         21   -1    0    0  502  501  0.00000000000E+00  0.00000000000E+00  0.17546701158E+04  0.17546701158E+04  0.00000000000E+00 0.  1.
         21   -1    0    0  501  502 -0.00000000000E+00 -0.00000000000E+00 -0.43677991937E+02  0.43677991937E+02  0.00000000000E+00 0.  1.
         25    1    1    2    0    0 -0.92357439808E+02  0.12677009765E+03  0.54070999018E+03  0.57670863340E+03  0.12500000000E+03 0.  0.
         25    1    1    2    0    0  0.90657022594E+02 -0.12738361248E+03  0.47900499475E+03  0.51914936721E+03  0.12500000000E+03 0.  0.
         25    1    1    2    0    0  0.17004172133E+01  0.61351483069E+00  0.69127713891E+03  0.70249010711E+03  0.12500000000E+03 0.  0.
</event>
<event>
 5    0  0.5634041E-005  0.3124622E+03  0.7546771E-02  0.1079172E+00
         21   -1    0    0  502  501  0.00000000000E+00  0.00000000000E+00  0.14200094289E+03  0.14200094289E+03  0.00000000000E+00 0.  1.
         21   -1    0    0  501  502 -0.00000000000E+00 -0.00000000000E+00 -0.68754912530E+03  0.68754912530E+03  0.00000000000E+00 0.  1.
         25    1    1    2    0    0  0.24463149039E+02  0.69969691681E+02 -0.19983103156E+03  0.24708631000E+03  0.12500000000E+03 0.  0.
         25    1    1    2    0    0  0.27742695193E+02 -0.17465784367E+03 -0.34957213697E+03  0.41121855313E+03  0.12500000000E+03 0.  0.
         25    1    1    2    0    0 -0.52205844233E+02  0.10468815199E+03  0.38549861130E+01  0.17124520506E+03  0.12500000000E+03 0.  0.
</event>
<event>
 5    0  0.5634041E-005  0.2130882E+03  0.7546771E-02  0.1139144E+00
         21   -1    0    0  502  501  0.00000000000E+00  0.00000000000E+00  0.35736412410E+03  0.35736412410E+03  0.00000000000E+00 0.  1.
         21   -1    0    0  501  502 -0.00000000000E+00 -0.00000000000E+00 -0.12705965776E+03  0.12705965776E+03  0.00000000000E+00 0.  1.
         25    1    1    2    0    0  0.50727163318E+02  0.66991366590E+02  0.85879683311E+02  0.17338226063E+03  0.12500000000E+03 0.  0.
         25    1    1    2    0    0 -0.23065122055E+02 -0.74323024443E+02  0.77183028961E+02  0.16624720081E+03  0.12500000000E+03 0.  0.
         25    1    1    2    0    0 -0.27662041263E+02  0.73316578528E+01  0.67241754065E+02  0.14479432041E+03  0.12500000000E+03 0.  0.
</event>
<event>
 5    0  0.5634041E-005  0.4152087E+03  0.7546771E-02  0.1038637E+00
         21   -1    0    0  502  501  0.00000000000E+00  0.00000000000E+00  0.13958360357E+03  0.13958360357E+03  0.00000000000E+00 0. -1.
         21   -1    0    0  501  502 -0.00000000000E+00 -0.00000000000E+00 -0.12350898947E+04  0.12350898947E+04  0.00000000000E+00 0. -1.
         25    1    1    2    0    0  0.14654964053E+03 -0.11282627735E+03 -0.15721314875E+02  0.22378276462E+03  0.12500000000E+03 0.  0.
         25    1    1    2    0    0 -0.10541679200E+03 -0.55682037960E+02 -0.34801113233E+03  0.38852276332E+03  0.12500000000E+03 0.  0.
         25    1    1    2    0    0 -0.41132848528E+02  0.16850831531E+03 -0.73177384392E+03  0.76236797034E+03  0.12500000000E+03 0.  0.
</event>
<event>
 5    0  0.5634041E-005  0.2652644E+03  0.7546771E-02  0.1104021E+00
         21   -1    0    0  502  501  0.00000000000E+00  0.00000000000E+00  0.53340042911E+03  0.53340042911E+03  0.00000000000E+00 0. -1.
         21   -1    0    0  501  502 -0.00000000000E+00 -0.00000000000E+00 -0.13191818971E+03  0.13191818971E+03  0.00000000000E+00 0. -1.
         25    1    1    2    0    0  0.12520258667E+03  0.44391710392E+02  0.28157002987E+02  0.18456469998E+03  0.12500000000E+03 0.  0.
         25    1    1    2    0    0 -0.11261875988E+03  0.39369804406E+01  0.20868029413E+03  0.26808757907E+03  0.12500000000E+03 0.  0.
         25    1    1    2    0    0 -0.12583826791E+02 -0.48328690833E+02  0.16464494229E+03  0.21266633978E+03  0.12500000000E+03 0.  0.
</event>
<event>
 5    0  0.5634041E-005  0.3335733E+03  0.7546771E-02  0.1069567E+00
         21   -1    0    0  502  501  0.00000000000E+00  0.00000000000E+00  0.43239308621E+03  0.43239308621E+03  0.00000000000E+00 0.  1.
         21   -1    0    0  501  502 -0.00000000000E+00 -0.00000000000E+00 -0.25733787779E+03  0.25733787779E+03  0.00000000000E+00 0.  1.
         25    1    1    2    0    0 -0.10672574181E+03  0.24283693629E+02  0.30251358358E+03  0.34513700177E+03  0.12500000000E+03 0.  0.
         25    1    1    2    0    0 -0.24805840852E+01 -0.74685058030E+02 -0.72120233479E+02  0.16251258187E+03  0.12500000000E+03 0.  0.
         25    1    1    2    0    0  0.10920632590E+03  0.50401364401E+02 -0.55338141683E+02  0.18208138036E+03  0.12500000000E+03 0.  0.
</event>
<event>
 5    0  0.5634041E-005  0.2266446E+03  0.7546771E-02  0.1129024E+00
         21   -1    0    0  502  501  0.00000000000E+00  0.00000000000E+00  0.20074725583E+03  0.20074725583E+03  0.00000000000E+00 0.  1.
         21   -1    0    0  501  502 -0.00000000000E+00 -0.00000000000E+00 -0.25588287992E+03  0.25588287992E+03  0.00000000000E+00 0.  1.
         25    1    1    2    0    0 -0.52387717272E+02  0.27780133028E+02  0.38007025855E+02  0.14347732478E+03  0.12500000000E+03 0.  0.
         25    1    1    2    0    0  0.12575358003E+02 -0.78278873443E+02 -0.67922637642E+01  0.14817846167E+03  0.12500000000E+03 0.  0.
         25    1    1    2    0    0  0.39812359270E+02  0.50498740415E+02 -0.86350386172E+02  0.16497434930E+03  0.12500000000E+03 0.  0.
</event>
<event>
 5    0  0.5634041E-005  0.3087782E+03  0.7546771E-02  0.1080933E+00
         21   -1    0    0  502  501  0.00000000000E+00  0.00000000000E+00  0.60101172954E+02  0.60101172954E+02  0.00000000000E+00 0. -1.
         21   -1    0    0  501  502 -0.00000000000E+00 -0.00000000000E+00 -0.15863914047E+04  0.15863914047E+04  0.00000000000E+00 0. -1.
         25    1    1    2    0    0 -0.85571621817E+02  0.19081073673E+03 -0.64320841376E+03  0.68780324457E+03  0.12500000000E+03 0.  0.
         25    1    1    2    0    0  0.51718184208E+02 -0.10752744502E+02 -0.21021944918E+03  0.25021512526E+03  0.12500000000E+03 0.  0.
         25    1    1    2    0    0  0.33853437609E+02 -0.18005799223E+03 -0.67286236884E+03  0.70847420786E+03  0.12500000000E+03 0.  0.
</event>
<event>
 5    0  0.5634041E-005  0.3308250E+03  0.7546771E-02  0.1070772E+00
         21   -1    0    0  502  501  0.00000000000E+00  0.00000000000E+00  0.15311756837E+03  0.15311756837E+03  0.00000000000E+00 0.  1.
         21   -1    0    0  501  502 -0.00000000000E+00 -0.00000000000E+00 -0.71477880639E+03  0.71477880639E+03  0.00000000000E+00 0.  1.
         25    1    1    2    0    0 -0.12160270226E+03  0.14197357527E+03 -0.32354310276E+03  0.39401631009E+03  0.12500000000E+03 0.  0.
         25    1    1    2    0    0 -0.27548650440E+02  0.41633104727E+02 -0.38281920644E+02  0.13993837572E+03  0.12500000000E+03 0.  0.
         25    1    1    2    0    0  0.14915135270E+03 -0.18360667999E+03 -0.19983621462E+03  0.33394168895E+03  0.12500000000E+03 0.  0.
</event>
<event>
 5    0  0.5634041E-005  0.2549426E+03  0.7546771E-02  0.1110220E+00
         21   -1    0    0  502  501  0.00000000000E+00  0.00000000000E+00  0.63953513630E+03  0.63953513630E+03  0.00000000000E+00 0. -1.
         21   -1    0    0  501  502 -0.00000000000E+00 -0.00000000000E+00 -0.10162966370E+03  0.10162966370E+03  0.00000000000E+00 0. -1.
         25    1    1    2    0    0  0.98027047582E+02 -0.46555471105E+02  0.25435701191E+03  0.30347850576E+03  0.12500000000E+03 0.  0.
         25    1    1    2    0    0  0.31458551561E+02  0.14740672681E+02  0.45320332985E+02  0.13742583629E+03  0.12500000000E+03 0.  0.
         25    1    1    2    0    0 -0.12948559914E+03  0.31814798424E+02  0.23822812770E+03  0.30026045796E+03  0.12500000000E+03 0.  0.
</event>
<event>
 5    0  0.5934189E-005  0.3097120E+03  0.7546771E-02  0.1080484E+00
         21   -1    0    0  502  501  0.00000000000E+00  0.00000000000E+00  0.60740275378E+03  0.60740275378E+03  0.00000000000E+00 0.  1.
         21   -1    0    0  501  502 -0.00000000000E+00 -0.00000000000E+00 -0.15792075012E+03  0.15792075012E+03  0.00000000000E+00 0.  1.
         25    1    1    2    0    0  0.14558173816E+03  0.13017644811E+03  0.31109758880E+03  0.38800342767E+03  0.12500000000E+03 0.  0.
         25    1    1    2    0    0 -0.13944872678E+02 -0.11227405707E+03  0.64484961932E+02  0.18050826485E+03  0.12500000000E+03 0.  0.
         25    1    1    2    0    0 -0.13163686548E+03 -0.17902391043E+02  0.73899452930E+02  0.19681181139E+03  0.12500000000E+03 0.  0.
</event>
<event>
 5    0  0.5634041E-005  0.2911094E+03  0.7546771E-02  0.1089771E+00
         21   -1    0    0  502  501  0.00000000000E+00  0.00000000000E+00  0.11451226854E+03  0.11451226854E+03  0.00000000000E+00 0. -1.
         21   -1    0    0  501  502 -0.00000000000E+00 -0.00000000000E+00 -0.74004878550E+03  0.74004878550E+03  0.00000000000E+00 0. -1.
         25    1    1    2    0    0 -0.21283509969E+03 -0.12725069390E+02 -0.29952035916E+03  0.38832737813E+03  0.12500000000E+03 0.  0.
         25    1    1    2    0    0  0.80144448653E+02  0.19029796648E+02 -0.16667416291E+03  0.22403245835E+03  0.12500000000E+03 0.  0.
         25    1    1    2    0    0  0.13269065104E+03 -0.63047272581E+01 -0.15934199488E+03  0.24220121757E+03  0.12500000000E+03 0.  0.
</event>
<event>
 5    0  0.5634041E-005  0.3480552E+03  0.7546771E-02  0.1063416E+00
         21   -1    0    0  502  501  0.00000000000E+00  0.00000000000E+00  0.29932714750E+03  0.29932714750E+03  0.00000000000E+00 0. -1.
         21   -1    0    0  501  502 -0.00000000000E+00 -0.00000000000E+00 -0.40471574947E+03  0.40471574947E+03  0.00000000000E+00 0. -1.
         25    1    1    2    0    0  0.37298182894E+02  0.20443099044E+03 -0.75766573588E+02  0.25406447601E+03  0.12500000000E+03 0.  0.
         25    1    1    2    0    0  0.86212864536E+02 -0.17316583657E+03  0.76064374352E+02  0.24254866318E+03  0.12500000000E+03 0.  0.
         25    1    1    2    0    0 -0.12351104743E+03 -0.31265153871E+02 -0.10568640274E+03  0.20742975777E+03  0.12500000000E+03 0.  0.
</event>
<event>
 5    0  0.5634041E-005  0.3230739E+03  0.7546771E-02  0.1074243E+00
         21   -1    0    0  502  501  0.00000000000E+00  0.00000000000E+00  0.14763493994E+04  0.14763493994E+04  0.00000000000E+00 0.  1.
         21   -1    0    0  501  502 -0.00000000000E+00 -0.00000000000E+00 -0.70699226921E+02  0.70699226921E+02  0.00000000000E+00 0.  1.
         25    1    1    2    0    0 -0.25072940765E+02  0.18674052639E+03  0.79212729499E+03  0.82376654946E+03  0.12500000000E+03 0.  0.
         25    1    1    2    0    0 -0.57929633362E+02 -0.16364101671E+03  0.46033575052E+03  0.50761031114E+03  0.12500000000E+03 0.  0.
         25    1    1    2    0    0  0.83002574127E+02 -0.23099509678E+02  0.15318712700E+03  0.21567176574E+03  0.12500000000E+03 0.  0.
</event>
<event>
 5    0  0.5634041E-005  0.3459286E+03  0.7546771E-02  0.1064299E+00
         21   -1    0    0  502  501  0.00000000000E+00  0.00000000000E+00  0.92948649762E+02  0.92948649762E+02  0.00000000000E+00 0. -1.
         21   -1    0    0  501  502 -0.00000000000E+00 -0.00000000000E+00 -0.12874484119E+04  0.12874484119E+04  0.00000000000E+00 0. -1.
         25    1    1    2    0    0  0.21619951267E+03  0.13597155895E+03 -0.70574356247E+03  0.76087414865E+03  0.12500000000E+03 0.  0.
         25    1    1    2    0    0 -0.16192003931E+03 -0.44838655268E+02 -0.21291057900E+03  0.29863777187E+03  0.12500000000E+03 0.  0.
         25    1    1    2    0    0 -0.54279473360E+02 -0.91132903681E+02 -0.27584562065E+03  0.32088514112E+03  0.12500000000E+03 0.  0.
</event>
<event>
 5    0  0.5634041E-005  0.3144043E+03  0.7546771E-02  0.1078254E+00
         21   -1    0    0  502  501  0.00000000000E+00  0.00000000000E+00  0.12304598658E+03  0.12304598658E+03  0.00000000000E+00 0. -1.
         21   -1    0    0  501  502 -0.00000000000E+00 -0.00000000000E+00 -0.80335858600E+03  0.80335858600E+03  0.00000000000E+00 0. -1.
         25    1    1    2    0    0  0.14639365669E+03  0.26069734716E+02 -0.70838860800E+02  0.20677010903E+03  0.12500000000E+03 0.  0.
         25    1    1    2    0    0 -0.29390426434E+02 -0.11754316660E+03 -0.38716354240E+03  0.42450064987E+03  0.12500000000E+03 0.  0.
         25    1    1    2    0    0 -0.11700323026E+03  0.91473431880E+02 -0.22231019622E+03  0.29513381368E+03  0.12500000000E+03 0.  0.
</event>
<event>
 5    0  0.5634041E-005  0.3173601E+03  0.7546771E-02  0.1076871E+00
         21   -1    0    0  502  501  0.00000000000E+00  0.00000000000E+00  0.32366532520E+03  0.32366532520E+03  0.00000000000E+00 0.  1.
         21   -1    0    0  501  502 -0.00000000000E+00 -0.00000000000E+00 -0.31117771988E+03  0.31117771988E+03  0.00000000000E+00 0.  1.
         25    1    1    2    0    0 -0.38380198792E+02 -0.31731735069E+02 -0.19714211485E+03  0.23868379944E+03  0.12500000000E+03 0.  0.
         25    1    1    2    0    0 -0.10173931651E+02  0.11598502462E+03  0.68557121989E+02  0.18406823136E+03  0.12500000000E+03 0.  0.
         25    1    1    2    0    0  0.48554130443E+02 -0.84253289547E+02  0.14107259818E+03  0.21209101428E+03  0.12500000000E+03 0.  0.
</event>
<event>
 5    0  0.5634041E-005  0.3361399E+03  0.7546771E-02  0.1068452E+00
         21   -1    0    0  502  501  0.00000000000E+00  0.00000000000E+00  0.27684337653E+03  0.27684337653E+03  0.00000000000E+00 0.  1.
         21   -1    0    0  501  502 -0.00000000000E+00 -0.00000000000E+00 -0.40813695551E+03  0.40813695551E+03  0.00000000000E+00 0.  1.
         25    1    1    2    0    0  0.27038136732E+02  0.74936125019E+02 -0.44532761416E+02  0.15477289979E+03  0.12500000000E+03 0.  0.
         25    1    1    2    0    0 -0.10705197356E+02  0.44564865680E+01 -0.26779188830E+03  0.29575658397E+03  0.12500000000E+03 0.  0.
         25    1    1    2    0    0 -0.16332939376E+02 -0.79392611587E+02  0.18103107074E+03  0.23445084828E+03  0.12500000000E+03 0.  0.
</event>
<event>
 5    0  0.5634041E-005  0.2806636E+03  0.7546771E-02  0.1095327E+00
         21   -1    0    0  502  501  0.00000000000E+00  0.00000000000E+00  0.59757991934E+02  0.59757991934E+02  0.00000000000E+00 0. -1.
         21   -1    0    0  501  502 -0.00000000000E+00 -0.00000000000E+00 -0.13181849042E+04  0.13181849042E+04  0.00000000000E+00 0. -1.
         25    1    1    2    0    0  0.37209217390E+02  0.93458165132E+02 -0.71839325284E+03  0.73609294265E+03  0.12500000000E+03 0.  0.
         25    1    1    2    0    0 -0.11159361829E+03 -0.34730252287E+02 -0.17611408832E+03  0.24556159751E+03  0.12500000000E+03 0.  0.
         25    1    1    2    0    0  0.74384400903E+02 -0.58727912845E+02 -0.36391957107E+03  0.39628835594E+03  0.12500000000E+03 0.  0.
</event>
<event>
 5    0  0.5634041E-005  0.3747308E+03  0.7546771E-02  0.1052899E+00
         21   -1    0    0  502  501  0.00000000000E+00  0.00000000000E+00  0.12280804187E+03  0.12280804187E+03  0.00000000000E+00 0. -1.
         21   -1    0    0  501  502 -0.00000000000E+00 -0.00000000000E+00 -0.11434361241E+04  0.11434361241E+04  0.00000000000E+00 0. -1.
         25    1    1    2    0    0 -0.22432365503E+03 -0.13669271256E+03 -0.63651807896E+03  0.69984731529E+03  0.12500000000E+03 0.  0.
         25    1    1    2    0    0  0.21883467884E+03  0.12397047219E+03 -0.31814955958E+03  0.42438359640E+03  0.12500000000E+03 0.  0.
         25    1    1    2    0    0  0.54889761915E+01  0.12722240364E+02 -0.65960443711E+02  0.14201325429E+03  0.12500000000E+03 0.  0.
</event>
<event>
 5    0  0.5634041E-005  0.3428237E+03  0.7546771E-02  0.1065600E+00
         21   -1    0    0  502  501  0.00000000000E+00  0.00000000000E+00  0.97087373334E+02  0.97087373334E+02  0.00000000000E+00 0. -1.
         21   -1    0    0  501  502 -0.00000000000E+00 -0.00000000000E+00 -0.12105390471E+04  0.12105390471E+04  0.00000000000E+00 0. -1.
         25    1    1    2    0    0 -0.21234898317E+03  0.72970068263E+02 -0.55101490370E+03  0.60799600790E+03  0.12500000000E+03 0.  0.
         25    1    1    2    0    0  0.80354690834E+02 -0.14681853041E+03 -0.36941507462E+03  0.42438785864E+03  0.12500000000E+03 0.  0.
         25    1    1    2    0    0  0.13199429233E+03  0.73848462144E+02 -0.19302169549E+03  0.27524255394E+03  0.12500000000E+03 0.  0.
</event>
<event>
 5    0  0.5634041E-005  0.2907911E+03  0.7546771E-02  0.1089937E+00
         21   -1    0    0  502  501  0.00000000000E+00  0.00000000000E+00  0.10205368324E+03  0.10205368324E+03  0.00000000000E+00 0. -1.
         21   -1    0    0  501  502 -0.00000000000E+00 -0.00000000000E+00 -0.82857849304E+03  0.82857849304E+03  0.00000000000E+00 0. -1.
         25    1    1    2    0    0  0.54549142951E+02  0.16990205911E+01 -0.21719891447E+03  0.25647390533E+03  0.12500000000E+03 0.  0.
         25    1    1    2    0    0 -0.10040650770E+02  0.16195920304E+03 -0.36574392319E+03  0.41919591538E+03  0.12500000000E+03 0.  0.
         25    1    1    2    0    0 -0.44508492181E+02 -0.16365822363E+03 -0.14358197213E+03  0.25496235557E+03  0.12500000000E+03 0.  0.
</event>
<event>
 5    0  0.5634041E-005  0.2591732E+03  0.7546771E-02  0.1107641E+00
         21   -1    0    0  502  501  0.00000000000E+00  0.00000000000E+00  0.55863388290E+03  0.55863388290E+03  0.00000000000E+00 0.  1.
         21   -1    0    0  501  502 -0.00000000000E+00 -0.00000000000E+00 -0.12024112878E+03  0.12024112878E+03  0.00000000000E+00 0.  1.
         25    1    1    2    0    0  0.67985826067E+02 -0.12251611234E+02  0.10960947001E+03  0.18003169288E+03  0.12500000000E+03 0.  0.
         25    1    1    2    0    0  0.64889312857E+02 -0.48340957553E+02  0.25022969305E+03  0.29118270962E+03  0.12500000000E+03 0.  0.
         25    1    1    2    0    0 -0.13287513892E+03  0.60592568786E+02  0.78553591062E+02  0.20766060918E+03  0.12500000000E+03 0.  0.
</event>
<event>
 5    0  0.5634041E-005  0.2566809E+03  0.7546771E-02  0.1109154E+00
         21   -1    0    0  502  501  0.00000000000E+00  0.00000000000E+00  0.38191492376E+02  0.38191492376E+02  0.00000000000E+00 0.  1.
         21   -1    0    0  501  502 -0.00000000000E+00 -0.00000000000E+00 -0.17251247150E+04  0.17251247150E+04  0.00000000000E+00 0.  1.
         25    1    1    2    0    0  0.95976959147E+02 -0.96293478595E+01 -0.61094597443E+03  0.63101845036E+03  0.12500000000E+03 0.  0.
         25    1    1    2    0    0  0.13467710011E+02  0.47624803952E+02 -0.20750347829E+03  0.24724925615E+03  0.12500000000E+03 0.  0.
         25    1    1    2    0    0 -0.10944466916E+03 -0.37995456093E+02 -0.86848376989E+03  0.88504850085E+03  0.12500000000E+03 0.  0.
</event>
<event>
 5    0  0.5634041E-005  0.3524604E+03  0.7546771E-02  0.1061610E+00
         21   -1    0    0  502  501  0.00000000000E+00  0.00000000000E+00  0.20466937866E+03  0.20466937866E+03  0.00000000000E+00 0. -1.
         21   -1    0    0  501  502 -0.00000000000E+00 -0.00000000000E+00 -0.60697090557E+03  0.60697090557E+03  0.00000000000E+00 0. -1.
         25    1    1    2    0    0  0.60428764790E+02 -0.88548877154E+01 -0.39656489042E+03  0.42026034427E+03  0.12500000000E+03 0.  0.
         25    1    1    2    0    0 -0.58698757880E+02  0.93861014616E+02 -0.11681820488E+03  0.20378156745E+03  0.12500000000E+03 0.  0.
         25    1    1    2    0    0 -0.17300069098E+01 -0.85006126900E+02  0.11108156838E+03  0.18759837251E+03  0.12500000000E+03 0.  0.
</event>
<event>
 5    0  0.5634041E-005  0.2823691E+03  0.7546771E-02  0.1094402E+00
         21   -1    0    0  502  501  0.00000000000E+00  0.00000000000E+00  0.80060466227E+02  0.80060466227E+02  0.00000000000E+00 0. -1.
         21   -1    0    0  501  502 -0.00000000000E+00 -0.00000000000E+00 -0.99590147289E+03  0.99590147289E+03  0.00000000000E+00 0. -1.
         25    1    1    2    0    0  0.58150546476E+02  0.91747047577E+02 -0.23846436439E+03  0.29032612676E+03  0.12500000000E+03 0.  0.
         25    1    1    2    0    0 -0.12689911824E+03  0.21935592527E+02 -0.17295886832E+03  0.24924752067E+03  0.12500000000E+03 0.  0.
         25    1    1    2    0    0  0.68748571764E+02 -0.11368264010E+03 -0.50441777396E+03  0.53638829170E+03  0.12500000000E+03 0.  0.
</event>
<event>
 5    0  0.5634041E-005  0.3086111E+03  0.7546771E-02  0.1081013E+00
         21   -1    0    0  502  501  0.00000000000E+00  0.00000000000E+00  0.75885413387E+03  0.75885413387E+03  0.00000000000E+00 0.  1.
         21   -1    0    0  501  502 -0.00000000000E+00 -0.00000000000E+00 -0.12550611974E+03  0.12550611974E+03  0.00000000000E+00 0.  1.
         25    1    1    2    0    0  0.98599718747E+02  0.12092133790E+02  0.67149705390E+02  0.17321145219E+03  0.12500000000E+03 0.  0.
         25    1    1    2    0    0 -0.36665926006E+02 -0.51559125158E+02  0.54729757888E+03  0.56494457548E+03  0.12500000000E+03 0.  0.
         25    1    1    2    0    0 -0.61933792741E+02  0.39466991368E+02  0.18900729855E+02  0.14620422593E+03  0.12500000000E+03 0.  0.
</event>
<event>
 5    0  0.5634041E-005  0.2603694E+03  0.7546771E-02  0.1106922E+00
         21   -1    0    0  502  501  0.00000000000E+00  0.00000000000E+00  0.91891876407E+02  0.91891876407E+02  0.00000000000E+00 0.  1.
         21   -1    0    0  501  502 -0.00000000000E+00 -0.00000000000E+00 -0.73773882265E+03  0.73773882265E+03  0.00000000000E+00 0.  1.
         25    1    1    2    0    0 -0.86344191730E+02 -0.48997098532E+02 -0.40668419859E+03  0.43689022934E+03  0.12500000000E+03 0.  0.
         25    1    1    2    0    0 -0.32822237641E+02  0.38097526615E+02 -0.74937378869E+02  0.15417305721E+03  0.12500000000E+03 0.  0.
         25    1    1    2    0    0  0.11916642937E+03  0.10899571917E+02 -0.16422536878E+03  0.23856741250E+03  0.12500000000E+03 0.  0.
</event>
<event>
 5    0  0.5634041E-005  0.3068613E+03  0.7546771E-02  0.1081860E+00
         21   -1    0    0  502  501  0.00000000000E+00  0.00000000000E+00  0.39845929629E+03  0.39845929629E+03  0.00000000000E+00 0.  1.
         21   -1    0    0  501  502 -0.00000000000E+00 -0.00000000000E+00 -0.23631995397E+03  0.23631995397E+03  0.00000000000E+00 0.  1.
         25    1    1    2    0    0  0.44195639128E+02  0.16629472014E+03 -0.15182262585E+02  0.21321981512E+03  0.12500000000E+03 0.  0.
         25    1    1    2    0    0  0.70475001642E+01  0.32496064485E+02  0.11544083718E+03  0.17337026375E+03  0.12500000000E+03 0.  0.
         25    1    1    2    0    0 -0.51243139292E+02 -0.19879078462E+03  0.61880767725E+02  0.24818917138E+03  0.12500000000E+03 0.  0.
</event>
<event>
 5    0  0.5634041E-005  0.3096805E+03  0.7546771E-02  0.1080499E+00
         21   -1    0    0  502  501  0.00000000000E+00  0.00000000000E+00  0.14249945035E+03  0.14249945035E+03  0.00000000000E+00 0. -1.
         21   -1    0    0  501  502 -0.00000000000E+00 -0.00000000000E+00 -0.67299903964E+03  0.67299903964E+03  0.00000000000E+00 0. -1.
         25    1    1    2    0    0 -0.17172757854E+02  0.13237876608E+03 -0.31244084197E+02  0.18552690942E+03  0.12500000000E+03 0.  0.
         25    1    1    2    0    0 -0.92700280492E+02 -0.11173190674E+03 -0.15275899613E+03  0.24502585963E+03  0.12500000000E+03 0.  0.
         25    1    1    2    0    0  0.10987303835E+03 -0.20646859339E+02 -0.34649650896E+03  0.38494572095E+03  0.12500000000E+03 0.  0.
</event>
<event>
 5    0  0.5634041E-005  0.2418130E+03  0.7546771E-02  0.1118591E+00
         21   -1    0    0  502  501  0.00000000000E+00  0.00000000000E+00  0.12293662789E+03  0.12293662789E+03  0.00000000000E+00 0. -1.
         21   -1    0    0  501  502 -0.00000000000E+00 -0.00000000000E+00 -0.47563971236E+03  0.47563971236E+03  0.00000000000E+00 0. -1.
         25    1    1    2    0    0  0.10802881744E+03 -0.87149245446E+02 -0.16850143088E+03  0.25156102359E+03  0.12500000000E+03 0.  0.
         25    1    1    2    0    0 -0.20295637343E+02  0.51395446103E+02 -0.96627902294E+02  0.16737788467E+03  0.12500000000E+03 0.  0.
         25    1    1    2    0    0 -0.87733180098E+02  0.35753799343E+02 -0.87573751293E+02  0.17963743199E+03  0.12500000000E+03 0.  0.
</event>
<event>
 5    0  0.5634041E-005  0.3096194E+03  0.7546771E-02  0.1080528E+00
         21   -1    0    0  502  501  0.00000000000E+00  0.00000000000E+00  0.35456502458E+03  0.35456502458E+03  0.00000000000E+00 0.  1.
         21   -1    0    0  501  502 -0.00000000000E+00 -0.00000000000E+00 -0.27037125592E+03  0.27037125592E+03  0.00000000000E+00 0.  1.
         25    1    1    2    0    0  0.13364084616E+03  0.12077709891E+02 -0.36889136576E+02  0.18706029840E+03  0.12500000000E+03 0.  0.
         25    1    1    2    0    0 -0.16463274611E+03 -0.56738185423E+02 -0.49027587298E+02  0.21989057982E+03  0.12500000000E+03 0.  0.
         25    1    1    2    0    0  0.30991899947E+02  0.44660475532E+02  0.17011049253E+03  0.21798540228E+03  0.12500000000E+03 0.  0.
</event>
<event>
 5    0  0.5634041E-005  0.2701552E+03  0.7546771E-02  0.1101191E+00
         21   -1    0    0  502  501  0.00000000000E+00  0.00000000000E+00  0.98232678344E+03  0.98232678344E+03  0.00000000000E+00 0. -1.
         21   -1    0    0  501  502 -0.00000000000E+00 -0.00000000000E+00 -0.74296919910E+02  0.74296919910E+02  0.00000000000E+00 0. -1.
         25    1    1    2    0    0 -0.25916087952E+02 -0.33857124746E+02  0.15177399148E+03  0.20119217927E+03  0.12500000000E+03 0.  0.
         25    1    1    2    0    0 -0.27622035549E+02  0.51502294760E+02  0.68903936752E+03  0.70272022399E+03  0.12500000000E+03 0.  0.
         25    1    1    2    0    0  0.53538123501E+02 -0.17645170013E+02  0.67216504531E+02  0.15271130009E+03  0.12500000000E+03 0.  0.
</event>
<event>
 5    0  0.5634041E-005  0.2615172E+03  0.7546771E-02  0.1106235E+00
         21   -1    0    0  502  501  0.00000000000E+00  0.00000000000E+00  0.46044823959E+02  0.46044823959E+02  0.00000000000E+00 0. -1.
         21   -1    0    0  501  502 -0.00000000000E+00 -0.00000000000E+00 -0.14853187370E+04  0.14853187370E+04  0.00000000000E+00 0. -1.
         25    1    1    2    0    0 -0.17088096086E+02 -0.25605946650E+02 -0.20484071212E+03  0.24193467067E+03  0.12500000000E+03 0.  0.
         25    1    1    2    0    0  0.10801816717E+03  0.40847583632E+02 -0.32533395502E+03  0.36715614092E+03  0.12500000000E+03 0.  0.
         25    1    1    2    0    0 -0.90930071082E+02 -0.15241636982E+02 -0.90909924588E+03  0.92227274935E+03  0.12500000000E+03 0.  0.
</event>
<event>
 5    0  0.5634041E-005  0.2329394E+03  0.7546771E-02  0.1124588E+00
         21   -1    0    0  502  501  0.00000000000E+00  0.00000000000E+00  0.30809523817E+03  0.30809523817E+03  0.00000000000E+00 0. -1.
         21   -1    0    0  501  502 -0.00000000000E+00 -0.00000000000E+00 -0.17611677880E+03  0.17611677880E+03  0.00000000000E+00 0. -1.
         25    1    1    2    0    0  0.10082787257E+03  0.18842431830E+02  0.78663886539E+02  0.17981741898E+03  0.12500000000E+03 0.  0.
         25    1    1    2    0    0 -0.61294998625E+01 -0.22482124157E+02 -0.24181860239E+02  0.12943252698E+03  0.12500000000E+03 0.  0.
         25    1    1    2    0    0 -0.94698372708E+02  0.36396923268E+01  0.77496433064E+02  0.17496207101E+03  0.12500000000E+03 0.  0.
</event>
<event>
 5    0  0.5634041E-005  0.2583412E+03  0.7546771E-02  0.1108144E+00
         21   -1    0    0  502  501  0.00000000000E+00  0.00000000000E+00  0.11765293074E+03  0.11765293074E+03  0.00000000000E+00 0.  1.
         21   -1    0    0  501  502 -0.00000000000E+00 -0.00000000000E+00 -0.56726301136E+03  0.56726301136E+03  0.00000000000E+00 0.  1.
         25    1    1    2    0    0  0.57765011181E+02 -0.72225055199E+01 -0.45690023033E+01  0.13796679631E+03  0.12500000000E+03 0.  0.
         25    1    1    2    0    0  0.63504474238E+02  0.26556853263E+02 -0.20291031633E+03  0.24806386512E+03  0.12500000000E+03 0.  0.
         25    1    1    2    0    0 -0.12126948542E+03 -0.19334347743E+02 -0.24213076199E+03  0.29888528067E+03  0.12500000000E+03 0.  0.
</event>
<event>
 5    0  0.5634041E-005  0.2233160E+03  0.7546771E-02  0.1131435E+00
         21   -1    0    0  502  501  0.00000000000E+00  0.00000000000E+00  0.69105713991E+03  0.69105713991E+03  0.00000000000E+00 0.  1.
         21   -1    0    0  501  502 -0.00000000000E+00 -0.00000000000E+00 -0.72164873909E+02  0.72164873909E+02  0.00000000000E+00 0.  1.
         25    1    1    2    0    0 -0.77697893944E+02 -0.65377433798E+02  0.16216560498E+03  0.22854727084E+03  0.12500000000E+03 0.  0.
         25    1    1    2    0    0  0.36301034225E+02  0.66127702764E+02  0.25274978965E+03  0.29188712600E+03  0.12500000000E+03 0.  0.
         25    1    1    2    0    0  0.41396859719E+02 -0.75026896593E+00  0.20397687138E+03  0.24278761697E+03  0.12500000000E+03 0.  0.
</event>
<event>
 5    0  0.6559641E-005  0.3537329E+03  0.7546771E-02  0.1061093E+00
         21   -1    0    0  502  501  0.00000000000E+00  0.00000000000E+00  0.21879996715E+03  0.21879996715E+03  0.00000000000E+00 0.  1.
         21   -1    0    0  501  502 -0.00000000000E+00 -0.00000000000E+00 -0.57187823684E+03  0.57187823684E+03  0.00000000000E+00 0.  1.
         25    1    1    2    0    0  0.31913769135E+02 -0.31436405379E+02 -0.30207697397E+03  0.32997308139E+03  0.12500000000E+03 0.  0.
         25    1    1    2    0    0 -0.15383868649E+03  0.59913362820E+02 -0.15209972049E+03  0.25693438361E+03  0.12500000000E+03 0.  0.
         25    1    1    2    0    0  0.12192491736E+03 -0.28476957440E+02  0.10109842476E+03  0.20377073899E+03  0.12500000000E+03 0.  0.
</event>
<event>
 5    0  0.5634041E-005  0.3104498E+03  0.7546771E-02  0.1080130E+00
         21   -1    0    0  502  501  0.00000000000E+00  0.00000000000E+00  0.16063745288E+03  0.16063745288E+03  0.00000000000E+00 0. -1.
         21   -1    0    0  501  502 -0.00000000000E+00 -0.00000000000E+00 -0.59997890382E+03  0.59997890382E+03  0.00000000000E+00 0. -1.
         25    1    1    2    0    0 -0.36251296472E+02 -0.21239975854E+02  0.36565707785E+02  0.13684788656E+03  0.12500000000E+03 0.  0.
         25    1    1    2    0    0  0.65863203321E+02 -0.74639902696E+02 -0.48038037267E+02  0.16685841199E+03  0.12500000000E+03 0.  0.
         25    1    1    2    0    0 -0.29611906849E+02  0.95879878550E+02 -0.42786912146E+03  0.45691005815E+03  0.12500000000E+03 0.  0.
</event>
<event>
 5    0  0.5634041E-005  0.2512647E+03  0.7546771E-02  0.1112508E+00
         21   -1    0    0  502  501  0.00000000000E+00  0.00000000000E+00  0.14767192277E+04  0.14767192277E+04  0.00000000000E+00 0. -1.
         21   -1    0    0  501  502 -0.00000000000E+00 -0.00000000000E+00 -0.42752846583E+02  0.42752846583E+02  0.00000000000E+00 0. -1.
         25    1    1    2    0    0  0.23700424965E+02  0.55294710766E+02  0.30435645751E+03  0.33448029600E+03  0.12500000000E+03 0.  0.
         25    1    1    2    0    0  0.46844632155E+02 -0.93305570664E+02  0.29223210691E+03  0.33455186950E+03  0.12500000000E+03 0.  0.
         25    1    1    2    0    0 -0.70545057120E+02  0.38010859898E+02  0.83737781668E+03  0.85043990876E+03  0.12500000000E+03 0.  0.
</event>
<event>
 5    0  0.5634041E-005  0.4097539E+03  0.7546771E-02  0.1040454E+00
         21   -1    0    0  502  501  0.00000000000E+00  0.00000000000E+00  0.22616850266E+03  0.22616850266E+03  0.00000000000E+00 0. -1.
         21   -1    0    0  501  502 -0.00000000000E+00 -0.00000000000E+00 -0.74235909360E+03  0.74235909360E+03  0.00000000000E+00 0. -1.
         25    1    1    2    0    0  0.23936124718E+03  0.18012483713E+03 -0.19958545843E+03  0.38104870924E+03  0.12500000000E+03 0.  0.
         25    1    1    2    0    0 -0.20825697585E+03  0.21722652083E+02 -0.22279513250E+03  0.33031123607E+03  0.12500000000E+03 0.  0.
         25    1    1    2    0    0 -0.31104271321E+02 -0.20184748921E+03 -0.93810000013E+02  0.25716765096E+03  0.12500000000E+03 0.  0.
</event>
<event>
 5    0  0.5634041E-005  0.4075774E+03  0.7546771E-02  0.1041187E+00
         21   -1    0    0  502  501  0.00000000000E+00  0.00000000000E+00  0.48775682017E+03  0.48775682017E+03  0.00000000000E+00 0. -1.
         21   -1    0    0  501  502 -0.00000000000E+00 -0.00000000000E+00 -0.34057811929E+03  0.34057811929E+03  0.00000000000E+00 0. -1.
         25    1    1    2    0    0  0.88911260334E+02 -0.81254004558E+02  0.27258278314E+02  0.17571408369E+03  0.12500000000E+03 0.  0.
         25    1    1    2    0    0 -0.27415943365E+03  0.13124601733E+03 -0.91282571372E+02  0.34109591020E+03  0.12500000000E+03 0.  0.
         25    1    1    2    0    0  0.18524817331E+03 -0.49992012767E+02  0.21120299394E+03  0.31152494556E+03  0.12500000000E+03 0.  0.
</event>
<event>
 5    0  0.5634041E-005  0.2396869E+03  0.7546771E-02  0.1120002E+00
         21   -1    0    0  502  501  0.00000000000E+00  0.00000000000E+00  0.18584959053E+04  0.18584959053E+04  0.00000000000E+00 0. -1.
         21   -1    0    0  501  502 -0.00000000000E+00 -0.00000000000E+00 -0.30911981578E+02  0.30911981578E+02  0.00000000000E+00 0. -1.
         25    1    1    2    0    0 -0.15330657527E+02 -0.75737379039E+02  0.29775047683E+03  0.33204145238E+03  0.12500000000E+03 0.  0.
         25    1    1    2    0    0  0.10149456803E+01 -0.27024627355E+02  0.74486152310E+03  0.75576123822E+03  0.12500000000E+03 0.  0.
         25    1    1    2    0    0  0.14315711847E+02  0.10276200639E+03  0.78497192374E+03  0.80160519623E+03  0.12500000000E+03 0.  0.
</event>
<event>
 5    0  0.5634041E-005  0.2736438E+03  0.7546771E-02  0.1099212E+00
         21   -1    0    0  502  501  0.00000000000E+00  0.00000000000E+00  0.67538241945E+03  0.67538241945E+03  0.00000000000E+00 0. -1.
         21   -1    0    0  501  502 -0.00000000000E+00 -0.00000000000E+00 -0.11087186301E+03  0.11087186301E+03  0.00000000000E+00 0. -1.
         25    1    1    2    0    0 -0.93239775573E+02 -0.72278989044E+02  0.15320490894E+03  0.23024910886E+03  0.12500000000E+03 0.  0.
         25    1    1    2    0    0  0.11717491145E+03 -0.64855855167E+02  0.24323100110E+03  0.30450379590E+03  0.12500000000E+03 0.  0.
         25    1    1    2    0    0 -0.23935135872E+02  0.13713484421E+03  0.16807464639E+03  0.25150137770E+03  0.12500000000E+03 0.  0.
</event>
<event>
 5    0  0.5634041E-005  0.3262254E+03  0.7546771E-02  0.1072819E+00
         21   -1    0    0  502  501  0.00000000000E+00  0.00000000000E+00  0.20233113658E+03  0.20233113658E+03  0.00000000000E+00 0. -1.
         21   -1    0    0  501  502 -0.00000000000E+00 -0.00000000000E+00 -0.52598434768E+03  0.52598434768E+03  0.00000000000E+00 0. -1.
         25    1    1    2    0    0  0.67981716501E+02  0.20698821875E+03 -0.28850242894E+02  0.25282992899E+03  0.12500000000E+03 0.  0.
         25    1    1    2    0    0 -0.74058384295E+02 -0.17725317304E+03 -0.25028438115E+03  0.33936794647E+03  0.12500000000E+03 0.  0.
         25    1    1    2    0    0  0.60766677945E+01 -0.29735045702E+02 -0.44518587055E+02  0.13611760881E+03  0.12500000000E+03 0.  0.
</event>
<event>
 5    0  0.5634041E-005  0.3560602E+03  0.7546771E-02  0.1060155E+00
         21   -1    0    0  502  501  0.00000000000E+00  0.00000000000E+00  0.35482847841E+03  0.35482847841E+03  0.00000000000E+00 0. -1.
         21   -1    0    0  501  502 -0.00000000000E+00 -0.00000000000E+00 -0.35729614337E+03  0.35729614337E+03  0.00000000000E+00 0. -1.
         25    1    1    2    0    0  0.13322208846E+03  0.97305111614E+02 -0.11333232642E+03  0.23597801977E+03  0.12500000000E+03 0.  0.
         25    1    1    2    0    0 -0.24430282697E+03 -0.85248802280E+02  0.26840191448E+02  0.28861154764E+03  0.12500000000E+03 0.  0.
         25    1    1    2    0    0  0.11108073850E+03 -0.12056309335E+02  0.84024470013E+02  0.18753505438E+03  0.12500000000E+03 0.  0.
</event>
<event>
 5    0  0.5634041E-005  0.4360966E+03  0.7546771E-02  0.1031951E+00
         21   -1    0    0  502  501  0.00000000000E+00  0.00000000000E+00  0.76865984507E+03  0.76865984507E+03  0.00000000000E+00 0.  1.
         21   -1    0    0  501  502 -0.00000000000E+00 -0.00000000000E+00 -0.24741791773E+03  0.24741791773E+03  0.00000000000E+00 0.  1.
         25    1    1    2    0    0  0.15700555431E+03 -0.11582813170E+03 -0.11395231729E+03  0.25821895901E+03  0.12500000000E+03 0.  0.
         25    1    1    2    0    0 -0.10340881166E+02 -0.58549906142E+02  0.13078461472E+03  0.19043277234E+03  0.12500000000E+03 0.  0.
         25    1    1    2    0    0 -0.14666467314E+03  0.17437803784E+03  0.50440962991E+03  0.56742603146E+03  0.12500000000E+03 0.  0.
</event>
<event>
 5    0  0.5634041E-005  0.2743213E+03  0.7546771E-02  0.1098832E+00
         21   -1    0    0  502  501  0.00000000000E+00  0.00000000000E+00  0.43507580065E+02  0.43507580065E+02  0.00000000000E+00 0.  1.
         21   -1    0    0  501  502 -0.00000000000E+00 -0.00000000000E+00 -0.17296331449E+04  0.17296331449E+04  0.00000000000E+00 0.  1.
         25    1    1    2    0    0 -0.20575522420E+02 -0.23118665648E+02 -0.56309834248E+03  0.57763532451E+03  0.12500000000E+03 0.  0.
         25    1    1    2    0    0  0.64850761322E+02  0.88224589294E+02 -0.96490837371E+03  0.97911305223E+03  0.12500000000E+03 0.  0.
         25    1    1    2    0    0 -0.44275238902E+02 -0.65105923646E+02 -0.15811884869E+03  0.21639234825E+03  0.12500000000E+03 0.  0.
</event>
<event>
 5    0  0.5634041E-005  0.2424333E+03  0.7546771E-02  0.1118182E+00
         21   -1    0    0  502  501  0.00000000000E+00  0.00000000000E+00  0.24224554578E+03  0.24224554578E+03  0.00000000000E+00 0. -1.
         21   -1    0    0  501  502 -0.00000000000E+00 -0.00000000000E+00 -0.24262123833E+03  0.24262123833E+03  0.00000000000E+00 0. -1.
         25    1    1    2    0    0 -0.94218771778E+02  0.73562655593E+02 -0.32506721289E+02  0.17598388614E+03  0.12500000000E+03 0.  0.
         25    1    1    2    0    0  0.99099996589E+02 -0.48938164926E+02 -0.25808037627E+02  0.16883959286E+03  0.12500000000E+03 0.  0.
         25    1    1    2    0    0 -0.48812248106E+01 -0.24624490667E+02  0.57939066367E+02  0.14004330512E+03  0.12500000000E+03 0.  0.
</event>
<event>
 5    0  0.5634041E-005  0.2794684E+03  0.7546771E-02  0.1095980E+00
         21   -1    0    0  502  501  0.00000000000E+00  0.00000000000E+00  0.20454347176E+03  0.20454347176E+03  0.00000000000E+00 0.  1.
         21   -1    0    0  501  502 -0.00000000000E+00 -0.00000000000E+00 -0.38183863639E+03  0.38183863639E+03  0.00000000000E+00 0.  1.
         25    1    1    2    0    0 -0.76224616542E+01  0.26350232289E+02 -0.11058247622E+03  0.16913284929E+03  0.12500000000E+03 0.  0.
         25    1    1    2    0    0  0.10856949732E+03  0.26616823807E+02  0.86781627634E+02  0.18881695356E+03  0.12500000000E+03 0.  0.
         25    1    1    2    0    0 -0.10094703566E+03 -0.52967056095E+02 -0.15349431605E+03  0.22843230529E+03  0.12500000000E+03 0.  0.
</event>
<event>
 5    0  0.5634041E-005  0.3185439E+03  0.7546771E-02  0.1076321E+00
         21   -1    0    0  502  501  0.00000000000E+00  0.00000000000E+00  0.16301117289E+03  0.16301117289E+03  0.00000000000E+00 0. -1.
         21   -1    0    0  501  502 -0.00000000000E+00 -0.00000000000E+00 -0.62247417127E+03  0.62247417127E+03  0.00000000000E+00 0. -1.
         25    1    1    2    0    0 -0.13416988769E+03  0.85107588001E+02 -0.20955826660E+03  0.29117782780E+03  0.12500000000E+03 0.  0.
         25    1    1    2    0    0  0.14157582344E+03 -0.17377460146E+03 -0.88156130077E+02  0.27136291044E+03  0.12500000000E+03 0.  0.
         25    1    1    2    0    0 -0.74059357497E+01  0.88667013458E+02 -0.16174860170E+03  0.22294460592E+03  0.12500000000E+03 0.  0.
</event>
<event>
 5    0  0.5634041E-005  0.4189520E+03  0.7546771E-02  0.1037408E+00
         21   -1    0    0  502  501  0.00000000000E+00  0.00000000000E+00  0.17683270858E+03  0.17683270858E+03  0.00000000000E+00 0. -1.
         21   -1    0    0  501  502 -0.00000000000E+00 -0.00000000000E+00 -0.99258109183E+03  0.99258109183E+03  0.00000000000E+00 0. -1.
         25    1    1    2    0    0 -0.49810312411E+02 -0.21291860325E+03 -0.22623484779E+03  0.33855960360E+03  0.12500000000E+03 0.  0.
         25    1    1    2    0    0 -0.68240333257E+02  0.30647603264E+03 -0.52573666608E+03  0.62498667484E+03  0.12500000000E+03 0.  0.
         25    1    1    2    0    0  0.11805064567E+03 -0.93557429388E+02 -0.63776869378E+02  0.20586752197E+03  0.12500000000E+03 0.  0.
</event>
<event>
 5    0  0.5634041E-005  0.3002267E+03  0.7546771E-02  0.1085127E+00
         21   -1    0    0  502  501  0.00000000000E+00  0.00000000000E+00  0.14322618290E+03  0.14322618290E+03  0.00000000000E+00 0.  1.
         21   -1    0    0  501  502 -0.00000000000E+00 -0.00000000000E+00 -0.62932678086E+03  0.62932678086E+03  0.00000000000E+00 0.  1.
         25    1    1    2    0    0 -0.14449093776E+02 -0.64520136569E+01 -0.20934730588E+02  0.12772496912E+03  0.12500000000E+03 0.  0.
         25    1    1    2    0    0  0.14480523910E+03 -0.11729562815E+03 -0.27419989934E+03  0.35431258297E+03  0.12500000000E+03 0.  0.
         25    1    1    2    0    0 -0.13035614532E+03  0.12374764181E+03 -0.19096596804E+03  0.29051541168E+03  0.12500000000E+03 0.  0.
</event>
<event>
 5    0  0.5634041E-005  0.3764782E+03  0.7546771E-02  0.1052243E+00
         21   -1    0    0  502  501  0.00000000000E+00  0.00000000000E+00  0.19597586659E+03  0.19597586659E+03  0.00000000000E+00 0. -1.
         21   -1    0    0  501  502 -0.00000000000E+00 -0.00000000000E+00 -0.72323125109E+03  0.72323125109E+03  0.00000000000E+00 0. -1.
         25    1    1    2    0    0 -0.47491180475E+02 -0.27841513803E+02 -0.18265956760E+03  0.22807910854E+03  0.12500000000E+03 0.  0.
         25    1    1    2    0    0  0.28470947818E+03 -0.56593271549E+02 -0.20995114708E+03  0.37942953168E+03  0.12500000000E+03 0.  0.
         25    1    1    2    0    0 -0.23721829770E+03  0.84434785351E+02 -0.13464466983E+03  0.31169847747E+03  0.12500000000E+03 0.  0.
</event>
<event>
 5    0  0.5634041E-005  0.4646459E+03  0.7546771E-02  0.1023442E+00
         21   -1    0    0  502  501  0.00000000000E+00  0.00000000000E+00  0.60992256888E+03  0.60992256888E+03  0.00000000000E+00 0.  1.
         21   -1    0    0  501  502 -0.00000000000E+00 -0.00000000000E+00 -0.35397253177E+03  0.35397253177E+03  0.00000000000E+00 0.  1.
         25    1    1    2    0    0 -0.25144860604E+03 -0.86812716647E+02  0.19450208581E+03  0.35244703238E+03  0.12500000000E+03 0.  0.
         25    1    1    2    0    0 -0.15562465707E+02  0.17694269255E+03  0.17905134753E+03  0.28148764065E+03  0.12500000000E+03 0.  0.
         25    1    1    2    0    0  0.26701107175E+03 -0.90129975900E+02 -0.11760339623E+03  0.32996042762E+03  0.12500000000E+03 0.  0.
</event>
<event>
 5    0  0.5634041E-005  0.6510438E+03  0.7546771E-02  0.9804822E-01
         21   -1    0    0  502  501  0.00000000000E+00  0.00000000000E+00  0.61872304868E+03  0.61872304868E+03  0.00000000000E+00 0.  1.
         21   -1    0    0  501  502 -0.00000000000E+00 -0.00000000000E+00 -0.68505297748E+03  0.68505297748E+03  0.00000000000E+00 0.  1.
         25    1    1    2    0    0 -0.54255554552E+02  0.75044251627E+02  0.53461739539E+03  0.55679086231E+03  0.12500000000E+03 0.  0.
         25    1    1    2    0    0 -0.10234520453E+03  0.77515144181E+02 -0.34002860186E+03  0.38435346824E+03  0.12500000000E+03 0.  0.
         25    1    1    2    0    0  0.15660075908E+03 -0.15255939581E+03 -0.26091872233E+03  0.36263169560E+03  0.12500000000E+03 0.  0.
</event>
<event>
 5    0  0.5634041E-005  0.3432251E+03  0.7546771E-02  0.1065431E+00
         21   -1    0    0  502  501  0.00000000000E+00  0.00000000000E+00  0.17524454350E+03  0.17524454350E+03  0.00000000000E+00 0.  1.
         21   -1    0    0  501  502 -0.00000000000E+00 -0.00000000000E+00 -0.67222327045E+03  0.67222327045E+03  0.00000000000E+00 0.  1.
         25    1    1    2    0    0  0.26821360142E+01 -0.83986849646E+02 -0.28912536379E+03  0.32600530787E+03  0.12500000000E+03 0.  0.
         25    1    1    2    0    0 -0.87428143073E+02 -0.13313371517E+03 -0.34898356430E+02  0.20545355095E+03  0.12500000000E+03 0.  0.
         25    1    1    2    0    0  0.84746007059E+02  0.21712056481E+03 -0.17295500672E+03  0.31600895514E+03  0.12500000000E+03 0.  0.
</event>
<event>
 5    0  0.5634041E-005  0.2445901E+03  0.7546771E-02  0.1116772E+00
         21   -1    0    0  502  501  0.00000000000E+00  0.00000000000E+00  0.35123425117E+03  0.35123425117E+03  0.00000000000E+00 0.  1.
         21   -1    0    0  501  502 -0.00000000000E+00 -0.00000000000E+00 -0.17032600650E+03  0.17032600650E+03  0.00000000000E+00 0.  1.
         25    1    1    2    0    0 -0.10235048952E+03 -0.46870602103E+02  0.55312620470E+02  0.17707897117E+03  0.12500000000E+03 0.  0.
         25    1    1    2    0    0  0.86085069070E+02 -0.27002262562E+02  0.36971890595E+01  0.15420256323E+03  0.12500000000E+03 0.  0.
         25    1    1    2    0    0  0.16265420453E+02  0.73872864665E+02  0.12189843514E+03  0.19027872326E+03  0.12500000000E+03 0.  0.
</event>
<event>
 5    0  0.5634041E-005  0.2199142E+03  0.7546771E-02  0.1133947E+00
         21   -1    0    0  502  501  0.00000000000E+00  0.00000000000E+00  0.86907067611E+02  0.86907067611E+02  0.00000000000E+00 0.  1.
         21   -1    0    0  501  502 -0.00000000000E+00 -0.00000000000E+00 -0.55648251638E+03  0.55648251638E+03  0.00000000000E+00 0.  1.
         25    1    1    2    0    0  0.16789699390E+02  0.35477010933E+02 -0.18635006526E+03  0.22779784708E+03  0.12500000000E+03 0.  0.
         25    1    1    2    0    0 -0.57711739273E+02 -0.21813388887E+02 -0.23803385807E+03  0.27584703437E+03  0.12500000000E+03 0.  0.
         25    1    1    2    0    0  0.40922039883E+02 -0.13663622045E+02 -0.45191525430E+02  0.13974470253E+03  0.12500000000E+03 0.  0.
</event>
<event>
 5    0  0.5634041E-005  0.2479994E+03  0.7546771E-02  0.1114576E+00
         21   -1    0    0  502  501  0.00000000000E+00  0.00000000000E+00  0.47787072602E+03  0.47787072602E+03  0.00000000000E+00 0.  1.
         21   -1    0    0  501  502 -0.00000000000E+00 -0.00000000000E+00 -0.12870361796E+03  0.12870361796E+03  0.00000000000E+00 0.  1.
         25    1    1    2    0    0 -0.23456593140E+02 -0.94147129757E+01 -0.27780337249E+02  0.13052048008E+03  0.12500000000E+03 0.  0.
         25    1    1    2    0    0  0.38935880950E+02 -0.58275903521E+02  0.14716892256E+03  0.20541610337E+03  0.12500000000E+03 0.  0.
         25    1    1    2    0    0 -0.15479287810E+02  0.67690616497E+02  0.22977852274E+03  0.27063776054E+03  0.12500000000E+03 0.  0.
</event>
<event>
 5    0  0.5831210E-005  0.2499328E+03  0.7546771E-02  0.1113347E+00
         21   -1    0    0  502  501  0.00000000000E+00  0.00000000000E+00  0.43272658005E+03  0.43272658005E+03  0.00000000000E+00 0.  1.
         21   -1    0    0  501  502 -0.00000000000E+00 -0.00000000000E+00 -0.14435531115E+03  0.14435531115E+03  0.00000000000E+00 0.  1.
         25    1    1    2    0    0 -0.73451793583E+01 -0.93416465884E+02  0.86565708782E+02  0.17860349855E+03  0.12500000000E+03 0.  0.
         25    1    1    2    0    0  0.25109606146E+02  0.12361240531E+03  0.25301897400E+02  0.17937587653E+03  0.12500000000E+03 0.  0.
         25    1    1    2    0    0 -0.17764426788E+02 -0.30195939426E+02  0.17650366272E+03  0.21910251612E+03  0.12500000000E+03 0.  0.
</event>
<event>
 5    0  0.5634041E-005  0.3468468E+03  0.7546771E-02  0.1063917E+00
         21   -1    0    0  502  501  0.00000000000E+00  0.00000000000E+00  0.34185355933E+03  0.34185355933E+03  0.00000000000E+00 0. -1.
         21   -1    0    0  501  502 -0.00000000000E+00 -0.00000000000E+00 -0.35191298847E+03  0.35191298847E+03  0.00000000000E+00 0. -1.
         25    1    1    2    0    0 -0.41465411783E+02  0.29601465301E+01  0.19094151728E+03  0.23197371805E+03  0.12500000000E+03 0.  0.
         25    1    1    2    0    0 -0.12241441586E+02 -0.15572865435E+03 -0.15248599139E+03  0.25155167312E+03  0.12500000000E+03 0.  0.
         25    1    1    2    0    0  0.53706853369E+02  0.15276850782E+03 -0.48514955028E+02  0.21024115663E+03  0.12500000000E+03 0.  0.
</event>
<event>
 5    0  0.5634041E-005  0.2148329E+03  0.7546771E-02  0.1137795E+00
         21   -1    0    0  502  501  0.00000000000E+00  0.00000000000E+00  0.12189420196E+03  0.12189420196E+03  0.00000000000E+00 0.  1.
         21   -1    0    0  501  502 -0.00000000000E+00 -0.00000000000E+00 -0.37863297661E+03  0.37863297661E+03  0.00000000000E+00 0.  1.
         25    1    1    2    0    0  0.50025231885E+02  0.79247529363E+02 -0.10780927170E+03  0.18981710618E+03  0.12500000000E+03 0.  0.
         25    1    1    2    0    0 -0.50329103035E+02 -0.28266214182E+02 -0.73849768561E+02  0.15623951419E+03  0.12500000000E+03 0.  0.
         25    1    1    2    0    0  0.30387114929E+00 -0.50981315182E+02 -0.75079734388E+02  0.15447055820E+03  0.12500000000E+03 0.  0.
</event>
<event>
 5    0  0.5634041E-005  0.2987401E+03  0.7546771E-02  0.1085872E+00
         21   -1    0    0  502  501  0.00000000000E+00  0.00000000000E+00  0.26061189902E+04  0.26061189902E+04  0.00000000000E+00 0. -1.
         21   -1    0    0  501  502 -0.00000000000E+00 -0.00000000000E+00 -0.34244665325E+02  0.34244665325E+02  0.00000000000E+00 0. -1.
         25    1    1    2    0    0 -0.94403907517E+02 -0.59870765255E+02  0.50230844987E+03  0.52956150266E+03  0.12500000000E+03 0.  0.
         25    1    1    2    0    0  0.69023983269E+00 -0.17508810502E+02  0.22476468238E+03  0.25778129746E+03  0.12500000000E+03 0.  0.
         25    1    1    2    0    0  0.93713667684E+02  0.77379575757E+02  0.18448011927E+04  0.18530208554E+04  0.12500000000E+03 0.  0.
</event>
<event>
 5    0  0.5634041E-005  0.2810083E+03  0.7546771E-02  0.1095140E+00
         21   -1    0    0  502  501  0.00000000000E+00  0.00000000000E+00  0.64072343235E+03  0.64072343235E+03  0.00000000000E+00 0. -1.
         21   -1    0    0  501  502 -0.00000000000E+00 -0.00000000000E+00 -0.12324451556E+03  0.12324451556E+03  0.00000000000E+00 0. -1.
         25    1    1    2    0    0 -0.48636860360E+02  0.13855442553E+02  0.34419980765E+03  0.36967015711E+03  0.12500000000E+03 0.  0.
         25    1    1    2    0    0  0.35160738865E+02  0.11330128216E+03  0.11080855905E+03  0.20488288083E+03  0.12500000000E+03 0.  0.
         25    1    1    2    0    0  0.13476121495E+02 -0.12715672472E+03  0.62470550089E+02  0.18941490997E+03  0.12500000000E+03 0.  0.
</event>
<event>
 5    0  0.5634041E-005  0.3790437E+03  0.7546771E-02  0.1051288E+00
         21   -1    0    0  502  501  0.00000000000E+00  0.00000000000E+00  0.39952425982E+03  0.39952425982E+03  0.00000000000E+00 0.  1.
         21   -1    0    0  501  502 -0.00000000000E+00 -0.00000000000E+00 -0.35961294262E+03  0.35961294262E+03  0.00000000000E+00 0.  1.
         25    1    1    2    0    0  0.20828936468E+03  0.18471741774E+03  0.52602495929E+02  0.30967241794E+03  0.12500000000E+03 0.  0.
         25    1    1    2    0    0  0.15554757894E+02 -0.17220168087E+02  0.50446166853E+02  0.13677828933E+03  0.12500000000E+03 0.  0.
         25    1    1    2    0    0 -0.22384412258E+03 -0.16749724965E+03 -0.63137345585E+02  0.31268649517E+03  0.12500000000E+03 0.  0.
</event>
<event>
 5    0  0.5634041E-005  0.3207506E+03  0.7546771E-02  0.1075304E+00
         21   -1    0    0  502  501  0.00000000000E+00  0.00000000000E+00  0.52860315122E+03  0.52860315122E+03  0.00000000000E+00 0. -1.
         21   -1    0    0  501  502 -0.00000000000E+00 -0.00000000000E+00 -0.19462791570E+03  0.19462791570E+03  0.00000000000E+00 0. -1.
         25    1    1    2    0    0 -0.16073485359E+02  0.67909508277E+02  0.34426991495E+02  0.14724223575E+03  0.12500000000E+03 0.  0.
         25    1    1    2    0    0  0.20089080581E+02  0.10025567318E+03  0.32692430153E+03  0.36463580473E+03  0.12500000000E+03 0.  0.
         25    1    1    2    0    0 -0.40155952228E+01 -0.16816518146E+03 -0.27376057503E+02  0.21135302644E+03  0.12500000000E+03 0.  0.
</event>
<event>
 5    0  0.5634041E-005  0.2872054E+03  0.7546771E-02  0.1091817E+00
         21   -1    0    0  502  501  0.00000000000E+00  0.00000000000E+00  0.28706813504E+03  0.28706813504E+03  0.00000000000E+00 0.  1.
         21   -1    0    0  501  502 -0.00000000000E+00 -0.00000000000E+00 -0.28734276501E+03  0.28734276501E+03  0.00000000000E+00 0.  1.
         25    1    1    2    0    0 -0.43329738887E+02  0.76837089690E+01 -0.25366631495E+02  0.13492580053E+03  0.12500000000E+03 0.  0.
         25    1    1    2    0    0 -0.91092296389E+02 -0.14130234598E+03 -0.10054330239E+02  0.20973852531E+03  0.12500000000E+03 0.  0.
         25    1    1    2    0    0  0.13442203528E+03  0.13361863702E+03  0.35146331761E+02  0.22974657421E+03  0.12500000000E+03 0.  0.
</event>
<event>
 5    0  0.6373132E-005  0.3166388E+03  0.7546771E-02  0.1077207E+00
         21   -1    0    0  502  501  0.00000000000E+00  0.00000000000E+00  0.15272916623E+03  0.15272916623E+03  0.00000000000E+00 0. -1.
         21   -1    0    0  501  502 -0.00000000000E+00 -0.00000000000E+00 -0.65645707666E+03  0.65645707666E+03  0.00000000000E+00 0. -1.
         25    1    1    2    0    0 -0.13354467442E+01 -0.71118466722E+02  0.21347442114E+02  0.14539715613E+03  0.12500000000E+03 0.  0.
         25    1    1    2    0    0  0.23466684820E+01  0.17874185622E+03 -0.18576804422E+03  0.28651164771E+03  0.12500000000E+03 0.  0.
         25    1    1    2    0    0 -0.10112217378E+01 -0.10762338950E+03 -0.33930730833E+03  0.37727743906E+03  0.12500000000E+03 0.  0.
</event>
<event>
 5    0  0.5634041E-005  0.2762106E+03  0.7546771E-02  0.1097777E+00
         21   -1    0    0  502  501  0.00000000000E+00  0.00000000000E+00  0.23515417913E+03  0.23515417913E+03  0.00000000000E+00 0.  1.
         21   -1    0    0  501  502 -0.00000000000E+00 -0.00000000000E+00 -0.32443528233E+03  0.32443528233E+03  0.00000000000E+00 0.  1.
         25    1    1    2    0    0 -0.20854960348E+02 -0.23580036105E+02 -0.13095242912E+02  0.12956632611E+03  0.12500000000E+03 0.  0.
         25    1    1    2    0    0 -0.12995797045E+03 -0.75987576036E+02 -0.77022435429E+02  0.21028704514E+03  0.12500000000E+03 0.  0.
         25    1    1    2    0    0  0.15081293080E+03  0.99567612141E+02  0.83657514001E+00  0.21973609021E+03  0.12500000000E+03 0.  0.
</event>
<event>
 5    0  0.5987854E-005  0.3279184E+03  0.7546771E-02  0.1072062E+00
         21   -1    0    0  502  501  0.00000000000E+00  0.00000000000E+00  0.19349513950E+03  0.19349513950E+03  0.00000000000E+00 0. -1.
         21   -1    0    0  501  502 -0.00000000000E+00 -0.00000000000E+00 -0.55572693941E+03  0.55572693941E+03  0.00000000000E+00 0. -1.
         25    1    1    2    0    0  0.14250502520E+03  0.13603015462E+03 -0.26614250069E+02  0.23483015879E+03  0.12500000000E+03 0.  0.
         25    1    1    2    0    0 -0.78880889720E+02 -0.45891742943E+01 -0.27602671492E+03  0.31314374117E+03  0.12500000000E+03 0.  0.
         25    1    1    2    0    0 -0.63624135481E+02 -0.13144098032E+03 -0.59590834918E+02  0.20124817895E+03  0.12500000000E+03 0.  0.
</event>
<event>
 5    0  0.5634041E-005  0.2312744E+03  0.7546771E-02  0.1125746E+00
         21   -1    0    0  502  501  0.00000000000E+00  0.00000000000E+00  0.45013880404E+03  0.45013880404E+03  0.00000000000E+00 0.  1.
         21   -1    0    0  501  502 -0.00000000000E+00 -0.00000000000E+00 -0.11882527897E+03  0.11882527897E+03  0.00000000000E+00 0.  1.
         25    1    1    2    0    0  0.52881728604E+02 -0.59882723212E+02  0.21496275163E+03  0.26118269917E+03  0.12500000000E+03 0.  0.
         25    1    1    2    0    0  0.28684822385E+01  0.67120699415E+02  0.27808006589E+02  0.14460878850E+03  0.12500000000E+03 0.  0.
         25    1    1    2    0    0 -0.55750210842E+02 -0.72379762035E+01  0.88542766858E+02  0.16317259534E+03  0.12500000000E+03 0.  0.
</event>
<event>
 5    0  0.5634041E-005  0.5370360E+03  0.7546771E-02  0.1004540E+00
         21   -1    0    0  502  501  0.00000000000E+00  0.00000000000E+00  0.21745841974E+03  0.21745841974E+03  0.00000000000E+00 0.  1.
         21   -1    0    0  501  502 -0.00000000000E+00 -0.00000000000E+00 -0.13262660379E+04  0.13262660379E+04  0.00000000000E+00 0.  1.
         25    1    1    2    0    0  0.84082295536E+02  0.12807086432E+03 -0.37615392949E+03  0.42495735949E+03  0.12500000000E+03 0.  0.
         25    1    1    2    0    0 -0.14597445907E+03  0.64103250389E+02  0.11877811894E+03  0.23484252372E+03  0.12500000000E+03 0.  0.
         25    1    1    2    0    0  0.61892163533E+02 -0.19217411471E+03 -0.85143180757E+03  0.88392457439E+03  0.12500000000E+03 0.  0.
</event>
<event>
 5    0  0.5634041E-005  0.2394703E+03  0.7546771E-02  0.1120146E+00
         21   -1    0    0  502  501  0.00000000000E+00  0.00000000000E+00  0.26452999096E+02  0.26452999096E+02  0.00000000000E+00 0.  1.
         21   -1    0    0  501  502 -0.00000000000E+00 -0.00000000000E+00 -0.21678456358E+04  0.21678456358E+04  0.00000000000E+00 0.  1.
         25    1    1    2    0    0  0.70950186494E+02  0.43758399586E+02 -0.61684632941E+03  0.63488039866E+03  0.12500000000E+03 0.  0.
         25    1    1    2    0    0  0.24568343006E+02  0.58224397294E+02 -0.61454860430E+03  0.63030839354E+03  0.12500000000E+03 0.  0.
         25    1    1    2    0    0 -0.95518529501E+02 -0.10198279688E+03 -0.90999770297E+03  0.92910984267E+03  0.12500000000E+03 0.  0.
</event>
<event>
 5    0  0.5634041E-005  0.2296039E+03  0.7546771E-02  0.1126919E+00
         21   -1    0    0  502  501  0.00000000000E+00  0.00000000000E+00  0.48579954490E+03  0.48579954490E+03  0.00000000000E+00 0.  1.
         21   -1    0    0  501  502 -0.00000000000E+00 -0.00000000000E+00 -0.10851791267E+03  0.10851791267E+03  0.00000000000E+00 0.  1.
         25    1    1    2    0    0 -0.37428771444E+02 -0.11869931286E+02  0.14883526707E+03  0.19828954820E+03  0.12500000000E+03 0.  0.
         25    1    1    2    0    0 -0.60828382072E+02  0.61195534847E+02  0.14427275313E+03  0.20948654574E+03  0.12500000000E+03 0.  0.
         25    1    1    2    0    0  0.98257153517E+02 -0.49325603561E+02  0.84173612033E+02  0.18654136363E+03  0.12500000000E+03 0.  0.
</event>
<event>
 5    0  0.5634041E-005  0.2802750E+03  0.7546771E-02  0.1095539E+00
         21   -1    0    0  502  501  0.00000000000E+00  0.00000000000E+00  0.43825524817E+02  0.43825524817E+02  0.00000000000E+00 0.  1.
         21   -1    0    0  501  502 -0.00000000000E+00 -0.00000000000E+00 -0.17924276484E+04  0.17924276484E+04  0.00000000000E+00 0.  1.
         25    1    1    2    0    0  0.10303593120E+03 -0.74061887987E+02 -0.40384391260E+03  0.44138018999E+03  0.12500000000E+03 0.  0.
         25    1    1    2    0    0 -0.12818266537E+03  0.27718544200E+02 -0.11018654777E+04  0.11166609352E+04  0.12500000000E+03 0.  0.
         25    1    1    2    0    0  0.25146734177E+02  0.46343343787E+02 -0.24289273330E+03  0.27821204798E+03  0.12500000000E+03 0.  0.
</event>
<event>
 5    0  0.5634041E-005  0.4357775E+03  0.7546771E-02  0.1032050E+00
         21   -1    0    0  502  501  0.00000000000E+00  0.00000000000E+00  0.81729520917E+03  0.81729520917E+03  0.00000000000E+00 0.  1.
         21   -1    0    0  501  502 -0.00000000000E+00 -0.00000000000E+00 -0.23235431804E+03  0.23235431804E+03  0.00000000000E+00 0.  1.
         25    1    1    2    0    0  0.95452594290E+02 -0.13424783764E+03 -0.75601274022E+02  0.22016864514E+03  0.12500000000E+03 0.  0.
         25    1    1    2    0    0  0.43041765003E+02 -0.59217468857E+02  0.35561316954E+02  0.14916068321E+03  0.12500000000E+03 0.  0.
         25    1    1    2    0    0 -0.13849435929E+03  0.19346530650E+03  0.62498084819E+03  0.68032019886E+03  0.12500000000E+03 0.  0.
</event>
<event>
 5    0  0.5634041E-005  0.2440815E+03  0.7546771E-02  0.1117103E+00
         21   -1    0    0  502  501  0.00000000000E+00  0.00000000000E+00  0.19802945321E+04  0.19802945321E+04  0.00000000000E+00 0. -1.
         21   -1    0    0  501  502 -0.00000000000E+00 -0.00000000000E+00 -0.30084292499E+02  0.30084292499E+02  0.00000000000E+00 0. -1.
         25    1    1    2    0    0 -0.52005458246E+02 -0.34422252421E+02  0.55573104948E+03  0.57301959696E+03  0.12500000000E+03 0.  0.
         25    1    1    2    0    0  0.91767296891E+02 -0.75325301183E+02  0.82177187828E+03  0.83966014417E+03  0.12500000000E+03 0.  0.
         25    1    1    2    0    0 -0.39761838644E+02  0.10974755360E+03  0.57270731180E+03  0.59769908342E+03  0.12500000000E+03 0.  0.
</event>
<event>
 5    0  0.5634041E-005  0.2182091E+03  0.7546771E-02  0.1135225E+00
         21   -1    0    0  502  501  0.00000000000E+00  0.00000000000E+00  0.11849264317E+03  0.11849264317E+03  0.00000000000E+00 0.  1.
         21   -1    0    0  501  502 -0.00000000000E+00 -0.00000000000E+00 -0.40184104553E+03  0.40184104553E+03  0.00000000000E+00 0.  1.
         25    1    1    2    0    0  0.67409973460E+02  0.34609480263E+02 -0.10551632935E+03  0.18027927337E+03  0.12500000000E+03 0.  0.
         25    1    1    2    0    0  0.17048965547E+02 -0.53892509666E+02 -0.95066059779E+02  0.16690603808E+03  0.12500000000E+03 0.  0.
         25    1    1    2    0    0 -0.84458939007E+02  0.19283029403E+02 -0.82766013220E+02  0.17314837725E+03  0.12500000000E+03 0.  0.
</event>
<event>
 5    0  0.5634041E-005  0.3464478E+03  0.7546771E-02  0.1064083E+00
         21   -1    0    0  502  501  0.00000000000E+00  0.00000000000E+00  0.22257034992E+03  0.22257034992E+03  0.00000000000E+00 0. -1.
         21   -1    0    0  501  502 -0.00000000000E+00 -0.00000000000E+00 -0.53927261157E+03  0.53927261157E+03  0.00000000000E+00 0. -1.
         25    1    1    2    0    0 -0.10709919588E+03 -0.47668811316E+02  0.28884176621E+02  0.17378679176E+03  0.12500000000E+03 0.  0.
         25    1    1    2    0    0 -0.12837808824E+03  0.97354802173E+02 -0.16400423603E+03  0.26168928232E+03  0.12500000000E+03 0.  0.
         25    1    1    2    0    0  0.23547728412E+03 -0.49685990857E+02 -0.18158220225E+03  0.32636688741E+03  0.12500000000E+03 0.  0.
</event>
<event>
 5    0  0.5634041E-005  0.2408105E+03  0.7546771E-02  0.1119254E+00
         21   -1    0    0  502  501  0.00000000000E+00  0.00000000000E+00  0.40052524302E+03  0.40052524302E+03  0.00000000000E+00 0. -1.
         21   -1    0    0  501  502 -0.00000000000E+00 -0.00000000000E+00 -0.14478407600E+03  0.14478407600E+03  0.00000000000E+00 0. -1.
         25    1    1    2    0    0  0.42506156613E+02  0.65774175454E+02  0.10979393790E+03  0.18388236540E+03  0.12500000000E+03 0.  0.
         25    1    1    2    0    0 -0.34892199432E+02 -0.53385840032E+01  0.17641766955E+03  0.21907569511E+03  0.12500000000E+03 0.  0.
         25    1    1    2    0    0 -0.76139571815E+01 -0.60435591450E+02 -0.30470440423E+02  0.14235125850E+03  0.12500000000E+03 0.  0.
</event>
<event>
 5    0  0.5634041E-005  0.3133277E+03  0.7546771E-02  0.1078762E+00
         21   -1    0    0  502  501  0.00000000000E+00  0.00000000000E+00  0.76456814533E+02  0.76456814533E+02  0.00000000000E+00 0.  1.
         21   -1    0    0  501  502 -0.00000000000E+00 -0.00000000000E+00 -0.12840482569E+04  0.12840482569E+04  0.00000000000E+00 0.  1.
         25    1    1    2    0    0 -0.22183985326E+02 -0.99266909994E+02 -0.20918074836E+03  0.26405990629E+03  0.12500000000E+03 0.  0.
         25    1    1    2    0    0 -0.11616397270E+03  0.13966974546E+02 -0.16355431696E+03  0.23677871426E+03  0.12500000000E+03 0.  0.
         25    1    1    2    0    0  0.13834795802E+03  0.85299935448E+02 -0.83485637702E+03  0.85966645086E+03  0.12500000000E+03 0.  0.
</event>
<event>
 5    0  0.5634041E-005  0.2475434E+03  0.7546771E-02  0.1114867E+00
         21   -1    0    0  502  501  0.00000000000E+00  0.00000000000E+00  0.39007391859E+03  0.39007391859E+03  0.00000000000E+00 0.  1.
         21   -1    0    0  501  502 -0.00000000000E+00 -0.00000000000E+00 -0.15709261161E+03  0.15709261161E+03  0.00000000000E+00 0.  1.
         25    1    1    2    0    0  0.73606724083E+01  0.55726351847E+02  0.20648798020E+03  0.24783440390E+03  0.12500000000E+03 0.  0.
         25    1    1    2    0    0 -0.65650017838E+02 -0.72527414291E+02  0.22642401429E+02  0.16033661157E+03  0.12500000000E+03 0.  0.
         25    1    1    2    0    0  0.58289345429E+02  0.16801062444E+02  0.38509253474E+01  0.13899551473E+03  0.12500000000E+03 0.  0.
</event>
<event>
 5    0  0.5634041E-005  0.3174791E+03  0.7546771E-02  0.1076815E+00
         21   -1    0    0  502  501  0.00000000000E+00  0.00000000000E+00  0.34200964803E+03  0.34200964803E+03  0.00000000000E+00 0.  1.
         21   -1    0    0  501  502 -0.00000000000E+00 -0.00000000000E+00 -0.29470804056E+03  0.29470804056E+03  0.00000000000E+00 0.  1.
         25    1    1    2    0    0 -0.13587111803E+02  0.64911834629E+02 -0.29232279372E+02  0.14449111405E+03  0.12500000000E+03 0.  0.
         25    1    1    2    0    0 -0.10971424800E+03 -0.68289541449E+02  0.20646293821E+03  0.27377476607E+03  0.12500000000E+03 0.  0.
         25    1    1    2    0    0  0.12330135980E+03  0.33777068201E+01 -0.12992905137E+03  0.21845180846E+03  0.12500000000E+03 0.  0.
</event>
<event>
 5    0  0.5634041E-005  0.6327684E+03  0.7546771E-02  0.9839661E-01
         21   -1    0    0  502  501  0.00000000000E+00  0.00000000000E+00  0.44182114245E+03  0.44182114245E+03  0.00000000000E+00 0.  1.
         21   -1    0    0  501  502 -0.00000000000E+00 -0.00000000000E+00 -0.90623954959E+03  0.90623954959E+03  0.00000000000E+00 0.  1.
         25    1    1    2    0    0  0.52256240726E+02 -0.55916787104E+03 -0.26002918883E+03  0.63137912679E+03  0.12500000000E+03 0.  0.
         25    1    1    2    0    0 -0.80156348058E+02  0.53605032717E+03 -0.17663784115E+03  0.58361024693E+03  0.12500000000E+03 0.  0.
         25    1    1    2    0    0  0.27900107333E+02  0.23117543873E+02 -0.27751377164E+02  0.13307131832E+03  0.12500000000E+03 0.  0.
</event>
<event>
 5    0  0.5634041E-005  0.4495647E+03  0.7546771E-02  0.1027852E+00
         21   -1    0    0  502  501  0.00000000000E+00  0.00000000000E+00  0.12355422216E+03  0.12355422216E+03  0.00000000000E+00 0.  1.
         21   -1    0    0  501  502 -0.00000000000E+00 -0.00000000000E+00 -0.16357869230E+04  0.16357869230E+04  0.00000000000E+00 0.  1.
         25    1    1    2    0    0  0.27822614332E+03 -0.87889848519E+02 -0.93256579447E+03  0.98510830538E+03  0.12500000000E+03 0.  0.
         25    1    1    2    0    0 -0.50738969027E+02 -0.51504926332E+02 -0.25534739160E+02  0.14664318367E+03  0.12500000000E+03 0.  0.
         25    1    1    2    0    0 -0.22748717430E+03  0.13939477485E+03 -0.55413216715E+03  0.62758965606E+03  0.12500000000E+03 0.  0.
</event>
<event>
 5    0  0.5634041E-005  0.2152654E+03  0.7546771E-02  0.1137463E+00
         21   -1    0    0  502  501  0.00000000000E+00  0.00000000000E+00  0.31909295422E+03  0.31909295422E+03  0.00000000000E+00 0. -1.
         21   -1    0    0  501  502 -0.00000000000E+00 -0.00000000000E+00 -0.14522162207E+03  0.14522162207E+03  0.00000000000E+00 0. -1.
         25    1    1    2    0    0 -0.47383267945E+02 -0.18791917159E+02  0.75723105472E+02  0.15478145539E+03  0.12500000000E+03 0.  0.
         25    1    1    2    0    0  0.16039627496E+02  0.79206586186E+02  0.30479221735E+02  0.15193727621E+03  0.12500000000E+03 0.  0.
         25    1    1    2    0    0  0.31343640449E+02 -0.60414669027E+02  0.67669004941E+02  0.15759584468E+03  0.12500000000E+03 0.  0.
</event>
<event>
 5    0  0.5634041E-005  0.2490278E+03  0.7546771E-02  0.1113921E+00
         21   -1    0    0  502  501  0.00000000000E+00  0.00000000000E+00  0.83142999103E+03  0.83142999103E+03  0.00000000000E+00 0. -1.
         21   -1    0    0  501  502 -0.00000000000E+00 -0.00000000000E+00 -0.74588202848E+02  0.74588202848E+02  0.00000000000E+00 0. -1.
         25    1    1    2    0    0 -0.42096590107E+02  0.95622563796E+02  0.42551566758E+03  0.45563623754E+03  0.12500000000E+03 0.  0.
         25    1    1    2    0    0  0.20546666318E+02 -0.13275594374E+02  0.62364181419E+02  0.14181924420E+03  0.12500000000E+03 0.  0.
         25    1    1    2    0    0  0.21549923789E+02 -0.82346969421E+02  0.26896193919E+03  0.30856271213E+03  0.12500000000E+03 0.  0.
</event>
<event>
 5    0  0.5634041E-005  0.2878385E+03  0.7546771E-02  0.1091483E+00
         21   -1    0    0  502  501  0.00000000000E+00  0.00000000000E+00  0.10598438426E+03  0.10598438426E+03  0.00000000000E+00 0. -1.
         21   -1    0    0  501  502 -0.00000000000E+00 -0.00000000000E+00 -0.78172821822E+03  0.78172821822E+03  0.00000000000E+00 0. -1.
         25    1    1    2    0    0 -0.12511203527E+03 -0.45086408824E+02 -0.37874387081E+03  0.42042564777E+03  0.12500000000E+03 0.  0.
         25    1    1    2    0    0  0.88040649638E+00  0.11001630268E+03 -0.96070913456E+02  0.19224719083E+03  0.12500000000E+03 0.  0.
         25    1    1    2    0    0  0.12423162877E+03 -0.64929893857E+02 -0.20092904969E+03  0.27503976387E+03  0.12500000000E+03 0.  0.
</event>
<event>
 5    0  0.5634041E-005  0.4056957E+03  0.7546771E-02  0.1041825E+00
         21   -1    0    0  502  501  0.00000000000E+00  0.00000000000E+00  0.57071179920E+03  0.57071179920E+03  0.00000000000E+00 0. -1.
         21   -1    0    0  501  502 -0.00000000000E+00 -0.00000000000E+00 -0.28839250236E+03  0.28839250236E+03  0.00000000000E+00 0. -1.
         25    1    1    2    0    0 -0.20241183605E+03  0.90397889101E+02  0.91223521925E+02  0.27034988566E+03  0.12500000000E+03 0.  0.
         25    1    1    2    0    0  0.20270092890E+03  0.36778703179E+02 -0.88859852830E+02  0.25682954080E+03  0.12500000000E+03 0.  0.
         25    1    1    2    0    0 -0.28909285396E+00 -0.12717659228E+03  0.27995562775E+03  0.33192487509E+03  0.12500000000E+03 0.  0.
</event>
<event>
 5    0  0.5634041E-005  0.4461565E+03  0.7546771E-02  0.1028874E+00
         21   -1    0    0  502  501  0.00000000000E+00  0.00000000000E+00  0.17293313558E+04  0.17293313558E+04  0.00000000000E+00 0.  1.
         21   -1    0    0  501  502 -0.00000000000E+00 -0.00000000000E+00 -0.11510552274E+03  0.11510552274E+03  0.00000000000E+00 0.  1.
         25    1    1    2    0    0 -0.75085904251E+02 -0.16381589786E+03  0.38194857630E+02  0.22261488845E+03  0.12500000000E+03 0.  0.
         25    1    1    2    0    0  0.10927317476E+03  0.18225117223E+03  0.89551534016E+03  0.92883197671E+03  0.12500000000E+03 0.  0.
         25    1    1    2    0    0 -0.34187270513E+02 -0.18435274363E+02  0.68051563528E+03  0.69299001340E+03  0.12500000000E+03 0.  0.
</event>
<event>
 5    0  0.5634041E-005  0.2874078E+03  0.7546771E-02  0.1091710E+00
         21   -1    0    0  502  501  0.00000000000E+00  0.00000000000E+00  0.87404379243E+02  0.87404379243E+02  0.00000000000E+00 0.  1.
         21   -1    0    0  501  502 -0.00000000000E+00 -0.00000000000E+00 -0.94507005180E+03  0.94507005180E+03  0.00000000000E+00 0.  1.
         25    1    1    2    0    0 -0.11839452345E+02  0.11404662421E+03 -0.47477084679E+03  0.50416184117E+03  0.12500000000E+03 0.  0.
         25    1    1    2    0    0 -0.54295527790E+02 -0.64973223823E+02 -0.34091047682E+03  0.37284645279E+03  0.12500000000E+03 0.  0.
         25    1    1    2    0    0  0.66134980135E+02 -0.49073400386E+02 -0.41984348937E+02  0.15546613708E+03  0.12500000000E+03 0.  0.
</event>
<event>
 5    0  0.5634041E-005  0.5143114E+03  0.7546771E-02  0.1010109E+00
         21   -1    0    0  502  501  0.00000000000E+00  0.00000000000E+00  0.94566058177E+03  0.94566058177E+03  0.00000000000E+00 0. -1.
         21   -1    0    0  501  502 -0.00000000000E+00 -0.00000000000E+00 -0.27971580803E+03  0.27971580803E+03  0.00000000000E+00 0. -1.
         25    1    1    2    0    0  0.89612148251E+02 -0.11754738271E+03  0.35623461926E+03  0.40543288996E+03  0.12500000000E+03 0.  0.
         25    1    1    2    0    0  0.18156684028E+03 -0.17453566685E+03 -0.28333395764E+02  0.28258980486E+03  0.12500000000E+03 0.  0.
         25    1    1    2    0    0 -0.27117898853E+03  0.29208304956E+03  0.33804355023E+03  0.53735369499E+03  0.12500000000E+03 0.  0.
</event>
<event>
 5    0  0.5634041E-005  0.2769339E+03  0.7546771E-02  0.1097375E+00
         21   -1    0    0  502  501  0.00000000000E+00  0.00000000000E+00  0.51084899674E+03  0.51084899674E+03  0.00000000000E+00 0.  1.
         21   -1    0    0  501  502 -0.00000000000E+00 -0.00000000000E+00 -0.15012732872E+03  0.15012732872E+03  0.00000000000E+00 0.  1.
         25    1    1    2    0    0 -0.10569544064E+03 -0.71201506818E+02  0.28192758377E+02  0.18072358001E+03  0.12500000000E+03 0.  0.
         25    1    1    2    0    0  0.60217896403E+02 -0.53881653096E+02  0.22049783708E+03  0.26603331322E+03  0.12500000000E+03 0.  0.
         25    1    1    2    0    0  0.45477544238E+02  0.12508315991E+03  0.11203107256E+03  0.21421943223E+03  0.12500000000E+03 0.  0.
</event>
<event>
 5    0  0.5634041E-005  0.3598568E+03  0.7546771E-02  0.1058641E+00
         21   -1    0    0  502  501  0.00000000000E+00  0.00000000000E+00  0.42129868586E+03  0.42129868586E+03  0.00000000000E+00 0.  1.
         21   -1    0    0  501  502 -0.00000000000E+00 -0.00000000000E+00 -0.30737563240E+03  0.30737563240E+03  0.00000000000E+00 0.  1.
         25    1    1    2    0    0 -0.99481099389E+02 -0.24006128745E+02  0.22278435363E+03  0.27519202673E+03  0.12500000000E+03 0.  0.
         25    1    1    2    0    0  0.37497651228E+02 -0.15228641602E+03 -0.10982378845E+03  0.22865583496E+03  0.12500000000E+03 0.  0.
         25    1    1    2    0    0  0.61983448161E+02  0.17629254477E+03  0.96248827173E+00  0.22482645656E+03  0.12500000000E+03 0.  0.
</event>
<event>
 5    0  0.5634041E-005  0.2587227E+03  0.7546771E-02  0.1107913E+00
         21   -1    0    0  502  501  0.00000000000E+00  0.00000000000E+00  0.11270060454E+03  0.11270060454E+03  0.00000000000E+00 0. -1.
         21   -1    0    0  501  502 -0.00000000000E+00 -0.00000000000E+00 -0.59394036675E+03  0.59394036675E+03  0.00000000000E+00 0. -1.
         25    1    1    2    0    0 -0.91313781261E+02 -0.68977041121E+01 -0.29833902968E+03  0.33617995419E+03  0.12500000000E+03 0.  0.
         25    1    1    2    0    0 -0.20835393803E+02  0.64720351147E+02 -0.59744857345E+02  0.15432849856E+03  0.12500000000E+03 0.  0.
         25    1    1    2    0    0  0.11214917506E+03 -0.57822647034E+02 -0.12315587519E+03  0.21613251854E+03  0.12500000000E+03 0.  0.
</event>
<event>
 5    0  0.5634041E-005  0.2889484E+03  0.7546771E-02  0.1090899E+00
         21   -1    0    0  502  501  0.00000000000E+00  0.00000000000E+00  0.76722254009E+03  0.76722254009E+03  0.00000000000E+00 0.  1.
         21   -1    0    0  501  502 -0.00000000000E+00 -0.00000000000E+00 -0.10882264526E+03  0.10882264526E+03  0.00000000000E+00 0.  1.
         25    1    1    2    0    0  0.17655032865E+02 -0.11916334973E+03  0.24218398079E+03  0.29797597999E+03  0.12500000000E+03 0.  0.
         25    1    1    2    0    0 -0.52986415313E+02  0.17896871122E+02  0.38736081572E+03  0.41085430478E+03  0.12500000000E+03 0.  0.
         25    1    1    2    0    0  0.35331382448E+02  0.10126647860E+03  0.28855098321E+02  0.16721490057E+03  0.12500000000E+03 0.  0.
</event>
<event>
 5    0  0.5634041E-005  0.2488249E+03  0.7546771E-02  0.1114050E+00
         21   -1    0    0  502  501  0.00000000000E+00  0.00000000000E+00  0.16750541734E+04  0.16750541734E+04  0.00000000000E+00 0. -1.
         21   -1    0    0  501  502 -0.00000000000E+00 -0.00000000000E+00 -0.36962297647E+02  0.36962297647E+02  0.00000000000E+00 0. -1.
         25    1    1    2    0    0  0.35378215387E+02  0.15539747525E+02  0.20154154828E+03  0.24028545016E+03  0.12500000000E+03 0.  0.
         25    1    1    2    0    0 -0.39762682876E+02  0.19922203402E+02  0.11430724733E+04  0.11507465596E+04  0.12500000000E+03 0.  0.
         25    1    1    2    0    0  0.43844674881E+01 -0.35461950926E+02  0.29347785421E+03  0.32098446135E+03  0.12500000000E+03 0.  0.
</event>
<event>
 5    0  0.6042250E-005  0.3127840E+03  0.7546771E-02  0.1079019E+00
         21   -1    0    0  502  501  0.00000000000E+00  0.00000000000E+00  0.17278418959E+03  0.17278418959E+03  0.00000000000E+00 0.  1.
         21   -1    0    0  501  502 -0.00000000000E+00 -0.00000000000E+00 -0.56621990508E+03  0.56621990508E+03  0.00000000000E+00 0.  1.
         25    1    1    2    0    0 -0.65592233049E+02  0.55004057055E+02  0.32697809688E+02  0.15499010964E+03  0.12500000000E+03 0.  0.
         25    1    1    2    0    0  0.28687880985E+02 -0.17737366716E+03 -0.20764664807E+03  0.30170605359E+03  0.12500000000E+03 0.  0.
         25    1    1    2    0    0  0.36904352064E+02  0.12236961011E+03 -0.21848687711E+03  0.28230793143E+03  0.12500000000E+03 0.  0.
</event>
<event>
 5    0  0.5634041E-005  0.3661459E+03  0.7546771E-02  0.1056177E+00
         21   -1    0    0  502  501  0.00000000000E+00  0.00000000000E+00  0.41870518770E+03  0.41870518770E+03  0.00000000000E+00 0. -1.
         21   -1    0    0  501  502 -0.00000000000E+00 -0.00000000000E+00 -0.32018430647E+03  0.32018430647E+03  0.00000000000E+00 0. -1.
         25    1    1    2    0    0  0.21984426532E+03  0.10116911951E+03 -0.13290559250E+03  0.30307686856E+03  0.12500000000E+03 0.  0.
         25    1    1    2    0    0 -0.17885239084E+03 -0.84756544751E+02  0.17226630193E+03  0.29064158059E+03  0.12500000000E+03 0.  0.
         25    1    1    2    0    0 -0.40991874486E+02 -0.16412574755E+02  0.59160171801E+02  0.14517104502E+03  0.12500000000E+03 0.  0.
</event>
<event>
 5    0  0.5634041E-005  0.2652908E+03  0.7546771E-02  0.1104005E+00
         21   -1    0    0  502  501  0.00000000000E+00  0.00000000000E+00  0.27312550588E+03  0.27312550588E+03  0.00000000000E+00 0. -1.
         21   -1    0    0  501  502 -0.00000000000E+00 -0.00000000000E+00 -0.25768075073E+03  0.25768075073E+03  0.00000000000E+00 0. -1.
         25    1    1    2    0    0  0.59326501961E+01 -0.42857737280E+02  0.10102131195E+03  0.16644004161E+03  0.12500000000E+03 0.  0.
         25    1    1    2    0    0  0.61492605625E+02 -0.64174498011E+02  0.24344359298E+02  0.15529763221E+03  0.12500000000E+03 0.  0.
         25    1    1    2    0    0 -0.67425255821E+02  0.10703223529E+03 -0.10992091609E+03  0.20906858279E+03  0.12500000000E+03 0.  0.
</event>
<event>
 5    0  0.5634041E-005  0.4280839E+03  0.7546771E-02  0.1034467E+00
         21   -1    0    0  502  501  0.00000000000E+00  0.00000000000E+00  0.18466549509E+03  0.18466549509E+03  0.00000000000E+00 0.  1.
         21   -1    0    0  501  502 -0.00000000000E+00 -0.00000000000E+00 -0.99236613559E+03  0.99236613559E+03  0.00000000000E+00 0.  1.
         25    1    1    2    0    0 -0.65014529642E+02  0.22795663884E+03 -0.59236611534E+03  0.65016438910E+03  0.12500000000E+03 0.  0.
         25    1    1    2    0    0  0.11443919410E+03 -0.21231494234E+03 -0.26804777897E+03  0.38163932672E+03  0.12500000000E+03 0.  0.
         25    1    1    2    0    0 -0.49424664463E+02 -0.15641696505E+02  0.52713253812E+02  0.14522791486E+03  0.12500000000E+03 0.  0.
</event>
<event>
 5    0  0.5634041E-005  0.2866919E+03  0.7546771E-02  0.1092089E+00
         21   -1    0    0  502  501  0.00000000000E+00  0.00000000000E+00  0.47812168774E+03  0.47812168774E+03  0.00000000000E+00 0.  1.
         21   -1    0    0  501  502 -0.00000000000E+00 -0.00000000000E+00 -0.17190649303E+03  0.17190649303E+03  0.00000000000E+00 0.  1.
         25    1    1    2    0    0  0.28089731982E+02  0.14176741384E+03  0.15914468920E+03  0.24867461626E+03  0.12500000000E+03 0.  0.
         25    1    1    2    0    0 -0.32217687718E+01 -0.13019036380E+03 -0.29886606389E+02  0.18297027043E+03  0.12500000000E+03 0.  0.
         25    1    1    2    0    0 -0.24867963210E+02 -0.11577050046E+02  0.17695711190E+03  0.21838329409E+03  0.12500000000E+03 0.  0.
</event>
<event>
 5    0  0.5634041E-005  0.2970455E+03  0.7546771E-02  0.1086727E+00
         21   -1    0    0  502  501  0.00000000000E+00  0.00000000000E+00  0.42894035702E+03  0.42894035702E+03  0.00000000000E+00 0. -1.
         21   -1    0    0  501  502 -0.00000000000E+00 -0.00000000000E+00 -0.20570702870E+03  0.20570702870E+03  0.00000000000E+00 0. -1.
         25    1    1    2    0    0 -0.69973419391E+02 -0.45574178273E+01  0.13292012340E+03  0.19547329404E+03  0.12500000000E+03 0.  0.
         25    1    1    2    0    0 -0.73682971516E+00 -0.38993958542E+02  0.20982333030E+03  0.24732954061E+03  0.12500000000E+03 0.  0.
         25    1    1    2    0    0  0.70710249106E+02  0.43551376369E+02 -0.11951012537E+03  0.19184455108E+03  0.12500000000E+03 0.  0.
</event>
<event>
 5    0  0.5634041E-005  0.2609287E+03  0.7546771E-02  0.1106587E+00
         21   -1    0    0  502  501  0.00000000000E+00  0.00000000000E+00  0.34492025288E+03  0.34492025288E+03  0.00000000000E+00 0. -1.
         21   -1    0    0  501  502 -0.00000000000E+00 -0.00000000000E+00 -0.19738996350E+03  0.19738996350E+03  0.00000000000E+00 0. -1.
         25    1    1    2    0    0  0.12062295754E+03  0.34179734119E+02  0.65840994992E+01  0.17716236191E+03  0.12500000000E+03 0.  0.
         25    1    1    2    0    0 -0.29739964494E+02  0.73932044030E+02  0.62103221455E+02  0.16072405774E+03  0.12500000000E+03 0.  0.
         25    1    1    2    0    0 -0.90882993051E+02 -0.10811177815E+03  0.78842968420E+02  0.20442379673E+03  0.12500000000E+03 0.  0.
</event>
<event>
 5    0  0.5697684E-005  0.4518866E+03  0.7546771E-02  0.1027161E+00
         21   -1    0    0  502  501  0.00000000000E+00  0.00000000000E+00  0.47925942093E+03  0.47925942093E+03  0.00000000000E+00 0. -1.
         21   -1    0    0  501  502 -0.00000000000E+00 -0.00000000000E+00 -0.42607717784E+03  0.42607717784E+03  0.00000000000E+00 0. -1.
         25    1    1    2    0    0  0.44118235630E+02 -0.58901278529E+02 -0.21538687945E+03  0.25967727503E+03  0.12500000000E+03 0.  0.
         25    1    1    2    0    0 -0.18344129795E+03 -0.16100095257E+03  0.22270269721E+03  0.35326124592E+03  0.12500000000E+03 0.  0.
         25    1    1    2    0    0  0.13932306232E+03  0.21990223110E+03  0.45866425332E+02  0.29239807781E+03  0.12500000000E+03 0.  0.
</event>
<event>
 5    0  0.5634041E-005  0.2765201E+03  0.7546771E-02  0.1097605E+00
         21   -1    0    0  502  501  0.00000000000E+00  0.00000000000E+00  0.39270239751E+03  0.39270239751E+03  0.00000000000E+00 0.  1.
         21   -1    0    0  501  502 -0.00000000000E+00 -0.00000000000E+00 -0.19471076497E+03  0.19471076497E+03  0.00000000000E+00 0.  1.
         25    1    1    2    0    0  0.11205764583E+02 -0.65453565191E+01  0.12982281671E+03  0.18068584502E+03  0.12500000000E+03 0.  0.
         25    1    1    2    0    0  0.18479881917E+02 -0.55885236119E+02 -0.11125301513E+03  0.17738911756E+03  0.12500000000E+03 0.  0.
         25    1    1    2    0    0 -0.29685646500E+02  0.62430592638E+02  0.17942183097E+03  0.22933819990E+03  0.12500000000E+03 0.  0.
</event>
<event>
 5    0  0.5634041E-005  0.3229207E+03  0.7546771E-02  0.1074313E+00
         21   -1    0    0  502  501  0.00000000000E+00  0.00000000000E+00  0.47045749043E+03  0.47045749043E+03  0.00000000000E+00 0. -1.
         21   -1    0    0  501  502 -0.00000000000E+00 -0.00000000000E+00 -0.22165188128E+03  0.22165188128E+03  0.00000000000E+00 0. -1.
         25    1    1    2    0    0 -0.81273761989E+02 -0.94572740614E+02 -0.12447651429E+03  0.21602969764E+03  0.12500000000E+03 0.  0.
         25    1    1    2    0    0  0.55470766392E+02  0.93354028471E+02  0.18125061834E+03  0.24549698003E+03  0.12500000000E+03 0.  0.
         25    1    1    2    0    0  0.25802995597E+02  0.12187121422E+01  0.19203150509E+03  0.23058269404E+03  0.12500000000E+03 0.  0.
</event>
<event>
 5    0  0.5634041E-005  0.2391000E+03  0.7546771E-02  0.1120394E+00
         21   -1    0    0  502  501  0.00000000000E+00  0.00000000000E+00  0.38282886688E+03  0.38282886688E+03  0.00000000000E+00 0.  1.
         21   -1    0    0  501  502 -0.00000000000E+00 -0.00000000000E+00 -0.14933252508E+03  0.14933252508E+03  0.00000000000E+00 0.  1.
         25    1    1    2    0    0 -0.94634427122E+01  0.75720012218E+02 -0.34236337252E+02  0.15040014557E+03  0.12500000000E+03 0.  0.
         25    1    1    2    0    0  0.21730138233E+02 -0.31533611274E+02  0.17938643986E+03  0.22197085924E+03  0.12500000000E+03 0.  0.
         25    1    1    2    0    0 -0.12266695521E+02 -0.44186400944E+02  0.88346239192E+02  0.15979038715E+03  0.12500000000E+03 0.  0.
</event>
<event>
 5    0  0.5634041E-005  0.3205238E+03  0.7546771E-02  0.1075408E+00
         21   -1    0    0  502  501  0.00000000000E+00  0.00000000000E+00  0.13081614782E+03  0.13081614782E+03  0.00000000000E+00 0.  1.
         21   -1    0    0  501  502 -0.00000000000E+00 -0.00000000000E+00 -0.78534285470E+03  0.78534285470E+03  0.00000000000E+00 0.  1.
         25    1    1    2    0    0  0.17702359187E+03  0.11833145112E+02 -0.38279828617E+03  0.44004193357E+03  0.12500000000E+03 0.  0.
         25    1    1    2    0    0 -0.19722154450E+03 -0.76270001141E+00 -0.25847072813E+03  0.34832317842E+03  0.12500000000E+03 0.  0.
         25    1    1    2    0    0  0.20197952629E+02 -0.11070445101E+02 -0.13257692584E+02  0.12779389053E+03  0.12500000000E+03 0.  0.
</event>
<event>
 5    0  0.5634041E-005  0.3549579E+03  0.7546771E-02  0.1060598E+00
         21   -1    0    0  502  501  0.00000000000E+00  0.00000000000E+00  0.35382811803E+03  0.35382811803E+03  0.00000000000E+00 0.  1.
         21   -1    0    0  501  502 -0.00000000000E+00 -0.00000000000E+00 -0.35609131143E+03  0.35609131143E+03  0.00000000000E+00 0.  1.
         25    1    1    2    0    0 -0.58078751787E+02  0.11379929514E+03  0.53585486846E+02  0.18660071110E+03  0.12500000000E+03 0.  0.
         25    1    1    2    0    0 -0.13681329881E+03 -0.98655592936E+01 -0.16379363316E+03  0.24752487199E+03  0.12500000000E+03 0.  0.
         25    1    1    2    0    0  0.19489205059E+03 -0.10393373584E+03  0.10794495291E+03  0.27579384636E+03  0.12500000000E+03 0.  0.
</event>
<event>
 5    0  0.5634041E-005  0.2439951E+03  0.7546771E-02  0.1117160E+00
         21   -1    0    0  502  501  0.00000000000E+00  0.00000000000E+00  0.83827932791E+02  0.83827932791E+02  0.00000000000E+00 0. -1.
         21   -1    0    0  501  502 -0.00000000000E+00 -0.00000000000E+00 -0.71018810546E+03  0.71018810546E+03  0.00000000000E+00 0. -1.
         25    1    1    2    0    0 -0.28585487660E+02  0.80902237482E+02 -0.22467298221E+03  0.27104473998E+03  0.12500000000E+03 0.  0.
         25    1    1    2    0    0  0.57583023553E+02  0.18962116478E+02 -0.74577114890E+02  0.15767724163E+03  0.12500000000E+03 0.  0.
         25    1    1    2    0    0 -0.28997535892E+02 -0.99864353960E+02 -0.32711007557E+03  0.36529405664E+03  0.12500000000E+03 0.  0.
</event>
<event>
 5    0  0.5634041E-005  0.2241195E+03  0.7546771E-02  0.1130849E+00
         21   -1    0    0  502  501  0.00000000000E+00  0.00000000000E+00  0.83707183411E+03  0.83707183411E+03  0.00000000000E+00 0.  1.
         21   -1    0    0  501  502 -0.00000000000E+00 -0.00000000000E+00 -0.60006237578E+02  0.60006237578E+02  0.00000000000E+00 0.  1.
         25    1    1    2    0    0  0.10569897532E+03  0.49097420606E+01  0.20609748381E+03  0.26324428158E+03  0.12500000000E+03 0.  0.
         25    1    1    2    0    0 -0.41344962346E+02 -0.15570890094E+02  0.31128773300E+03  0.33834436783E+03  0.12500000000E+03 0.  0.
         25    1    1    2    0    0 -0.64354012974E+02  0.10661148033E+02  0.25968037972E+03  0.29548942227E+03  0.12500000000E+03 0.  0.
</event>
<event>
 5    0  0.5634041E-005  0.3099559E+03  0.7546771E-02  0.1080367E+00
         21   -1    0    0  502  501  0.00000000000E+00  0.00000000000E+00  0.36307929263E+03  0.36307929263E+03  0.00000000000E+00 0.  1.
         21   -1    0    0  501  502 -0.00000000000E+00 -0.00000000000E+00 -0.26460521364E+03  0.26460521364E+03  0.00000000000E+00 0.  1.
         25    1    1    2    0    0 -0.15035385354E+03 -0.95585961891E+02  0.18241168214E+03  0.28397531436E+03  0.12500000000E+03 0.  0.
         25    1    1    2    0    0  0.13343867799E+03  0.92080710451E+02 -0.71775159464E+02  0.21693642280E+03  0.12500000000E+03 0.  0.
         25    1    1    2    0    0  0.16915175552E+02  0.35052514406E+01 -0.12162443689E+02  0.12677276911E+03  0.12500000000E+03 0.  0.
</event>
<event>
 5    0  0.5634041E-005  0.3351510E+03  0.7546771E-02  0.1068880E+00
         21   -1    0    0  502  501  0.00000000000E+00  0.00000000000E+00  0.18687739347E+03  0.18687739347E+03  0.00000000000E+00 0.  1.
         21   -1    0    0  501  502 -0.00000000000E+00 -0.00000000000E+00 -0.60106884267E+03  0.60106884267E+03  0.00000000000E+00 0.  1.
         25    1    1    2    0    0 -0.70371612661E+02 -0.22799813965E+02 -0.46829949426E+02  0.15261074519E+03  0.12500000000E+03 0.  0.
         25    1    1    2    0    0  0.89375536292E+02  0.21295938187E+03 -0.29685294055E+03  0.39634120796E+03  0.12500000000E+03 0.  0.
         25    1    1    2    0    0 -0.19003923631E+02 -0.19015956790E+03 -0.70508559226E+02  0.23899428299E+03  0.12500000000E+03 0.  0.
</event>
<event>
 5    0  0.5634041E-005  0.4063845E+03  0.7546771E-02  0.1041591E+00
         21   -1    0    0  502  501  0.00000000000E+00  0.00000000000E+00  0.37224298889E+03  0.37224298889E+03  0.00000000000E+00 0. -1.
         21   -1    0    0  501  502 -0.00000000000E+00 -0.00000000000E+00 -0.44365744860E+03  0.44365744860E+03  0.00000000000E+00 0. -1.
         25    1    1    2    0    0  0.22347464580E+02  0.26745820301E+03  0.13952740879E+03  0.32730138609E+03  0.12500000000E+03 0.  0.
         25    1    1    2    0    0 -0.12080337722E+03 -0.15636979153E+03 -0.17301464612E+03  0.29086772839E+03  0.12500000000E+03 0.  0.
         25    1    1    2    0    0  0.98455912642E+02 -0.11108841148E+03 -0.37927222378E+02  0.19773132301E+03  0.12500000000E+03 0.  0.
</event>
<event>
 5    0  0.5634041E-005  0.3341581E+03  0.7546771E-02  0.1069312E+00
         21   -1    0    0  502  501  0.00000000000E+00  0.00000000000E+00  0.34882518666E+03  0.34882518666E+03  0.00000000000E+00 0.  1.
         21   -1    0    0  501  502 -0.00000000000E+00 -0.00000000000E+00 -0.32010778815E+03  0.32010778815E+03  0.00000000000E+00 0.  1.
         25    1    1    2    0    0  0.14659370609E+03 -0.17049784761E+03 -0.33713676195E+02  0.25946260360E+03  0.12500000000E+03 0.  0.
         25    1    1    2    0    0 -0.14056709798E+03  0.17506283385E+03 -0.22822525733E+02  0.25797668986E+03  0.12500000000E+03 0.  0.
         25    1    1    2    0    0 -0.60266081130E+01 -0.45649862384E+01  0.85253600436E+02  0.15149368136E+03  0.12500000000E+03 0.  0.
</event>
<event>
 5    0  0.5634041E-005  0.4349817E+03  0.7546771E-02  0.1032298E+00
         21   -1    0    0  502  501  0.00000000000E+00  0.00000000000E+00  0.53626199445E+03  0.53626199445E+03  0.00000000000E+00 0. -1.
         21   -1    0    0  501  502 -0.00000000000E+00 -0.00000000000E+00 -0.35282953888E+03  0.35282953888E+03  0.00000000000E+00 0. -1.
         25    1    1    2    0    0 -0.27109816328E+03  0.14690328059E+03  0.13448252937E+03  0.35886674224E+03  0.12500000000E+03 0.  0.
         25    1    1    2    0    0  0.24261042763E+03 -0.13079493921E+03 -0.11299507855E+03  0.32304802041E+03  0.12500000000E+03 0.  0.
         25    1    1    2    0    0  0.28487735655E+02 -0.16108341381E+02  0.16194500474E+03  0.20717677067E+03  0.12500000000E+03 0.  0.
</event>
<event>
 5    0  0.5634041E-005  0.3278959E+03  0.7546771E-02  0.1072072E+00
         21   -1    0    0  502  501  0.00000000000E+00  0.00000000000E+00  0.10521148423E+04  0.10521148423E+04  0.00000000000E+00 0.  1.
         21   -1    0    0  501  502 -0.00000000000E+00 -0.00000000000E+00 -0.10219009060E+03  0.10219009060E+03  0.00000000000E+00 0.  1.
         25    1    1    2    0    0 -0.44189674304E+02 -0.44176103884E+01  0.15619211951E+03  0.20492247508E+03  0.12500000000E+03 0.  0.
         25    1    1    2    0    0 -0.58395933373E+02  0.21487880352E+03  0.39898831907E+03  0.47370841664E+03  0.12500000000E+03 0.  0.
         25    1    1    2    0    0  0.10258560768E+03 -0.21046119313E+03  0.39474431311E+03  0.47567404118E+03  0.12500000000E+03 0.  0.
</event>
<event>
 5    0  0.5634041E-005  0.2150125E+03  0.7546771E-02  0.1137657E+00
         21   -1    0    0  502  501  0.00000000000E+00  0.00000000000E+00  0.51870719157E+03  0.51870719157E+03  0.00000000000E+00 0.  1.
         21   -1    0    0  501  502 -0.00000000000E+00 -0.00000000000E+00 -0.89126180439E+02  0.89126180439E+02  0.00000000000E+00 0.  1.
         25    1    1    2    0    0 -0.66914668163E+02  0.38723552723E+02  0.22120511637E+03  0.26558198331E+03  0.12500000000E+03 0.  0.
         25    1    1    2    0    0  0.16412052880E+02 -0.69439723594E+01  0.13743255248E+03  0.18662872424E+03  0.12500000000E+03 0.  0.
         25    1    1    2    0    0  0.50502615283E+02 -0.31779580364E+02  0.70943342283E+02  0.15562266446E+03  0.12500000000E+03 0.  0.
</event>
<event>
 5    0  0.5634041E-005  0.4536633E+03  0.7546771E-02  0.1026635E+00
         21   -1    0    0  502  501  0.00000000000E+00  0.00000000000E+00  0.10703233772E+04  0.10703233772E+04  0.00000000000E+00 0.  1.
         21   -1    0    0  501  502 -0.00000000000E+00 -0.00000000000E+00 -0.19228803690E+03  0.19228803690E+03  0.00000000000E+00 0.  1.
         25    1    1    2    0    0 -0.13913138966E+03  0.90445780816E+02  0.39160008432E+03  0.44329855504E+03  0.12500000000E+03 0.  0.
         25    1    1    2    0    0 -0.24087635115E+02  0.15174150686E+03 -0.42250685287E+02  0.20252362696E+03  0.12500000000E+03 0.  0.
         25    1    1    2    0    0  0.16321902477E+03 -0.24218728767E+03  0.52868594127E+03  0.61678923212E+03  0.12500000000E+03 0.  0.
</event>
<event>
 5    0  0.5634041E-005  0.2575940E+03  0.7546771E-02  0.1108597E+00
         21   -1    0    0  502  501  0.00000000000E+00  0.00000000000E+00  0.12453788647E+04  0.12453788647E+04  0.00000000000E+00 0.  1.
         21   -1    0    0  501  502 -0.00000000000E+00 -0.00000000000E+00 -0.53280716417E+02  0.53280716417E+02  0.00000000000E+00 0.  1.
         25    1    1    2    0    0  0.43358288640E+02 -0.44057130147E+01  0.12872711237E+03  0.18464837113E+03  0.12500000000E+03 0.  0.
         25    1    1    2    0    0 -0.63480080257E+02  0.61886922121E+02  0.81576587643E+03  0.83003534676E+03  0.12500000000E+03 0.  0.
         25    1    1    2    0    0  0.20121791617E+02 -0.57481209106E+02  0.24760515952E+03  0.28397586327E+03  0.12500000000E+03 0.  0.
</event>
<event>
 5    0  0.5634041E-005  0.2920870E+03  0.7546771E-02  0.1089265E+00
         21   -1    0    0  502  501  0.00000000000E+00  0.00000000000E+00  0.58138436989E+03  0.58138436989E+03  0.00000000000E+00 0.  1.
         21   -1    0    0  501  502 -0.00000000000E+00 -0.00000000000E+00 -0.14674423990E+03  0.14674423990E+03  0.00000000000E+00 0.  1.
         25    1    1    2    0    0 -0.10502077224E+03  0.91888402954E+02  0.75736909039E+02  0.20207404729E+03  0.12500000000E+03 0.  0.
         25    1    1    2    0    0 -0.72525345873E+02 -0.79972336001E+02  0.18156035956E+03  0.24544788547E+03  0.12500000000E+03 0.  0.
         25    1    1    2    0    0  0.17754611811E+03 -0.11916066952E+02  0.17734286139E+03  0.28060667703E+03  0.12500000000E+03 0.  0.
</event>
<event>
 5    0  0.5634041E-005  0.2430559E+03  0.7546771E-02  0.1117774E+00
         21   -1    0    0  502  501  0.00000000000E+00  0.00000000000E+00  0.16715935844E+04  0.16715935844E+04  0.00000000000E+00 0.  1.
         21   -1    0    0  501  502 -0.00000000000E+00 -0.00000000000E+00 -0.35341232324E+02  0.35341232324E+02  0.00000000000E+00 0.  1.
         25    1    1    2    0    0 -0.20948831365E+02  0.94771676960E+02  0.92431449010E+03  0.93776478975E+03  0.12500000000E+03 0.  0.
         25    1    1    2    0    0 -0.41813311138E+02 -0.23384917904E+02  0.34341638566E+03  0.36858516155E+03  0.12500000000E+03 0.  0.
         25    1    1    2    0    0  0.62762142504E+02 -0.71386759056E+02  0.36852147632E+03  0.40058486542E+03  0.12500000000E+03 0.  0.
</event>
<event>
 5    0  0.5634041E-005  0.2747293E+03  0.7546771E-02  0.1098603E+00
         21   -1    0    0  502  501  0.00000000000E+00  0.00000000000E+00  0.22778519833E+03  0.22778519833E+03  0.00000000000E+00 0.  1.
         21   -1    0    0  501  502 -0.00000000000E+00 -0.00000000000E+00 -0.33134818567E+03  0.33134818567E+03  0.00000000000E+00 0.  1.
         25    1    1    2    0    0  0.10456529408E+03  0.11787468388E+03  0.27100238845E+02  0.20294768974E+03  0.12500000000E+03 0.  0.
         25    1    1    2    0    0 -0.60585739550E+02 -0.11899819956E+02  0.41401088546E+01  0.13947895201E+03  0.12500000000E+03 0.  0.
         25    1    1    2    0    0 -0.43979554530E+02 -0.10597486392E+03 -0.13480333504E+03  0.21670674225E+03  0.12500000000E+03 0.  0.
</event>
<event>
 5    0  0.5634041E-005  0.3287155E+03  0.7546771E-02  0.1071707E+00
         21   -1    0    0  502  501  0.00000000000E+00  0.00000000000E+00  0.42755445024E+02  0.42755445024E+02  0.00000000000E+00 0. -1.
         21   -1    0    0  501  502 -0.00000000000E+00 -0.00000000000E+00 -0.25272535139E+04  0.25272535139E+04  0.00000000000E+00 0. -1.
         25    1    1    2    0    0  0.34884206296E+02  0.15413418904E+03 -0.40041547059E+03  0.44825417474E+03  0.12500000000E+03 0.  0.
         25    1    1    2    0    0 -0.13928070917E+03 -0.14051768815E+03 -0.12834886985E+04  0.13046503654E+04  0.12500000000E+03 0.  0.
         25    1    1    2    0    0  0.10439650287E+03 -0.13616500890E+02 -0.80059389975E+03  0.81710441880E+03  0.12500000000E+03 0.  0.
</event>
<event>
 5    0  0.5634041E-005  0.3436752E+03  0.7546771E-02  0.1065241E+00
         21   -1    0    0  502  501  0.00000000000E+00  0.00000000000E+00  0.90047741776E+02  0.90047741776E+02  0.00000000000E+00 0. -1.
         21   -1    0    0  501  502 -0.00000000000E+00 -0.00000000000E+00 -0.13116665590E+04  0.13116665590E+04  0.00000000000E+00 0. -1.
         25    1    1    2    0    0 -0.75973757971E+02 -0.24345405509E+03 -0.46497711817E+03  0.54485833871E+03  0.12500000000E+03 0.  0.
         25    1    1    2    0    0  0.10649475444E+03  0.77834397722E+02 -0.45042178779E+03  0.48569961201E+03  0.12500000000E+03 0.  0.
         25    1    1    2    0    0 -0.30520996473E+02  0.16561965737E+03 -0.30621991127E+03  0.37115635006E+03  0.12500000000E+03 0.  0.
</event>
<event>
 5    0  0.5634041E-005  0.2936989E+03  0.7546771E-02  0.1088434E+00
         21   -1    0    0  502  501  0.00000000000E+00  0.00000000000E+00  0.80618762200E+02  0.80618762200E+02  0.00000000000E+00 0.  1.
         21   -1    0    0  501  502 -0.00000000000E+00 -0.00000000000E+00 -0.10699623745E+04  0.10699623745E+04  0.00000000000E+00 0.  1.
         25    1    1    2    0    0 -0.60221638639E+02 -0.50576334059E+02 -0.18536153590E+03  0.23699896692E+03  0.12500000000E+03 0.  0.
         25    1    1    2    0    0  0.16870635649E+03 -0.76626540978E+02 -0.45495720911E+03  0.50689695563E+03  0.12500000000E+03 0.  0.
         25    1    1    2    0    0 -0.10848471785E+03  0.12720287504E+03 -0.34902486724E+03  0.40668521411E+03  0.12500000000E+03 0.  0.
</event>
<event>
 5    0  0.5641078E-005  0.3347442E+03  0.7546771E-02  0.1069057E+00
         21   -1    0    0  502  501  0.00000000000E+00  0.00000000000E+00  0.78817670283E+03  0.78817670283E+03  0.00000000000E+00 0. -1.
         21   -1    0    0  501  502 -0.00000000000E+00 -0.00000000000E+00 -0.14216824335E+03  0.14216824335E+03  0.00000000000E+00 0. -1.
         25    1    1    2    0    0 -0.77639713412E+02 -0.45980616391E+02  0.29204309852E+02  0.15690772414E+03  0.12500000000E+03 0.  0.
         25    1    1    2    0    0  0.18327812064E+03 -0.66792364717E+02  0.17948762725E+03  0.29307490139E+03  0.12500000000E+03 0.  0.
         25    1    1    2    0    0 -0.10563840723E+03  0.11277298111E+03  0.43731652237E+03  0.48036232064E+03  0.12500000000E+03 0.  0.
</event>
<event>
 5    0  0.5634041E-005  0.3832254E+03  0.7546771E-02  0.1049748E+00
         21   -1    0    0  502  501  0.00000000000E+00  0.00000000000E+00  0.91887590298E+03  0.91887590298E+03  0.00000000000E+00 0. -1.
         21   -1    0    0  501  502 -0.00000000000E+00 -0.00000000000E+00 -0.15982761429E+03  0.15982761429E+03  0.00000000000E+00 0. -1.
         25    1    1    2    0    0  0.11635427369E+03 -0.19051283233E+03  0.49927323316E+03  0.56100999781E+03  0.12500000000E+03 0.  0.
         25    1    1    2    0    0 -0.90254508764E+02  0.23912975397E+03  0.25324059070E+03  0.38089987184E+03  0.12500000000E+03 0.  0.
         25    1    1    2    0    0 -0.26099764925E+02 -0.48616921639E+02  0.65344648292E+01  0.13679364762E+03  0.12500000000E+03 0.  0.
</event>
<event>
 5    0  0.5634041E-005  0.2517261E+03  0.7546771E-02  0.1112219E+00
         21   -1    0    0  502  501  0.00000000000E+00  0.00000000000E+00  0.82970535269E+02  0.82970535269E+02  0.00000000000E+00 0.  1.
         21   -1    0    0  501  502 -0.00000000000E+00 -0.00000000000E+00 -0.76371713769E+03  0.76371713769E+03  0.00000000000E+00 0.  1.
         25    1    1    2    0    0  0.57323757607E+02  0.50200773372E+01 -0.57755836966E+02  0.14923790090E+03  0.12500000000E+03 0.  0.
         25    1    1    2    0    0 -0.81732171342E+02  0.70850692201E+02 -0.32586651940E+03  0.36539561695E+03  0.12500000000E+03 0.  0.
         25    1    1    2    0    0  0.24408413736E+02 -0.75870769539E+02 -0.29712424606E+03  0.33205415511E+03  0.12500000000E+03 0.  0.
</event>
<event>
 5    0  0.5634041E-005  0.2613539E+03  0.7546771E-02  0.1106333E+00
         21   -1    0    0  502  501  0.00000000000E+00  0.00000000000E+00  0.61520912508E+03  0.61520912508E+03  0.00000000000E+00 0.  1.
         21   -1    0    0  501  502 -0.00000000000E+00 -0.00000000000E+00 -0.11102866853E+03  0.11102866853E+03  0.00000000000E+00 0.  1.
         25    1    1    2    0    0  0.33802310676E+02  0.66674424327E+02  0.40551624249E+02  0.15118700108E+03  0.12500000000E+03 0.  0.
         25    1    1    2    0    0 -0.85483246749E+02 -0.86867975089E+02  0.14023932552E+03  0.22393190705E+03  0.12500000000E+03 0.  0.
         25    1    1    2    0    0  0.51680936073E+02  0.20193550762E+02  0.32338950677E+03  0.35111888548E+03  0.12500000000E+03 0.  0.
</event>
<event>
 5    0  0.5634041E-005  0.4618275E+03  0.7546771E-02  0.1024253E+00
         21   -1    0    0  502  501  0.00000000000E+00  0.00000000000E+00  0.40393756686E+03  0.40393756686E+03  0.00000000000E+00 0.  1.
         21   -1    0    0  501  502 -0.00000000000E+00 -0.00000000000E+00 -0.52801387370E+03  0.52801387370E+03  0.00000000000E+00 0.  1.
         25    1    1    2    0    0 -0.23597365562E+03 -0.11753787008E+03  0.42279781006E+02  0.29480721994E+03  0.12500000000E+03 0.  0.
         25    1    1    2    0    0  0.13563523171E+03 -0.14384423294E+03  0.76394191136E+02  0.24606737262E+03  0.12500000000E+03 0.  0.
         25    1    1    2    0    0  0.10033842391E+03  0.26138210302E+03 -0.24275027898E+03  0.39107684799E+03  0.12500000000E+03 0.  0.
</event>
<event>
 5    0  0.5634041E-005  0.2854056E+03  0.7546771E-02  0.1092773E+00
         21   -1    0    0  502  501  0.00000000000E+00  0.00000000000E+00  0.27112367592E+03  0.27112367592E+03  0.00000000000E+00 0.  1.
         21   -1    0    0  501  502 -0.00000000000E+00 -0.00000000000E+00 -0.30043976422E+03  0.30043976422E+03  0.00000000000E+00 0.  1.
         25    1    1    2    0    0 -0.31038904668E+02 -0.16727905490E+02 -0.82841380615E+02  0.15404846889E+03  0.12500000000E+03 0.  0.
         25    1    1    2    0    0  0.14080042418E+03 -0.55919785314E+02 -0.57596934050E+02  0.20468069926E+03  0.12500000000E+03 0.  0.
         25    1    1    2    0    0 -0.10976151951E+03  0.72647690804E+02  0.11112222637E+03  0.21283427200E+03  0.12500000000E+03 0.  0.
</event>
<event>
 5    0  0.5634041E-005  0.2853559E+03  0.7546771E-02  0.1092799E+00
         21   -1    0    0  502  501  0.00000000000E+00  0.00000000000E+00  0.82839339985E+02  0.82839339985E+02  0.00000000000E+00 0. -1.
         21   -1    0    0  501  502 -0.00000000000E+00 -0.00000000000E+00 -0.98296274347E+03  0.98296274347E+03  0.00000000000E+00 0. -1.
         25    1    1    2    0    0 -0.31381760449E+02 -0.17219543440E+03 -0.36495748614E+03  0.42362135122E+03  0.12500000000E+03 0.  0.
         25    1    1    2    0    0  0.42838153421E+02  0.17396006184E+03 -0.25903410509E+03  0.33885229541E+03  0.12500000000E+03 0.  0.
         25    1    1    2    0    0 -0.11456392972E+02 -0.17646274442E+01 -0.27613181225E+03  0.30332843682E+03  0.12500000000E+03 0.  0.
</event>
<event>
 5    0  0.6847958E-005  0.4038980E+03  0.7546771E-02  0.1042438E+00
         21   -1    0    0  502  501  0.00000000000E+00  0.00000000000E+00  0.21015012103E+03  0.21015012103E+03  0.00000000000E+00 0. -1.
         21   -1    0    0  501  502 -0.00000000000E+00 -0.00000000000E+00 -0.77627157323E+03  0.77627157323E+03  0.00000000000E+00 0. -1.
         25    1    1    2    0    0 -0.41150657516E+02 -0.40224956021E+02  0.97207271971E+02  0.16848049568E+03  0.12500000000E+03 0.  0.
         25    1    1    2    0    0  0.73401106964E+02  0.21611916621E+03 -0.35062797178E+03  0.43664652879E+03  0.12500000000E+03 0.  0.
         25    1    1    2    0    0 -0.32250449448E+02 -0.17589421019E+03 -0.31270075239E+03  0.38129466979E+03  0.12500000000E+03 0.  0.
</event>
<event>
 5    0  0.5634041E-005  0.4906817E+03  0.7546771E-02  0.1016240E+00
         21   -1    0    0  502  501  0.00000000000E+00  0.00000000000E+00  0.20286970709E+04  0.20286970709E+04  0.00000000000E+00 0.  1.
         21   -1    0    0  501  502 -0.00000000000E+00 -0.00000000000E+00 -0.11868133904E+03  0.11868133904E+03  0.00000000000E+00 0.  1.
         25    1    1    2    0    0  0.40665084842E+02 -0.12487631034E+03  0.95310392264E+03  0.97019576858E+03  0.12500000000E+03 0.  0.
         25    1    1    2    0    0  0.22186774617E+03  0.37091194014E+02  0.11446250430E+03  0.28165176789E+03  0.12500000000E+03 0.  0.
         25    1    1    2    0    0 -0.26253283101E+03  0.87785116330E+02  0.84244930496E+03  0.89553087353E+03  0.12500000000E+03 0.  0.
</event>
<event>
 5    0  0.5634041E-005  0.4734169E+03  0.7546771E-02  0.1020960E+00
         21   -1    0    0  502  501  0.00000000000E+00  0.00000000000E+00  0.66850625003E+03  0.66850625003E+03  0.00000000000E+00 0. -1.
         21   -1    0    0  501  502 -0.00000000000E+00 -0.00000000000E+00 -0.33526023174E+03  0.33526023174E+03  0.00000000000E+00 0. -1.
         25    1    1    2    0    0  0.93633712537E+02  0.21152152286E+02 -0.50068679186E+02  0.16536794824E+03  0.12500000000E+03 0.  0.
         25    1    1    2    0    0 -0.31007951547E+03  0.19821960888E+03  0.99529880468E+02  0.40121255759E+03  0.12500000000E+03 0.  0.
         25    1    1    2    0    0  0.21644580293E+03 -0.21937176116E+03  0.28378481700E+03  0.43718597595E+03  0.12500000000E+03 0.  0.
</event>
<event>
 5    0  0.5634041E-005  0.2357879E+03  0.7546771E-02  0.1122631E+00
         21   -1    0    0  502  501  0.00000000000E+00  0.00000000000E+00  0.37793603690E+03  0.37793603690E+03  0.00000000000E+00 0. -1.
         21   -1    0    0  501  502 -0.00000000000E+00 -0.00000000000E+00 -0.14710413866E+03  0.14710413866E+03  0.00000000000E+00 0. -1.
         25    1    1    2    0    0 -0.27498809535E+02  0.94996515252E+02  0.65570223075E+02  0.17235131734E+03  0.12500000000E+03 0.  0.
         25    1    1    2    0    0 -0.39294984977E+02 -0.33471373234E+01  0.12057031992E+03  0.17809407968E+03  0.12500000000E+03 0.  0.
         25    1    1    2    0    0  0.66793794512E+02 -0.91649377929E+02  0.44691355243E+02  0.17459477854E+03  0.12500000000E+03 0.  0.
</event>
<event>
 5    0  0.5634041E-005  0.3525246E+03  0.7546771E-02  0.1061584E+00
         21   -1    0    0  502  501  0.00000000000E+00  0.00000000000E+00  0.85326878869E+02  0.85326878869E+02  0.00000000000E+00 0. -1.
         21   -1    0    0  501  502 -0.00000000000E+00 -0.00000000000E+00 -0.14564410145E+04  0.14564410145E+04  0.00000000000E+00 0. -1.
         25    1    1    2    0    0  0.13658622251E+03 -0.10033043169E+03 -0.46285574063E+03  0.50851000810E+03  0.12500000000E+03 0.  0.
         25    1    1    2    0    0 -0.14795052288E+03  0.23541011809E+03 -0.50570600302E+03  0.59048356658E+03  0.12500000000E+03 0.  0.
         25    1    1    2    0    0  0.11364300368E+02 -0.13507968640E+03 -0.40255239202E+03  0.44277431873E+03  0.12500000000E+03 0.  0.
</event>
<event>
 5    0  0.5634041E-005  0.3782121E+03  0.7546771E-02  0.1051597E+00
         21   -1    0    0  502  501  0.00000000000E+00  0.00000000000E+00  0.11934469576E+03  0.11934469576E+03  0.00000000000E+00 0.  1.
         21   -1    0    0  501  502 -0.00000000000E+00 -0.00000000000E+00 -0.11985816450E+04  0.11985816450E+04  0.00000000000E+00 0.  1.
         25    1    1    2    0    0 -0.99691057016E+02 -0.27535037899E+03 -0.34643315320E+03  0.47052849828E+03  0.12500000000E+03 0.  0.
         25    1    1    2    0    0  0.49379142814E+02  0.60983145447E+02 -0.14281992915E+03  0.20537715534E+03  0.12500000000E+03 0.  0.
         25    1    1    2    0    0  0.50311914201E+02  0.21436723354E+03 -0.58998386691E+03  0.64202068716E+03  0.12500000000E+03 0.  0.
</event>
<event>
 5    0  0.5634041E-005  0.4362731E+03  0.7546771E-02  0.1031896E+00
         21   -1    0    0  502  501  0.00000000000E+00  0.00000000000E+00  0.45138299198E+03  0.45138299198E+03  0.00000000000E+00 0. -1.
         21   -1    0    0  501  502 -0.00000000000E+00 -0.00000000000E+00 -0.42166908220E+03  0.42166908220E+03  0.00000000000E+00 0. -1.
         25    1    1    2    0    0  0.61775560961E+02  0.30740549210E+03 -0.53768358625E+02  0.34180461216E+03  0.12500000000E+03 0.  0.
         25    1    1    2    0    0  0.11075410140E+03 -0.22590562438E+02  0.16762018330E+02  0.16935988234E+03  0.12500000000E+03 0.  0.
         25    1    1    2    0    0 -0.17252966237E+03 -0.28481492966E+03  0.66720250077E+02  0.36188757968E+03  0.12500000000E+03 0.  0.
</event>
<event>
 5    0  0.5634041E-005  0.3726602E+03  0.7546771E-02  0.1053680E+00
         21   -1    0    0  502  501  0.00000000000E+00  0.00000000000E+00  0.28337565516E+03  0.28337565516E+03  0.00000000000E+00 0. -1.
         21   -1    0    0  501  502 -0.00000000000E+00 -0.00000000000E+00 -0.49007604507E+03  0.49007604507E+03  0.00000000000E+00 0. -1.
         25    1    1    2    0    0 -0.97109633074E+02 -0.64687397358E+02 -0.10454165756E+02  0.17131558538E+03  0.12500000000E+03 0.  0.
         25    1    1    2    0    0 -0.11690003691E+03  0.39770557680E+01  0.11002348557E+03  0.20349841026E+03  0.12500000000E+03 0.  0.
         25    1    1    2    0    0  0.21400966998E+03  0.60710341590E+02 -0.30626970973E+03  0.39863770459E+03  0.12500000000E+03 0.  0.
</event>
<event>
 5    0  0.5634041E-005  0.2597343E+03  0.7546771E-02  0.1107303E+00
         21   -1    0    0  502  501  0.00000000000E+00  0.00000000000E+00  0.14709320888E+03  0.14709320888E+03  0.00000000000E+00 0. -1.
         21   -1    0    0  501  502 -0.00000000000E+00 -0.00000000000E+00 -0.45863381156E+03  0.45863381156E+03  0.00000000000E+00 0. -1.
         25    1    1    2    0    0  0.71693698122E+02  0.26231483826E+02 -0.15846161073E+03  0.21578498365E+03  0.12500000000E+03 0.  0.
         25    1    1    2    0    0  0.63445546710E+02 -0.63477411221E+02 -0.10690748104E+02  0.15425307526E+03  0.12500000000E+03 0.  0.
         25    1    1    2    0    0 -0.13513924483E+03  0.37245927395E+02 -0.14238824385E+03  0.23568896153E+03  0.12500000000E+03 0.  0.
</event>
<event>
 5    0  0.5634041E-005  0.2469339E+03  0.7546771E-02  0.1115258E+00
         21   -1    0    0  502  501  0.00000000000E+00  0.00000000000E+00  0.63478125732E+02  0.63478125732E+02  0.00000000000E+00 0.  1.
         21   -1    0    0  501  502 -0.00000000000E+00 -0.00000000000E+00 -0.96058820875E+03  0.96058820875E+03  0.00000000000E+00 0.  1.
         25    1    1    2    0    0  0.16208485113E+01  0.10817002696E+03 -0.37623009952E+03  0.41094703998E+03  0.12500000000E+03 0.  0.
         25    1    1    2    0    0  0.21822000655E+02  0.35021373047E+02 -0.22451056061E+03  0.26025504435E+03  0.12500000000E+03 0.  0.
         25    1    1    2    0    0 -0.23442849166E+02 -0.14319140001E+03 -0.29636942288E+03  0.35286425015E+03  0.12500000000E+03 0.  0.
</event>
<event>
 5    0  0.5634041E-005  0.6572477E+03  0.7546771E-02  0.9793274E-01
         21   -1    0    0  502  501  0.00000000000E+00  0.00000000000E+00  0.11822711033E+04  0.11822711033E+04  0.00000000000E+00 0.  1.
         21   -1    0    0  501  502 -0.00000000000E+00 -0.00000000000E+00 -0.36537687702E+03  0.36537687702E+03  0.00000000000E+00 0.  1.
         25    1    1    2    0    0 -0.17900592518E+03 -0.34648901051E+03 -0.29902169904E+02  0.41062987643E+03  0.12500000000E+03 0.  0.
         25    1    1    2    0    0 -0.17062192871E+03 -0.44608050446E+02  0.19570468924E+03  0.29159397475E+03  0.12500000000E+03 0.  0.
         25    1    1    2    0    0  0.34962785388E+03  0.39109706095E+03  0.65109170693E+03  0.84542412914E+03  0.12500000000E+03 0.  0.
</event>
<event>
 5    0  0.5634041E-005  0.5637525E+03  0.7546771E-02  0.9983599E-01
         21   -1    0    0  502  501  0.00000000000E+00  0.00000000000E+00  0.23758405896E+04  0.23758405896E+04  0.00000000000E+00 0. -1.
         21   -1    0    0  501  502 -0.00000000000E+00 -0.00000000000E+00 -0.13377030680E+03  0.13377030680E+03  0.00000000000E+00 0. -1.
         25    1    1    2    0    0 -0.11014792827E+03 -0.24631058863E+02 -0.88534361364E+01  0.16864945448E+03  0.12500000000E+03 0.  0.
         25    1    1    2    0    0 -0.33930617769E+00 -0.13547012579E+03  0.18159615538E+03  0.25875554827E+03  0.12500000000E+03 0.  0.
         25    1    1    2    0    0  0.11048723445E+03  0.16010118465E+03  0.20693275636E+04  0.20822058937E+04  0.12500000000E+03 0.  0.
</event>
<event>
 5    0  0.5634041E-005  0.2841086E+03  0.7546771E-02  0.1093466E+00
         21   -1    0    0  502  501  0.00000000000E+00  0.00000000000E+00  0.44656771336E+03  0.44656771336E+03  0.00000000000E+00 0. -1.
         21   -1    0    0  501  502 -0.00000000000E+00 -0.00000000000E+00 -0.18075131153E+03  0.18075131153E+03  0.00000000000E+00 0. -1.
         25    1    1    2    0    0 -0.70499486872E+02 -0.80967733801E+02  0.12860137687E+03  0.20901977346E+03  0.12500000000E+03 0.  0.
         25    1    1    2    0    0 -0.96286843748E+02  0.56439612124E+02  0.36192638265E-01  0.16757561698E+03  0.12500000000E+03 0.  0.
         25    1    1    2    0    0  0.16678633062E+03  0.24528121677E+02  0.13717883232E+03  0.25072363445E+03  0.12500000000E+03 0.  0.
</event>
<event>
 5    0  0.5634041E-005  0.3816887E+03  0.7546771E-02  0.1050311E+00
         21   -1    0    0  502  501  0.00000000000E+00  0.00000000000E+00  0.32226313607E+03  0.32226313607E+03  0.00000000000E+00 0. -1.
         21   -1    0    0  501  502 -0.00000000000E+00 -0.00000000000E+00 -0.45207231108E+03  0.45207231108E+03  0.00000000000E+00 0. -1.
         25    1    1    2    0    0 -0.73108277647E+02  0.50643958730E+02 -0.96492537289E+02  0.18123311113E+03  0.12500000000E+03 0.  0.
         25    1    1    2    0    0  0.10483288884E+02  0.16541872735E+03 -0.19855705580E+03  0.28726844434E+03  0.12500000000E+03 0.  0.
         25    1    1    2    0    0  0.62624988764E+02 -0.21606268608E+03  0.16524041807E+03  0.30583389168E+03  0.12500000000E+03 0.  0.
</event>
<event>
 5    0  0.5943333E-005  0.2735121E+03  0.7546771E-02  0.1099286E+00
         21   -1    0    0  502  501  0.00000000000E+00  0.00000000000E+00  0.75511061781E+02  0.75511061781E+02  0.00000000000E+00 0. -1.
         21   -1    0    0  501  502 -0.00000000000E+00 -0.00000000000E+00 -0.99070098008E+03  0.99070098008E+03  0.00000000000E+00 0. -1.
         25    1    1    2    0    0 -0.56511961680E+02 -0.10702174933E+03 -0.24746429569E+03  0.30250757724E+03  0.12500000000E+03 0.  0.
         25    1    1    2    0    0  0.50589492854E+02  0.12727217001E+03 -0.58160998934E+03  0.61045284973E+03  0.12500000000E+03 0.  0.
         25    1    1    2    0    0  0.59224688254E+01 -0.20250420682E+02 -0.86115633269E+02  0.15325161490E+03  0.12500000000E+03 0.  0.
</event>
<event>
 5    0  0.5634041E-005  0.3443894E+03  0.7546771E-02  0.1064942E+00
         21   -1    0    0  502  501  0.00000000000E+00  0.00000000000E+00  0.58436717092E+03  0.58436717092E+03  0.00000000000E+00 0. -1.
         21   -1    0    0  501  502 -0.00000000000E+00 -0.00000000000E+00 -0.20296158835E+03  0.20296158835E+03  0.00000000000E+00 0. -1.
         25    1    1    2    0    0  0.34661136486E+02  0.14753460143E+03 -0.79978113364E+02  0.21210693440E+03  0.12500000000E+03 0.  0.
         25    1    1    2    0    0  0.35654952868E+02 -0.97888769809E+02  0.35307704386E+03  0.38876970795E+03  0.12500000000E+03 0.  0.
         25    1    1    2    0    0 -0.70316089354E+02 -0.49645831625E+02  0.10830665208E+03  0.18645211692E+03  0.12500000000E+03 0.  0.
</event>
<event>
 5    0  0.5634041E-005  0.4662672E+03  0.7546771E-02  0.1022979E+00
         21   -1    0    0  502  501  0.00000000000E+00  0.00000000000E+00  0.32359701182E+03  0.32359701182E+03  0.00000000000E+00 0. -1.
         21   -1    0    0  501  502 -0.00000000000E+00 -0.00000000000E+00 -0.67183891447E+03  0.67183891447E+03  0.00000000000E+00 0. -1.
         25    1    1    2    0    0  0.14645179794E+03 -0.10186034670E+02 -0.42918057264E+03  0.47050276126E+03  0.12500000000E+03 0.  0.
         25    1    1    2    0    0 -0.13325998976E+03  0.19839553398E+03  0.12010919582E+03  0.29524605280E+03  0.12500000000E+03 0.  0.
         25    1    1    2    0    0 -0.13191808178E+02 -0.18820949931E+03 -0.39170525834E+02  0.22968711223E+03  0.12500000000E+03 0.  0.
</event>
<event>
 5    0  0.5634041E-005  0.5241999E+03  0.7546771E-02  0.1007649E+00
         21   -1    0    0  502  501  0.00000000000E+00  0.00000000000E+00  0.19932414318E+03  0.19932414318E+03  0.00000000000E+00 0. -1.
         21   -1    0    0  501  502 -0.00000000000E+00 -0.00000000000E+00 -0.13785864255E+04  0.13785864255E+04  0.00000000000E+00 0. -1.
         25    1    1    2    0    0 -0.19136411118E+03 -0.35971201099E+02 -0.18690695689E+03  0.29744471905E+03  0.12500000000E+03 0.  0.
         25    1    1    2    0    0  0.42172832472E+03  0.20427922885E+03 -0.49033106344E+03  0.68966247904E+03  0.12500000000E+03 0.  0.
         25    1    1    2    0    0 -0.23036421354E+03 -0.16830802776E+03 -0.50202426197E+03  0.59080337059E+03  0.12500000000E+03 0.  0.
</event>
<event>
 5    0  0.5705250E-005  0.2933365E+03  0.7546771E-02  0.1088620E+00
         21   -1    0    0  502  501  0.00000000000E+00  0.00000000000E+00  0.53083883034E+03  0.53083883034E+03  0.00000000000E+00 0.  1.
         21   -1    0    0  501  502 -0.00000000000E+00 -0.00000000000E+00 -0.16209497931E+03  0.16209497931E+03  0.00000000000E+00 0.  1.
         25    1    1    2    0    0 -0.11802271647E+03  0.16599569568E+03  0.16034579437E+03  0.28778413153E+03  0.12500000000E+03 0.  0.
         25    1    1    2    0    0  0.41613125861E+02 -0.31223120426E+02  0.13974831252E+03  0.19457935745E+03  0.12500000000E+03 0.  0.
         25    1    1    2    0    0  0.76409590605E+02 -0.13477257526E+03  0.68649744140E+02  0.21057032067E+03  0.12500000000E+03 0.  0.
</event>
<event>
 5    0  0.5634041E-005  0.2990751E+03  0.7546771E-02  0.1085704E+00
         21   -1    0    0  502  501  0.00000000000E+00  0.00000000000E+00  0.15842568886E+03  0.15842568886E+03  0.00000000000E+00 0.  1.
         21   -1    0    0  501  502 -0.00000000000E+00 -0.00000000000E+00 -0.56459212575E+03  0.56459212575E+03  0.00000000000E+00 0.  1.
         25    1    1    2    0    0  0.55084918321E+02 -0.27531220460E+02 -0.31989785484E+03  0.34892972624E+03  0.12500000000E+03 0.  0.
         25    1    1    2    0    0 -0.59601685165E+02  0.13911432825E+03 -0.42275708481E+02  0.20079191399E+03  0.12500000000E+03 0.  0.
         25    1    1    2    0    0  0.45167668438E+01 -0.11158310779E+03 -0.43992873572E+02  0.17329617437E+03  0.12500000000E+03 0.  0.
</event>
<event>
 5    0  0.5634041E-005  0.3390739E+03  0.7546771E-02  0.1067191E+00
         21   -1    0    0  502  501  0.00000000000E+00  0.00000000000E+00  0.24601396524E+03  0.24601396524E+03  0.00000000000E+00 0. -1.
         21   -1    0    0  501  502 -0.00000000000E+00 -0.00000000000E+00 -0.46733569057E+03  0.46733569057E+03  0.00000000000E+00 0. -1.
         25    1    1    2    0    0  0.23983881962E+02  0.23781737157E+02 -0.11121468433E+03  0.17068832305E+03  0.12500000000E+03 0.  0.
         25    1    1    2    0    0  0.19327418064E+03  0.10085697876E+03 -0.58365605302E+02  0.25798950163E+03  0.12500000000E+03 0.  0.
         25    1    1    2    0    0 -0.21725806261E+03 -0.12463871592E+03 -0.51741435703E+02  0.28467183114E+03  0.12500000000E+03 0.  0.
</event>
<event>
 5    0  0.5889844E-005  0.3430122E+03  0.7546771E-02  0.1065520E+00
         21   -1    0    0  502  501  0.00000000000E+00  0.00000000000E+00  0.63979184444E+03  0.63979184444E+03  0.00000000000E+00 0. -1.
         21   -1    0    0  501  502 -0.00000000000E+00 -0.00000000000E+00 -0.18389948427E+03  0.18389948427E+03  0.00000000000E+00 0. -1.
         25    1    1    2    0    0  0.10619038670E+03 -0.11244618185E+03  0.33164582841E+03  0.38669690656E+03  0.12500000000E+03 0.  0.
         25    1    1    2    0    0  0.77011378573E+02  0.94145717112E+02  0.12478965718E+03  0.21445658540E+03  0.12500000000E+03 0.  0.
         25    1    1    2    0    0 -0.18320176527E+03  0.18300464734E+02 -0.54312542225E+00  0.22253783677E+03  0.12500000000E+03 0.  0.
</event>
<event>
 5    0  0.5634041E-005  0.2330178E+03  0.7546771E-02  0.1124534E+00
         21   -1    0    0  502  501  0.00000000000E+00  0.00000000000E+00  0.64160562455E+02  0.64160562455E+02  0.00000000000E+00 0.  1.
         21   -1    0    0  501  502 -0.00000000000E+00 -0.00000000000E+00 -0.84627203128E+03  0.84627203128E+03  0.00000000000E+00 0.  1.
         25    1    1    2    0    0 -0.22138830723E+02 -0.63863982035E+02 -0.21544560732E+03  0.25809018916E+03  0.12500000000E+03 0.  0.
         25    1    1    2    0    0 -0.65233124721E+02 -0.26997004708E+02 -0.21691878973E+03  0.26012104905E+03  0.12500000000E+03 0.  0.
         25    1    1    2    0    0  0.87371955444E+02  0.90860986743E+02 -0.34974707178E+03  0.39222135552E+03  0.12500000000E+03 0.  0.
</event>
<event>
 5    0  0.5634041E-005  0.2339361E+03  0.7546771E-02  0.1123900E+00
         21   -1    0    0  502  501  0.00000000000E+00  0.00000000000E+00  0.15450637262E+03  0.15450637262E+03  0.00000000000E+00 0.  1.
         21   -1    0    0  501  502 -0.00000000000E+00 -0.00000000000E+00 -0.35419950151E+03  0.35419950151E+03  0.00000000000E+00 0.  1.
         25    1    1    2    0    0  0.48686832805E+02  0.10312300868E+02 -0.39392996856E+02  0.14019115321E+03  0.12500000000E+03 0.  0.
         25    1    1    2    0    0  0.55587511745E+02 -0.60217893373E+02 -0.12450514864E+03  0.19453199784E+03  0.12500000000E+03 0.  0.
         25    1    1    2    0    0 -0.10427434455E+03  0.49905592505E+02 -0.35794983394E+02  0.17398272308E+03  0.12500000000E+03 0.  0.
</event>
<event>
 5    0  0.5634041E-005  0.6093082E+03  0.7546771E-02  0.9886281E-01
         21   -1    0    0  502  501  0.00000000000E+00  0.00000000000E+00  0.26462053685E+04  0.26462053685E+04  0.00000000000E+00 0.  1.
         21   -1    0    0  501  502 -0.00000000000E+00 -0.00000000000E+00 -0.14029766886E+03  0.14029766886E+03  0.00000000000E+00 0.  1.
         25    1    1    2    0    0 -0.11111228895E+03  0.11025438584E+03  0.20989688507E+02  0.20141384604E+03  0.12500000000E+03 0.  0.
         25    1    1    2    0    0 -0.26011190400E+03  0.32290735771E+02  0.86703467186E+03  0.91437137774E+03  0.12500000000E+03 0.  0.
         25    1    1    2    0    0  0.37122419295E+03 -0.14254512162E+03  0.16178833393E+04  0.16707178136E+04  0.12500000000E+03 0.  0.
</event>
<event>
 5    0  0.5634041E-005  0.4100380E+03  0.7546771E-02  0.1040358E+00
         21   -1    0    0  502  501  0.00000000000E+00  0.00000000000E+00  0.51672014923E+03  0.51672014923E+03  0.00000000000E+00 0.  1.
         21   -1    0    0  501  502 -0.00000000000E+00 -0.00000000000E+00 -0.32538142224E+03  0.32538142224E+03  0.00000000000E+00 0.  1.
         25    1    1    2    0    0  0.14863481352E+02  0.21228044823E+03 -0.28172594418E+02  0.24840009432E+03  0.12500000000E+03 0.  0.
         25    1    1    2    0    0  0.18530947027E+03 -0.66016149043E+01  0.16020038166E+03  0.27508606539E+03  0.12500000000E+03 0.  0.
         25    1    1    2    0    0 -0.20017295162E+03 -0.20567883333E+03  0.59310939750E+02  0.31861541176E+03  0.12500000000E+03 0.  0.
</event>
<event>
 5    0  0.5634041E-005  0.2869118E+03  0.7546771E-02  0.1091973E+00
         21   -1    0    0  502  501  0.00000000000E+00  0.00000000000E+00  0.23390742686E+03  0.23390742686E+03  0.00000000000E+00 0. -1.
         21   -1    0    0  501  502 -0.00000000000E+00 -0.00000000000E+00 -0.35192711151E+03  0.35192711151E+03  0.00000000000E+00 0. -1.
         25    1    1    2    0    0  0.15253881706E+02 -0.31082370835E+02  0.32117170567E+02  0.13362375286E+03  0.12500000000E+03 0.  0.
         25    1    1    2    0    0  0.10433570001E+03  0.46492184855E+01  0.64569706269E+02  0.17521929259E+03  0.12500000000E+03 0.  0.
         25    1    1    2    0    0 -0.11958958172E+03  0.26433152349E+02 -0.21470656149E+03  0.27699149291E+03  0.12500000000E+03 0.  0.
</event>
<event>
 5    0  0.5634041E-005  0.3159529E+03  0.7546771E-02  0.1077527E+00
         21   -1    0    0  502  501  0.00000000000E+00  0.00000000000E+00  0.32854656961E+03  0.32854656961E+03  0.00000000000E+00 0. -1.
         21   -1    0    0  501  502 -0.00000000000E+00 -0.00000000000E+00 -0.30384192728E+03  0.30384192728E+03  0.00000000000E+00 0. -1.
         25    1    1    2    0    0  0.52753747285E+02  0.34606373262E+02 -0.17581792918E+03  0.22476099115E+03  0.12500000000E+03 0.  0.
         25    1    1    2    0    0 -0.43750819097E+02  0.55877841816E+02 -0.12665255802E+02  0.14429787276E+03  0.12500000000E+03 0.  0.
         25    1    1    2    0    0 -0.90029281884E+01 -0.90484215078E+02  0.21318782731E+03  0.26332963298E+03  0.12500000000E+03 0.  0.
</event>
<event>
 5    0  0.5634041E-005  0.3037843E+03  0.7546771E-02  0.1083364E+00
         21   -1    0    0  502  501  0.00000000000E+00  0.00000000000E+00  0.28315184755E+03  0.28315184755E+03  0.00000000000E+00 0. -1.
         21   -1    0    0  501  502 -0.00000000000E+00 -0.00000000000E+00 -0.32592007784E+03  0.32592007784E+03  0.00000000000E+00 0. -1.
         25    1    1    2    0    0  0.31329751204E+02 -0.17377888240E+03  0.51414422377E+02  0.22237152720E+03  0.12500000000E+03 0.  0.
         25    1    1    2    0    0 -0.53155093810E+02  0.15908080263E+03  0.26640887899E+02  0.21087176831E+03  0.12500000000E+03 0.  0.
         25    1    1    2    0    0  0.21825342606E+02  0.14698079775E+02 -0.12082354057E+03  0.17582862988E+03  0.12500000000E+03 0.  0.
</event>
<event>
 5    0  0.5634041E-005  0.2969393E+03  0.7546771E-02  0.1086781E+00
         21   -1    0    0  502  501  0.00000000000E+00  0.00000000000E+00  0.15513612010E+03  0.15513612010E+03  0.00000000000E+00 0. -1.
         21   -1    0    0  501  502 -0.00000000000E+00 -0.00000000000E+00 -0.56835876831E+03  0.56835876831E+03  0.00000000000E+00 0. -1.
         25    1    1    2    0    0 -0.38894483540E+01  0.93344955395E+01 -0.99249003910E+02  0.15993006407E+03  0.12500000000E+03 0.  0.
         25    1    1    2    0    0  0.12668054860E+03 -0.55871233118E+02 -0.33257747046E+03  0.38131657444E+03  0.12500000000E+03 0.  0.
         25    1    1    2    0    0 -0.12279110025E+03  0.46536737578E+02  0.18603826160E+02  0.18224824990E+03  0.12500000000E+03 0.  0.
</event>
<event>
 5    0  0.5634041E-005  0.2693153E+03  0.7546771E-02  0.1101672E+00
         21   -1    0    0  502  501  0.00000000000E+00  0.00000000000E+00  0.19309479452E+03  0.19309479452E+03  0.00000000000E+00 0. -1.
         21   -1    0    0  501  502 -0.00000000000E+00 -0.00000000000E+00 -0.37562243973E+03  0.37562243973E+03  0.00000000000E+00 0. -1.
         25    1    1    2    0    0 -0.20986137136E+02 -0.35991562569E+02 -0.30793366249E+01  0.13179640679E+03  0.12500000000E+03 0.  0.
         25    1    1    2    0    0  0.14732692321E+03  0.87687227408E+02 -0.11198465352E+03  0.23991630786E+03  0.12500000000E+03 0.  0.
         25    1    1    2    0    0 -0.12634078607E+03 -0.51695664838E+02 -0.67463655068E+02  0.19700451960E+03  0.12500000000E+03 0.  0.
</event>
<event>
 5    0  0.5634041E-005  0.4432762E+03  0.7546771E-02  0.1029746E+00
         21   -1    0    0  502  501  0.00000000000E+00  0.00000000000E+00  0.36338997437E+03  0.36338997437E+03  0.00000000000E+00 0. -1.
         21   -1    0    0  501  502 -0.00000000000E+00 -0.00000000000E+00 -0.54072434586E+03  0.54072434586E+03  0.00000000000E+00 0. -1.
         25    1    1    2    0    0  0.30602551953E+03  0.18837651838E+03 -0.38792888030E+02  0.38244897626E+03  0.12500000000E+03 0.  0.
         25    1    1    2    0    0 -0.19238839454E+03 -0.10520102886E+03 -0.20166209692E+03  0.32306833977E+03  0.12500000000E+03 0.  0.
         25    1    1    2    0    0 -0.11363712499E+03 -0.83175489516E+02  0.63120613464E+02  0.19859700420E+03  0.12500000000E+03 0.  0.
</event>
<event>
 5    0  0.5634041E-005  0.2736934E+03  0.7546771E-02  0.1099184E+00
         21   -1    0    0  502  501  0.00000000000E+00  0.00000000000E+00  0.22032641592E+03  0.22032641592E+03  0.00000000000E+00 0. -1.
         21   -1    0    0  501  502 -0.00000000000E+00 -0.00000000000E+00 -0.33998682454E+03  0.33998682454E+03  0.00000000000E+00 0. -1.
         25    1    1    2    0    0  0.44763782672E+02  0.14131457910E+03 -0.49928455420E+01  0.19396787108E+03  0.12500000000E+03 0.  0.
         25    1    1    2    0    0  0.27012127620E+02 -0.15010646365E+03 -0.10025478285E+03  0.22121850499E+03  0.12500000000E+03 0.  0.
         25    1    1    2    0    0 -0.71775910291E+02  0.87918845484E+01 -0.14412780225E+02  0.14512686438E+03  0.12500000000E+03 0.  0.
</event>
<event>
 5    0  0.5634041E-005  0.3088305E+03  0.7546771E-02  0.1080908E+00
         21   -1    0    0  502  501  0.00000000000E+00  0.00000000000E+00  0.42304199786E+03  0.42304199786E+03  0.00000000000E+00 0. -1.
         21   -1    0    0  501  502 -0.00000000000E+00 -0.00000000000E+00 -0.22545338890E+03  0.22545338890E+03  0.00000000000E+00 0. -1.
         25    1    1    2    0    0  0.35511424904E+02 -0.16226637230E+03  0.84924632574E+02  0.22456319844E+03  0.12500000000E+03 0.  0.
         25    1    1    2    0    0 -0.13209614389E+01  0.19760152260E+03  0.15795974773E+03  0.28217793779E+03  0.12500000000E+03 0.  0.
         25    1    1    2    0    0 -0.34190463466E+02 -0.35335150303E+02 -0.45295771349E+02  0.14175425052E+03  0.12500000000E+03 0.  0.
</event>
<event>
 5    0  0.5634041E-005  0.3937822E+03  0.7546771E-02  0.1045954E+00
         21   -1    0    0  502  501  0.00000000000E+00  0.00000000000E+00  0.20829708542E+03  0.20829708542E+03  0.00000000000E+00 0.  1.
         21   -1    0    0  501  502 -0.00000000000E+00 -0.00000000000E+00 -0.74443856551E+03  0.74443856551E+03  0.00000000000E+00 0. -1.
         25    1    1    2    0    0  0.14349762656E+03 -0.24407058123E+03 -0.47717827922E+03  0.56875840883E+03  0.12500000000E+03 0.  0.
         25    1    1    2    0    0 -0.79637764654E+02  0.11346293862E+03 -0.14933107880E+02  0.18725386434E+03  0.12500000000E+03 0.  0.
         25    1    1    2    0    0 -0.63859861909E+02  0.13060764261E+03 -0.44030092988E+02  0.19672337777E+03  0.12500000000E+03 0.  0.
</event>
<event>
 5    0  0.5634041E-005  0.4454622E+03  0.7546771E-02  0.1029084E+00
         21   -1    0    0  502  501  0.00000000000E+00  0.00000000000E+00  0.52786855818E+03  0.52786855818E+03  0.00000000000E+00 0. -1.
         21   -1    0    0  501  502 -0.00000000000E+00 -0.00000000000E+00 -0.37592046856E+03  0.37592046856E+03  0.00000000000E+00 0. -1.
         25    1    1    2    0    0 -0.11383107521E+03  0.32066074754E+03  0.16299709309E+03  0.39745928225E+03  0.12500000000E+03 0.  0.
         25    1    1    2    0    0 -0.68399804576E+02 -0.45905154382E+02 -0.32103411848E+02  0.15310599439E+03  0.12500000000E+03 0.  0.
         25    1    1    2    0    0  0.18223087979E+03 -0.27475559315E+03  0.21054408377E+02  0.35322375009E+03  0.12500000000E+03 0.  0.
</event>
<event>
 5    0  0.5634041E-005  0.3342866E+03  0.7546771E-02  0.1069256E+00
         21   -1    0    0  502  501  0.00000000000E+00  0.00000000000E+00  0.17980347196E+03  0.17980347196E+03  0.00000000000E+00 0.  1.
         21   -1    0    0  501  502 -0.00000000000E+00 -0.00000000000E+00 -0.62149810191E+03  0.62149810191E+03  0.00000000000E+00 0.  1.
         25    1    1    2    0    0 -0.15997997195E+03 -0.17827378081E+03 -0.28115095242E+03  0.38993075078E+03  0.12500000000E+03 0.  0.
         25    1    1    2    0    0  0.23263539224E+02  0.10000514158E+03 -0.13090719469E+03  0.20809592553E+03  0.12500000000E+03 0.  0.
         25    1    1    2    0    0  0.13671643273E+03  0.78268639232E+02 -0.29636482831E+02  0.20327489757E+03  0.12500000000E+03 0.  0.
</event>
<event>
 5    0  0.5634041E-005  0.3040207E+03  0.7546771E-02  0.1083248E+00
         21   -1    0    0  502  501  0.00000000000E+00  0.00000000000E+00  0.96910995711E+03  0.96910995711E+03  0.00000000000E+00 0.  1.
         21   -1    0    0  501  502 -0.00000000000E+00 -0.00000000000E+00 -0.95374694503E+02  0.95374694503E+02  0.00000000000E+00 0.  1.
         25    1    1    2    0    0  0.27161849359E+02 -0.39664782866E+00  0.39726770286E+03  0.41735422740E+03  0.12500000000E+03 0.  0.
         25    1    1    2    0    0  0.15221814565E+03 -0.65329083131E+02  0.19551057254E+03  0.28510986820E+03  0.12500000000E+03 0.  0.
         25    1    1    2    0    0 -0.17937999501E+03  0.65725730960E+02  0.28095698721E+03  0.36202055602E+03  0.12500000000E+03 0.  0.
</event>
<event>
 5    0  0.5634041E-005  0.2783602E+03  0.7546771E-02  0.1096588E+00
         21   -1    0    0  502  501  0.00000000000E+00  0.00000000000E+00  0.14011427785E+03  0.14011427785E+03  0.00000000000E+00 0. -1.
         21   -1    0    0  501  502 -0.00000000000E+00 -0.00000000000E+00 -0.55300846248E+03  0.55300846248E+03  0.00000000000E+00 0. -1.
         25    1    1    2    0    0 -0.14693913230E+03 -0.15306513024E+02 -0.13101875958E+03  0.23370133355E+03  0.12500000000E+03 0.  0.
         25    1    1    2    0    0 -0.22707468389E+01 -0.43424721214E+02 -0.29963688768E+02  0.13569703515E+03  0.12500000000E+03 0.  0.
         25    1    1    2    0    0  0.14920987914E+03  0.58731234238E+02 -0.25191173629E+03  0.32372437163E+03  0.12500000000E+03 0.  0.
</event>
<event>
 5    0  0.5634041E-005  0.3752963E+03  0.7546771E-02  0.1052686E+00
         21   -1    0    0  502  501  0.00000000000E+00  0.00000000000E+00  0.17470586304E+03  0.17470586304E+03  0.00000000000E+00 0.  1.
         21   -1    0    0  501  502 -0.00000000000E+00 -0.00000000000E+00 -0.80619673043E+03  0.80619673043E+03  0.00000000000E+00 0.  1.
         25    1    1    2    0    0 -0.36455105764E+02 -0.16517931723E+03 -0.60263848280E+03  0.63828780541E+03  0.12500000000E+03 0.  0.
         25    1    1    2    0    0  0.73564775813E+02  0.50605097223E+02  0.35198282389E+02  0.15759622834E+03  0.12500000000E+03 0.  0.
         25    1    1    2    0    0 -0.37109670049E+02  0.11457422001E+03 -0.64050666979E+02  0.18501855972E+03  0.12500000000E+03 0.  0.
</event>
<event>
 5    0  0.5634041E-005  0.2766941E+03  0.7546771E-02  0.1097508E+00
         21   -1    0    0  502  501  0.00000000000E+00  0.00000000000E+00  0.43033085780E+03  0.43033085780E+03  0.00000000000E+00 0. -1.
         21   -1    0    0  501  502 -0.00000000000E+00 -0.00000000000E+00 -0.17790869098E+03  0.17790869098E+03  0.00000000000E+00 0. -1.
         25    1    1    2    0    0 -0.10422611879E+03  0.21122807278E+02  0.47969330901E+02  0.17098337210E+03  0.12500000000E+03 0.  0.
         25    1    1    2    0    0  0.18753547924E+03 -0.43935700461E+02  0.88330918767E+02  0.24602287080E+03  0.12500000000E+03 0.  0.
         25    1    1    2    0    0 -0.83309360444E+02  0.22812893183E+02  0.11612191716E+03  0.19123330588E+03  0.12500000000E+03 0.  0.
</event>
<event>
 5    0  0.5634041E-005  0.3078976E+03  0.7546771E-02  0.1081358E+00
         21   -1    0    0  502  501  0.00000000000E+00  0.00000000000E+00  0.69024991504E+03  0.69024991504E+03  0.00000000000E+00 0.  1.
         21   -1    0    0  501  502 -0.00000000000E+00 -0.00000000000E+00 -0.13734289986E+03  0.13734289986E+03  0.00000000000E+00 0.  1.
         25    1    1    2    0    0 -0.83460792803E+02 -0.14630684662E+03  0.28769279268E+03  0.35603867804E+03  0.12500000000E+03 0.  0.
         25    1    1    2    0    0 -0.44805893302E+02  0.98586573558E+02  0.22936005943E+03  0.28276831050E+03  0.12500000000E+03 0.  0.
         25    1    1    2    0    0  0.12826668611E+03  0.47720273060E+02  0.35854163065E+02  0.18878582636E+03  0.12500000000E+03 0.  0.
</event>
<event>
 5    0  0.5634041E-005  0.3290460E+03  0.7546771E-02  0.1071560E+00
         21   -1    0    0  502  501  0.00000000000E+00  0.00000000000E+00  0.20712281385E+04  0.20712281385E+04  0.00000000000E+00 0. -1.
         21   -1    0    0  501  502 -0.00000000000E+00 -0.00000000000E+00 -0.52273944694E+02  0.52273944694E+02  0.00000000000E+00 0. -1.
         25    1    1    2    0    0  0.77893165113E+02  0.58422237848E+02  0.19657664017E+03  0.25248342224E+03  0.12500000000E+03 0.  0.
         25    1    1    2    0    0 -0.13020655435E+02 -0.99563199508E+02  0.28784054096E+03  0.32948375557E+03  0.12500000000E+03 0.  0.
         25    1    1    2    0    0 -0.64872509678E+02  0.41140961660E+02  0.15345370126E+04  0.15415349053E+04  0.12500000000E+03 0.  0.
</event>
<event>
 5    0  0.5634041E-005  0.2267136E+03  0.7546771E-02  0.1128974E+00
         21   -1    0    0  502  501  0.00000000000E+00  0.00000000000E+00  0.42101571707E+02  0.42101571707E+02  0.00000000000E+00 0. -1.
         21   -1    0    0  501  502 -0.00000000000E+00 -0.00000000000E+00 -0.12208350896E+04  0.12208350896E+04  0.00000000000E+00 0. -1.
         25    1    1    2    0    0 -0.12213120270E+02  0.42281479736E+02 -0.35022786960E+03  0.37446153939E+03  0.12500000000E+03 0.  0.
         25    1    1    2    0    0  0.76944627738E+02  0.45696866361E+02 -0.36087288914E+03  0.39225364428E+03  0.12500000000E+03 0.  0.
         25    1    1    2    0    0 -0.64731507468E+02 -0.87978346096E+02 -0.46763275916E+03  0.49622147765E+03  0.12500000000E+03 0.  0.
</event>
<event>
 5    0  0.5634041E-005  0.3245088E+03  0.7546771E-02  0.1073593E+00
         21   -1    0    0  502  501  0.00000000000E+00  0.00000000000E+00  0.79786253307E+03  0.79786253307E+03  0.00000000000E+00 0. -1.
         21   -1    0    0  501  502 -0.00000000000E+00 -0.00000000000E+00 -0.13198511001E+03  0.13198511001E+03  0.00000000000E+00 0. -1.
         25    1    1    2    0    0 -0.46164992844E+02 -0.60262029131E+02  0.26148559241E+03  0.29960379463E+03  0.12500000000E+03 0.  0.
         25    1    1    2    0    0  0.94564112182E+02  0.14921974466E+03  0.24625612809E+02  0.21780799874E+03  0.12500000000E+03 0.  0.
         25    1    1    2    0    0 -0.48399119338E+02 -0.88957715529E+02  0.37976621785E+03  0.41243584971E+03  0.12500000000E+03 0.  0.
</event>
<event>
 5    0  0.5634041E-005  0.2561694E+03  0.7546771E-02  0.1109467E+00
         21   -1    0    0  502  501  0.00000000000E+00  0.00000000000E+00  0.24404795306E+03  0.24404795306E+03  0.00000000000E+00 0. -1.
         21   -1    0    0  501  502 -0.00000000000E+00 -0.00000000000E+00 -0.26889280945E+03  0.26889280945E+03  0.00000000000E+00 0. -1.
         25    1    1    2    0    0 -0.83907918644E+02 -0.33673101125E+02 -0.64698630862E+02  0.16728816272E+03  0.12500000000E+03 0.  0.
         25    1    1    2    0    0  0.11596386853E+03 -0.39896792988E+02 -0.36133891151E+02  0.17880165263E+03  0.12500000000E+03 0.  0.
         25    1    1    2    0    0 -0.32055949884E+02  0.73569894113E+02  0.75987665624E+02  0.16685094716E+03  0.12500000000E+03 0.  0.
</event>
<event>
 5    0  0.5634041E-005  0.3424656E+03  0.7546771E-02  0.1065751E+00
         21   -1    0    0  502  501  0.00000000000E+00  0.00000000000E+00  0.96589004974E+03  0.96589004974E+03  0.00000000000E+00 0.  1.
         21   -1    0    0  501  502 -0.00000000000E+00 -0.00000000000E+00 -0.12142448602E+03  0.12142448602E+03  0.00000000000E+00 0.  1.
         25    1    1    2    0    0 -0.77547349396E+02 -0.18900732194E+03  0.10283249463E+03  0.26064704314E+03  0.12500000000E+03 0.  0.
         25    1    1    2    0    0 -0.77781739417E+01  0.16792460333E+03  0.37662780036E+03  0.43096713610E+03  0.12500000000E+03 0.  0.
         25    1    1    2    0    0  0.85325523338E+02  0.21082718604E+02  0.36500526872E+03  0.39570035652E+03  0.12500000000E+03 0.  0.
</event>
<event>
 5    0  0.5634041E-005  0.2678065E+03  0.7546771E-02  0.1102542E+00
         21   -1    0    0  502  501  0.00000000000E+00  0.00000000000E+00  0.41000675383E+02  0.41000675383E+02  0.00000000000E+00 0.  1.
         21   -1    0    0  501  502 -0.00000000000E+00 -0.00000000000E+00 -0.17492475016E+04  0.17492475016E+04  0.00000000000E+00 0.  1.
         25    1    1    2    0    0  0.10106679612E+03 -0.24605436986E+02 -0.73969898910E+03  0.75736353179E+03  0.12500000000E+03 0.  0.
         25    1    1    2    0    0 -0.54272860139E+02 -0.76213085784E+02 -0.69439201306E+03  0.71172975601E+03  0.12500000000E+03 0.  0.
         25    1    1    2    0    0 -0.46793935983E+02  0.10081852277E+03 -0.27415582403E+03  0.32115488915E+03  0.12500000000E+03 0.  0.
</event>
<event>
 5    0  0.5634041E-005  0.2404666E+03  0.7546771E-02  0.1119482E+00
         21   -1    0    0  502  501  0.00000000000E+00  0.00000000000E+00  0.29237064294E+03  0.29237064294E+03  0.00000000000E+00 0. -1.
         21   -1    0    0  501  502 -0.00000000000E+00 -0.00000000000E+00 -0.19777690994E+03  0.19777690994E+03  0.00000000000E+00 0. -1.
         25    1    1    2    0    0  0.53062359426E+02  0.23611939555E+02  0.66823272053E+02  0.15317795979E+03  0.12500000000E+03 0.  0.
         25    1    1    2    0    0  0.77149231794E+02  0.13322072238E+01 -0.20875190336E+02  0.14837301747E+03  0.12500000000E+03 0.  0.
         25    1    1    2    0    0 -0.13021159122E+03 -0.24944146779E+02  0.48645651280E+02  0.18859657562E+03  0.12500000000E+03 0.  0.
</event>
<event>
 5    0  0.6612939E-005  0.3373004E+03  0.7546771E-02  0.1067952E+00
         21   -1    0    0  502  501  0.00000000000E+00  0.00000000000E+00  0.60125648771E+03  0.60125648771E+03  0.00000000000E+00 0. -1.
         21   -1    0    0  501  502 -0.00000000000E+00 -0.00000000000E+00 -0.18922300470E+03  0.18922300470E+03  0.00000000000E+00 0. -1.
         25    1    1    2    0    0  0.28908295681E+02 -0.19173439691E+03  0.15762680743E+03  0.27940826569E+03  0.12500000000E+03 0.  0.
         25    1    1    2    0    0  0.91446574507E+01  0.34924699322E+00  0.24958306777E+03  0.27928561447E+03  0.12500000000E+03 0.  0.
         25    1    1    2    0    0 -0.38052953132E+02  0.19138514991E+03  0.48236078057E+01  0.23178561224E+03  0.12500000000E+03 0.  0.
</event>
<event>
 5    0  0.5634041E-005  0.4455707E+03  0.7546771E-02  0.1029051E+00
         21   -1    0    0  502  501  0.00000000000E+00  0.00000000000E+00  0.26816551670E+03  0.26816551670E+03  0.00000000000E+00 0.  1.
         21   -1    0    0  501  502 -0.00000000000E+00 -0.00000000000E+00 -0.74033848658E+03  0.74033848658E+03  0.00000000000E+00 0.  1.
         25    1    1    2    0    0  0.49390305218E+02 -0.22594469859E+01 -0.28628465955E+03  0.31627268875E+03  0.12500000000E+03 0.  0.
         25    1    1    2    0    0 -0.13365767749E+03  0.11812632625E+03 -0.36885146920E+03  0.42836270850E+03  0.12500000000E+03 0.  0.
         25    1    1    2    0    0  0.84267372271E+02 -0.11586687927E+03  0.18296315887E+03  0.26386860602E+03  0.12500000000E+03 0.  0.
</event>
<event>
 5    0  0.5634041E-005  0.2254329E+03  0.7546771E-02  0.1129896E+00
         21   -1    0    0  502  501  0.00000000000E+00  0.00000000000E+00  0.68444208337E+03  0.68444208337E+03  0.00000000000E+00 0.  1.
         21   -1    0    0  501  502 -0.00000000000E+00 -0.00000000000E+00 -0.74250236019E+02  0.74250236019E+02  0.00000000000E+00 0.  1.
         25    1    1    2    0    0  0.10632792185E+03  0.18736298700E+02  0.22809007267E+03  0.28161455414E+03  0.12500000000E+03 0.  0.
         25    1    1    2    0    0 -0.41223659705E+02 -0.45138461993E+02  0.22341562384E+03  0.26320412582E+03  0.12500000000E+03 0.  0.
         25    1    1    2    0    0 -0.65104262141E+02  0.26402163292E+02  0.15868615084E+03  0.21387363943E+03  0.12500000000E+03 0.  0.
</event>
<event>
 5    0  0.5634041E-005  0.2609982E+03  0.7546771E-02  0.1106545E+00
         21   -1    0    0  502  501  0.00000000000E+00  0.00000000000E+00  0.73621669103E+03  0.73621669103E+03  0.00000000000E+00 0. -1.
         21   -1    0    0  501  502 -0.00000000000E+00 -0.00000000000E+00 -0.92527222240E+02  0.92527222240E+02  0.00000000000E+00 0. -1.
         25    1    1    2    0    0  0.10605070160E+03  0.14393244223E+02  0.25351703019E+03  0.30224129663E+03  0.12500000000E+03 0.  0.
         25    1    1    2    0    0  0.25314999089E+00 -0.50384689175E+02  0.31468519538E+03  0.34233091181E+03  0.12500000000E+03 0.  0.
         25    1    1    2    0    0 -0.10630385159E+03  0.35991444952E+02  0.75487243222E+02  0.18417170484E+03  0.12500000000E+03 0.  0.
</event>
<event>
 5    0  0.5634041E-005  0.2752141E+03  0.7546771E-02  0.1098332E+00
         21   -1    0    0  502  501  0.00000000000E+00  0.00000000000E+00  0.15273490364E+04  0.15273490364E+04  0.00000000000E+00 0. -1.
         21   -1    0    0  501  502 -0.00000000000E+00 -0.00000000000E+00 -0.49591021667E+02  0.49591021667E+02  0.00000000000E+00 0. -1.
         25    1    1    2    0    0  0.45200487476E+02 -0.96675506168E+02  0.19901214470E+03  0.25810864243E+03  0.12500000000E+03 0.  0.
         25    1    1    2    0    0  0.36473289692E+02  0.27783736232E+02  0.32841263749E+03  0.35437564437E+03  0.12500000000E+03 0.  0.
         25    1    1    2    0    0 -0.81673777168E+02  0.68891769935E+02  0.95033323250E+03  0.96445577122E+03  0.12500000000E+03 0.  0.
</event>
<event>
 5    0  0.5634041E-005  0.2988820E+03  0.7546771E-02  0.1085801E+00
         21   -1    0    0  502  501  0.00000000000E+00  0.00000000000E+00  0.39651395096E+02  0.39651395096E+02  0.00000000000E+00 0.  1.
         21   -1    0    0  501  502 -0.00000000000E+00 -0.00000000000E+00 -0.22528958125E+04  0.22528958125E+04  0.00000000000E+00 0.  1.
         25    1    1    2    0    0 -0.56109495309E+02  0.14150766394E+03 -0.15249128376E+04  0.15375814960E+04  0.12500000000E+03 0.  0.
         25    1    1    2    0    0  0.81756104949E+01 -0.16127274375E+02 -0.29961342861E+03  0.32514633042E+03  0.12500000000E+03 0.  0.
         25    1    1    2    0    0  0.47933884814E+02 -0.12538038956E+03 -0.38871815116E+03  0.42981938118E+03  0.12500000000E+03 0.  0.
</event>
<event>
 5    0  0.5634041E-005  0.2409255E+03  0.7546771E-02  0.1119178E+00
         21   -1    0    0  502  501  0.00000000000E+00  0.00000000000E+00  0.31347663999E+03  0.31347663999E+03  0.00000000000E+00 0.  1.
         21   -1    0    0  501  502 -0.00000000000E+00 -0.00000000000E+00 -0.18516561209E+03  0.18516561209E+03  0.00000000000E+00 0.  1.
         25    1    1    2    0    0 -0.46363196853E+02  0.27654767198E+02  0.90116295205E+02  0.16327975635E+03  0.12500000000E+03 0.  0.
         25    1    1    2    0    0  0.49561021013E+02  0.89362307566E+02  0.27464316448E+02  0.16377180922E+03  0.12500000000E+03 0.  0.
         25    1    1    2    0    0 -0.31978241608E+01 -0.11701707476E+03  0.10730416249E+02  0.17159068651E+03  0.12500000000E+03 0.  0.
</event>
<event>
 5    0  0.5634041E-005  0.2859949E+03  0.7546771E-02  0.1092459E+00
         21   -1    0    0  502  501  0.00000000000E+00  0.00000000000E+00  0.84446661278E+03  0.84446661278E+03  0.00000000000E+00 0.  1.
         21   -1    0    0  501  502 -0.00000000000E+00 -0.00000000000E+00 -0.96857715099E+02  0.96857715099E+02  0.00000000000E+00 0.  1.
         25    1    1    2    0    0  0.35752394880E+02 -0.12417959666E+03  0.21446804900E+03  0.27985773173E+03  0.12500000000E+03 0.  0.
         25    1    1    2    0    0 -0.66977873841E+02  0.19633875827E+03  0.36021254027E+03  0.43406568368E+03  0.12500000000E+03 0.  0.
         25    1    1    2    0    0  0.31225478961E+02 -0.72159161606E+02  0.17292830840E+03  0.22740091246E+03  0.12500000000E+03 0.  0.
</event>
<event>
 5    0  0.5634041E-005  0.4317650E+03  0.7546771E-02  0.1033304E+00
         21   -1    0    0  502  501  0.00000000000E+00  0.00000000000E+00  0.54457630212E+03  0.54457630212E+03  0.00000000000E+00 0.  1.
         21   -1    0    0  501  502 -0.00000000000E+00 -0.00000000000E+00 -0.34232311879E+03  0.34232311879E+03  0.00000000000E+00 0.  1.
         25    1    1    2    0    0  0.24449539773E+03  0.16324216364E+03  0.96110196983E+02  0.33359882114E+03  0.12500000000E+03 0.  0.
         25    1    1    2    0    0 -0.27443955303E+03 -0.19157186633E+03  0.18244857630E+03  0.40115998209E+03  0.12500000000E+03 0.  0.
         25    1    1    2    0    0  0.29944155297E+02  0.28329702696E+02 -0.76305589950E+02  0.15214061768E+03  0.12500000000E+03 0.  0.
</event>
<event>
 5    0  0.5634041E-005  0.2766227E+03  0.7546771E-02  0.1097548E+00
         21   -1    0    0  502  501  0.00000000000E+00  0.00000000000E+00  0.84920407279E+03  0.84920407279E+03  0.00000000000E+00 0.  1.
         21   -1    0    0  501  502 -0.00000000000E+00 -0.00000000000E+00 -0.90108055957E+02  0.90108055957E+02  0.00000000000E+00 0.  1.
         25    1    1    2    0    0 -0.86710992463E+02 -0.78465374608E+02  0.63202462613E+02  0.18246962078E+03  0.12500000000E+03 0.  0.
         25    1    1    2    0    0  0.58882981799E+02  0.92039102955E+02  0.34006244861E+03  0.37842551576E+03  0.12500000000E+03 0.  0.
         25    1    1    2    0    0  0.27828010664E+02 -0.13573728348E+02  0.35583110560E+03  0.37841699221E+03  0.12500000000E+03 0.  0.
</event>
<event>
 5    0  0.5634041E-005  0.4376084E+03  0.7546771E-02  0.1031483E+00
         21   -1    0    0  502  501  0.00000000000E+00  0.00000000000E+00  0.39828797338E+03  0.39828797338E+03  0.00000000000E+00 0.  1.
         21   -1    0    0  501  502 -0.00000000000E+00 -0.00000000000E+00 -0.48081062206E+03  0.48081062206E+03  0.00000000000E+00 0.  1.
         25    1    1    2    0    0 -0.17465268913E+03 -0.10962249502E+02 -0.35237631839E+03  0.41281691160E+03  0.12500000000E+03 0.  0.
         25    1    1    2    0    0  0.19508587934E+03 -0.43983064570E+02  0.12799842674E+03  0.26833115275E+03  0.12500000000E+03 0.  0.
         25    1    1    2    0    0 -0.20433190216E+02  0.54945314072E+02  0.14185524297E+03  0.19795053109E+03  0.12500000000E+03 0.  0.
</event>
<event>
 5    0  0.5634041E-005  0.5188398E+03  0.7546771E-02  0.1008975E+00
         21   -1    0    0  502  501  0.00000000000E+00  0.00000000000E+00  0.30831021744E+03  0.30831021744E+03  0.00000000000E+00 0. -1.
         21   -1    0    0  501  502 -0.00000000000E+00 -0.00000000000E+00 -0.87312961218E+03  0.87312961218E+03  0.00000000000E+00 0. -1.
         25    1    1    2    0    0  0.12391724135E+03  0.10313923878E+03  0.12096198972E+03  0.23717079972E+03  0.12500000000E+03 0.  0.
         25    1    1    2    0    0 -0.23573981247E+02  0.18596366826E+03 -0.54699808645E+02  0.23185186557E+03  0.12500000000E+03 0.  0.
         25    1    1    2    0    0 -0.10034326010E+03 -0.28910290704E+03 -0.63108157582E+03  0.71241716434E+03  0.12500000000E+03 0.  0.
</event>
<event>
 5    0  0.5634041E-005  0.3206182E+03  0.7546771E-02  0.1075365E+00
         21   -1    0    0  502  501  0.00000000000E+00  0.00000000000E+00  0.44409777221E+03  0.44409777221E+03  0.00000000000E+00 0.  1.
         21   -1    0    0  501  502 -0.00000000000E+00 -0.00000000000E+00 -0.23147160480E+03  0.23147160480E+03  0.00000000000E+00 0.  1.
         25    1    1    2    0    0  0.88394614511E+02 -0.84723237311E+01  0.97800310483E+01  0.15364256295E+03  0.12500000000E+03 0.  0.
         25    1    1    2    0    0  0.75930151170E+01 -0.15870525126E+03 -0.18356352738E+02  0.20299499092E+03  0.12500000000E+03 0.  0.
         25    1    1    2    0    0 -0.95987629628E+02  0.16717757499E+03  0.22120248911E+03  0.31893182313E+03  0.12500000000E+03 0.  0.
</event>
<event>
 5    0  0.5634041E-005  0.2848249E+03  0.7546771E-02  0.1093082E+00
         21   -1    0    0  502  501  0.00000000000E+00  0.00000000000E+00  0.22900271601E+03  0.22900271601E+03  0.00000000000E+00 0. -1.
         21   -1    0    0  501  502 -0.00000000000E+00 -0.00000000000E+00 -0.35425438783E+03  0.35425438783E+03  0.00000000000E+00 0. -1.
         25    1    1    2    0    0 -0.63991009240E+02 -0.12721032117E+03 -0.27223114125E+02  0.19142469281E+03  0.12500000000E+03 0.  0.
         25    1    1    2    0    0 -0.71154549365E+02  0.25964104924E+02  0.25126001951E+02  0.14830178898E+03  0.12500000000E+03 0.  0.
         25    1    1    2    0    0  0.13514555861E+03  0.10124621624E+03 -0.12315455965E+03  0.24353062205E+03  0.12500000000E+03 0.  0.
</event>
<event>
 5    0  0.5634041E-005  0.2997422E+03  0.7546771E-02  0.1085370E+00
         21   -1    0    0  502  501  0.00000000000E+00  0.00000000000E+00  0.64364569827E+03  0.64364569827E+03  0.00000000000E+00 0. -1.
         21   -1    0    0  501  502 -0.00000000000E+00 -0.00000000000E+00 -0.13958829110E+03  0.13958829110E+03  0.00000000000E+00 0. -1.
         25    1    1    2    0    0 -0.39328377987E+02 -0.12856206798E+03  0.16685673408E+03  0.24807477975E+03  0.12500000000E+03 0.  0.
         25    1    1    2    0    0  0.49093442703E+02  0.21604188385E+03  0.26055312031E+03  0.36413897100E+03  0.12500000000E+03 0.  0.
         25    1    1    2    0    0 -0.97650647153E+01 -0.87479815866E+02  0.76647552784E+02  0.17102023863E+03  0.12500000000E+03 0.  0.
</event>
<event>
 5    0  0.5634041E-005  0.2864661E+03  0.7546771E-02  0.1092209E+00
         21   -1    0    0  502  501  0.00000000000E+00  0.00000000000E+00  0.43035522488E+03  0.43035522488E+03  0.00000000000E+00 0.  1.
         21   -1    0    0  501  502 -0.00000000000E+00 -0.00000000000E+00 -0.19068625269E+03  0.19068625269E+03  0.00000000000E+00 0.  1.
         25    1    1    2    0    0 -0.27641632613E+02 -0.18974837339E+03  0.17917163842E+03  0.29068192423E+03  0.12500000000E+03 0.  0.
         25    1    1    2    0    0 -0.83976633095E+01  0.13332280564E+03  0.35990097660E+02  0.18645583494E+03  0.12500000000E+03 0.  0.
         25    1    1    2    0    0  0.36039295923E+02  0.56425567750E+02  0.24507236108E+02  0.14390371840E+03  0.12500000000E+03 0.  0.
</event>
<event>
 5    0  0.5634041E-005  0.3431975E+03  0.7546771E-02  0.1065442E+00
         21   -1    0    0  502  501  0.00000000000E+00  0.00000000000E+00  0.34403862086E+03  0.34403862086E+03  0.00000000000E+00 0. -1.
         21   -1    0    0  501  502 -0.00000000000E+00 -0.00000000000E+00 -0.34235839542E+03  0.34235839542E+03  0.00000000000E+00 0. -1.
         25    1    1    2    0    0 -0.15313845949E+03  0.50365560294E+01 -0.21688614787E+03  0.29349847668E+03  0.12500000000E+03 0.  0.
         25    1    1    2    0    0  0.11352825963E+03 -0.92780925425E+01  0.44395603709E+02  0.17484484083E+03  0.12500000000E+03 0.  0.
         25    1    1    2    0    0  0.39610199864E+02  0.42415365131E+01  0.17417076960E+03  0.21805369877E+03  0.12500000000E+03 0.  0.
</event>
<event>
 5    0  0.5634041E-005  0.3437498E+03  0.7546771E-02  0.1065210E+00
         21   -1    0    0  502  501  0.00000000000E+00  0.00000000000E+00  0.87330564092E+03  0.87330564092E+03  0.00000000000E+00 0. -1.
         21   -1    0    0  501  502 -0.00000000000E+00 -0.00000000000E+00 -0.13530652683E+03  0.13530652683E+03  0.00000000000E+00 0.  1.
         25    1    1    2    0    0 -0.31148375251E+02 -0.14629131332E+03  0.10669995183E+03  0.22221892213E+03  0.12500000000E+03 0.  0.
         25    1    1    2    0    0  0.17222015140E+03  0.17835074281E+03  0.36765176572E+03  0.46071855709E+03  0.12500000000E+03 0.  0.
         25    1    1    2    0    0 -0.14107177615E+03 -0.32059429490E+02  0.26364739655E+03  0.32567468853E+03  0.12500000000E+03 0.  0.
</event>
<event>
 5    0  0.5634041E-005  0.2373256E+03  0.7546771E-02  0.1121587E+00
         21   -1    0    0  502  501  0.00000000000E+00  0.00000000000E+00  0.18186641073E+04  0.18186641073E+04  0.00000000000E+00 0.  1.
         21   -1    0    0  501  502 -0.00000000000E+00 -0.00000000000E+00 -0.30969666394E+02  0.30969666394E+02  0.00000000000E+00 0.  1.
         25    1    1    2    0    0  0.21913291682E+02  0.55961926854E+02  0.38302517111E+03  0.40736373343E+03  0.12500000000E+03 0.  0.
         25    1    1    2    0    0 -0.86640219043E+02  0.67246391327E+01  0.44530195123E+03  0.47060660439E+03  0.12500000000E+03 0.  0.
         25    1    1    2    0    0  0.64726927361E+02 -0.62686565987E+02  0.95936731858E+03  0.97166343588E+03  0.12500000000E+03 0.  0.
</event>
<event>
 5    0  0.5634041E-005  0.4683879E+03  0.7546771E-02  0.1022376E+00
         21   -1    0    0  502  501  0.00000000000E+00  0.00000000000E+00  0.18212063294E+03  0.18212063294E+03  0.00000000000E+00 0.  1.
         21   -1    0    0  501  502 -0.00000000000E+00 -0.00000000000E+00 -0.12046256427E+04  0.12046256427E+04  0.00000000000E+00 0.  1.
         25    1    1    2    0    0 -0.80130772066E+02  0.15195645223E+03 -0.62351506776E+03  0.65871674013E+03  0.12500000000E+03 0.  0.
         25    1    1    2    0    0  0.17672513239E+03 -0.21010126044E+03 -0.73556069163E+01  0.30175058743E+03  0.12500000000E+03 0.  0.
         25    1    1    2    0    0 -0.96594360324E+02  0.58144808211E+02 -0.39163433509E+03  0.42627894809E+03  0.12500000000E+03 0.  0.
</event>
<event>
 5    0  0.5634041E-005  0.2523920E+03  0.7546771E-02  0.1111802E+00
         21   -1    0    0  502  501  0.00000000000E+00  0.00000000000E+00  0.95652499539E+03  0.95652499539E+03  0.00000000000E+00 0.  1.
         21   -1    0    0  501  502 -0.00000000000E+00 -0.00000000000E+00 -0.66597041439E+02  0.66597041439E+02  0.00000000000E+00 0.  1.
         25    1    1    2    0    0  0.27237644139E+02 -0.19114930898E+02  0.28138771270E+03  0.30969551934E+03  0.12500000000E+03 0.  0.
         25    1    1    2    0    0 -0.11063469249E+02 -0.79453790943E+02  0.49611579382E+03  0.51787178541E+03  0.12500000000E+03 0.  0.
         25    1    1    2    0    0 -0.16174174890E+02  0.98568721841E+02  0.11242444744E+03  0.19555473209E+03  0.12500000000E+03 0.  0.
</event>
<event>
 5    0  0.5634041E-005  0.2461628E+03  0.7546771E-02  0.1115754E+00
         21   -1    0    0  502  501  0.00000000000E+00  0.00000000000E+00  0.21096460659E+03  0.21096460659E+03  0.00000000000E+00 0. -1.
         21   -1    0    0  501  502 -0.00000000000E+00 -0.00000000000E+00 -0.28723354440E+03  0.28723354440E+03  0.00000000000E+00 0. -1.
         25    1    1    2    0    0 -0.69293312494E+02  0.38043294586E+02  0.80895746496E+02  0.16857632461E+03  0.12500000000E+03 0.  0.
         25    1    1    2    0    0  0.45878340257E+02  0.61793469966E+01 -0.15525536009E+02  0.13419779694E+03  0.12500000000E+03 0.  0.
         25    1    1    2    0    0  0.23414972237E+02 -0.44222641582E+02 -0.14163914829E+03  0.19542402944E+03  0.12500000000E+03 0.  0.
</event>
<event>
 5    0  0.5634041E-005  0.3014634E+03  0.7546771E-02  0.1084511E+00
         21   -1    0    0  502  501  0.00000000000E+00  0.00000000000E+00  0.21758857998E+04  0.21758857998E+04  0.00000000000E+00 0.  1.
         21   -1    0    0  501  502 -0.00000000000E+00 -0.00000000000E+00 -0.41766972282E+02  0.41766972282E+02  0.00000000000E+00 0.  1.
         25    1    1    2    0    0  0.15698731311E+02  0.17203690143E+03  0.13444577525E+04  0.13612622061E+04  0.12500000000E+03 0.  0.
         25    1    1    2    0    0 -0.54620066671E+01 -0.15955375730E+03  0.43321694258E+03  0.47831909258E+03  0.12500000000E+03 0.  0.
         25    1    1    2    0    0 -0.10236724644E+02 -0.12483144129E+02  0.35644413245E+03  0.37807147337E+03  0.12500000000E+03 0.  0.
</event>
<event>
 5    0  0.5634041E-005  0.5094116E+03  0.7546771E-02  0.1011351E+00
         21   -1    0    0  502  501  0.00000000000E+00  0.00000000000E+00  0.34254392037E+03  0.34254392037E+03  0.00000000000E+00 0.  1.
         21   -1    0    0  501  502 -0.00000000000E+00 -0.00000000000E+00 -0.75756769581E+03  0.75756769581E+03  0.00000000000E+00 0.  1.
         25    1    1    2    0    0  0.29120861995E+03 -0.31709747049E+02 -0.17521001418E+03  0.36349899238E+03  0.12500000000E+03 0.  0.
         25    1    1    2    0    0 -0.26222831670E+03 -0.25231796176E+03 -0.13632793431E+03  0.40821360778E+03  0.12500000000E+03 0.  0.
         25    1    1    2    0    0 -0.28980303249E+02  0.28402770881E+03 -0.10348582694E+03  0.32839901602E+03  0.12500000000E+03 0.  0.
</event>
<event>
 5    0  0.5634041E-005  0.3017812E+03  0.7546771E-02  0.1084354E+00
         21   -1    0    0  502  501  0.00000000000E+00  0.00000000000E+00  0.13815553350E+03  0.13815553350E+03  0.00000000000E+00 0. -1.
         21   -1    0    0  501  502 -0.00000000000E+00 -0.00000000000E+00 -0.65919809977E+03  0.65919809977E+03  0.00000000000E+00 0. -1.
         25    1    1    2    0    0  0.63096226490E+01  0.20911149510E+02 -0.44215885702E+02  0.13437682858E+03  0.12500000000E+03 0.  0.
         25    1    1    2    0    0 -0.73212417556E+02  0.12341407209E+02  0.18617549271E+02  0.14657415037E+03  0.12500000000E+03 0.  0.
         25    1    1    2    0    0  0.66902794907E+02 -0.33252556719E+02 -0.49544422984E+03  0.51640265431E+03  0.12500000000E+03 0.  0.
</event>
<event>
 5    0  0.5634041E-005  0.2718725E+03  0.7546771E-02  0.1100213E+00
         21   -1    0    0  502  501  0.00000000000E+00  0.00000000000E+00  0.21250156623E+03  0.21250156623E+03  0.00000000000E+00 0.  1.
         21   -1    0    0  501  502 -0.00000000000E+00 -0.00000000000E+00 -0.34783106996E+03  0.34783106996E+03  0.00000000000E+00 0.  1.
         25    1    1    2    0    0  0.27949249593E+02 -0.17726174823E+02 -0.15728477460E+03  0.20361453325E+03  0.12500000000E+03 0.  0.
         25    1    1    2    0    0  0.38492578828E+02  0.63392198970E+02 -0.89640633896E+02  0.17076502206E+03  0.12500000000E+03 0.  0.
         25    1    1    2    0    0 -0.66441828421E+02 -0.45666024147E+02  0.11159590477E+03  0.18595308088E+03  0.12500000000E+03 0.  0.
</event>
<event>
 5    0  0.5634041E-005  0.4783395E+03  0.7546771E-02  0.1019593E+00
         21   -1    0    0  502  501  0.00000000000E+00  0.00000000000E+00  0.21735344260E+03  0.21735344260E+03  0.00000000000E+00 0.  1.
         21   -1    0    0  501  502 -0.00000000000E+00 -0.00000000000E+00 -0.10527033756E+04  0.10527033756E+04  0.00000000000E+00 0.  1.
         25    1    1    2    0    0  0.32262160579E+03  0.46185408926E+02 -0.93527758177E+02  0.36137270798E+03  0.12500000000E+03 0.  0.
         25    1    1    2    0    0 -0.22673111042E+03  0.70117145874E+02 -0.20602197226E+03  0.33822102778E+03  0.12500000000E+03 0.  0.
         25    1    1    2    0    0 -0.95890495368E+02 -0.11630255480E+03 -0.53580020252E+03  0.57046308240E+03  0.12500000000E+03 0.  0.
</event>
<event>
 5    0  0.6973484E-005  0.2824357E+03  0.7546771E-02  0.1094366E+00
         21   -1    0    0  502  501  0.00000000000E+00  0.00000000000E+00  0.48450871784E+03  0.48450871784E+03  0.00000000000E+00 0.  1.
         21   -1    0    0  501  502 -0.00000000000E+00 -0.00000000000E+00 -0.16464080947E+03  0.16464080947E+03  0.00000000000E+00 0.  1.
         25    1    1    2    0    0  0.38041529447E+02 -0.11753972629E+02  0.26198381576E+03  0.29299459646E+03  0.12500000000E+03 0.  0.
         25    1    1    2    0    0 -0.13731912844E+03  0.80490211265E+01  0.63419225083E+02  0.19638820710E+03  0.12500000000E+03 0.  0.
         25    1    1    2    0    0  0.99277598996E+02  0.37049515021E+01 -0.55351324773E+01  0.15976672376E+03  0.12500000000E+03 0.  0.
</event>
<event>
 5    0  0.5634041E-005  0.2365368E+03  0.7546771E-02  0.1122122E+00
         21   -1    0    0  502  501  0.00000000000E+00  0.00000000000E+00  0.15210794088E+04  0.15210794088E+04  0.00000000000E+00 0.  1.
         21   -1    0    0  501  502 -0.00000000000E+00 -0.00000000000E+00 -0.36782864710E+02  0.36782864710E+02  0.00000000000E+00 0.  1.
         25    1    1    2    0    0 -0.39877868595E+02  0.29371243369E+02  0.17537868740E+03  0.22098777870E+03  0.12500000000E+03 0.  0.
         25    1    1    2    0    0  0.67710017873E+02 -0.15480585528E+02  0.66594964333E+03  0.68113010688E+03  0.12500000000E+03 0.  0.
         25    1    1    2    0    0 -0.27832149278E+02 -0.13890657840E+02  0.64296821337E+03  0.65574438794E+03  0.12500000000E+03 0.  0.
</event>
<event>
 5    0  0.5634041E-005  0.1989815E+03  0.7546771E-02  0.1150601E+00
         21   -1    0    0  502  501  0.00000000000E+00  0.00000000000E+00  0.66801839570E+03  0.66801839570E+03  0.00000000000E+00 0. -1.
         21   -1    0    0  501  502 -0.00000000000E+00 -0.00000000000E+00 -0.59270297344E+02  0.59270297344E+02  0.00000000000E+00 0. -1.
         25    1    1    2    0    0  0.75345004026E+01 -0.35893431178E+02  0.16430936143E+03  0.20968469985E+03  0.12500000000E+03 0.  0.
         25    1    1    2    0    0 -0.26535859937E+02  0.45700241509E+02  0.26693962194E+03  0.29945688454E+03  0.12500000000E+03 0.  0.
         25    1    1    2    0    0  0.19001359535E+02 -0.98068103303E+01  0.17749911498E+03  0.21814710865E+03  0.12500000000E+03 0.  0.
</event>
<event>
 5    0  0.5634041E-005  0.2624822E+03  0.7546771E-02  0.1105661E+00
         21   -1    0    0  502  501  0.00000000000E+00  0.00000000000E+00  0.13437265990E+03  0.13437265990E+03  0.00000000000E+00 0. -1.
         21   -1    0    0  501  502 -0.00000000000E+00 -0.00000000000E+00 -0.51273000263E+03  0.51273000263E+03  0.00000000000E+00 0. -1.
         25    1    1    2    0    0 -0.85465629629E+01  0.83449294577E+02 -0.14710814426E+03  0.21048191041E+03  0.12500000000E+03 0.  0.
         25    1    1    2    0    0 -0.85933914625E+02 -0.13240979867E+03 -0.16209236599E+03  0.25848777066E+03  0.12500000000E+03 0.  0.
         25    1    1    2    0    0  0.94480477588E+02  0.48960504097E+02 -0.69156832486E+02  0.17813298147E+03  0.12500000000E+03 0.  0.
</event>
<event>
 5    0  0.5634041E-005  0.2330117E+03  0.7546771E-02  0.1124538E+00
         21   -1    0    0  502  501  0.00000000000E+00  0.00000000000E+00  0.46901816560E+03  0.46901816560E+03  0.00000000000E+00 0. -1.
         21   -1    0    0  501  502 -0.00000000000E+00 -0.00000000000E+00 -0.11576188957E+03  0.11576188957E+03  0.00000000000E+00 0. -1.
         25    1    1    2    0    0 -0.26003956390E+02 -0.11961367424E+03  0.80086973897E+02  0.19241247413E+03  0.12500000000E+03 0.  0.
         25    1    1    2    0    0  0.69404117318E+01  0.77008028190E+02  0.12471504318E+03  0.19276215323E+03  0.12500000000E+03 0.  0.
         25    1    1    2    0    0  0.19063544659E+02  0.42605646046E+02  0.14845425896E+03  0.19960542781E+03  0.12500000000E+03 0.  0.
</event>
<event>
 5    0  0.5634041E-005  0.3281375E+03  0.7546771E-02  0.1071964E+00
         21   -1    0    0  502  501  0.00000000000E+00  0.00000000000E+00  0.11341142983E+04  0.11341142983E+04  0.00000000000E+00 0. -1.
         21   -1    0    0  501  502 -0.00000000000E+00 -0.00000000000E+00 -0.94941239067E+02  0.94941239067E+02  0.00000000000E+00 0. -1.
         25    1    1    2    0    0 -0.16752673316E+03 -0.35819108603E+02  0.60592822663E+03  0.64196746856E+03  0.12500000000E+03 0.  0.
         25    1    1    2    0    0 -0.25302376173E+02  0.44451618978E+02  0.27962801225E+03  0.31053660316E+03  0.12500000000E+03 0.  0.
         25    1    1    2    0    0  0.19282910934E+03 -0.86325103747E+01  0.15361682032E+03  0.27655146560E+03  0.12500000000E+03 0.  0.
</event>
<event>
 5    0  0.5634041E-005  0.2403692E+03  0.7546771E-02  0.1119547E+00
         21   -1    0    0  502  501  0.00000000000E+00  0.00000000000E+00  0.13614181054E+03  0.13614181054E+03  0.00000000000E+00 0.  1.
         21   -1    0    0  501  502 -0.00000000000E+00 -0.00000000000E+00 -0.42439107824E+03  0.42439107824E+03  0.00000000000E+00 0.  1.
         25    1    1    2    0    0  0.10319749779E+02 -0.73541215505E+01  0.51372968641E+02  0.13573784382E+03  0.12500000000E+03 0.  0.
         25    1    1    2    0    0 -0.23998814660E+02  0.17965195761E+02 -0.18361480909E+03  0.22413854975E+03  0.12500000000E+03 0.  0.
         25    1    1    2    0    0  0.13679064881E+02 -0.10611074210E+02 -0.15600742725E+03  0.20065649520E+03  0.12500000000E+03 0.  0.
</event>
<event>
 5    0  0.5634041E-005  0.3775770E+03  0.7546771E-02  0.1051833E+00
         21   -1    0    0  502  501  0.00000000000E+00  0.00000000000E+00  0.16242157614E+03  0.16242157614E+03  0.00000000000E+00 0. -1.
         21   -1    0    0  501  502 -0.00000000000E+00 -0.00000000000E+00 -0.87774304071E+03  0.87774304071E+03  0.00000000000E+00 0. -1.
         25    1    1    2    0    0 -0.10275118624E+03 -0.23214666961E+02 -0.44847790541E+02  0.16950826338E+03  0.12500000000E+03 0.  0.
         25    1    1    2    0    0  0.17520467184E+03 -0.19348131692E+03 -0.29106318151E+03  0.41045641993E+03  0.12500000000E+03 0.  0.
         25    1    1    2    0    0 -0.72453485596E+02  0.21669598388E+03 -0.37941049251E+03  0.46019993354E+03  0.12500000000E+03 0.  0.
</event>
<event>
 5    0  0.5634041E-005  0.4847834E+03  0.7546771E-02  0.1017829E+00
         21   -1    0    0  502  501  0.00000000000E+00  0.00000000000E+00  0.13477839586E+03  0.13477839586E+03  0.00000000000E+00 0.  1.
         21   -1    0    0  501  502 -0.00000000000E+00 -0.00000000000E+00 -0.17437140354E+04  0.17437140354E+04  0.00000000000E+00 0.  1.
         25    1    1    2    0    0 -0.10325881168E+03 -0.81928892443E+02 -0.47890019302E+03  0.51219636906E+03  0.12500000000E+03 0.  0.
         25    1    1    2    0    0  0.44740756003E+02  0.19882400880E+03 -0.18116066967E+02  0.23976220221E+03  0.12500000000E+03 0.  0.
         25    1    1    2    0    0  0.58518055679E+02 -0.11689511636E+03 -0.11119193796E+04  0.11265338600E+04  0.12500000000E+03 0.  0.
</event>
<event>
 5    0  0.5634041E-005  0.2756380E+03  0.7546771E-02  0.1098096E+00
         21   -1    0    0  502  501  0.00000000000E+00  0.00000000000E+00  0.38666838107E+02  0.38666838107E+02  0.00000000000E+00 0.  1.
         21   -1    0    0  501  502 -0.00000000000E+00 -0.00000000000E+00 -0.19648951244E+04  0.19648951244E+04  0.00000000000E+00 0.  1.
         25    1    1    2    0    0  0.36996008719E+02 -0.20343685514E+02 -0.89773625671E+03  0.90737972030E+03  0.12500000000E+03 0.  0.
         25    1    1    2    0    0 -0.58727019450E+02  0.18797552566E+02 -0.91620965716E+03  0.92675096260E+03  0.12500000000E+03 0.  0.
         25    1    1    2    0    0  0.21731010732E+02  0.15461329479E+01 -0.11228237243E+03  0.16943127962E+03  0.12500000000E+03 0.  0.
</event>
<event>
 5    0  0.5634041E-005  0.2601918E+03  0.7546771E-02  0.1107028E+00
         21   -1    0    0  502  501  0.00000000000E+00  0.00000000000E+00  0.24766546170E+03  0.24766546170E+03  0.00000000000E+00 0.  1.
         21   -1    0    0  501  502 -0.00000000000E+00 -0.00000000000E+00 -0.27335167416E+03  0.27335167416E+03  0.00000000000E+00 0.  1.
         25    1    1    2    0    0  0.66164979083E+02  0.95058520627E+02  0.62935087026E+02  0.18165833859E+03  0.12500000000E+03 0.  0.
         25    1    1    2    0    0  0.51899779440E+02 -0.14030555829E+02 -0.52674858243E+02  0.14591122059E+03  0.12500000000E+03 0.  0.
         25    1    1    2    0    0 -0.11806475852E+03 -0.81027964798E+02 -0.35946441243E+02  0.19344757668E+03  0.12500000000E+03 0.  0.
</event>
<event>
 5    0  0.5634041E-005  0.2998893E+03  0.7546771E-02  0.1085296E+00
         21   -1    0    0  502  501  0.00000000000E+00  0.00000000000E+00  0.95952456433E+02  0.95952456433E+02  0.00000000000E+00 0.  1.
         21   -1    0    0  501  502 -0.00000000000E+00 -0.00000000000E+00 -0.93727217163E+03  0.93727217163E+03  0.00000000000E+00 0.  1.
         25    1    1    2    0    0  0.36733359173E+01 -0.23543392321E+02 -0.19901602645E+03  0.23622058230E+03  0.12500000000E+03 0.  0.
         25    1    1    2    0    0  0.74972066587E+02  0.14610371163E+03 -0.11587357291E+03  0.23668288958E+03  0.12500000000E+03 0.  0.
         25    1    1    2    0    0 -0.78645402504E+02 -0.12256031931E+03 -0.52643011584E+03  0.56032115619E+03  0.12500000000E+03 0.  0.
</event>
<event>
 5    0  0.6017658E-005  0.3293814E+03  0.7546771E-02  0.1071411E+00
         21   -1    0    0  502  501  0.00000000000E+00  0.00000000000E+00  0.43836837056E+03  0.43836837056E+03  0.00000000000E+00 0.  1.
         21   -1    0    0  501  502 -0.00000000000E+00 -0.00000000000E+00 -0.24749071296E+03  0.24749071296E+03  0.00000000000E+00 0.  1.
         25    1    1    2    0    0 -0.30216278571E+02 -0.82269845668E+02  0.23625286264E+03  0.28128591522E+03  0.12500000000E+03 0.  0.
         25    1    1    2    0    0 -0.11299692774E+02  0.43985207640E+02 -0.17232432448E+03  0.21767649013E+03  0.12500000000E+03 0.  0.
         25    1    1    2    0    0  0.41515971345E+02  0.38284638028E+02  0.12694911944E+03  0.18689667817E+03  0.12500000000E+03 0.  0.
</event>
<event>
 5    0  0.5634041E-005  0.3210920E+03  0.7546771E-02  0.1075148E+00
         21   -1    0    0  502  501  0.00000000000E+00  0.00000000000E+00  0.26204558797E+03  0.26204558797E+03  0.00000000000E+00 0. -1.
         21   -1    0    0  501  502 -0.00000000000E+00 -0.00000000000E+00 -0.39344338513E+03  0.39344338513E+03  0.00000000000E+00 0. -1.
         25    1    1    2    0    0  0.50896097383E+02 -0.13143747921E+03 -0.22058791928E+03  0.29008663154E+03  0.12500000000E+03 0.  0.
         25    1    1    2    0    0  0.64326530673E+02  0.59785722883E+02 -0.15047269904E+02  0.15350457824E+03  0.12500000000E+03 0.  0.
         25    1    1    2    0    0 -0.11522262806E+03  0.71651756324E+02  0.10423739202E+03  0.21189776331E+03  0.12500000000E+03 0.  0.
</event>
<event>
 5    0  0.5634041E-005  0.3012050E+03  0.7546771E-02  0.1084640E+00
         21   -1    0    0  502  501  0.00000000000E+00  0.00000000000E+00  0.23367903833E+02  0.23367903833E+02  0.00000000000E+00 0.  1.
         21   -1    0    0  501  502 -0.00000000000E+00 -0.00000000000E+00 -0.38824391901E+04  0.38824391901E+04  0.00000000000E+00 0.  1.
         25    1    1    2    0    0 -0.91351756740E+02 -0.13322128495E+03 -0.11942324636E+04  0.12115730400E+04  0.12500000000E+03 0.  0.
         25    1    1    2    0    0  0.39710579927E+02  0.13915268432E+03 -0.72882153367E+03  0.75348936798E+03  0.12500000000E+03 0.  0.
         25    1    1    2    0    0  0.51641176813E+02 -0.59313993688E+01 -0.19360172890E+04  0.19407446859E+04  0.12500000000E+03 0.  0.
</event>
<event>
 5    0  0.5634041E-005  0.5788520E+03  0.7546771E-02  0.9950279E-01
         21   -1    0    0  502  501  0.00000000000E+00  0.00000000000E+00  0.86685166129E+03  0.86685166129E+03  0.00000000000E+00 0.  1.
         21   -1    0    0  501  502 -0.00000000000E+00 -0.00000000000E+00 -0.38653632784E+03  0.38653632784E+03  0.00000000000E+00 0.  1.
         25    1    1    2    0    0 -0.14595950402E+03  0.40272952642E+02 -0.50478066918E+02  0.20272918578E+03  0.12500000000E+03 0.  0.
         25    1    1    2    0    0  0.71740974169E+02 -0.90848875001E+02 -0.22338272571E+03  0.28093616288E+03  0.12500000000E+03 0.  0.
         25    1    1    2    0    0  0.74218529852E+02  0.50575922359E+02  0.75417612608E+03  0.76972264047E+03  0.12500000000E+03 0.  0.
</event>
<event>
 5    0  0.5634041E-005  0.3464718E+03  0.7546771E-02  0.1064073E+00
         21   -1    0    0  502  501  0.00000000000E+00  0.00000000000E+00  0.61079873954E+03  0.61079873954E+03  0.00000000000E+00 0. -1.
         21   -1    0    0  501  502 -0.00000000000E+00 -0.00000000000E+00 -0.19653392535E+03  0.19653392535E+03  0.00000000000E+00 0. -1.
         25    1    1    2    0    0 -0.74278081935E+02  0.13260550346E+03 -0.37218848834E+02  0.20027904462E+03  0.12500000000E+03 0.  0.
         25    1    1    2    0    0 -0.59374752435E+01  0.17311471044E+02  0.21601661257E+02  0.12816619059E+03  0.12500000000E+03 0.  0.
         25    1    1    2    0    0  0.80215557178E+02 -0.14991697451E+03  0.42988200177E+03  0.47888742968E+03  0.12500000000E+03 0.  0.
</event>
<event>
 5    0  0.5634041E-005  0.2657096E+03  0.7546771E-02  0.1103761E+00
         21   -1    0    0  502  501  0.00000000000E+00  0.00000000000E+00  0.15777313475E+04  0.15777313475E+04  0.00000000000E+00 0. -1.
         21   -1    0    0  501  502 -0.00000000000E+00 -0.00000000000E+00 -0.44748807953E+02  0.44748807953E+02  0.00000000000E+00 0. -1.
         25    1    1    2    0    0 -0.77429866777E+02  0.48841394310E+02  0.42364990427E+03  0.45109323588E+03  0.12500000000E+03 0.  0.
         25    1    1    2    0    0  0.97424164306E+01 -0.61059805783E+01  0.12942175746E+03  0.18029750132E+03  0.12500000000E+03 0.  0.
         25    1    1    2    0    0  0.67687450347E+02 -0.42735413732E+02  0.97991087781E+03  0.99108941825E+03  0.12500000000E+03 0.  0.
</event>
<event>
 5    0  0.6211187E-005  0.3319727E+03  0.7546771E-02  0.1070267E+00
         21   -1    0    0  502  501  0.00000000000E+00  0.00000000000E+00  0.68506908693E+03  0.68506908693E+03  0.00000000000E+00 0. -1.
         21   -1    0    0  501  502 -0.00000000000E+00 -0.00000000000E+00 -0.16086828114E+03  0.16086828114E+03  0.00000000000E+00 0. -1.
         25    1    1    2    0    0  0.59671707324E+00  0.17730221781E+03  0.38716479921E+03  0.44379952034E+03  0.12500000000E+03 0.  0.
         25    1    1    2    0    0 -0.28509364524E+02 -0.37165756070E+02 -0.43256349304E+02  0.14032173404E+03  0.12500000000E+03 0.  0.
         25    1    1    2    0    0  0.27912647451E+02 -0.14013646174E+03  0.18029235588E+03  0.26181611368E+03  0.12500000000E+03 0.  0.
</event>
<event>
 5    0  0.5634041E-005  0.2803528E+03  0.7546771E-02  0.1095496E+00
         21   -1    0    0  502  501  0.00000000000E+00  0.00000000000E+00  0.46866493583E+03  0.46866493583E+03  0.00000000000E+00 0. -1.
         21   -1    0    0  501  502 -0.00000000000E+00 -0.00000000000E+00 -0.16770556033E+03  0.16770556033E+03  0.00000000000E+00 0. -1.
         25    1    1    2    0    0  0.91704574853E+02  0.14370979021E+02  0.28971592899E+03  0.32890207296E+03  0.12500000000E+03 0.  0.
         25    1    1    2    0    0 -0.12503628783E+03 -0.27310209953E+01 -0.25994570014E+01  0.17684255406E+03  0.12500000000E+03 0.  0.
         25    1    1    2    0    0  0.33331712980E+02 -0.11639958025E+02  0.13842903514E+02  0.13062586915E+03  0.12500000000E+03 0.  0.
</event>
<event>
 5    0  0.5634041E-005  0.6144373E+03  0.7546771E-02  0.9875898E-01
         21   -1    0    0  502  501  0.00000000000E+00  0.00000000000E+00  0.18160000458E+04  0.18160000458E+04  0.00000000000E+00 0.  1.
         21   -1    0    0  501  502 -0.00000000000E+00 -0.00000000000E+00 -0.20789271184E+03  0.20789271184E+03  0.00000000000E+00 0.  1.
         25    1    1    2    0    0  0.12935642012E+03 -0.18476701493E+03 -0.94254789711E+02  0.27455582058E+03  0.12500000000E+03 0.  0.
         25    1    1    2    0    0 -0.14822072763E+02  0.22047277887E+02  0.28117322398E+03  0.30885135290E+03  0.12500000000E+03 0.  0.
         25    1    1    2    0    0 -0.11453434736E+03  0.16271973705E+03  0.14211888996E+04  0.14404855841E+04  0.12500000000E+03 0.  0.
</event>
<event>
 5    0  0.5634041E-005  0.2590987E+03  0.7546771E-02  0.1107686E+00
         21   -1    0    0  502  501  0.00000000000E+00  0.00000000000E+00  0.20063100764E+03  0.20063100764E+03  0.00000000000E+00 0. -1.
         21   -1    0    0  501  502 -0.00000000000E+00 -0.00000000000E+00 -0.33460500734E+03  0.33460500734E+03  0.00000000000E+00 0. -1.
         25    1    1    2    0    0 -0.61915483452E+02 -0.11005736121E+03  0.44894818755E+02  0.18326673075E+03  0.12500000000E+03 0.  0.
         25    1    1    2    0    0  0.59239494178E+02  0.11215803799E+03 -0.10553881359E+03  0.20700769148E+03  0.12500000000E+03 0.  0.
         25    1    1    2    0    0  0.26759892733E+01 -0.21006767841E+01 -0.73330004864E+02  0.14496159276E+03  0.12500000000E+03 0.  0.
</event>
<event>
 5    0  0.5634041E-005  0.4263945E+03  0.7546771E-02  0.1035005E+00
         21   -1    0    0  502  501  0.00000000000E+00  0.00000000000E+00  0.16872459992E+03  0.16872459992E+03  0.00000000000E+00 0.  1.
         21   -1    0    0  501  502 -0.00000000000E+00 -0.00000000000E+00 -0.10775681194E+04  0.10775681194E+04  0.00000000000E+00 0.  1.
         25    1    1    2    0    0 -0.45951198970E+02  0.11381675795E+03 -0.99629585442E+01  0.17547087399E+03  0.12500000000E+03 0.  0.
         25    1    1    2    0    0  0.20877906048E+03 -0.16982632053E+03 -0.76219783734E+03  0.81792433543E+03  0.12500000000E+03 0.  0.
         25    1    1    2    0    0 -0.16282786151E+03  0.56009562585E+02 -0.13668272359E+03  0.25289750990E+03  0.12500000000E+03 0.  0.
</event>
<event>
 5    0  0.6171552E-005  0.2878595E+03  0.7546771E-02  0.1091472E+00
         21   -1    0    0  502  501  0.00000000000E+00  0.00000000000E+00  0.10850649890E+03  0.10850649890E+03  0.00000000000E+00 0.  1.
         21   -1    0    0  501  502 -0.00000000000E+00 -0.00000000000E+00 -0.76366964425E+03  0.76366964425E+03  0.00000000000E+00 0.  1.
         25    1    1    2    0    0 -0.13075669434E+02  0.14762625954E+02 -0.13780635137E+02  0.12729420317E+03  0.12500000000E+03 0.  0.
         25    1    1    2    0    0  0.64430300405E+02 -0.92367914575E+02 -0.13699500313E+03  0.21696941290E+03  0.12500000000E+03 0.  0.
         25    1    1    2    0    0 -0.51354630971E+02  0.77605288621E+02 -0.50438750708E+03  0.52791252708E+03  0.12500000000E+03 0.  0.
</event>
<event>
 5    0  0.5634041E-005  0.2435319E+03  0.7546771E-02  0.1117462E+00
         21   -1    0    0  502  501  0.00000000000E+00  0.00000000000E+00  0.17018698317E+03  0.17018698317E+03  0.00000000000E+00 0. -1.
         21   -1    0    0  501  502 -0.00000000000E+00 -0.00000000000E+00 -0.34848599718E+03  0.34848599718E+03  0.00000000000E+00 0. -1.
         25    1    1    2    0    0  0.23089086250E+02 -0.61703209960E+02  0.34560079578E+02  0.14546405440E+03  0.12500000000E+03 0.  0.
         25    1    1    2    0    0 -0.45828360467E+02  0.87724157232E+02 -0.54443187964E+02  0.16847797215E+03  0.12500000000E+03 0.  0.
         25    1    1    2    0    0  0.22739274217E+02 -0.26020947271E+02 -0.15841590562E+03  0.20473095379E+03  0.12500000000E+03 0.  0.
</event>
<event>
 5    0  0.5634041E-005  0.2685102E+03  0.7546771E-02  0.1102135E+00
         21   -1    0    0  502  501  0.00000000000E+00  0.00000000000E+00  0.35646911482E+03  0.35646911482E+03  0.00000000000E+00 0.  1.
         21   -1    0    0  501  502 -0.00000000000E+00 -0.00000000000E+00 -0.20225513794E+03  0.20225513794E+03  0.00000000000E+00 0.  1.
         25    1    1    2    0    0 -0.90181698978E+02  0.57812378647E+02 -0.52441120897E+02  0.17277176018E+03  0.12500000000E+03 0.  0.
         25    1    1    2    0    0 -0.50290056293E+01 -0.95914151373E+02  0.14082635722E+03  0.21138088423E+03  0.12500000000E+03 0.  0.
         25    1    1    2    0    0  0.95210704608E+02  0.38101772726E+02  0.65828740556E+02  0.17457160834E+03  0.12500000000E+03 0.  0.
</event>
<event>
 5    0  0.5634041E-005  0.4079263E+03  0.7546771E-02  0.1041069E+00
         21   -1    0    0  502  501  0.00000000000E+00  0.00000000000E+00  0.15799298279E+04  0.15799298279E+04  0.00000000000E+00 0. -1.
         21   -1    0    0  501  502 -0.00000000000E+00 -0.00000000000E+00 -0.10532358767E+03  0.10532358767E+03  0.00000000000E+00 0. -1.
         25    1    1    2    0    0  0.75756775615E+02  0.39179888654E+01  0.31965465874E+03  0.35150894802E+03  0.12500000000E+03 0.  0.
         25    1    1    2    0    0  0.26125261840E+03  0.54978257126E+02  0.62066273509E+03  0.68711190508E+03  0.12500000000E+03 0.  0.
         25    1    1    2    0    0 -0.33700939401E+03 -0.58896245991E+02  0.53428884643E+03  0.64663256248E+03  0.12500000000E+03 0.  0.
</event>
<event>
 5    0  0.5651575E-005  0.3943997E+03  0.7546771E-02  0.1045736E+00
         21   -1    0    0  502  501  0.00000000000E+00  0.00000000000E+00  0.10165032851E+04  0.10165032851E+04  0.00000000000E+00 0.  1.
         21   -1    0    0  501  502 -0.00000000000E+00 -0.00000000000E+00 -0.15302571169E+03  0.15302571169E+03  0.00000000000E+00 0.  1.
         25    1    1    2    0    0  0.16811907904E+02 -0.61822053985E+02  0.56114685304E+03  0.57845950358E+03  0.12500000000E+03 0.  0.
         25    1    1    2    0    0  0.17261819582E+03  0.15398458208E+03  0.15840015604E+03  0.30695912184E+03  0.12500000000E+03 0.  0.
         25    1    1    2    0    0 -0.18943010373E+03 -0.92162528099E+02  0.14393056437E+03  0.28411037141E+03  0.12500000000E+03 0.  0.
</event>
<event>
 5    0  0.5634041E-005  0.2279252E+03  0.7546771E-02  0.1128109E+00
         21   -1    0    0  502  501  0.00000000000E+00  0.00000000000E+00  0.10082242172E+04  0.10082242172E+04  0.00000000000E+00 0. -1.
         21   -1    0    0  501  502 -0.00000000000E+00 -0.00000000000E+00 -0.51526154773E+02  0.51526154773E+02  0.00000000000E+00 0. -1.
         25    1    1    2    0    0 -0.67480984291E+02 -0.44461506683E+02  0.31859683881E+03  0.35165246269E+03  0.12500000000E+03 0.  0.
         25    1    1    2    0    0  0.48432008584E+02  0.33376969498E+02  0.50754852370E+03  0.52601348411E+03  0.12500000000E+03 0.  0.
         25    1    1    2    0    0  0.19048975707E+02  0.11084537185E+02  0.13055269995E+03  0.18208442521E+03  0.12500000000E+03 0.  0.
</event>
<event>
 5    0  0.5634041E-005  0.3273691E+03  0.7546771E-02  0.1072307E+00
         21   -1    0    0  502  501  0.00000000000E+00  0.00000000000E+00  0.39859493435E+03  0.39859493435E+03  0.00000000000E+00 0.  1.
         21   -1    0    0  501  502 -0.00000000000E+00 -0.00000000000E+00 -0.26887081747E+03  0.26887081747E+03  0.00000000000E+00 0.  1.
         25    1    1    2    0    0  0.14518965333E+02  0.15008913647E+03  0.14238156688E+03  0.24214677332E+03  0.12500000000E+03 0.  0.
         25    1    1    2    0    0  0.10748140708E+03 -0.16656404834E+03  0.48881299341E+02  0.23939552312E+03  0.12500000000E+03 0.  0.
         25    1    1    2    0    0 -0.12200037241E+03  0.16474911871E+02 -0.61538749347E+02  0.18592345538E+03  0.12500000000E+03 0.  0.
</event>
<event>
 5    0  0.5634041E-005  0.2334224E+03  0.7546771E-02  0.1124254E+00
         21   -1    0    0  502  501  0.00000000000E+00  0.00000000000E+00  0.10408269224E+04  0.10408269224E+04  0.00000000000E+00 0. -1.
         21   -1    0    0  501  502 -0.00000000000E+00 -0.00000000000E+00 -0.52348790734E+02  0.52348790734E+02  0.00000000000E+00 0. -1.
         25    1    1    2    0    0 -0.49519088163E+01  0.72553190729E+02  0.33790771682E+03  0.36755286963E+03  0.12500000000E+03 0.  0.
         25    1    1    2    0    0  0.85830233483E+02 -0.63862332472E+02  0.41942020592E+03  0.45053694146E+03  0.12500000000E+03 0.  0.
         25    1    1    2    0    0 -0.80878324667E+02 -0.86908582571E+01  0.23115020895E+03  0.27508590207E+03  0.12500000000E+03 0.  0.
</event>
<event>
 5    0  0.5634041E-005  0.3911852E+03  0.7546771E-02  0.1046875E+00
         21   -1    0    0  502  501  0.00000000000E+00  0.00000000000E+00  0.47641640940E+03  0.47641640940E+03  0.00000000000E+00 0.  1.
         21   -1    0    0  501  502 -0.00000000000E+00 -0.00000000000E+00 -0.32120194168E+03  0.32120194168E+03  0.00000000000E+00 0.  1.
         25    1    1    2    0    0  0.38549630465E+02  0.10908986474E+03 -0.44031741594E+02  0.17592744773E+03  0.12500000000E+03 0.  0.
         25    1    1    2    0    0  0.17935598964E+03 -0.25982468495E+02 -0.82562439271E+02  0.23512808439E+03  0.12500000000E+03 0.  0.
         25    1    1    2    0    0 -0.21790562011E+03 -0.83107396249E+02  0.28180864858E+03  0.38656281896E+03  0.12500000000E+03 0.  0.
</event>
<event>
 5    0  0.5634041E-005  0.2687937E+03  0.7546771E-02  0.1101972E+00
         21   -1    0    0  502  501  0.00000000000E+00  0.00000000000E+00  0.13610110461E+03  0.13610110461E+03  0.00000000000E+00 0. -1.
         21   -1    0    0  501  502 -0.00000000000E+00 -0.00000000000E+00 -0.53085593287E+03  0.53085593287E+03  0.00000000000E+00 0. -1.
         25    1    1    2    0    0  0.70092187417E+01 -0.10557294018E+03 -0.87415561086E+02  0.18563742932E+03  0.12500000000E+03 0.  0.
         25    1    1    2    0    0 -0.10302809094E+03  0.77574441497E+02 -0.65257542501E+02  0.19109193690E+03  0.12500000000E+03 0.  0.
         25    1    1    2    0    0  0.96018872198E+02  0.27998498679E+02 -0.24208172467E+03  0.29022767126E+03  0.12500000000E+03 0.  0.
</event>
<event>
 5    0  0.5634041E-005  0.3636969E+03  0.7546771E-02  0.1057130E+00
         21   -1    0    0  502  501  0.00000000000E+00  0.00000000000E+00  0.20023240272E+03  0.20023240272E+03  0.00000000000E+00 0. -1.
         21   -1    0    0  501  502 -0.00000000000E+00 -0.00000000000E+00 -0.66060936217E+03  0.66060936217E+03  0.00000000000E+00 0. -1.
         25    1    1    2    0    0  0.11808739327E+03  0.11132792803E+03  0.76504006176E+02  0.21866962059E+03  0.12500000000E+03 0.  0.
         25    1    1    2    0    0  0.35471874077E+01 -0.12423744177E+03 -0.29570558577E+03  0.34425908548E+03  0.12500000000E+03 0.  0.
         25    1    1    2    0    0 -0.12163458068E+03  0.12909513744E+02 -0.24117537986E+03  0.29791305881E+03  0.12500000000E+03 0.  0.
</event>
<event>
 5    0  0.5634041E-005  0.3337957E+03  0.7546771E-02  0.1069470E+00
         21   -1    0    0  502  501  0.00000000000E+00  0.00000000000E+00  0.16290687816E+04  0.16290687816E+04  0.00000000000E+00 0. -1.
         21   -1    0    0  501  502 -0.00000000000E+00 -0.00000000000E+00 -0.68394645683E+02  0.68394645683E+02  0.00000000000E+00 0. -1.
         25    1    1    2    0    0  0.11519525459E+03  0.65498124633E+02  0.27579341725E+03  0.33052527892E+03  0.12500000000E+03 0.  0.
         25    1    1    2    0    0 -0.23005011424E+03 -0.83664314987E+02  0.58227647136E+03  0.64388947946E+03  0.12500000000E+03 0.  0.
         25    1    1    2    0    0  0.11485485965E+03  0.18166190354E+02  0.70260424734E+03  0.72304866893E+03  0.12500000000E+03 0.  0.
</event>
<event>
 5    0  0.5634041E-005  0.3604635E+03  0.7546771E-02  0.1058400E+00
         21   -1    0    0  502  501  0.00000000000E+00  0.00000000000E+00  0.23496699174E+03  0.23496699174E+03  0.00000000000E+00 0.  1.
         21   -1    0    0  501  502 -0.00000000000E+00 -0.00000000000E+00 -0.55298804481E+03  0.55298804481E+03  0.00000000000E+00 0.  1.
         25    1    1    2    0    0 -0.17593632523E+02  0.24161143604E+02  0.15461865036E+02  0.12945024541E+03  0.12500000000E+03 0.  0.
         25    1    1    2    0    0 -0.56077015484E+02 -0.17887840207E+03 -0.37960750451E+03  0.44143965825E+03  0.12500000000E+03 0.  0.
         25    1    1    2    0    0  0.73670648007E+02  0.15471725847E+03  0.46124586402E+02  0.21706513289E+03  0.12500000000E+03 0.  0.
</event>
<event>
 5    0  0.5634041E-005  0.2775150E+03  0.7546771E-02  0.1097054E+00
         21   -1    0    0  502  501  0.00000000000E+00  0.00000000000E+00  0.25422179645E+03  0.25422179645E+03  0.00000000000E+00 0.  1.
         21   -1    0    0  501  502 -0.00000000000E+00 -0.00000000000E+00 -0.30294248571E+03  0.30294248571E+03  0.00000000000E+00 0.  1.
         25    1    1    2    0    0 -0.55864837965E+02 -0.21691490090E+02  0.83340386492E+02  0.16174678013E+03  0.12500000000E+03 0.  0.
         25    1    1    2    0    0  0.65372693219E+02 -0.11154033776E+03 -0.11085511431E+03  0.21125504097E+03  0.12500000000E+03 0.  0.
         25    1    1    2    0    0 -0.95078552542E+01  0.13323182785E+03 -0.21205961448E+02  0.18416246106E+03  0.12500000000E+03 0.  0.
</event>
<event>
 5    0  0.5634041E-005  0.2411518E+03  0.7546771E-02  0.1119028E+00
         21   -1    0    0  502  501  0.00000000000E+00  0.00000000000E+00  0.24477457527E+03  0.24477457527E+03  0.00000000000E+00 0.  1.
         21   -1    0    0  501  502 -0.00000000000E+00 -0.00000000000E+00 -0.23758266773E+03  0.23758266773E+03  0.00000000000E+00 0.  1.
         25    1    1    2    0    0 -0.36233055351E+02 -0.63603583460E+02  0.34765073437E+02  0.14896932725E+03  0.12500000000E+03 0.  0.
         25    1    1    2    0    0  0.10795492626E+03  0.86303794191E+02 -0.15106739144E+02  0.18696476824E+03  0.12500000000E+03 0.  0.
         25    1    1    2    0    0 -0.71721870905E+02 -0.22700210731E+02 -0.12466426758E+02  0.14642314752E+03  0.12500000000E+03 0.  0.
</event>
<event>
 5    0  0.5634041E-005  0.3266916E+03  0.7546771E-02  0.1072610E+00
         21   -1    0    0  502  501  0.00000000000E+00  0.00000000000E+00  0.52664111275E+03  0.52664111275E+03  0.00000000000E+00 0.  1.
         21   -1    0    0  501  502 -0.00000000000E+00 -0.00000000000E+00 -0.20265674844E+03  0.20265674844E+03  0.00000000000E+00 0. -1.
         25    1    1    2    0    0  0.55291342726E+02  0.10327039580E+03  0.26717796961E+03  0.31738143404E+03  0.12500000000E+03 0.  0.
         25    1    1    2    0    0  0.26709296776E+02  0.17040279259E+02 -0.10073626879E+03  0.16363542862E+03  0.12500000000E+03 0.  0.
         25    1    1    2    0    0 -0.82000639502E+02 -0.12031067506E+03  0.15754266349E+03  0.24828099853E+03  0.12500000000E+03 0.  0.
</event>
<event>
 5    0  0.5634041E-005  0.2319248E+03  0.7546771E-02  0.1125292E+00
         21   -1    0    0  502  501  0.00000000000E+00  0.00000000000E+00  0.22732855089E+03  0.22732855089E+03  0.00000000000E+00 0. -1.
         21   -1    0    0  501  502 -0.00000000000E+00 -0.00000000000E+00 -0.23661387897E+03  0.23661387897E+03  0.00000000000E+00 0. -1.
         25    1    1    2    0    0 -0.10998613422E+03 -0.58666136234E+02 -0.22961147086E+02  0.17801932349E+03  0.12500000000E+03 0.  0.
         25    1    1    2    0    0  0.61908690566E+02  0.40596836901E+01 -0.74911358389E+01  0.13975079290E+03  0.12500000000E+03 0.  0.
         25    1    1    2    0    0  0.48077443655E+02  0.54606452544E+02  0.21166954848E+02  0.14617231347E+03  0.12500000000E+03 0.  0.
</event>
<event>
 5    0  0.6861124E-005  0.4400502E+03  0.7546771E-02  0.1030731E+00
         21   -1    0    0  502  501  0.00000000000E+00  0.00000000000E+00  0.57376760547E+03  0.57376760547E+03  0.00000000000E+00 0. -1.
         21   -1    0    0  501  502 -0.00000000000E+00 -0.00000000000E+00 -0.33749579326E+03  0.33749579326E+03  0.00000000000E+00 0. -1.
         25    1    1    2    0    0  0.63893317751E+02  0.13537248935E+03 -0.10424955511E+03  0.22113578785E+03  0.12500000000E+03 0.  0.
         25    1    1    2    0    0  0.14925288179E+03 -0.24569687155E+03  0.26147478703E+03  0.40821249327E+03  0.12500000000E+03 0.  0.
         25    1    1    2    0    0 -0.21314619954E+03  0.11032438220E+03  0.79046580288E+02  0.28191511762E+03  0.12500000000E+03 0.  0.
</event>
<event>
 5    0  0.5634041E-005  0.3311649E+03  0.7546771E-02  0.1070623E+00
         21   -1    0    0  502  501  0.00000000000E+00  0.00000000000E+00  0.29418375048E+03  0.29418375048E+03  0.00000000000E+00 0. -1.
         21   -1    0    0  501  502 -0.00000000000E+00 -0.00000000000E+00 -0.37279497538E+03  0.37279497538E+03  0.00000000000E+00 0. -1.
         25    1    1    2    0    0 -0.48953468722E+02 -0.27009515815E+02  0.34958546562E+02  0.14132606278E+03  0.12500000000E+03 0.  0.
         25    1    1    2    0    0  0.18684138523E+03  0.16434614069E+03 -0.92350479620E+02  0.29338194948E+03  0.12500000000E+03 0.  0.
         25    1    1    2    0    0 -0.13788791651E+03 -0.13733662487E+03 -0.21219291837E+02  0.23227071360E+03  0.12500000000E+03 0.  0.
</event>
<event>
 5    0  0.5634041E-005  0.7074696E+03  0.7546771E-02  0.9704543E-01
         21   -1    0    0  502  501  0.00000000000E+00  0.00000000000E+00  0.74175502236E+03  0.74175502236E+03  0.00000000000E+00 0. -1.
         21   -1    0    0  501  502 -0.00000000000E+00 -0.00000000000E+00 -0.67476892439E+03  0.67476892439E+03  0.00000000000E+00 0.  1.
         25    1    1    2    0    0  0.74178953926E+02 -0.67184742686E+01  0.25110158465E+03  0.29021485303E+03  0.12500000000E+03 0.  0.
         25    1    1    2    0    0 -0.40010877512E+03  0.39810657091E+03 -0.16637821603E+03  0.60156677477E+03  0.12500000000E+03 0.  0.
         25    1    1    2    0    0  0.32592982119E+03 -0.39138809664E+03 -0.17737270655E+02  0.52474231896E+03  0.12500000000E+03 0.  0.
</event>
<event>
 5    0  0.5634041E-005  0.3423109E+03  0.7546771E-02  0.1065816E+00
         21   -1    0    0  502  501  0.00000000000E+00  0.00000000000E+00  0.11409701334E+03  0.11409701334E+03  0.00000000000E+00 0. -1.
         21   -1    0    0  501  502 -0.00000000000E+00 -0.00000000000E+00 -0.10269921528E+04  0.10269921528E+04  0.00000000000E+00 0. -1.
         25    1    1    2    0    0 -0.21037419447E+03  0.69927906070E+02 -0.14648010833E+03  0.29364712817E+03  0.12500000000E+03 0.  0.
         25    1    1    2    0    0  0.17617250465E+03 -0.37978951698E+01 -0.44937828635E+03  0.49861510170E+03  0.12500000000E+03 0.  0.
         25    1    1    2    0    0  0.34201689813E+02 -0.66130010901E+02 -0.31703674478E+03  0.34882693627E+03  0.12500000000E+03 0.  0.
</event>
<event>
 5    0  0.5634041E-005  0.2638527E+03  0.7546771E-02  0.1104850E+00
         21   -1    0    0  502  501  0.00000000000E+00  0.00000000000E+00  0.93903540890E+03  0.93903540890E+03  0.00000000000E+00 0. -1.
         21   -1    0    0  501  502 -0.00000000000E+00 -0.00000000000E+00 -0.74138041543E+02  0.74138041543E+02  0.00000000000E+00 0. -1.
         25    1    1    2    0    0 -0.27274543859E+02  0.79207190615E+02  0.97947677978E+02  0.17954505677E+03  0.12500000000E+03 0.  0.
         25    1    1    2    0    0  0.64700635346E+02 -0.58147116261E+02  0.60861113308E+03  0.62737530287E+03  0.12500000000E+03 0.  0.
         25    1    1    2    0    0 -0.37426091487E+02 -0.21060074354E+02  0.15833855630E+03  0.20625309080E+03  0.12500000000E+03 0.  0.
</event>
<event>
 5    0  0.5634041E-005  0.3247974E+03  0.7546771E-02  0.1073462E+00
         21   -1    0    0  502  501  0.00000000000E+00  0.00000000000E+00  0.48851245555E+02  0.48851245555E+02  0.00000000000E+00 0. -1.
         21   -1    0    0  501  502 -0.00000000000E+00 -0.00000000000E+00 -0.21594819548E+04  0.21594819548E+04  0.00000000000E+00 0. -1.
         25    1    1    2    0    0  0.78798328432E+02 -0.75472371042E+02 -0.96199091645E+03  0.97619505156E+03  0.12500000000E+03 0.  0.
         25    1    1    2    0    0  0.66740675459E+02  0.58787451839E+02 -0.14809988763E+03  0.21323428188E+03  0.12500000000E+03 0.  0.
         25    1    1    2    0    0 -0.14553900389E+03  0.16684919202E+02 -0.10005399052E+04  0.10189038669E+04  0.12500000000E+03 0.  0.
</event>
<event>
 5    0  0.5634041E-005  0.3553207E+03  0.7546771E-02  0.1060452E+00
         21   -1    0    0  502  501  0.00000000000E+00  0.00000000000E+00  0.86886554950E+03  0.86886554950E+03  0.00000000000E+00 0. -1.
         21   -1    0    0  501  502 -0.00000000000E+00 -0.00000000000E+00 -0.14530760831E+03  0.14530760831E+03  0.00000000000E+00 0. -1.
         25    1    1    2    0    0 -0.27175147406E+02  0.20262421013E+03  0.35335224775E+03  0.42694012480E+03  0.12500000000E+03 0.  0.
         25    1    1    2    0    0  0.31789781918E+02  0.20477422809E+02  0.29183258182E+03  0.31972045742E+03  0.12500000000E+03 0.  0.
         25    1    1    2    0    0 -0.46146345111E+01 -0.22310163294E+03  0.78373111618E+02  0.26751257559E+03  0.12500000000E+03 0.  0.
</event>
<event>
 5    0  0.5634041E-005  0.2680863E+03  0.7546771E-02  0.1102380E+00
         21   -1    0    0  502  501  0.00000000000E+00  0.00000000000E+00  0.59907530592E+02  0.59907530592E+02  0.00000000000E+00 0.  1.
         21   -1    0    0  501  502 -0.00000000000E+00 -0.00000000000E+00 -0.11996862115E+04  0.11996862115E+04  0.00000000000E+00 0.  1.
         25    1    1    2    0    0 -0.24535667437E+01  0.13788952018E+03 -0.53397951164E+03  0.56548975111E+03  0.12500000000E+03 0.  0.
         25    1    1    2    0    0  0.46806429982E+02 -0.86439325285E+02 -0.47476627454E+03  0.50069013799E+03  0.12500000000E+03 0.  0.
         25    1    1    2    0    0 -0.44352863238E+02 -0.51450194892E+02 -0.13103289478E+03  0.19341385304E+03  0.12500000000E+03 0.  0.
</event>
<event>
 5    0  0.5634041E-005  0.4410359E+03  0.7546771E-02  0.1030429E+00
         21   -1    0    0  502  501  0.00000000000E+00  0.00000000000E+00  0.17612715157E+03  0.17612715157E+03  0.00000000000E+00 0. -1.
         21   -1    0    0  501  502 -0.00000000000E+00 -0.00000000000E+00 -0.11043875676E+04  0.11043875676E+04  0.00000000000E+00 0. -1.
         25    1    1    2    0    0  0.63905664883E+01 -0.10060246157E+03 -0.21930477797E+03  0.27181111136E+03  0.12500000000E+03 0.  0.
         25    1    1    2    0    0  0.16445349982E+03 -0.56212178230E+02 -0.71380211620E+03  0.74521354233E+03  0.12500000000E+03 0.  0.
         25    1    1    2    0    0 -0.17084406631E+03  0.15681463980E+03  0.48464781641E+01  0.26349006547E+03  0.12500000000E+03 0.  0.
</event>
<event>
 5    0  0.6360365E-005  0.2865391E+03  0.7546771E-02  0.1092170E+00
         21   -1    0    0  502  501  0.00000000000E+00  0.00000000000E+00  0.38171688004E+03  0.38171688004E+03  0.00000000000E+00 0.  1.
         21   -1    0    0  501  502 -0.00000000000E+00 -0.00000000000E+00 -0.21509307722E+03  0.21509307722E+03  0.00000000000E+00 0.  1.
         25    1    1    2    0    0 -0.13475594679E+03  0.15900725674E+02  0.11435567183E+03  0.21705809810E+03  0.12500000000E+03 0.  0.
         25    1    1    2    0    0 -0.24338016561E+02 -0.59092413232E+02 -0.49926113009E+02  0.14900291645E+03  0.12500000000E+03 0.  0.
         25    1    1    2    0    0  0.15909396335E+03  0.43191687558E+02  0.10219424400E+03  0.23074894270E+03  0.12500000000E+03 0.  0.
</event>
<event>
 5    0  0.5634041E-005  0.2719172E+03  0.7546771E-02  0.1100187E+00
         21   -1    0    0  502  501  0.00000000000E+00  0.00000000000E+00  0.32786977189E+03  0.32786977189E+03  0.00000000000E+00 0. -1.
         21   -1    0    0  501  502 -0.00000000000E+00 -0.00000000000E+00 -0.22551316431E+03  0.22551316431E+03  0.00000000000E+00 0. -1.
         25    1    1    2    0    0 -0.45247217312E+02  0.11157400534E+03  0.45807437891E+02  0.17949760641E+03  0.12500000000E+03 0.  0.
         25    1    1    2    0    0  0.27954202671E+02 -0.17687537942E+03 -0.64056561013E+01  0.21847738950E+03  0.12500000000E+03 0.  0.
         25    1    1    2    0    0  0.17293014641E+02  0.65301374086E+02  0.62954825786E+02  0.15540794028E+03  0.12500000000E+03 0.  0.
</event>
<event>
 5    0  0.5634041E-005  0.2990635E+03  0.7546771E-02  0.1085710E+00
         21   -1    0    0  502  501  0.00000000000E+00  0.00000000000E+00  0.15544492370E+04  0.15544492370E+04  0.00000000000E+00 0. -1.
         21   -1    0    0  501  502 -0.00000000000E+00 -0.00000000000E+00 -0.57537397826E+02  0.57537397826E+02  0.00000000000E+00 0. -1.
         25    1    1    2    0    0 -0.52030072928E+02 -0.48601169602E+01  0.10462982449E+04  0.10550335381E+04  0.12500000000E+03 0.  0.
         25    1    1    2    0    0  0.39461349866E+02  0.99639902624E+02  0.28015192907E+03  0.32495447633E+03  0.12500000000E+03 0.  0.
         25    1    1    2    0    0  0.12568723062E+02 -0.94779785664E+02  0.17046166527E+03  0.23199862046E+03  0.12500000000E+03 0.  0.
</event>
<event>
 5    0  0.5634041E-005  0.2052783E+03  0.7546771E-02  0.1145361E+00
         21   -1    0    0  502  501  0.00000000000E+00  0.00000000000E+00  0.32147035861E+03  0.32147035861E+03  0.00000000000E+00 0.  1.
         21   -1    0    0  501  502 -0.00000000000E+00 -0.00000000000E+00 -0.13108263263E+03  0.13108263263E+03  0.00000000000E+00 0.  1.
         25    1    1    2    0    0 -0.12548813646E+01  0.21189881840E+02  0.71841394395E+02  0.14572841785E+03  0.12500000000E+03 0.  0.
         25    1    1    2    0    0  0.47194482748E+02 -0.31051629717E+02  0.15293247080E+02  0.13802320934E+03  0.12500000000E+03 0.  0.
         25    1    1    2    0    0 -0.45939601383E+02  0.98617478770E+01  0.10325308450E+03  0.16880136405E+03  0.12500000000E+03 0.  0.
</event>
<event>
 5    0  0.5634041E-005  0.3986825E+03  0.7546771E-02  0.1044237E+00
         21   -1    0    0  502  501  0.00000000000E+00  0.00000000000E+00  0.30031097098E+03  0.30031097098E+03  0.00000000000E+00 0. -1.
         21   -1    0    0  501  502 -0.00000000000E+00 -0.00000000000E+00 -0.52927704411E+03  0.52927704411E+03  0.00000000000E+00 0. -1.
         25    1    1    2    0    0 -0.14973305188E+02 -0.15999396291E+03  0.34109026264E+02  0.20642357837E+03  0.12500000000E+03 0.  0.
         25    1    1    2    0    0 -0.52663384366E+02  0.14176840005E+03 -0.38688603323E+03  0.43379432225E+03  0.12500000000E+03 0.  0.
         25    1    1    2    0    0  0.67636689554E+02  0.18225562860E+02  0.12381093384E+03  0.18937011447E+03  0.12500000000E+03 0.  0.
</event>
<event>
 5    0  0.5634041E-005  0.4181034E+03  0.7546771E-02  0.1037685E+00
         21   -1    0    0  502  501  0.00000000000E+00  0.00000000000E+00  0.30178046493E+03  0.30178046493E+03  0.00000000000E+00 0.  1.
         21   -1    0    0  501  502 -0.00000000000E+00 -0.00000000000E+00 -0.57926357754E+03  0.57926357754E+03  0.00000000000E+00 0.  1.
         25    1    1    2    0    0 -0.56744530822E+02  0.22499839723E+03  0.12283252050E+03  0.29078694714E+03  0.12500000000E+03 0.  0.
         25    1    1    2    0    0  0.11200475357E+03 -0.16945792205E+02 -0.24290327587E+03  0.29573506070E+03  0.12500000000E+03 0.  0.
         25    1    1    2    0    0 -0.55260222749E+02 -0.20805260502E+03 -0.15741235723E+03  0.29452203464E+03  0.12500000000E+03 0.  0.
</event>
<event>
 5    0  0.5634041E-005  0.2062615E+03  0.7546771E-02  0.1144561E+00
         21   -1    0    0  502  501  0.00000000000E+00  0.00000000000E+00  0.10847553950E+03  0.10847553950E+03  0.00000000000E+00 0. -1.
         21   -1    0    0  501  502 -0.00000000000E+00 -0.00000000000E+00 -0.39219707260E+03  0.39219707260E+03  0.00000000000E+00 0. -1.
         25    1    1    2    0    0 -0.41139461325E+00  0.23295606263E+02 -0.10457607278E+03  0.16463295391E+03  0.12500000000E+03 0.  0.
         25    1    1    2    0    0  0.63493990693E+02  0.28620851621E+01 -0.10688192697E+03  0.17631909907E+03  0.12500000000E+03 0.  0.
         25    1    1    2    0    0 -0.63082596080E+02 -0.26157691425E+02 -0.72263533361E+02  0.15972055911E+03  0.12500000000E+03 0.  0.
</event>
<event>
 5    0  0.5634041E-005  0.2685663E+03  0.7546771E-02  0.1102103E+00
         21   -1    0    0  502  501  0.00000000000E+00  0.00000000000E+00  0.15351168206E+04  0.15351168206E+04  0.00000000000E+00 0. -1.
         21   -1    0    0  501  502 -0.00000000000E+00 -0.00000000000E+00 -0.46985259758E+02  0.46985259758E+02  0.00000000000E+00 0. -1.
         25    1    1    2    0    0  0.21131776179E+02  0.33388685928E+02  0.24211546537E+03  0.27532935710E+03  0.12500000000E+03 0.  0.
         25    1    1    2    0    0  0.81649420863E+02 -0.33155558547E+00  0.20996149744E+03  0.25763456341E+03  0.12500000000E+03 0.  0.
         25    1    1    2    0    0 -0.10278119704E+03 -0.33057130343E+02  0.10360545980E+04  0.10491381598E+04  0.12500000000E+03 0.  0.
</event>
<event>
 5    0  0.5634041E-005  0.2776102E+03  0.7546771E-02  0.1097001E+00
         21   -1    0    0  502  501  0.00000000000E+00  0.00000000000E+00  0.12063842010E+03  0.12063842010E+03  0.00000000000E+00 0.  1.
         21   -1    0    0  501  502 -0.00000000000E+00 -0.00000000000E+00 -0.63883006131E+03  0.63883006131E+03  0.00000000000E+00 0.  1.
         25    1    1    2    0    0  0.47574907445E+02  0.12096522694E+03 -0.10533645360E+03  0.20884617881E+03  0.12500000000E+03 0.  0.
         25    1    1    2    0    0 -0.11659463453E+03 -0.50336318338E+02 -0.11278289763E+03  0.21088630999E+03  0.12500000000E+03 0.  0.
         25    1    1    2    0    0  0.69019727085E+02 -0.70628908606E+02 -0.30007228998E+03  0.33973599260E+03  0.12500000000E+03 0.  0.
</event>
<event>
 5    0  0.5634041E-005  0.2451230E+03  0.7546771E-02  0.1116426E+00
         21   -1    0    0  502  501  0.00000000000E+00  0.00000000000E+00  0.16782001075E+03  0.16782001075E+03  0.00000000000E+00 0. -1.
         21   -1    0    0  501  502 -0.00000000000E+00 -0.00000000000E+00 -0.35803407476E+03  0.35803407476E+03  0.00000000000E+00 0. -1.
         25    1    1    2    0    0  0.35477235843E+01 -0.22838163775E+02 -0.46668620648E+02  0.13541465290E+03  0.12500000000E+03 0.  0.
         25    1    1    2    0    0  0.49559174339E+02 -0.87135087760E+02  0.61308084818E+01  0.16034719234E+03  0.12500000000E+03 0.  0.
         25    1    1    2    0    0 -0.53106897923E+02  0.10997325153E+03 -0.14967625185E+03  0.23009224026E+03  0.12500000000E+03 0.  0.
</event>
<event>
 5    0  0.5634041E-005  0.2719138E+03  0.7546771E-02  0.1100189E+00
         21   -1    0    0  502  501  0.00000000000E+00  0.00000000000E+00  0.35786601810E+03  0.35786601810E+03  0.00000000000E+00 0. -1.
         21   -1    0    0  501  502 -0.00000000000E+00 -0.00000000000E+00 -0.20660559439E+03  0.20660559439E+03  0.00000000000E+00 0. -1.
         25    1    1    2    0    0  0.99252126886E+02 -0.15936575686E+02  0.17354016059E+03  0.23631789284E+03  0.12500000000E+03 0.  0.
         25    1    1    2    0    0 -0.20892507884E+02  0.89585886341E+01  0.78505113356E+02  0.14934793611E+03  0.12500000000E+03 0.  0.
         25    1    1    2    0    0 -0.78359619002E+02  0.69779870521E+01 -0.10078485024E+03  0.17880578355E+03  0.12500000000E+03 0.  0.
</event>
<event>
 5    0  0.5634041E-005  0.3557805E+03  0.7546771E-02  0.1060267E+00
         21   -1    0    0  502  501  0.00000000000E+00  0.00000000000E+00  0.23641317101E+03  0.23641317101E+03  0.00000000000E+00 0. -1.
         21   -1    0    0  501  502 -0.00000000000E+00 -0.00000000000E+00 -0.53541752482E+03  0.53541752482E+03  0.00000000000E+00 0. -1.
         25    1    1    2    0    0 -0.61323878518E+01  0.94166637129E+02 -0.26947200691E+02  0.15892172084E+03  0.12500000000E+03 0.  0.
         25    1    1    2    0    0 -0.25148513571E+02  0.14721435576E+03  0.39011787938E+02  0.19862385021E+03  0.12500000000E+03 0.  0.
         25    1    1    2    0    0  0.31280901423E+02 -0.24138099289E+03 -0.31106894106E+03  0.41428512478E+03  0.12500000000E+03 0.  0.
</event>
<event>
 5    0  0.5634041E-005  0.2802465E+03  0.7546771E-02  0.1095554E+00
         21   -1    0    0  502  501  0.00000000000E+00  0.00000000000E+00  0.11848996385E+03  0.11848996385E+03  0.00000000000E+00 0. -1.
         21   -1    0    0  501  502 -0.00000000000E+00 -0.00000000000E+00 -0.66282493149E+03  0.66282493149E+03  0.00000000000E+00 0. -1.
         25    1    1    2    0    0 -0.64831041764E+02 -0.10398852075E+03 -0.11205883038E+03  0.20784334940E+03  0.12500000000E+03 0.  0.
         25    1    1    2    0    0 -0.31331392919E+02  0.85363508127E+02 -0.37335397755E+03  0.40408758612E+03  0.12500000000E+03 0.  0.
         25    1    1    2    0    0  0.96162434683E+02  0.18625012625E+02 -0.58922159708E+02  0.16938395982E+03  0.12500000000E+03 0.  0.
</event>
<event>
 5    0  0.5634041E-005  0.3164464E+03  0.7546771E-02  0.1077297E+00
         21   -1    0    0  502  501  0.00000000000E+00  0.00000000000E+00  0.28581498453E+03  0.28581498453E+03  0.00000000000E+00 0. -1.
         21   -1    0    0  501  502 -0.00000000000E+00 -0.00000000000E+00 -0.35036054579E+03  0.35036054579E+03  0.00000000000E+00 0. -1.
         25    1    1    2    0    0  0.88302992899E+02 -0.12606844973E+03 -0.15644519046E+03  0.25256834756E+03  0.12500000000E+03 0.  0.
         25    1    1    2    0    0 -0.96650784078E+02  0.14478878298E+03  0.13082929262E+03  0.25109056045E+03  0.12500000000E+03 0.  0.
         25    1    1    2    0    0  0.83477911797E+01 -0.18720333242E+02 -0.38929663420E+02  0.13251662231E+03  0.12500000000E+03 0.  0.
</event>
<event>
 5    0  0.5634041E-005  0.2891798E+03  0.7546771E-02  0.1090778E+00
         21   -1    0    0  502  501  0.00000000000E+00  0.00000000000E+00  0.46200695771E+03  0.46200695771E+03  0.00000000000E+00 0.  1.
         21   -1    0    0  501  502 -0.00000000000E+00 -0.00000000000E+00 -0.18100366997E+03  0.18100366997E+03  0.00000000000E+00 0.  1.
         25    1    1    2    0    0 -0.10921859964E+03  0.11853021541E+03  0.26926770972E+01  0.20398618822E+03  0.12500000000E+03 0.  0.
         25    1    1    2    0    0  0.38357188784E+02 -0.31482531953E+02  0.22614291896E+03  0.26311222614E+03  0.12500000000E+03 0.  0.
         25    1    1    2    0    0  0.70861410857E+02 -0.87047683459E+02  0.52167691688E+02  0.17591221333E+03  0.12500000000E+03 0.  0.
</event>
<event>
 5    0  0.5634041E-005  0.2956440E+03  0.7546771E-02  0.1087439E+00
         21   -1    0    0  502  501  0.00000000000E+00  0.00000000000E+00  0.10175725701E+03  0.10175725701E+03  0.00000000000E+00 0.  1.
         21   -1    0    0  501  502 -0.00000000000E+00 -0.00000000000E+00 -0.85895951743E+03  0.85895951743E+03  0.00000000000E+00 0.  1.
         25    1    1    2    0    0 -0.57872218404E+02  0.10335749965E+03 -0.24255391735E+03  0.29747162759E+03  0.12500000000E+03 0.  0.
         25    1    1    2    0    0 -0.36946919161E+02 -0.16732314559E+03 -0.14590913862E+03  0.25744239476E+03  0.12500000000E+03 0.  0.
         25    1    1    2    0    0  0.94819137565E+02  0.63965645938E+02 -0.36873920444E+03  0.40580275209E+03  0.12500000000E+03 0.  0.
</event>
<event>
 5    0  0.5634041E-005  0.2259445E+03  0.7546771E-02  0.1129527E+00
         21   -1    0    0  502  501  0.00000000000E+00  0.00000000000E+00  0.18072952424E+03  0.18072952424E+03  0.00000000000E+00 0. -1.
         21   -1    0    0  501  502 -0.00000000000E+00 -0.00000000000E+00 -0.28247140985E+03  0.28247140985E+03  0.00000000000E+00 0. -1.
         25    1    1    2    0    0  0.84835813752E+02 -0.26544782909E+02  0.89240046590E+00  0.15338688723E+03  0.12500000000E+03 0.  0.
         25    1    1    2    0    0 -0.87568520050E+01 -0.70637239567E+01  0.41456254779E+01  0.12557374273E+03  0.12500000000E+03 0.  0.
         25    1    1    2    0    0 -0.76078961747E+02  0.33608506866E+02 -0.10677991155E+03  0.18424030413E+03  0.12500000000E+03 0.  0.
</event>
<event>
 5    0  0.5634041E-005  0.3116089E+03  0.7546771E-02  0.1079577E+00
         21   -1    0    0  502  501  0.00000000000E+00  0.00000000000E+00  0.42416361542E+03  0.42416361542E+03  0.00000000000E+00 0.  1.
         21   -1    0    0  501  502 -0.00000000000E+00 -0.00000000000E+00 -0.22892130570E+03  0.22892130570E+03  0.00000000000E+00 0.  1.
         25    1    1    2    0    0  0.14673549146E+03  0.54256471453E+00  0.84694941233E+02  0.21054650769E+03  0.12500000000E+03 0.  0.
         25    1    1    2    0    0 -0.16045142505E+03  0.45933435925E+02  0.19384653096E+03  0.28470338583E+03  0.12500000000E+03 0.  0.
         25    1    1    2    0    0  0.13715933589E+02 -0.46476000640E+02 -0.83299162475E+02  0.15783502760E+03  0.12500000000E+03 0.  0.
</event>
<event>
 5    0  0.5634041E-005  0.2939043E+03  0.7546771E-02  0.1088328E+00
         21   -1    0    0  502  501  0.00000000000E+00  0.00000000000E+00  0.22424767742E+03  0.22424767742E+03  0.00000000000E+00 0. -1.
         21   -1    0    0  501  502 -0.00000000000E+00 -0.00000000000E+00 -0.38519789589E+03  0.38519789589E+03  0.00000000000E+00 0. -1.
         25    1    1    2    0    0 -0.81429417618E+02 -0.53567004860E+02 -0.39853541273E+02  0.16344258568E+03  0.12500000000E+03 0.  0.
         25    1    1    2    0    0  0.63719923271E+02 -0.46717700318E+02  0.95463369059E+02  0.17601428060E+03  0.12500000000E+03 0.  0.
         25    1    1    2    0    0  0.17709494347E+02  0.10028470518E+03 -0.21656004626E+03  0.26998870702E+03  0.12500000000E+03 0.  0.
</event>
<event>
 5    0  0.5634041E-005  0.2733367E+03  0.7546771E-02  0.1099385E+00
         21   -1    0    0  502  501  0.00000000000E+00  0.00000000000E+00  0.11103977676E+03  0.11103977676E+03  0.00000000000E+00 0.  1.
         21   -1    0    0  501  502 -0.00000000000E+00 -0.00000000000E+00 -0.67284842239E+03  0.67284842239E+03  0.00000000000E+00 0.  1.
         25    1    1    2    0    0  0.50003660849E+02  0.10063178715E+03 -0.78271289817E+02  0.18541444791E+03  0.12500000000E+03 0.  0.
         25    1    1    2    0    0  0.68406383260E+02 -0.92012806097E+01 -0.12237654520E+03  0.18805615026E+03  0.12500000000E+03 0.  0.
         25    1    1    2    0    0 -0.11841004411E+03 -0.91430506543E+02 -0.36116081061E+03  0.41041760098E+03  0.12500000000E+03 0.  0.
</event>
<event>
 5    0  0.5634041E-005  0.3112871E+03  0.7546771E-02  0.1079731E+00
         21   -1    0    0  502  501  0.00000000000E+00  0.00000000000E+00  0.61296426149E+02  0.61296426149E+02  0.00000000000E+00 0. -1.
         21   -1    0    0  501  502 -0.00000000000E+00 -0.00000000000E+00 -0.15808372461E+04  0.15808372461E+04  0.00000000000E+00 0. -1.
         25    1    1    2    0    0 -0.16647620241E+03 -0.14452094470E+03 -0.51900295617E+03  0.57757224478E+03  0.12500000000E+03 0.  0.
         25    1    1    2    0    0  0.96778478526E+02  0.12827434072E+03 -0.73261511266E+03  0.76037509408E+03  0.12500000000E+03 0.  0.
         25    1    1    2    0    0  0.69697723888E+02  0.16246603982E+02 -0.26792275113E+03  0.30418633341E+03  0.12500000000E+03 0.  0.
</event>
<event>
 5    0  0.5634041E-005  0.2724000E+03  0.7546771E-02  0.1099914E+00
         21   -1    0    0  502  501  0.00000000000E+00  0.00000000000E+00  0.68329808525E+03  0.68329808525E+03  0.00000000000E+00 0.  1.
         21   -1    0    0  501  502 -0.00000000000E+00 -0.00000000000E+00 -0.10859355414E+03  0.10859355414E+03  0.00000000000E+00 0.  1.
         25    1    1    2    0    0  0.34485072840E+02  0.11648325543E+03  0.14758057079E+03  0.22839131752E+03  0.12500000000E+03 0.  0.
         25    1    1    2    0    0 -0.85546760531E+01 -0.18440427958E+03  0.26103683771E+03  0.34328319425E+03  0.12500000000E+03 0.  0.
         25    1    1    2    0    0 -0.25930396787E+02  0.67921024144E+02  0.16608712262E+03  0.22021712762E+03  0.12500000000E+03 0.  0.
</event>
<event>
 5    0  0.5634041E-005  0.2431966E+03  0.7546771E-02  0.1117681E+00
         21   -1    0    0  502  501  0.00000000000E+00  0.00000000000E+00  0.47431380979E+03  0.47431380979E+03  0.00000000000E+00 0. -1.
         21   -1    0    0  501  502 -0.00000000000E+00 -0.00000000000E+00 -0.12469505513E+03  0.12469505513E+03  0.00000000000E+00 0. -1.
         25    1    1    2    0    0 -0.84112903286E+01 -0.69278274583E+02  0.10086614505E+03  0.17512626403E+03  0.12500000000E+03 0.  0.
         25    1    1    2    0    0 -0.10379721733E+03  0.74733342671E+01  0.98167959899E+02  0.18997805505E+03  0.12500000000E+03 0.  0.
         25    1    1    2    0    0  0.11220850766E+03  0.61804940316E+02  0.15058464971E+03  0.23390454584E+03  0.12500000000E+03 0.  0.
</event>
<event>
 5    0  0.5634041E-005  0.4015693E+03  0.7546771E-02  0.1043238E+00
         21   -1    0    0  502  501  0.00000000000E+00  0.00000000000E+00  0.97828109007E+03  0.97828109007E+03  0.00000000000E+00 0.  1.
         21   -1    0    0  501  502 -0.00000000000E+00 -0.00000000000E+00 -0.16483799493E+03  0.16483799493E+03  0.00000000000E+00 0.  1.
         25    1    1    2    0    0 -0.10824226546E+03  0.12395706364E+02  0.28352314306E+03  0.32845154014E+03  0.12500000000E+03 0.  0.
         25    1    1    2    0    0 -0.16875324969E+03 -0.17105356931E+03  0.18260410105E+03  0.32665921168E+03  0.12500000000E+03 0.  0.
         25    1    1    2    0    0  0.27699551514E+03  0.15865786295E+03  0.34731585103E+03  0.48800833319E+03  0.12500000000E+03 0.  0.
</event>
<event>
 5    0  0.5634041E-005  0.3159775E+03  0.7546771E-02  0.1077516E+00
         21   -1    0    0  502  501  0.00000000000E+00  0.00000000000E+00  0.85327843634E+02  0.85327843634E+02  0.00000000000E+00 0. -1.
         21   -1    0    0  501  502 -0.00000000000E+00 -0.00000000000E+00 -0.11700963374E+04  0.11700963374E+04  0.00000000000E+00 0. -1.
         25    1    1    2    0    0  0.13143771997E+03  0.45283497526E+02 -0.11679179290E+03  0.22043546055E+03  0.12500000000E+03 0.  0.
         25    1    1    2    0    0 -0.45313481675E+02  0.60419499033E+02 -0.65803277443E+03  0.67404447903E+03  0.12500000000E+03 0.  0.
         25    1    1    2    0    0 -0.86124238290E+02 -0.10570299656E+03 -0.30994392639E+03  0.36094424141E+03  0.12500000000E+03 0.  0.
</event>
<event>
 5    0  0.5634041E-005  0.4253988E+03  0.7546771E-02  0.1035323E+00
         21   -1    0    0  502  501  0.00000000000E+00  0.00000000000E+00  0.47696262606E+03  0.47696262606E+03  0.00000000000E+00 0.  1.
         21   -1    0    0  501  502 -0.00000000000E+00 -0.00000000000E+00 -0.37940954724E+03  0.37940954724E+03  0.00000000000E+00 0.  1.
         25    1    1    2    0    0  0.15272087223E+03 -0.25785566416E+03  0.17972278564E+03  0.37113136223E+03  0.12500000000E+03 0.  0.
         25    1    1    2    0    0  0.35885460521E+02  0.16662354087E+02  0.32730239000E+02  0.13513574237E+03  0.12500000000E+03 0.  0.
         25    1    1    2    0    0 -0.18860633275E+03  0.24119331007E+03 -0.11489994582E+03  0.35010506870E+03  0.12500000000E+03 0.  0.
</event>
<event>
 5    0  0.5634041E-005  0.3178397E+03  0.7546771E-02  0.1076648E+00
         21   -1    0    0  502  501  0.00000000000E+00  0.00000000000E+00  0.53391895616E+03  0.53391895616E+03  0.00000000000E+00 0. -1.
         21   -1    0    0  501  502 -0.00000000000E+00 -0.00000000000E+00 -0.18920860472E+03  0.18920860472E+03  0.00000000000E+00 0. -1.
         25    1    1    2    0    0 -0.11959825847E+03  0.11382392975E+02  0.35300110537E+03  0.39327863238E+03  0.12500000000E+03 0.  0.
         25    1    1    2    0    0  0.12345986706E+02  0.70066479463E+02  0.15110708680E+02  0.14462042888E+03  0.12500000000E+03 0.  0.
         25    1    1    2    0    0  0.10725227176E+03 -0.81448872438E+02 -0.23401462606E+02  0.18522849962E+03  0.12500000000E+03 0.  0.
</event>
<event>
 5    0  0.5634041E-005  0.2695549E+03  0.7546771E-02  0.1101535E+00
         21   -1    0    0  502  501  0.00000000000E+00  0.00000000000E+00  0.77572623229E+02  0.77572623229E+02  0.00000000000E+00 0. -1.
         21   -1    0    0  501  502 -0.00000000000E+00 -0.00000000000E+00 -0.93666894317E+03  0.93666894317E+03  0.00000000000E+00 0. -1.
         25    1    1    2    0    0 -0.57818523168E+02 -0.11513405829E+03 -0.12069115646E+03  0.21631039792E+03  0.12500000000E+03 0.  0.
         25    1    1    2    0    0  0.53705825257E+02  0.15033380438E+02 -0.26682033478E+03  0.29988065834E+03  0.12500000000E+03 0.  0.
         25    1    1    2    0    0  0.41126979107E+01  0.10010067785E+03 -0.47158482871E+03  0.49805051015E+03  0.12500000000E+03 0.  0.
</event>
<event>
 5    0  0.5634041E-005  0.3891338E+03  0.7546771E-02  0.1047609E+00
         21   -1    0    0  502  501  0.00000000000E+00  0.00000000000E+00  0.13201806708E+04  0.13201806708E+04  0.00000000000E+00 0. -1.
         21   -1    0    0  501  502 -0.00000000000E+00 -0.00000000000E+00 -0.11470029756E+03  0.11470029756E+03  0.00000000000E+00 0. -1.
         25    1    1    2    0    0  0.46287231102E+02 -0.32483893915E+02  0.22727896533E+03  0.26547775652E+03  0.12500000000E+03 0.  0.
         25    1    1    2    0    0 -0.48478814038E+02  0.30602074519E+03  0.43495453843E+03  0.54846088502E+03  0.12500000000E+03 0.  0.
         25    1    1    2    0    0  0.21915829360E+01 -0.27353685128E+03  0.54324686953E+03  0.62094232687E+03  0.12500000000E+03 0.  0.
</event>
<event>
 5    0  0.7076080E-005  0.2660055E+03  0.7546771E-02  0.1103588E+00
         21   -1    0    0  502  501  0.00000000000E+00  0.00000000000E+00  0.61083686060E+03  0.61083686060E+03  0.00000000000E+00 0.  1.
         21   -1    0    0  501  502 -0.00000000000E+00 -0.00000000000E+00 -0.11583932516E+03  0.11583932516E+03  0.00000000000E+00 0.  1.
         25    1    1    2    0    0 -0.10189755565E+03  0.82023790509E+02  0.76643106555E+02  0.19649473234E+03  0.12500000000E+03 0.  0.
         25    1    1    2    0    0  0.50214437429E+02 -0.27667029163E+02  0.33529856115E+03  0.36240457963E+03  0.12500000000E+03 0.  0.
         25    1    1    2    0    0  0.51683118218E+02 -0.54356761346E+02  0.83055867734E+02  0.16777687379E+03  0.12500000000E+03 0.  0.
</event>
<event>
 5    0  0.5634041E-005  0.3056603E+03  0.7546771E-02  0.1082445E+00
         21   -1    0    0  502  501  0.00000000000E+00  0.00000000000E+00  0.22507061625E+03  0.22507061625E+03  0.00000000000E+00 0.  1.
         21   -1    0    0  501  502 -0.00000000000E+00 -0.00000000000E+00 -0.41510618918E+03  0.41510618918E+03  0.00000000000E+00 0.  1.
         25    1    1    2    0    0 -0.91956170975E+02 -0.82687244243E+02 -0.85298541481E+01  0.17604225672E+03  0.12500000000E+03 0.  0.
         25    1    1    2    0    0 -0.78070311699E+02 -0.55759299863E+02 -0.78411854286E+01  0.15776741514E+03  0.12500000000E+03 0.  0.
         25    1    1    2    0    0  0.17002648267E+03  0.13844654411E+03 -0.17366453336E+03  0.30636713357E+03  0.12500000000E+03 0.  0.
</event>
<event>
 5    0  0.5634041E-005  0.2720051E+03  0.7546771E-02  0.1100137E+00
         21   -1    0    0  502  501  0.00000000000E+00  0.00000000000E+00  0.32006676085E+02  0.32006676085E+02  0.00000000000E+00 0.  1.
         21   -1    0    0  501  502 -0.00000000000E+00 -0.00000000000E+00 -0.23116047445E+04  0.23116047445E+04  0.00000000000E+00 0.  1.
         25    1    1    2    0    0 -0.10104497509E+03  0.42885292433E+01 -0.54702987611E+03  0.57017117064E+03  0.12500000000E+03 0.  0.
         25    1    1    2    0    0  0.82547686526E+02 -0.11566356994E+03 -0.12011062519E+04  0.12159249197E+04  0.12500000000E+03 0.  0.
         25    1    1    2    0    0  0.18497288562E+02  0.11137504070E+03 -0.53146194047E+03  0.55751533032E+03  0.12500000000E+03 0.  0.
</event>
<event>
 5    0  0.5634041E-005  0.3071556E+03  0.7546771E-02  0.1081717E+00
         21   -1    0    0  502  501  0.00000000000E+00  0.00000000000E+00  0.10656007852E+04  0.10656007852E+04  0.00000000000E+00 0.  1.
         21   -1    0    0  501  502 -0.00000000000E+00 -0.00000000000E+00 -0.88536517331E+02  0.88536517331E+02  0.00000000000E+00 0.  1.
         25    1    1    2    0    0 -0.10119935715E+02 -0.41795950907E+02  0.24743314129E+03  0.28053070067E+03  0.12500000000E+03 0.  0.
         25    1    1    2    0    0 -0.13510088757E+03 -0.65560405779E+02  0.56868680293E+03  0.60131530535E+03  0.12500000000E+03 0.  0.
         25    1    1    2    0    0  0.14522082328E+03  0.10735635669E+03  0.16094432365E+03  0.27229129650E+03  0.12500000000E+03 0.  0.
</event>
<event>
 5    0  0.5634041E-005  0.2169933E+03  0.7546771E-02  0.1136145E+00
         21   -1    0    0  502  501  0.00000000000E+00  0.00000000000E+00  0.74369509826E+03  0.74369509826E+03  0.00000000000E+00 0.  1.
         21   -1    0    0  501  502 -0.00000000000E+00 -0.00000000000E+00 -0.63313708391E+02  0.63313708391E+02  0.00000000000E+00 0.  1.
         25    1    1    2    0    0 -0.28449644804E+02 -0.23165670984E+02  0.14458019473E+03  0.19461362571E+03  0.12500000000E+03 0.  0.
         25    1    1    2    0    0  0.62513744238E+02 -0.24743442814E+02  0.17047398091E+03  0.22182557190E+03  0.12500000000E+03 0.  0.
         25    1    1    2    0    0 -0.34064099434E+02  0.47909113798E+02  0.36532721424E+03  0.39056960905E+03  0.12500000000E+03 0.  0.
</event>
<event>
 5    0  0.5634041E-005  0.3698459E+03  0.7546771E-02  0.1054752E+00
         21   -1    0    0  502  501  0.00000000000E+00  0.00000000000E+00  0.49105546892E+03  0.49105546892E+03  0.00000000000E+00 0.  1.
         21   -1    0    0  501  502 -0.00000000000E+00 -0.00000000000E+00 -0.27855501026E+03  0.27855501026E+03  0.00000000000E+00 0.  1.
         25    1    1    2    0    0 -0.43937819185E+01  0.19081729741E+03 -0.60103600111E+02  0.23594064732E+03  0.12500000000E+03 0.  0.
         25    1    1    2    0    0 -0.35383691475E+01 -0.22572018886E+03  0.31789935381E+02  0.25999562248E+03  0.12500000000E+03 0.  0.
         25    1    1    2    0    0  0.79321510660E+01  0.34902891455E+02  0.24081412339E+03  0.27367420938E+03  0.12500000000E+03 0.  0.
</event>
<event>
 5    0  0.5634041E-005  0.2216750E+03  0.7546771E-02  0.1132640E+00
         21   -1    0    0  502  501  0.00000000000E+00  0.00000000000E+00  0.39000155454E+03  0.39000155454E+03  0.00000000000E+00 0.  1.
         21   -1    0    0  501  502 -0.00000000000E+00 -0.00000000000E+00 -0.12599902953E+03  0.12599902953E+03  0.00000000000E+00 0.  1.
         25    1    1    2    0    0 -0.84250594321E+01  0.52758240599E+02  0.13963834137E+03  0.19488016820E+03  0.12500000000E+03 0.  0.
         25    1    1    2    0    0  0.68989902316E+02 -0.49509556430E+02  0.32533639567E+02  0.15457761967E+03  0.12500000000E+03 0.  0.
         25    1    1    2    0    0 -0.60564842883E+02 -0.32486841681E+01  0.91830544070E+02  0.16654279620E+03  0.12500000000E+03 0.  0.
</event>
<event>
 5    0  0.5634041E-005  0.2264150E+03  0.7546771E-02  0.1129189E+00
         21   -1    0    0  502  501  0.00000000000E+00  0.00000000000E+00  0.53747646349E+03  0.53747646349E+03  0.00000000000E+00 0.  1.
         21   -1    0    0  501  502 -0.00000000000E+00 -0.00000000000E+00 -0.95378585590E+02  0.95378585590E+02  0.00000000000E+00 0.  1.
         25    1    1    2    0    0  0.20822593487E+02 -0.69316547917E+02  0.46841864092E+02  0.15184704293E+03  0.12500000000E+03 0.  0.
         25    1    1    2    0    0  0.16389137189E+02  0.19923497327E+02  0.24336418647E+03  0.27480297818E+03  0.12500000000E+03 0.  0.
         25    1    1    2    0    0 -0.37211730675E+02  0.49393050591E+02  0.15189182734E+03  0.20620502797E+03  0.12500000000E+03 0.  0.
</event>
<event>
 5    0  0.6367582E-005  0.2928238E+03  0.7546771E-02  0.1088884E+00
         21   -1    0    0  502  501  0.00000000000E+00  0.00000000000E+00  0.24519561269E+03  0.24519561269E+03  0.00000000000E+00 0.  1.
         21   -1    0    0  501  502 -0.00000000000E+00 -0.00000000000E+00 -0.34970344373E+03  0.34970344373E+03  0.00000000000E+00 0.  1.
         25    1    1    2    0    0 -0.11053710727E+03 -0.20432236922E+02 -0.11184679818E+03  0.20191739562E+03  0.12500000000E+03 0.  0.
         25    1    1    2    0    0  0.18370672851E+03  0.62378674746E+02  0.50260333102E+02  0.23619983541E+03  0.12500000000E+03 0.  0.
         25    1    1    2    0    0 -0.73169621245E+02 -0.41946437824E+02 -0.42921365955E+02  0.15678182540E+03  0.12500000000E+03 0.  0.
</event>
<event>
 5    0  0.5634041E-005  0.3511985E+03  0.7546771E-02  0.1062124E+00
         21   -1    0    0  502  501  0.00000000000E+00  0.00000000000E+00  0.15179724445E+03  0.15179724445E+03  0.00000000000E+00 0.  1.
         21   -1    0    0  501  502 -0.00000000000E+00 -0.00000000000E+00 -0.81253389158E+03  0.81253389158E+03  0.00000000000E+00 0.  1.
         25    1    1    2    0    0  0.14147037758E+03  0.66665475120E+02 -0.12546956196E+03  0.23627476438E+03  0.12500000000E+03 0.  0.
         25    1    1    2    0    0 -0.30944104875E+02  0.33883588951E+02 -0.51529882513E+03  0.53222505992E+03  0.12500000000E+03 0.  0.
         25    1    1    2    0    0 -0.11052627270E+03 -0.10054906407E+03 -0.19968260043E+02  0.19583131173E+03  0.12500000000E+03 0.  0.
</event>
<event>
 5    0  0.5634041E-005  0.2515698E+03  0.7546771E-02  0.1112317E+00
         21   -1    0    0  502  501  0.00000000000E+00  0.00000000000E+00  0.20836710101E+03  0.20836710101E+03  0.00000000000E+00 0. -1.
         21   -1    0    0  501  502 -0.00000000000E+00 -0.00000000000E+00 -0.30373007109E+03  0.30373007109E+03  0.00000000000E+00 0. -1.
         25    1    1    2    0    0  0.14478931332E+03 -0.15854015937E+02 -0.25180905478E+02  0.19358298757E+03  0.12500000000E+03 0.  0.
         25    1    1    2    0    0 -0.61598482798E+02 -0.95102778964E+01 -0.88166804653E+02  0.16517628132E+03  0.12500000000E+03 0.  0.
         25    1    1    2    0    0 -0.83190830527E+02  0.25364293833E+02  0.17984740052E+02  0.15333790321E+03  0.12500000000E+03 0.  0.
</event>
<event>
 5    0  0.5634041E-005  0.5138883E+03  0.7546771E-02  0.1010216E+00
         21   -1    0    0  502  501  0.00000000000E+00  0.00000000000E+00  0.21140173260E+04  0.21140173260E+04  0.00000000000E+00 0. -1.
         21   -1    0    0  501  502 -0.00000000000E+00 -0.00000000000E+00 -0.12491913284E+03  0.12491913284E+03  0.00000000000E+00 0. -1.
         25    1    1    2    0    0  0.20398697674E+03  0.30431189436E+02  0.72519005323E+02  0.25183476747E+03  0.12500000000E+03 0.  0.
         25    1    1    2    0    0 -0.67839327536E+02 -0.19203861358E+03  0.13286365462E+04  0.13499559531E+04  0.12500000000E+03 0.  0.
         25    1    1    2    0    0 -0.13614764921E+03  0.16160742415E+03  0.58794264159E+03  0.63714573822E+03  0.12500000000E+03 0.  0.
</event>
<event>
 5    0  0.5634041E-005  0.4585643E+03  0.7546771E-02  0.1025198E+00
         21   -1    0    0  502  501  0.00000000000E+00  0.00000000000E+00  0.10889573424E+04  0.10889573424E+04  0.00000000000E+00 0.  1.
         21   -1    0    0  501  502 -0.00000000000E+00 -0.00000000000E+00 -0.19310325145E+03  0.19310325145E+03  0.00000000000E+00 0.  1.
         25    1    1    2    0    0  0.25208848459E+02 -0.94849454037E+02  0.26576653771E+03  0.30965909891E+03  0.12500000000E+03 0.  0.
         25    1    1    2    0    0  0.12824746650E+03  0.26174563359E+03  0.63897304100E+03  0.71335106119E+03  0.12500000000E+03 0.  0.
         25    1    1    2    0    0 -0.15345631495E+03 -0.16689617955E+03 -0.88854877360E+01  0.25905043378E+03  0.12500000000E+03 0.  0.
</event>
<event>
 5    0  0.5634041E-005  0.2212148E+03  0.7546771E-02  0.1132981E+00
         21   -1    0    0  502  501  0.00000000000E+00  0.00000000000E+00  0.12912627197E+03  0.12912627197E+03  0.00000000000E+00 0. -1.
         21   -1    0    0  501  502 -0.00000000000E+00 -0.00000000000E+00 -0.37897773645E+03  0.37897773645E+03  0.00000000000E+00 0. -1.
         25    1    1    2    0    0  0.50322679692E+02  0.63904662496E+02 -0.16838936950E+03  0.22493589696E+03  0.12500000000E+03 0.  0.
         25    1    1    2    0    0 -0.39749349149E+02 -0.48408712039E+02 -0.69689756735E+02  0.15622124168E+03  0.12500000000E+03 0.  0.
         25    1    1    2    0    0 -0.10573330543E+02 -0.15495950456E+02 -0.11772338245E+02  0.12694686978E+03  0.12500000000E+03 0.  0.
</event>
<event>
 5    0  0.5634041E-005  0.4439880E+03  0.7546771E-02  0.1029530E+00
         21   -1    0    0  502  501  0.00000000000E+00  0.00000000000E+00  0.48599927657E+03  0.48599927657E+03  0.00000000000E+00 0. -1.
         21   -1    0    0  501  502 -0.00000000000E+00 -0.00000000000E+00 -0.40560839250E+03  0.40560839250E+03  0.00000000000E+00 0. -1.
         25    1    1    2    0    0  0.19413599888E+03  0.33935886755E+02 -0.28925817841E+03  0.37166614622E+03  0.12500000000E+03 0.  0.
         25    1    1    2    0    0 -0.12524532049E+03 -0.25316546856E+02  0.77803174205E+02  0.19495038283E+03  0.12500000000E+03 0.  0.
         25    1    1    2    0    0 -0.68890678396E+02 -0.86193398983E+01  0.29184588827E+03  0.32499114002E+03  0.12500000000E+03 0.  0.
</event>
<event>
 5    0  0.5634041E-005  0.2745733E+03  0.7546771E-02  0.1098690E+00
         21   -1    0    0  502  501  0.00000000000E+00  0.00000000000E+00  0.29256376556E+03  0.29256376556E+03  0.00000000000E+00 0.  1.
         21   -1    0    0  501  502 -0.00000000000E+00 -0.00000000000E+00 -0.25768916774E+03  0.25768916774E+03  0.00000000000E+00 0.  1.
         25    1    1    2    0    0 -0.76375905873E+02 -0.69858870197E+02  0.10855879493E+03  0.19525253571E+03  0.12500000000E+03 0.  0.
         25    1    1    2    0    0  0.91438813561E+02 -0.17413017823E+02  0.43863621539E+02  0.16190517938E+03  0.12500000000E+03 0.  0.
         25    1    1    2    0    0 -0.15062907688E+02  0.87271888020E+02 -0.11754781865E+03  0.19309521821E+03  0.12500000000E+03 0.  0.
</event>
<event>
 5    0  0.5634041E-005  0.3711661E+03  0.7546771E-02  0.1054248E+00
         21   -1    0    0  502  501  0.00000000000E+00  0.00000000000E+00  0.29421819640E+03  0.29421819640E+03  0.00000000000E+00 0. -1.
         21   -1    0    0  501  502 -0.00000000000E+00 -0.00000000000E+00 -0.46823838924E+03  0.46823838924E+03  0.00000000000E+00 0. -1.
         25    1    1    2    0    0 -0.45478223741E+02 -0.11048661303E+02  0.93537309861E+02  0.16298641074E+03  0.12500000000E+03 0.  0.
         25    1    1    2    0    0 -0.26206489969E+02  0.76322369020E+02  0.11333513353E+03  0.18703405204E+03  0.12500000000E+03 0.  0.
         25    1    1    2    0    0  0.71684713711E+02 -0.65273707717E+02 -0.38089263624E+03  0.41243612286E+03  0.12500000000E+03 0.  0.
</event>
<event>
 5    0  0.5634041E-005  0.2355953E+03  0.7546771E-02  0.1122762E+00
         21   -1    0    0  502  501  0.00000000000E+00  0.00000000000E+00  0.39489642784E+03  0.39489642784E+03  0.00000000000E+00 0.  1.
         21   -1    0    0  501  502 -0.00000000000E+00 -0.00000000000E+00 -0.14055621960E+03  0.14055621960E+03  0.00000000000E+00 0.  1.
         25    1    1    2    0    0  0.11741214916E+03 -0.18046318581E+02  0.44197483394E+02  0.17801601030E+03  0.12500000000E+03 0.  0.
         25    1    1    2    0    0 -0.93717475207E+02 -0.11317329314E+02  0.13500191370E+03  0.20678869361E+03  0.12500000000E+03 0.  0.
         25    1    1    2    0    0 -0.23694673955E+02  0.29363647895E+02  0.75140811141E+02  0.15064794353E+03  0.12500000000E+03 0.  0.
</event>
<event>
 5    0  0.5634041E-005  0.5297398E+03  0.7546771E-02  0.1006295E+00
         21   -1    0    0  502  501  0.00000000000E+00  0.00000000000E+00  0.41797917265E+03  0.41797917265E+03  0.00000000000E+00 0. -1.
         21   -1    0    0  501  502 -0.00000000000E+00 -0.00000000000E+00 -0.67138336627E+03  0.67138336627E+03  0.00000000000E+00 0. -1.
         25    1    1    2    0    0  0.18419097058E+02  0.33591614228E+03 -0.25769635817E+03  0.44182726352E+03  0.12500000000E+03 0.  0.
         25    1    1    2    0    0  0.60741359808E+02 -0.56469107452E+02 -0.21541309185E+03  0.26249966291E+03  0.12500000000E+03 0.  0.
         25    1    1    2    0    0 -0.79160456866E+02 -0.27944703483E+03  0.21970525639E+03  0.38503561249E+03  0.12500000000E+03 0.  0.
</event>
<event>
 5    0  0.5634041E-005  0.3051149E+03  0.7546771E-02  0.1082711E+00
         21   -1    0    0  502  501  0.00000000000E+00  0.00000000000E+00  0.11834790168E+03  0.11834790168E+03  0.00000000000E+00 0.  1.
         21   -1    0    0  501  502 -0.00000000000E+00 -0.00000000000E+00 -0.78662249691E+03  0.78662249691E+03  0.00000000000E+00 0.  1.
         25    1    1    2    0    0 -0.99207819416E+02  0.12824649731E+03 -0.17444004933E+03  0.26896781651E+03  0.12500000000E+03 0.  0.
         25    1    1    2    0    0 -0.42132438396E+02  0.36020602411E+02 -0.25900126683E+03  0.29288100379E+03  0.12500000000E+03 0.  0.
         25    1    1    2    0    0  0.14134025781E+03 -0.16426709972E+03 -0.23483327907E+03  0.34312157829E+03  0.12500000000E+03 0.  0.
</event>
<event>
 5    0  0.5634041E-005  0.2516159E+03  0.7546771E-02  0.1112288E+00
         21   -1    0    0  502  501  0.00000000000E+00  0.00000000000E+00  0.37025536398E+02  0.37025536398E+02  0.00000000000E+00 0.  1.
         21   -1    0    0  501  502 -0.00000000000E+00 -0.00000000000E+00 -0.17099155622E+04  0.17099155622E+04  0.00000000000E+00 0.  1.
         25    1    1    2    0    0  0.59818064253E+02 -0.14421490536E+03 -0.71267470223E+03  0.74020697845E+03  0.12500000000E+03 0.  0.
         25    1    1    2    0    0 -0.46376737146E+02  0.76369978394E+02 -0.39735064404E+03  0.42602313278E+03  0.12500000000E+03 0.  0.
         25    1    1    2    0    0 -0.13441327107E+02  0.67844926963E+02 -0.56286467955E+03  0.58071098739E+03  0.12500000000E+03 0.  0.
</event>
<event>
 5    0  0.5634041E-005  0.4021023E+03  0.7546771E-02  0.1043054E+00
         21   -1    0    0  502  501  0.00000000000E+00  0.00000000000E+00  0.14411212463E+03  0.14411212463E+03  0.00000000000E+00 0. -1.
         21   -1    0    0  501  502 -0.00000000000E+00 -0.00000000000E+00 -0.11219478553E+04  0.11219478553E+04  0.00000000000E+00 0. -1.
         25    1    1    2    0    0  0.23170363033E+03 -0.16215922020E+01 -0.15871337401E+03  0.30741525167E+03  0.12500000000E+03 0.  0.
         25    1    1    2    0    0  0.13072870725E+02  0.13647466524E+03 -0.23756484772E+03  0.30142709081E+03  0.12500000000E+03 0.  0.
         25    1    1    2    0    0 -0.24477650106E+03 -0.13485307304E+03 -0.58155750895E+03  0.65721763747E+03  0.12500000000E+03 0.  0.
</event>
<event>
 5    0  0.5634041E-005  0.2381294E+03  0.7546771E-02  0.1121045E+00
         21   -1    0    0  502  501  0.00000000000E+00  0.00000000000E+00  0.75770400170E+03  0.75770400170E+03  0.00000000000E+00 0.  1.
         21   -1    0    0  501  502 -0.00000000000E+00 -0.00000000000E+00 -0.74838719297E+02  0.74838719297E+02  0.00000000000E+00 0.  1.
         25    1    1    2    0    0 -0.52936450811E+02 -0.59033853055E+01  0.92598952958E+02  0.16442835483E+03  0.12500000000E+03 0.  0.
         25    1    1    2    0    0  0.38244249478E+02 -0.86460986967E+02  0.30597467110E+03  0.34377845226E+03  0.12500000000E+03 0.  0.
         25    1    1    2    0    0  0.14692201333E+02  0.92364372273E+02  0.28429165835E+03  0.32433591391E+03  0.12500000000E+03 0.  0.
</event>
<event>
 5    0  0.5634041E-005  0.2930361E+03  0.7546771E-02  0.1088775E+00
         21   -1    0    0  502  501  0.00000000000E+00  0.00000000000E+00  0.26156162457E+03  0.26156162457E+03  0.00000000000E+00 0.  1.
         21   -1    0    0  501  502 -0.00000000000E+00 -0.00000000000E+00 -0.32829797796E+03  0.32829797796E+03  0.00000000000E+00 0.  1.
         25    1    1    2    0    0 -0.10690867015E+03  0.11535240403E+03 -0.16273493536E+03  0.25854071257E+03  0.12500000000E+03 0.  0.
         25    1    1    2    0    0  0.37649638042E+02 -0.40616044168E+02 -0.11974742984E+02  0.13724267834E+03  0.12500000000E+03 0.  0.
         25    1    1    2    0    0  0.69259032108E+02 -0.74736359862E+02  0.10797332496E+03  0.19407621162E+03  0.12500000000E+03 0.  0.
</event>
<event>
 5    0  0.5634041E-005  0.4112526E+03  0.7546771E-02  0.1039951E+00
         21   -1    0    0  502  501  0.00000000000E+00  0.00000000000E+00  0.24147344694E+04  0.24147344694E+04  0.00000000000E+00 0.  1.
         21   -1    0    0  501  502 -0.00000000000E+00 -0.00000000000E+00 -0.70040299661E+02  0.70040299661E+02  0.00000000000E+00 0.  1.
         25    1    1    2    0    0 -0.21574875363E+03  0.64000446481E+02  0.27053837689E+03  0.37344289418E+03  0.12500000000E+03 0.  0.
         25    1    1    2    0    0  0.72409155137E+02 -0.10867603456E+03  0.68268810131E+03  0.70621640445E+03  0.12500000000E+03 0.  0.
         25    1    1    2    0    0  0.14333959849E+03  0.44675588081E+02  0.13914676915E+04  0.14051154704E+04  0.12500000000E+03 0.  0.
</event>
<event>
 5    0  0.5634041E-005  0.3738537E+03  0.7546771E-02  0.1053229E+00
         21   -1    0    0  502  501  0.00000000000E+00  0.00000000000E+00  0.33716121941E+03  0.33716121941E+03  0.00000000000E+00 0.  1.
         21   -1    0    0  501  502 -0.00000000000E+00 -0.00000000000E+00 -0.41453929766E+03  0.41453929766E+03  0.00000000000E+00 0.  1.
         25    1    1    2    0    0  0.14970349444E+03 -0.94631264492E+02 -0.15625183218E+03  0.26721872600E+03  0.12500000000E+03 0.  0.
         25    1    1    2    0    0 -0.17187116499E+02  0.14470399010E+03 -0.10671163008E+03  0.21965202871E+03  0.12500000000E+03 0.  0.
         25    1    1    2    0    0 -0.13251637794E+03 -0.50072725604E+02  0.18558538401E+03  0.26482976236E+03  0.12500000000E+03 0.  0.
</event>
<event>
 5    0  0.5634041E-005  0.6142623E+03  0.7546771E-02  0.9876250E-01
         21   -1    0    0  502  501  0.00000000000E+00  0.00000000000E+00  0.96320736280E+03  0.96320736280E+03  0.00000000000E+00 0.  1.
         21   -1    0    0  501  502 -0.00000000000E+00 -0.00000000000E+00 -0.39173103273E+03  0.39173103273E+03  0.00000000000E+00 0.  1.
         25    1    1    2    0    0 -0.25744584138E+03 -0.31229257180E+03 -0.18019499026E+03  0.46032623884E+03  0.12500000000E+03 0.  0.
         25    1    1    2    0    0  0.11168396790E+03  0.20523800231E+03  0.39619028007E+03  0.47664209246E+03  0.12500000000E+03 0.  0.
         25    1    1    2    0    0  0.14576187348E+03  0.10705456949E+03  0.35548104026E+03  0.41797006423E+03  0.12500000000E+03 0.  0.
</event>
<event>
 5    0  0.5634041E-005  0.3127334E+03  0.7546771E-02  0.1079043E+00
         21   -1    0    0  502  501  0.00000000000E+00  0.00000000000E+00  0.84446977774E+03  0.84446977774E+03  0.00000000000E+00 0.  1.
         21   -1    0    0  501  502 -0.00000000000E+00 -0.00000000000E+00 -0.11581488721E+03  0.11581488721E+03  0.00000000000E+00 0.  1.
         25    1    1    2    0    0  0.15599593468E+03  0.31491125261E+02  0.87853315448E+02  0.22061193903E+03  0.12500000000E+03 0.  0.
         25    1    1    2    0    0 -0.32688344403E+02 -0.11087337423E+03  0.23236297446E+03  0.28806073122E+03  0.12500000000E+03 0.  0.
         25    1    1    2    0    0 -0.12330759028E+03  0.79382248964E+02  0.40843860063E+03  0.45161199470E+03  0.12500000000E+03 0.  0.
</event>
<event>
 5    0  0.5740936E-005  0.2923791E+03  0.7546771E-02  0.1089113E+00
         21   -1    0    0  502  501  0.00000000000E+00  0.00000000000E+00  0.17144272570E+03  0.17144272570E+03  0.00000000000E+00 0. -1.
         21   -1    0    0  501  502 -0.00000000000E+00 -0.00000000000E+00 -0.49862461579E+03  0.49862461579E+03  0.00000000000E+00 0. -1.
         25    1    1    2    0    0 -0.10839973091E+03 -0.22110429412E+02 -0.70933313049E+02  0.18137229019E+03  0.12500000000E+03 0.  0.
         25    1    1    2    0    0  0.33927508092E+02  0.15128300349E+03 -0.50374348321E+02  0.20542686757E+03  0.12500000000E+03 0.  0.
         25    1    1    2    0    0  0.74472222814E+02 -0.12917257408E+03 -0.20587422872E+03  0.28326818373E+03  0.12500000000E+03 0.  0.
</event>
<event>
 5    0  0.5634041E-005  0.2629039E+03  0.7546771E-02  0.1105411E+00
         21   -1    0    0  502  501  0.00000000000E+00  0.00000000000E+00  0.45693606709E+02  0.45693606709E+02  0.00000000000E+00 0.  1.
         21   -1    0    0  501  502 -0.00000000000E+00 -0.00000000000E+00 -0.15126500370E+04  0.15126500370E+04  0.00000000000E+00 0.  1.
         25    1    1    2    0    0  0.10343030210E+03  0.38947058174E+02 -0.34120771902E+03  0.37981891508E+03  0.12500000000E+03 0.  0.
         25    1    1    2    0    0 -0.12654208900E+03  0.49357346133E+02 -0.74478006251E+03  0.76731440063E+03  0.12500000000E+03 0.  0.
         25    1    1    2    0    0  0.23111786896E+02 -0.88304404306E+02 -0.38096864877E+03  0.41121032801E+03  0.12500000000E+03 0.  0.
</event>
<event>
 5    0  0.5634041E-005  0.2642081E+03  0.7546771E-02  0.1104641E+00
         21   -1    0    0  502  501  0.00000000000E+00  0.00000000000E+00  0.16973186736E+03  0.16973186736E+03  0.00000000000E+00 0. -1.
         21   -1    0    0  501  502 -0.00000000000E+00 -0.00000000000E+00 -0.41127163441E+03  0.41127163441E+03  0.00000000000E+00 0. -1.
         25    1    1    2    0    0 -0.64254152474E+02  0.21366546818E+02 -0.94528351825E+02  0.17072121934E+03  0.12500000000E+03 0.  0.
         25    1    1    2    0    0  0.59285519380E+02  0.90392176786E+02 -0.17445644641E+03  0.24030307973E+03  0.12500000000E+03 0.  0.
         25    1    1    2    0    0  0.49686330946E+01 -0.11175872360E+03  0.27445031190E+02  0.16997920271E+03  0.12500000000E+03 0.  0.
</event>
<event>
 5    0  0.5634041E-005  0.2822107E+03  0.7546771E-02  0.1094488E+00
         21   -1    0    0  502  501  0.00000000000E+00  0.00000000000E+00  0.33154196819E+03  0.33154196819E+03  0.00000000000E+00 0. -1.
         21   -1    0    0  501  502 -0.00000000000E+00 -0.00000000000E+00 -0.24021966043E+03  0.24021966043E+03  0.00000000000E+00 0. -1.
         25    1    1    2    0    0  0.27562471563E+02  0.91808722879E+02  0.16532861492E+03  0.22835735667E+03  0.12500000000E+03 0.  0.
         25    1    1    2    0    0  0.39844495080E+02 -0.33757479246E+02  0.51759735249E+02  0.14502145147E+03  0.12500000000E+03 0.  0.
         25    1    1    2    0    0 -0.67406966643E+02 -0.58051243633E+02 -0.12576604241E+03  0.19838282048E+03  0.12500000000E+03 0.  0.
</event>
<event>
 5    0  0.5634041E-005  0.4291779E+03  0.7546771E-02  0.1034120E+00
         21   -1    0    0  502  501  0.00000000000E+00  0.00000000000E+00  0.90049568481E+02  0.90049568481E+02  0.00000000000E+00 0. -1.
         21   -1    0    0  501  502 -0.00000000000E+00 -0.00000000000E+00 -0.20454697925E+04  0.20454697925E+04  0.00000000000E+00 0. -1.
         25    1    1    2    0    0 -0.34188473736E+03  0.14991211581E+03 -0.10209458087E+04  0.10942185158E+04  0.12500000000E+03 0.  0.
         25    1    1    2    0    0  0.12956380784E+03 -0.21782092552E+02 -0.38954776166E+03  0.42969023549E+03  0.12500000000E+03 0.  0.
         25    1    1    2    0    0  0.21232092952E+03 -0.12813002325E+03 -0.54492665367E+03  0.61161060967E+03  0.12500000000E+03 0.  0.
</event>
<event>
 5    0  0.5634041E-005  0.2051419E+03  0.7546771E-02  0.1145472E+00
         21   -1    0    0  502  501  0.00000000000E+00  0.00000000000E+00  0.77029175492E+03  0.77029175492E+03  0.00000000000E+00 0. -1.
         21   -1    0    0  501  502 -0.00000000000E+00 -0.00000000000E+00 -0.54632782462E+02  0.54632782462E+02  0.00000000000E+00 0. -1.
         25    1    1    2    0    0 -0.69608050558E+01 -0.56068856460E+00  0.13329370436E+03  0.18286874747E+03  0.12500000000E+03 0.  0.
         25    1    1    2    0    0 -0.19361195212E+01  0.47024009716E+02  0.33976792507E+03  0.36507841480E+03  0.12500000000E+03 0.  0.
         25    1    1    2    0    0  0.88969245770E+01 -0.46463321151E+02  0.24259734303E+03  0.27697737512E+03  0.12500000000E+03 0.  0.
</event>
<event>
 5    0  0.5634041E-005  0.2733925E+03  0.7546771E-02  0.1099354E+00
         21   -1    0    0  502  501  0.00000000000E+00  0.00000000000E+00  0.17602213985E+03  0.17602213985E+03  0.00000000000E+00 0. -1.
         21   -1    0    0  501  502 -0.00000000000E+00 -0.00000000000E+00 -0.42462540618E+03  0.42462540618E+03  0.00000000000E+00 0. -1.
         25    1    1    2    0    0  0.20983021150E+02 -0.13451758435E+03 -0.25582695438E+02  0.18658708954E+03  0.12500000000E+03 0.  0.
         25    1    1    2    0    0  0.35134799905E+02  0.89167117529E+02 -0.11422214948E+02  0.15792623597E+03  0.12500000000E+03 0.  0.
         25    1    1    2    0    0 -0.56117821055E+02  0.45350466821E+02 -0.21159835595E+03  0.25613422052E+03  0.12500000000E+03 0.  0.
</event>
<event>
 5    0  0.5634041E-005  0.3266792E+03  0.7546771E-02  0.1072616E+00
         21   -1    0    0  502  501  0.00000000000E+00  0.00000000000E+00  0.34846868471E+03  0.34846868471E+03  0.00000000000E+00 0.  1.
         21   -1    0    0  501  502 -0.00000000000E+00 -0.00000000000E+00 -0.30625219287E+03  0.30625219287E+03  0.00000000000E+00 0. -1.
         25    1    1    2    0    0 -0.36317800743E+02 -0.10492285996E+03  0.13386562672E+03  0.21417935290E+03  0.12500000000E+03 0.  0.
         25    1    1    2    0    0  0.93979298795E+02  0.55451694797E+02  0.10432165731E+03  0.19599746744E+03  0.12500000000E+03 0.  0.
         25    1    1    2    0    0 -0.57661498052E+02  0.49471165160E+02 -0.19597079219E+03  0.24454405724E+03  0.12500000000E+03 0.  0.
</event>
<event>
 5    0  0.5634041E-005  0.2084081E+03  0.7546771E-02  0.1142833E+00
         21   -1    0    0  502  501  0.00000000000E+00  0.00000000000E+00  0.10969716088E+03  0.10969716088E+03  0.00000000000E+00 0.  1.
         21   -1    0    0  501  502 -0.00000000000E+00 -0.00000000000E+00 -0.39594404087E+03  0.39594404087E+03  0.00000000000E+00 0.  1.
         25    1    1    2    0    0  0.10548038174E+02 -0.82145306293E+02 -0.11465605575E+03  0.18875943308E+03  0.12500000000E+03 0.  0.
         25    1    1    2    0    0 -0.23777648506E+02  0.37301311466E+02 -0.93626048663E+02  0.16231944244E+03  0.12500000000E+03 0.  0.
         25    1    1    2    0    0  0.13229610332E+02  0.44843994827E+02 -0.77964775571E+02  0.15456232624E+03  0.12500000000E+03 0.  0.
</event>
<event>
 5    0  0.5634041E-005  0.2548092E+03  0.7546771E-02  0.1110303E+00
         21   -1    0    0  502  501  0.00000000000E+00  0.00000000000E+00  0.72875092730E+02  0.72875092730E+02  0.00000000000E+00 0. -1.
         21   -1    0    0  501  502 -0.00000000000E+00 -0.00000000000E+00 -0.89094557864E+03  0.89094557864E+03  0.00000000000E+00 0. -1.
         25    1    1    2    0    0  0.91296674396E+02  0.63041046557E+02 -0.47486800433E+03  0.50342216662E+03  0.12500000000E+03 0.  0.
         25    1    1    2    0    0 -0.52136516237E+02 -0.13866313304E+02 -0.27024744740E+03  0.30260398841E+03  0.12500000000E+03 0.  0.
         25    1    1    2    0    0 -0.39160158158E+02 -0.49174733253E+02 -0.72955034178E+02  0.15779451635E+03  0.12500000000E+03 0.  0.
</event>
<event>
 5    0  0.5634041E-005  0.4571777E+03  0.7546771E-02  0.1025603E+00
         21   -1    0    0  502  501  0.00000000000E+00  0.00000000000E+00  0.67302013059E+03  0.67302013059E+03  0.00000000000E+00 0. -1.
         21   -1    0    0  501  502 -0.00000000000E+00 -0.00000000000E+00 -0.31055746749E+03  0.31055746749E+03  0.00000000000E+00 0. -1.
         25    1    1    2    0    0 -0.11228895889E+03  0.11580705487E+03 -0.13838429609E+02  0.20453993835E+03  0.12500000000E+03 0.  0.
         25    1    1    2    0    0  0.21228656985E+03  0.89305269360E+02 -0.62047372559E+02  0.26928775560E+03  0.12500000000E+03 0.  0.
         25    1    1    2    0    0 -0.99997610964E+02 -0.20511232423E+03  0.43834846527E+03  0.50974990412E+03  0.12500000000E+03 0.  0.
</event>
<event>
 5    0  0.5634041E-005  0.2830928E+03  0.7546771E-02  0.1094012E+00
         21   -1    0    0  502  501  0.00000000000E+00  0.00000000000E+00  0.52071403263E+03  0.52071403263E+03  0.00000000000E+00 0.  1.
         21   -1    0    0  501  502 -0.00000000000E+00 -0.00000000000E+00 -0.15390698880E+03  0.15390698880E+03  0.00000000000E+00 0.  1.
         25    1    1    2    0    0 -0.66497032512E+02  0.13913143642E+03  0.54166982138E+02  0.20576314997E+03  0.12500000000E+03 0.  0.
         25    1    1    2    0    0  0.11535064775E+03 -0.12283478488E+03  0.22552912810E+03  0.30803010232E+03  0.12500000000E+03 0.  0.
         25    1    1    2    0    0 -0.48853615241E+02 -0.16296651540E+02  0.87110933594E+02  0.16082776914E+03  0.12500000000E+03 0.  0.
</event>
<event>
 5    0  0.5634041E-005  0.4755100E+03  0.7546771E-02  0.1020376E+00
         21   -1    0    0  502  501  0.00000000000E+00  0.00000000000E+00  0.80131422234E+03  0.80131422234E+03  0.00000000000E+00 0. -1.
         21   -1    0    0  501  502 -0.00000000000E+00 -0.00000000000E+00 -0.28217371020E+03  0.28217371020E+03  0.00000000000E+00 0. -1.
         25    1    1    2    0    0 -0.16838047808E+03  0.12860244337E+03  0.19111355992E+03  0.31151238599E+03  0.12500000000E+03 0.  0.
         25    1    1    2    0    0  0.26108639781E+02 -0.22318907894E+01  0.48101019248E+03  0.49767705159E+03  0.12500000000E+03 0.  0.
         25    1    1    2    0    0  0.14227183830E+03 -0.12637055259E+03 -0.15298324027E+03  0.27429849496E+03  0.12500000000E+03 0.  0.
</event>
<event>
 5    0  0.5634041E-005  0.4768458E+03  0.7546771E-02  0.1020006E+00
         21   -1    0    0  502  501  0.00000000000E+00  0.00000000000E+00  0.25407430380E+03  0.25407430380E+03  0.00000000000E+00 0.  1.
         21   -1    0    0  501  502 -0.00000000000E+00 -0.00000000000E+00 -0.89494258443E+03  0.89494258443E+03  0.00000000000E+00 0.  1.
         25    1    1    2    0    0 -0.11773006153E+03 -0.97921937988E+01 -0.50401191176E+03  0.53254977386E+03  0.12500000000E+03 0.  0.
         25    1    1    2    0    0 -0.74398238492E+02  0.23569631917E+02  0.17526146541E+03  0.22898079984E+03  0.12500000000E+03 0.  0.
         25    1    1    2    0    0  0.19212830002E+03 -0.13777438118E+02 -0.31211783428E+03  0.38748631453E+03  0.12500000000E+03 0.  0.
</event>
<event>
 5    0  0.5634041E-005  0.2959093E+03  0.7546771E-02  0.1087304E+00
         21   -1    0    0  502  501  0.00000000000E+00  0.00000000000E+00  0.72849833793E+03  0.72849833793E+03  0.00000000000E+00 0.  1.
         21   -1    0    0  501  502 -0.00000000000E+00 -0.00000000000E+00 -0.12019566500E+03  0.12019566500E+03  0.00000000000E+00 0.  1.
         25    1    1    2    0    0 -0.35220699824E+02 -0.18195851079E+02 -0.34047931689E+02  0.13548375676E+03  0.12500000000E+03 0.  0.
         25    1    1    2    0    0  0.40536487170E+02 -0.33212100624E+01  0.12818610450E+03  0.18360532295E+03  0.12500000000E+03 0.  0.
         25    1    1    2    0    0 -0.53157873458E+01  0.21517061142E+02  0.51416450012E+03  0.52960492322E+03  0.12500000000E+03 0.  0.
</event>
<event>
 5    0  0.5879742E-005  0.3106399E+03  0.7546771E-02  0.1080040E+00
         21   -1    0    0  502  501  0.00000000000E+00  0.00000000000E+00  0.45275141921E+03  0.45275141921E+03  0.00000000000E+00 0.  1.
         21   -1    0    0  501  502 -0.00000000000E+00 -0.00000000000E+00 -0.21313487405E+03  0.21313487405E+03  0.00000000000E+00 0.  1.
         25    1    1    2    0    0  0.50367192792E+02 -0.27956475513E+02 -0.81167072974E+02  0.15978583281E+03  0.12500000000E+03 0.  0.
         25    1    1    2    0    0 -0.11217911818E+03  0.13098863519E+03  0.21682039375E+03  0.30393792170E+03  0.12500000000E+03 0.  0.
         25    1    1    2    0    0  0.61811925387E+02 -0.10303215968E+03  0.10396322439E+03  0.20216253875E+03  0.12500000000E+03 0.  0.
</event>
<event>
 5    0  0.5634041E-005  0.2378465E+03  0.7546771E-02  0.1121236E+00
         21   -1    0    0  502  501  0.00000000000E+00  0.00000000000E+00  0.62639821766E+03  0.62639821766E+03  0.00000000000E+00 0. -1.
         21   -1    0    0  501  502 -0.00000000000E+00 -0.00000000000E+00 -0.90311507223E+02  0.90311507223E+02  0.00000000000E+00 0. -1.
         25    1    1    2    0    0  0.97622605538E+02  0.66717556765E+02  0.18703551097E+03  0.25414304605E+03  0.12500000000E+03 0.  0.
         25    1    1    2    0    0 -0.36222683393E+02  0.29146588880E+02  0.17355399293E+03  0.21887803658E+03  0.12500000000E+03 0.  0.
         25    1    1    2    0    0 -0.61399922145E+02 -0.95864145646E+02  0.17549720654E+03  0.24368864225E+03  0.12500000000E+03 0.  0.
</event>
<event>
 5    0  0.5634041E-005  0.3427002E+03  0.7546771E-02  0.1065652E+00
         21   -1    0    0  502  501  0.00000000000E+00  0.00000000000E+00  0.19092415575E+03  0.19092415575E+03  0.00000000000E+00 0.  1.
         21   -1    0    0  501  502 -0.00000000000E+00 -0.00000000000E+00 -0.61513117533E+03  0.61513117533E+03  0.00000000000E+00 0.  1.
         25    1    1    2    0    0 -0.12173105133E+03 -0.15260657270E+03 -0.12635254160E+03  0.26400223419E+03  0.12500000000E+03 0.  0.
         25    1    1    2    0    0 -0.28013746350E+02  0.18033445386E+03 -0.52430717901E+02  0.22733074014E+03  0.12500000000E+03 0.  0.
         25    1    1    2    0    0  0.14974479768E+03 -0.27727881157E+02 -0.24542376008E+03  0.31472235675E+03  0.12500000000E+03 0.  0.
</event>
<event>
 5    0  0.5634041E-005  0.2725209E+03  0.7546771E-02  0.1099845E+00
         21   -1    0    0  502  501  0.00000000000E+00  0.00000000000E+00  0.77662028399E+02  0.77662028399E+02  0.00000000000E+00 0. -1.
         21   -1    0    0  501  502 -0.00000000000E+00 -0.00000000000E+00 -0.95629273196E+03  0.95629273196E+03  0.00000000000E+00 0. -1.
         25    1    1    2    0    0  0.24225338482E+02 -0.93124807553E+02 -0.15739624145E+03  0.22284001802E+03  0.12500000000E+03 0.  0.
         25    1    1    2    0    0 -0.85219162419E+02  0.61378983360E+02 -0.14788686315E+03  0.22028438332E+03  0.12500000000E+03 0.  0.
         25    1    1    2    0    0  0.60993823936E+02  0.31745824193E+02 -0.57334759896E+03  0.59083035902E+03  0.12500000000E+03 0.  0.
</event>
<event>
 5    0  0.5634041E-005  0.3377651E+03  0.7546771E-02  0.1067752E+00
         21   -1    0    0  502  501  0.00000000000E+00  0.00000000000E+00  0.93879349062E+02  0.93879349062E+02  0.00000000000E+00 0.  1.
         21   -1    0    0  501  502 -0.00000000000E+00 -0.00000000000E+00 -0.12152327590E+04  0.12152327590E+04  0.00000000000E+00 0.  1.
         25    1    1    2    0    0 -0.36482622389E+02  0.37090123311E+02 -0.25371773872E+03  0.28758363988E+03  0.12500000000E+03 0.  0.
         25    1    1    2    0    0  0.22772944512E+03 -0.12158483356E+03 -0.55948445341E+03  0.62872205746E+03  0.12500000000E+03 0.  0.
         25    1    1    2    0    0 -0.19124682273E+03  0.84494710245E+02 -0.30815121776E+03  0.39280641068E+03  0.12500000000E+03 0.  0.
</event>
<event>
 5    0  0.5634041E-005  0.2679986E+03  0.7546771E-02  0.1102431E+00
         21   -1    0    0  502  501  0.00000000000E+00  0.00000000000E+00  0.32279712600E+03  0.32279712600E+03  0.00000000000E+00 0.  1.
         21   -1    0    0  501  502 -0.00000000000E+00 -0.00000000000E+00 -0.22250273576E+03  0.22250273576E+03  0.00000000000E+00 0.  1.
         25    1    1    2    0    0 -0.14235814966E+02 -0.34165680956E+01 -0.77789777308E+02  0.14795465798E+03  0.12500000000E+03 0.  0.
         25    1    1    2    0    0  0.18516963287E+02  0.38466752888E+02  0.22360742178E+03  0.25970723533E+03  0.12500000000E+03 0.  0.
         25    1    1    2    0    0 -0.42811483209E+01 -0.35050184792E+02 -0.45523254226E+02  0.13763796845E+03  0.12500000000E+03 0.  0.
</event>
<event>
 5    0  0.5634041E-005  0.2545294E+03  0.7546771E-02  0.1110475E+00
         21   -1    0    0  502  501  0.00000000000E+00  0.00000000000E+00  0.11910523468E+03  0.11910523468E+03  0.00000000000E+00 0. -1.
         21   -1    0    0  501  502 -0.00000000000E+00 -0.00000000000E+00 -0.54393256743E+03  0.54393256743E+03  0.00000000000E+00 0. -1.
         25    1    1    2    0    0 -0.19538857875E+02 -0.12527356375E+02 -0.16851954150E+03  0.21109840713E+03  0.12500000000E+03 0.  0.
         25    1    1    2    0    0 -0.59014398393E+02  0.12397158650E+03 -0.10761406720E+03  0.21460997399E+03  0.12500000000E+03 0.  0.
         25    1    1    2    0    0  0.78553256269E+02 -0.11144423012E+03 -0.14869372405E+03  0.23732942099E+03  0.12500000000E+03 0.  0.
</event>
<event>
 5    0  0.6422548E-005  0.2829517E+03  0.7546771E-02  0.1094088E+00
         21   -1    0    0  502  501  0.00000000000E+00  0.00000000000E+00  0.39041366561E+03  0.39041366561E+03  0.00000000000E+00 0.  1.
         21   -1    0    0  501  502 -0.00000000000E+00 -0.00000000000E+00 -0.20506880628E+03  0.20506880628E+03  0.00000000000E+00 0.  1.
         25    1    1    2    0    0  0.77716430851E+02 -0.90549089022E+02  0.84969784099E+02  0.19257166291E+03  0.12500000000E+03 0.  0.
         25    1    1    2    0    0 -0.12444195276E+03  0.12150406695E+03 -0.26968864394E+02  0.21587347577E+03  0.12500000000E+03 0.  0.
         25    1    1    2    0    0  0.46725521913E+02 -0.30954977928E+02  0.12734393962E+03  0.18703733321E+03  0.12500000000E+03 0.  0.
</event>
<event>
 5    0  0.5634041E-005  0.3201305E+03  0.7546771E-02  0.1075589E+00
         21   -1    0    0  502  501  0.00000000000E+00  0.00000000000E+00  0.52403577162E+02  0.52403577162E+02  0.00000000000E+00 0. -1.
         21   -1    0    0  501  502 -0.00000000000E+00 -0.00000000000E+00 -0.19556597008E+04  0.19556597008E+04  0.00000000000E+00 0. -1.
         25    1    1    2    0    0 -0.12791438325E+03 -0.60659981704E+02 -0.48182178711E+03  0.51751227749E+03  0.12500000000E+03 0.  0.
         25    1    1    2    0    0 -0.52784970556E+02  0.15302774858E+03 -0.77652500729E+03  0.80300674461E+03  0.12500000000E+03 0.  0.
         25    1    1    2    0    0  0.18069935380E+03 -0.92367766875E+02 -0.64490932928E+03  0.68754425589E+03  0.12500000000E+03 0.  0.
</event>
<event>
 5    0  0.5634041E-005  0.3643296E+03  0.7546771E-02  0.1056883E+00
         21   -1    0    0  502  501  0.00000000000E+00  0.00000000000E+00  0.16587115534E+03  0.16587115534E+03  0.00000000000E+00 0. -1.
         21   -1    0    0  501  502 -0.00000000000E+00 -0.00000000000E+00 -0.80023582223E+03  0.80023582223E+03  0.00000000000E+00 0. -1.
         25    1    1    2    0    0  0.74204673374E+02 -0.23194408278E+03 -0.13509676488E+03  0.30525485577E+03  0.12500000000E+03 0.  0.
         25    1    1    2    0    0  0.51944253565E+02  0.11772646655E+03 -0.90866193976E+02  0.20109547885E+03  0.12500000000E+03 0.  0.
         25    1    1    2    0    0 -0.12614892694E+03  0.11421761623E+03 -0.40840170803E+03  0.45975664296E+03  0.12500000000E+03 0.  0.
</event>
<event>
 5    0  0.5634041E-005  0.2484449E+03  0.7546771E-02  0.1114292E+00
         21   -1    0    0  502  501  0.00000000000E+00  0.00000000000E+00  0.62165056804E+02  0.62165056804E+02  0.00000000000E+00 0.  1.
         21   -1    0    0  501  502 -0.00000000000E+00 -0.00000000000E+00 -0.99291928702E+03  0.99291928702E+03  0.00000000000E+00 0.  1.
         25    1    1    2    0    0 -0.11714874662E+03  0.36839904947E+02 -0.22827431868E+03  0.28777625336E+03  0.12500000000E+03 0.  0.
         25    1    1    2    0    0  0.12625129484E+03 -0.36349251324E+02 -0.37163348141E+03  0.41351795853E+03  0.12500000000E+03 0.  0.
         25    1    1    2    0    0 -0.91025482292E+01 -0.49065362332E+00 -0.33084643013E+03  0.35379013193E+03  0.12500000000E+03 0.  0.
</event>
<event>
 5    0  0.5634041E-005  0.3680847E+03  0.7546771E-02  0.1055428E+00
         21   -1    0    0  502  501  0.00000000000E+00  0.00000000000E+00  0.55392308756E+02  0.55392308756E+02  0.00000000000E+00 0.  1.
         21   -1    0    0  501  502 -0.00000000000E+00 -0.00000000000E+00 -0.24459411897E+04  0.24459411897E+04  0.00000000000E+00 0.  1.
         25    1    1    2    0    0 -0.84939105462E+02  0.87138816652E+02 -0.13912638590E+04  0.14021583186E+04  0.12500000000E+03 0.  0.
         25    1    1    2    0    0 -0.88102536956E+02  0.86096365045E+02 -0.48912191470E+03  0.51965362362E+03  0.12500000000E+03 0.  0.
         25    1    1    2    0    0  0.17304164242E+03 -0.17323518170E+03 -0.51016310728E+03  0.57952155630E+03  0.12500000000E+03 0.  0.
</event>
<event>
 5    0  0.5634041E-005  0.3200894E+03  0.7546771E-02  0.1075608E+00
         21   -1    0    0  502  501  0.00000000000E+00  0.00000000000E+00  0.18716733426E+04  0.18716733426E+04  0.00000000000E+00 0.  1.
         21   -1    0    0  501  502 -0.00000000000E+00 -0.00000000000E+00 -0.54740988552E+02  0.54740988552E+02  0.00000000000E+00 0.  1.
         25    1    1    2    0    0  0.80996271408E+01  0.94725895256E+02  0.23026754727E+03  0.27872341580E+03  0.12500000000E+03 0.  0.
         25    1    1    2    0    0  0.17257035636E+03 -0.34703330444E+02  0.72823664738E+03  0.75956465402E+03  0.12500000000E+03 0.  0.
         25    1    1    2    0    0 -0.18066998350E+03 -0.60022564812E+02  0.85842815943E+03  0.88812626137E+03  0.12500000000E+03 0.  0.
</event>
<event>
 5    0  0.5682353E-005  0.4461159E+03  0.7546771E-02  0.1028887E+00
         21   -1    0    0  502  501  0.00000000000E+00  0.00000000000E+00  0.33039192660E+03  0.33039192660E+03  0.00000000000E+00 0. -1.
         21   -1    0    0  501  502 -0.00000000000E+00 -0.00000000000E+00 -0.60237372416E+03  0.60237372416E+03  0.00000000000E+00 0. -1.
         25    1    1    2    0    0 -0.25920870338E+03  0.94403513009E+02 -0.25726131062E+02  0.30395395868E+03  0.12500000000E+03 0.  0.
         25    1    1    2    0    0  0.15223710014E+03  0.17401550361E+03 -0.94402097388E+02  0.27927457125E+03  0.12500000000E+03 0.  0.
         25    1    1    2    0    0  0.10697160325E+03 -0.26841901662E+03 -0.15185356911E+03  0.34953712083E+03  0.12500000000E+03 0.  0.
</event>
<event>
 5    0  0.5634041E-005  0.2938330E+03  0.7546771E-02  0.1088365E+00
         21   -1    0    0  502  501  0.00000000000E+00  0.00000000000E+00  0.41300785774E+03  0.41300785774E+03  0.00000000000E+00 0. -1.
         21   -1    0    0  501  502 -0.00000000000E+00 -0.00000000000E+00 -0.20904642828E+03  0.20904642828E+03  0.00000000000E+00 0. -1.
         25    1    1    2    0    0  0.14082229177E+02 -0.59717880761E+02  0.54981237278E+02  0.14970795207E+03  0.12500000000E+03 0.  0.
         25    1    1    2    0    0 -0.16327150182E+03  0.67720877907E+02 -0.15985865716E+02  0.21708120258E+03  0.12500000000E+03 0.  0.
         25    1    1    2    0    0  0.14918927264E+03 -0.80029971458E+01  0.16496605790E+03  0.25526513137E+03  0.12500000000E+03 0.  0.
</event>
<event>
 5    0  0.5634041E-005  0.3520177E+03  0.7546771E-02  0.1061790E+00
         21   -1    0    0  502  501  0.00000000000E+00  0.00000000000E+00  0.86924847002E+03  0.86924847002E+03  0.00000000000E+00 0. -1.
         21   -1    0    0  501  502 -0.00000000000E+00 -0.00000000000E+00 -0.14255588159E+03  0.14255588159E+03  0.00000000000E+00 0. -1.
         25    1    1    2    0    0 -0.97043371472E+02 -0.38333265446E+02  0.40735513163E+03  0.43869130201E+03  0.12500000000E+03 0.  0.
         25    1    1    2    0    0  0.98979038895E+02  0.44745929093E+01 -0.61426035463E+02  0.17092404733E+03  0.12500000000E+03 0.  0.
         25    1    1    2    0    0 -0.19356674236E+01  0.33858672536E+02  0.38076349226E+03  0.40218900227E+03  0.12500000000E+03 0.  0.
</event>
<event>
 5    0  0.5634041E-005  0.4243598E+03  0.7546771E-02  0.1035657E+00
         21   -1    0    0  502  501  0.00000000000E+00  0.00000000000E+00  0.17882414759E+03  0.17882414759E+03  0.00000000000E+00 0.  1.
         21   -1    0    0  501  502 -0.00000000000E+00 -0.00000000000E+00 -0.10070296592E+04  0.10070296592E+04  0.00000000000E+00 0.  1.
         25    1    1    2    0    0  0.51852681232E+02  0.26458576230E+03 -0.11415208461E+03  0.31835518621E+03  0.12500000000E+03 0.  0.
         25    1    1    2    0    0  0.97739831560E+02 -0.30868900703E+02 -0.39384961106E+03  0.42573287380E+03  0.12500000000E+03 0.  0.
         25    1    1    2    0    0 -0.14959251279E+03 -0.23371686160E+03 -0.32020381591E+03  0.44176574675E+03  0.12500000000E+03 0.  0.
</event>
<event>
 5    0  0.6473762E-005  0.3125642E+03  0.7546771E-02  0.1079123E+00
         21   -1    0    0  502  501  0.00000000000E+00  0.00000000000E+00  0.50846791772E+03  0.50846791772E+03  0.00000000000E+00 0.  1.
         21   -1    0    0  501  502 -0.00000000000E+00 -0.00000000000E+00 -0.19213870029E+03  0.19213870029E+03  0.00000000000E+00 0.  1.
         25    1    1    2    0    0  0.96270818771E+02  0.58315264502E+01 -0.41540965408E+02  0.16325663556E+03  0.12500000000E+03 0.  0.
         25    1    1    2    0    0 -0.18302670749E+03 -0.73143691704E+02  0.18947684650E+03  0.30062476719E+03  0.12500000000E+03 0.  0.
         25    1    1    2    0    0  0.86755888715E+02  0.67312165253E+02  0.16839333633E+03  0.23672521525E+03  0.12500000000E+03 0.  0.
</event>
<event>
 5    0  0.5634041E-005  0.3026080E+03  0.7546771E-02  0.1083944E+00
         21   -1    0    0  502  501  0.00000000000E+00  0.00000000000E+00  0.69744707796E+03  0.69744707796E+03  0.00000000000E+00 0. -1.
         21   -1    0    0  501  502 -0.00000000000E+00 -0.00000000000E+00 -0.13129539707E+03  0.13129539707E+03  0.00000000000E+00 0. -1.
         25    1    1    2    0    0 -0.16299991827E+03 -0.76211829105E+02  0.20257478701E+03  0.29839363361E+03  0.12500000000E+03 0.  0.
         25    1    1    2    0    0  0.46926878229E+02  0.79806322923E+01  0.12794830810E+02  0.13436714661E+03  0.12500000000E+03 0.  0.
         25    1    1    2    0    0  0.11607304004E+03  0.68231196813E+02  0.35078206308E+03  0.39598169480E+03  0.12500000000E+03 0.  0.
</event>
<event>
 5    0  0.5634041E-005  0.3223359E+03  0.7546771E-02  0.1074579E+00
         21   -1    0    0  502  501  0.00000000000E+00  0.00000000000E+00  0.47849011316E+03  0.47849011316E+03  0.00000000000E+00 0. -1.
         21   -1    0    0  501  502 -0.00000000000E+00 -0.00000000000E+00 -0.21714227126E+03  0.21714227126E+03  0.00000000000E+00 0. -1.
         25    1    1    2    0    0 -0.11513482482E+03 -0.37371958061E+02 -0.27964165691E+02  0.17623758310E+03  0.12500000000E+03 0.  0.
         25    1    1    2    0    0 -0.75285317391E+02  0.51733228348E+02  0.51255711424E+01  0.15490473656E+03  0.12500000000E+03 0.  0.
         25    1    1    2    0    0  0.19042014221E+03 -0.14361270287E+02  0.28418643645E+03  0.36449006476E+03  0.12500000000E+03 0.  0.
</event>
<event>
 5    0  0.5677745E-005  0.3117264E+03  0.7546771E-02  0.1079521E+00
         21   -1    0    0  502  501  0.00000000000E+00  0.00000000000E+00  0.14136551118E+03  0.14136551118E+03  0.00000000000E+00 0. -1.
         21   -1    0    0  501  502 -0.00000000000E+00 -0.00000000000E+00 -0.68739076231E+03  0.68739076231E+03  0.00000000000E+00 0. -1.
         25    1    1    2    0    0  0.59890420917E+02 -0.24191728812E+02 -0.33917900830E+01  0.14074305134E+03  0.12500000000E+03 0.  0.
         25    1    1    2    0    0  0.94411049569E+02 -0.98837090504E+02 -0.19280766333E+03  0.26736120096E+03  0.12500000000E+03 0.  0.
         25    1    1    2    0    0 -0.15430147049E+03  0.12302881932E+03 -0.34982579772E+03  0.42065202119E+03  0.12500000000E+03 0.  0.
</event>
<event>
 5    0  0.5634041E-005  0.3401832E+03  0.7546771E-02  0.1066718E+00
         21   -1    0    0  502  501  0.00000000000E+00  0.00000000000E+00  0.81711612260E+02  0.81711612260E+02  0.00000000000E+00 0.  1.
         21   -1    0    0  501  502 -0.00000000000E+00 -0.00000000000E+00 -0.14162569297E+04  0.14162569297E+04  0.00000000000E+00 0.  1.
         25    1    1    2    0    0  0.23184485037E+03  0.46666178590E+02 -0.91326749041E+03  0.95163663019E+03  0.12500000000E+03 0.  0.
         25    1    1    2    0    0 -0.14687399164E+03 -0.15178737663E+02 -0.23549032572E+03  0.30476721773E+03  0.12500000000E+03 0.  0.
         25    1    1    2    0    0 -0.84970858729E+02 -0.31487440927E+02 -0.18578750135E+03  0.24156469408E+03  0.12500000000E+03 0.  0.
</event>
<event>
 5    0  0.5634041E-005  0.3330651E+03  0.7546771E-02  0.1069789E+00
         21   -1    0    0  502  501  0.00000000000E+00  0.00000000000E+00  0.88076658552E+02  0.88076658552E+02  0.00000000000E+00 0.  1.
         21   -1    0    0  501  502 -0.00000000000E+00 -0.00000000000E+00 -0.12594975169E+04  0.12594975169E+04  0.00000000000E+00 0.  1.
         25    1    1    2    0    0 -0.76696311328E+02  0.11395258387E+03 -0.49881058923E+03  0.53226358082E+03  0.12500000000E+03 0.  0.
         25    1    1    2    0    0 -0.10307446950E+03  0.52335416824E+02 -0.16010757007E+03  0.23371516021E+03  0.12500000000E+03 0.  0.
         25    1    1    2    0    0  0.17977078083E+03 -0.16628800069E+03 -0.51250269910E+03  0.58159543447E+03  0.12500000000E+03 0.  0.
</event>
<event>
 5    0  0.5634041E-005  0.4919874E+03  0.7546771E-02  0.1015892E+00
         21   -1    0    0  502  501  0.00000000000E+00  0.00000000000E+00  0.34123870215E+03  0.34123870215E+03  0.00000000000E+00 0. -1.
         21   -1    0    0  501  502 -0.00000000000E+00 -0.00000000000E+00 -0.70933208935E+03  0.70933208935E+03  0.00000000000E+00 0.  1.
         25    1    1    2    0    0  0.18056562723E+03 -0.99871824615E+02 -0.80601434194E+02  0.25436178621E+03  0.12500000000E+03 0.  0.
         25    1    1    2    0    0 -0.63448967534E+02  0.38199276561E+03 -0.20679815048E+03  0.45643698305E+03  0.12500000000E+03 0.  0.
         25    1    1    2    0    0 -0.11711665970E+03 -0.28212094099E+03 -0.80693802524E+02  0.33977202223E+03  0.12500000000E+03 0.  0.
</event>
<event>
 5    0  0.5634041E-005  0.3372453E+03  0.7546771E-02  0.1067975E+00
         21   -1    0    0  502  501  0.00000000000E+00  0.00000000000E+00  0.85735547195E+03  0.85735547195E+03  0.00000000000E+00 0.  1.
         21   -1    0    0  501  502 -0.00000000000E+00 -0.00000000000E+00 -0.13265719276E+03  0.13265719276E+03  0.00000000000E+00 0.  1.
         25    1    1    2    0    0 -0.14665471448E+03  0.15884019078E+03  0.41748237952E+03  0.48647132361E+03  0.12500000000E+03 0.  0.
         25    1    1    2    0    0  0.37772867554E+02 -0.13809753993E+03  0.27358774431E+03  0.33312606307E+03  0.12500000000E+03 0.  0.
         25    1    1    2    0    0  0.10888184693E+03 -0.20742650847E+02  0.33628155357E+02  0.17041527803E+03  0.12500000000E+03 0.  0.
</event>
<event>
 5    0  0.5634041E-005  0.2418201E+03  0.7546771E-02  0.1118586E+00
         21   -1    0    0  502  501  0.00000000000E+00  0.00000000000E+00  0.45737328408E+03  0.45737328408E+03  0.00000000000E+00 0. -1.
         21   -1    0    0  501  502 -0.00000000000E+00 -0.00000000000E+00 -0.12785393264E+03  0.12785393264E+03  0.00000000000E+00 0. -1.
         25    1    1    2    0    0 -0.11448608923E+03  0.35147220507E+02  0.19912557303E+03  0.26385296203E+03  0.12500000000E+03 0.  0.
         25    1    1    2    0    0  0.29111945732E+02  0.25147794332E+02  0.56916156306E+02  0.14263367692E+03  0.12500000000E+03 0.  0.
         25    1    1    2    0    0  0.85374143499E+02 -0.60295014839E+02  0.73477622101E+02  0.17874057777E+03  0.12500000000E+03 0.  0.
</event>
<event>
 5    0  0.5634041E-005  0.5637025E+03  0.7546771E-02  0.9983712E-01
         21   -1    0    0  502  501  0.00000000000E+00  0.00000000000E+00  0.11067801200E+04  0.11067801200E+04  0.00000000000E+00 0.  1.
         21   -1    0    0  501  502 -0.00000000000E+00 -0.00000000000E+00 -0.28710360624E+03  0.28710360624E+03  0.00000000000E+00 0.  1.
         25    1    1    2    0    0 -0.15099441905E+02 -0.10112239975E+02  0.98721450412E+03  0.99526264257E+03  0.12500000000E+03 0.  0.
         25    1    1    2    0    0  0.36098823989E+02 -0.10045273950E+03 -0.16131611268E+03  0.23030798114E+03  0.12500000000E+03 0.  0.
         25    1    1    2    0    0 -0.20999382084E+02  0.11056497948E+03 -0.62218776399E+01  0.16831310257E+03  0.12500000000E+03 0.  0.
</event>
<event>
 5    0  0.5634041E-005  0.2538870E+03  0.7546771E-02  0.1110873E+00
         21   -1    0    0  502  501  0.00000000000E+00  0.00000000000E+00  0.84454451190E+02  0.84454451190E+02  0.00000000000E+00 0. -1.
         21   -1    0    0  501  502 -0.00000000000E+00 -0.00000000000E+00 -0.76323546463E+03  0.76323546463E+03  0.00000000000E+00 0. -1.
         25    1    1    2    0    0  0.36807395477E+01  0.13755692555E+03 -0.17590440368E+03  0.25593517703E+03  0.12500000000E+03 0.  0.
         25    1    1    2    0    0 -0.97840562966E+01 -0.10741833951E+03 -0.18046812767E+03  0.24459798144E+03  0.12500000000E+03 0.  0.
         25    1    1    2    0    0  0.61033167489E+01 -0.30138586035E+02 -0.32240848210E+03  0.34715675735E+03  0.12500000000E+03 0.  0.
</event>
<event>
 5    0  0.5634041E-005  0.3126821E+03  0.7546771E-02  0.1079067E+00
         21   -1    0    0  502  501  0.00000000000E+00  0.00000000000E+00  0.46505690361E+03  0.46505690361E+03  0.00000000000E+00 0.  1.
         21   -1    0    0  501  502 -0.00000000000E+00 -0.00000000000E+00 -0.21023248487E+03  0.21023248487E+03  0.00000000000E+00 0.  1.
         25    1    1    2    0    0  0.10978788826E+03 -0.60680068913E+02  0.18533513231E+03  0.25633876500E+03  0.12500000000E+03 0.  0.
         25    1    1    2    0    0 -0.10758090501E+03 -0.22517053982E+02  0.17025708878E+03  0.23810322367E+03  0.12500000000E+03 0.  0.
         25    1    1    2    0    0 -0.22069832488E+01  0.83197122895E+02 -0.10076780235E+03  0.18084739982E+03  0.12500000000E+03 0.  0.
</event>
<event>
 5    0  0.5634041E-005  0.4285533E+03  0.7546771E-02  0.1034318E+00
         21   -1    0    0  502  501  0.00000000000E+00  0.00000000000E+00  0.50373688797E+03  0.50373688797E+03  0.00000000000E+00 0. -1.
         21   -1    0    0  501  502 -0.00000000000E+00 -0.00000000000E+00 -0.36459097729E+03  0.36459097729E+03  0.00000000000E+00 0. -1.
         25    1    1    2    0    0 -0.28517777202E+03  0.11202265840E+03 -0.71154756924E+01  0.33098499610E+03  0.12500000000E+03 0.  0.
         25    1    1    2    0    0  0.15983436966E+02  0.42370378686E+02  0.15303255158E+03  0.20271823078E+03  0.12500000000E+03 0.  0.
         25    1    1    2    0    0  0.26919433506E+03 -0.15439303709E+03 -0.67711652150E+01  0.33462463837E+03  0.12500000000E+03 0.  0.
</event>
<event>
 5    0  0.5634041E-005  0.3601481E+03  0.7546771E-02  0.1058525E+00
         21   -1    0    0  502  501  0.00000000000E+00  0.00000000000E+00  0.93843066694E+02  0.93843066694E+02  0.00000000000E+00 0.  1.
         21   -1    0    0  501  502 -0.00000000000E+00 -0.00000000000E+00 -0.13821653111E+04  0.13821653111E+04  0.00000000000E+00 0.  1.
         25    1    1    2    0    0  0.62698375564E+02  0.74540056020E+02 -0.26004688463E+03  0.30452699134E+03  0.12500000000E+03 0.  0.
         25    1    1    2    0    0 -0.52164615005E+02 -0.83789628554E+02 -0.26040802072E+02  0.16138454785E+03  0.12500000000E+03 0.  0.
         25    1    1    2    0    0 -0.10533760559E+02  0.92495725344E+01 -0.10022345577E+04  0.10100968386E+04  0.12500000000E+03 0.  0.
</event>
<event>
 5    0  0.5634041E-005  0.2896558E+03  0.7546771E-02  0.1090529E+00
         21   -1    0    0  502  501  0.00000000000E+00  0.00000000000E+00  0.44369805772E+02  0.44369805772E+02  0.00000000000E+00 0.  1.
         21   -1    0    0  501  502 -0.00000000000E+00 -0.00000000000E+00 -0.18909368875E+04  0.18909368875E+04  0.00000000000E+00 0.  1.
         25    1    1    2    0    0 -0.83886169406E+02  0.49220859885E+02 -0.24525949159E+03  0.29195342211E+03  0.12500000000E+03 0.  0.
         25    1    1    2    0    0 -0.62601695993E+02  0.11219600092E+02 -0.37147212341E+03  0.39706597718E+03  0.12500000000E+03 0.  0.
         25    1    1    2    0    0  0.14648786540E+03 -0.60440459977E+02 -0.12298354667E+04  0.12462872940E+04  0.12500000000E+03 0.  0.
</event>
<event>
 5    0  0.5634041E-005  0.3624287E+03  0.7546771E-02  0.1057626E+00
         21   -1    0    0  502  501  0.00000000000E+00  0.00000000000E+00  0.10455340237E+04  0.10455340237E+04  0.00000000000E+00 0.  1.
         21   -1    0    0  501  502 -0.00000000000E+00 -0.00000000000E+00 -0.12563395326E+03  0.12563395326E+03  0.00000000000E+00 0.  1.
         25    1    1    2    0    0  0.10434073311E+03  0.18452151360E+03  0.35335265582E+03  0.43060222589E+03  0.12500000000E+03 0.  0.
         25    1    1    2    0    0  0.72266896473E+02 -0.12271394616E+03  0.44755879537E+03  0.48601964181E+03  0.12500000000E+03 0.  0.
         25    1    1    2    0    0 -0.17660762958E+03 -0.61807567436E+02  0.11898861921E+03  0.25454610922E+03  0.12500000000E+03 0.  0.
</event>
<event>
 5    0  0.5634041E-005  0.3401726E+03  0.7546771E-02  0.1066722E+00
         21   -1    0    0  502  501  0.00000000000E+00  0.00000000000E+00  0.32235873443E+03  0.32235873443E+03  0.00000000000E+00 0. -1.
         21   -1    0    0  501  502 -0.00000000000E+00 -0.00000000000E+00 -0.35897081080E+03  0.35897081080E+03  0.00000000000E+00 0. -1.
         25    1    1    2    0    0  0.45721609053E+02  0.42495850469E+02  0.10485158572E+03  0.17468605517E+03  0.12500000000E+03 0.  0.
         25    1    1    2    0    0  0.58439193114E+02  0.66270494149E+02  0.10963057570E+03  0.18828377735E+03  0.12500000000E+03 0.  0.
         25    1    1    2    0    0 -0.10416080217E+03 -0.10876634462E+03 -0.25109423778E+03  0.31835971271E+03  0.12500000000E+03 0.  0.
</event>
<event>
 5    0  0.5634041E-005  0.3374681E+03  0.7546771E-02  0.1067879E+00
         21   -1    0    0  502  501  0.00000000000E+00  0.00000000000E+00  0.51551405732E+03  0.51551405732E+03  0.00000000000E+00 0. -1.
         21   -1    0    0  501  502 -0.00000000000E+00 -0.00000000000E+00 -0.22091485580E+03  0.22091485580E+03  0.00000000000E+00 0. -1.
         25    1    1    2    0    0  0.16344566272E+03  0.34297053883E+02  0.26671750179E+02  0.21030253166E+03  0.12500000000E+03 0.  0.
         25    1    1    2    0    0 -0.18846813570E+03  0.59399660116E+02  0.28311599760E+03  0.36718963206E+03  0.12500000000E+03 0.  0.
         25    1    1    2    0    0  0.25022472981E+02 -0.93696713999E+02 -0.15188546259E+02  0.15893674939E+03  0.12500000000E+03 0.  0.
</event>
<event>
 5    0  0.5634041E-005  0.3734329E+03  0.7546771E-02  0.1053388E+00
         21   -1    0    0  502  501  0.00000000000E+00  0.00000000000E+00  0.16290868303E+04  0.16290868303E+04  0.00000000000E+00 0.  1.
         21   -1    0    0  501  502 -0.00000000000E+00 -0.00000000000E+00 -0.85601390027E+02  0.85601390027E+02  0.00000000000E+00 0.  1.
         25    1    1    2    0    0 -0.19109885486E+02 -0.24891259917E+03  0.36143329871E+03  0.45670745469E+03  0.12500000000E+03 0.  0.
         25    1    1    2    0    0 -0.20401693439E+02  0.26711988749E+03  0.75195156902E+03  0.80797612931E+03  0.12500000000E+03 0.  0.
         25    1    1    2    0    0  0.39511578925E+02 -0.18207288318E+02  0.43010057259E+03  0.45000463637E+03  0.12500000000E+03 0.  0.
</event>
<event>
 5    0  0.5634041E-005  0.3940052E+03  0.7546771E-02  0.1045875E+00
         21   -1    0    0  502  501  0.00000000000E+00  0.00000000000E+00  0.12426312227E+04  0.12426312227E+04  0.00000000000E+00 0. -1.
         21   -1    0    0  501  502 -0.00000000000E+00 -0.00000000000E+00 -0.12492853063E+03  0.12492853063E+03  0.00000000000E+00 0. -1.
         25    1    1    2    0    0 -0.35275368044E+02  0.19502394232E+03  0.32384301598E+03  0.39972238950E+03  0.12500000000E+03 0.  0.
         25    1    1    2    0    0 -0.39511372537E+02 -0.89459436159E+02  0.77021371237E+03  0.78639576678E+03  0.12500000000E+03 0.  0.
         25    1    1    2    0    0  0.74786740581E+02 -0.10556450617E+03  0.23645963684E+02  0.18144159701E+03  0.12500000000E+03 0.  0.
</event>
<event>
 5    0  0.5634041E-005  0.3997438E+03  0.7546771E-02  0.1043868E+00
         21   -1    0    0  502  501  0.00000000000E+00  0.00000000000E+00  0.13290090194E+04  0.13290090194E+04  0.00000000000E+00 0. -1.
         21   -1    0    0  501  502 -0.00000000000E+00 -0.00000000000E+00 -0.12023626691E+03  0.12023626691E+03  0.00000000000E+00 0. -1.
         25    1    1    2    0    0 -0.87444788468E+02  0.68738731699E+02  0.92915005823E+03  0.94409556453E+03  0.12500000000E+03 0.  0.
         25    1    1    2    0    0 -0.23956021864E+02 -0.16805387022E+03  0.77722063053E+02  0.22468135963E+03  0.12500000000E+03 0.  0.
         25    1    1    2    0    0  0.11140081033E+03  0.99315138519E+02  0.20190063122E+03  0.28046836215E+03  0.12500000000E+03 0.  0.
</event>
<event>
 5    0  0.5634041E-005  0.2885244E+03  0.7546771E-02  0.1091122E+00
         21   -1    0    0  502  501  0.00000000000E+00  0.00000000000E+00  0.61847543940E+02  0.61847543940E+02  0.00000000000E+00 0. -1.
         21   -1    0    0  501  502 -0.00000000000E+00 -0.00000000000E+00 -0.13459926140E+04  0.13459926140E+04  0.00000000000E+00 0. -1.
         25    1    1    2    0    0  0.11428656435E+02  0.25208746764E+02 -0.52460834419E+03  0.54000463877E+03  0.12500000000E+03 0.  0.
         25    1    1    2    0    0  0.26519403130E+02 -0.19333211656E+02 -0.71959222964E+03  0.73110534725E+03  0.12500000000E+03 0.  0.
         25    1    1    2    0    0 -0.37948059566E+02 -0.58755351079E+01 -0.39944496246E+02  0.13673017194E+03  0.12500000000E+03 0.  0.
</event>
<event>
 5    0  0.5634041E-005  0.2594063E+03  0.7546771E-02  0.1107500E+00
         21   -1    0    0  502  501  0.00000000000E+00  0.00000000000E+00  0.67522193735E+03  0.67522193735E+03  0.00000000000E+00 0.  1.
         21   -1    0    0  501  502 -0.00000000000E+00 -0.00000000000E+00 -0.99658537744E+02  0.99658537744E+02  0.00000000000E+00 0.  1.
         25    1    1    2    0    0  0.76480751047E+02  0.11566364361E+03  0.34511419593E+03  0.39237251684E+03  0.12500000000E+03 0.  0.
         25    1    1    2    0    0 -0.71671638622E+02 -0.32968067671E+02  0.15664178408E+03  0.21537262079E+03  0.12500000000E+03 0.  0.
         25    1    1    2    0    0 -0.48091124252E+01 -0.82695575936E+02  0.73807419594E+02  0.16713533746E+03  0.12500000000E+03 0.  0.
</event>
<event>
 5    0  0.5634041E-005  0.2365861E+03  0.7546771E-02  0.1122088E+00
         21   -1    0    0  502  501  0.00000000000E+00  0.00000000000E+00  0.29137462133E+03  0.29137462133E+03  0.00000000000E+00 0. -1.
         21   -1    0    0  501  502 -0.00000000000E+00 -0.00000000000E+00 -0.19209978613E+03  0.19209978613E+03  0.00000000000E+00 0. -1.
         25    1    1    2    0    0 -0.57198510530E+02 -0.96215886471E+02  0.89217446480E+02  0.19003662587E+03  0.12500000000E+03 0.  0.
         25    1    1    2    0    0  0.13258250777E+01  0.63847141379E+02  0.46908633196E+02  0.14799876737E+03  0.12500000000E+03 0.  0.
         25    1    1    2    0    0  0.55872685453E+02  0.32368745092E+02 -0.36851244476E+02  0.14543901422E+03  0.12500000000E+03 0.  0.
</event>
<event>
 5    0  0.5961396E-005  0.3297688E+03  0.7546771E-02  0.1071239E+00
         21   -1    0    0  502  501  0.00000000000E+00  0.00000000000E+00  0.16601549473E+03  0.16601549473E+03  0.00000000000E+00 0. -1.
         21   -1    0    0  501  502 -0.00000000000E+00 -0.00000000000E+00 -0.65504385272E+03  0.65504385272E+03  0.00000000000E+00 0. -1.
         25    1    1    2    0    0  0.29726504740E+02 -0.10490619242E+03 -0.45202422410E+02  0.17192217217E+03  0.12500000000E+03 0.  0.
         25    1    1    2    0    0 -0.39219101151E+02 -0.22010550736E+02  0.35655548547E+02  0.13754606640E+03  0.12500000000E+03 0.  0.
         25    1    1    2    0    0  0.94925964116E+01  0.12691674315E+03 -0.47948148412E+03  0.51159110889E+03  0.12500000000E+03 0.  0.
</event>
<event>
 5    0  0.5634041E-005  0.4129240E+03  0.7546771E-02  0.1039394E+00
         21   -1    0    0  502  501  0.00000000000E+00  0.00000000000E+00  0.15547348190E+04  0.15547348190E+04  0.00000000000E+00 0.  1.
         21   -1    0    0  501  502 -0.00000000000E+00 -0.00000000000E+00 -0.10966902935E+03  0.10966902935E+03  0.00000000000E+00 0.  1.
         25    1    1    2    0    0 -0.27358295342E+02  0.16440394900E+02  0.48919604391E+03  0.50592146850E+03  0.12500000000E+03 0.  0.
         25    1    1    2    0    0  0.10619610060E+03 -0.32207625564E+02  0.99162824970E+03  0.10056174862E+04  0.12500000000E+03 0.  0.
         25    1    1    2    0    0 -0.78837805254E+02  0.15767230664E+02 -0.35758503983E+02  0.15286489364E+03  0.12500000000E+03 0.  0.
</event>
<event>
 5    0  0.6731418E-005  0.2750659E+03  0.7546771E-02  0.1098415E+00
         21   -1    0    0  502  501  0.00000000000E+00  0.00000000000E+00  0.10004043112E+03  0.10004043112E+03  0.00000000000E+00 0. -1.
         21   -1    0    0  501  502 -0.00000000000E+00 -0.00000000000E+00 -0.75630671691E+03  0.75630671691E+03  0.00000000000E+00 0. -1.
         25    1    1    2    0    0 -0.89539800049E+02 -0.33645979347E+02 -0.17884324572E+03  0.23824217565E+03  0.12500000000E+03 0.  0.
         25    1    1    2    0    0  0.16883877683E+03  0.74203919084E+02 -0.19235966272E+03  0.29434672414E+03  0.12500000000E+03 0.  0.
         25    1    1    2    0    0 -0.79298976779E+02 -0.40557939737E+02 -0.28506337736E+03  0.32375824824E+03  0.12500000000E+03 0.  0.
</event>
<event>
 5    0  0.5634041E-005  0.5042434E+03  0.7546771E-02  0.1012677E+00
         21   -1    0    0  502  501  0.00000000000E+00  0.00000000000E+00  0.10565087708E+04  0.10565087708E+04  0.00000000000E+00 0. -1.
         21   -1    0    0  501  502 -0.00000000000E+00 -0.00000000000E+00 -0.24066185355E+03  0.24066185355E+03  0.00000000000E+00 0. -1.
         25    1    1    2    0    0 -0.36099409373E+01 -0.34385957572E+03  0.48042509141E+03  0.60389213271E+03  0.12500000000E+03 0.  0.
         25    1    1    2    0    0  0.14902575190E+02  0.22499055977E+03  0.42613680094E+03  0.49805663518E+03  0.12500000000E+03 0.  0.
         25    1    1    2    0    0 -0.11292634253E+02  0.11886901594E+03 -0.90714975087E+02  0.19522185647E+03  0.12500000000E+03 0.  0.
</event>
<event>
 5    0  0.5634041E-005  0.3101009E+03  0.7546771E-02  0.1080298E+00
         21   -1    0    0  502  501  0.00000000000E+00  0.00000000000E+00  0.17363552503E+04  0.17363552503E+04  0.00000000000E+00 0.  1.
         21   -1    0    0  501  502 -0.00000000000E+00 -0.00000000000E+00 -0.55381859968E+02  0.55381859968E+02  0.00000000000E+00 0.  1.
         25    1    1    2    0    0  0.12792443525E+03 -0.20575050956E+01  0.23421818107E+03  0.29470671998E+03  0.12500000000E+03 0.  0.
         25    1    1    2    0    0 -0.42697341228E+01 -0.11035091580E+03  0.48454413682E+03  0.51244860794E+03  0.12500000000E+03 0.  0.
         25    1    1    2    0    0 -0.12365470113E+03  0.11240842090E+03  0.96221107243E+03  0.98458178234E+03  0.12500000000E+03 0.  0.
</event>
<event>
 5    0  0.5634041E-005  0.2296805E+03  0.7546771E-02  0.1126865E+00
         21   -1    0    0  502  501  0.00000000000E+00  0.00000000000E+00  0.60409369653E+02  0.60409369653E+02  0.00000000000E+00 0.  1.
         21   -1    0    0  501  502 -0.00000000000E+00 -0.00000000000E+00 -0.87326087193E+03  0.87326087193E+03  0.00000000000E+00 0.  1.
         25    1    1    2    0    0  0.33816563285E+02  0.25086449802E+01 -0.16852237496E+03  0.21254327586E+03  0.12500000000E+03 0.  0.
         25    1    1    2    0    0  0.56186879795E+02 -0.71112346140E+02 -0.33352243187E+03  0.36752706539E+03  0.12500000000E+03 0.  0.
         25    1    1    2    0    0 -0.90003443080E+02  0.68603701159E+02 -0.31080669545E+03  0.35359990034E+03  0.12500000000E+03 0.  0.
</event>
<event>
 5    0  0.5634041E-005  0.3771738E+03  0.7546771E-02  0.1051983E+00
         21   -1    0    0  502  501  0.00000000000E+00  0.00000000000E+00  0.17872700382E+03  0.17872700382E+03  0.00000000000E+00 0. -1.
         21   -1    0    0  501  502 -0.00000000000E+00 -0.00000000000E+00 -0.79596281138E+03  0.79596281138E+03  0.00000000000E+00 0. -1.
         25    1    1    2    0    0  0.11058415136E+03  0.51341101770E+02 -0.27267006259E+02  0.17672932098E+03  0.12500000000E+03 0.  0.
         25    1    1    2    0    0  0.11200163514E+03  0.13969900565E+03 -0.23361786200E+03  0.31978505890E+03  0.12500000000E+03 0.  0.
         25    1    1    2    0    0 -0.22258578650E+03 -0.19104010742E+03 -0.35635093931E+03  0.47817543532E+03  0.12500000000E+03 0.  0.
</event>
<event>
 5    0  0.5634041E-005  0.2745539E+03  0.7546771E-02  0.1098701E+00
         21   -1    0    0  502  501  0.00000000000E+00  0.00000000000E+00  0.73506167797E+03  0.73506167797E+03  0.00000000000E+00 0. -1.
         21   -1    0    0  501  502 -0.00000000000E+00 -0.00000000000E+00 -0.10254903054E+03  0.10254903054E+03  0.00000000000E+00 0. -1.
         25    1    1    2    0    0 -0.42464903678E+02  0.11720552590E+03  0.13635234067E+03  0.22306358769E+03  0.12500000000E+03 0.  0.
         25    1    1    2    0    0 -0.89794062023E+02 -0.19015289916E+02  0.23244616332E+03  0.27942937151E+03  0.12500000000E+03 0.  0.
         25    1    1    2    0    0  0.13225896570E+03 -0.98190235987E+02  0.26371414345E+03  0.33511774932E+03  0.12500000000E+03 0.  0.
</event>
<event>
 5    0  0.5634041E-005  0.2811325E+03  0.7546771E-02  0.1095072E+00
         21   -1    0    0  502  501  0.00000000000E+00  0.00000000000E+00  0.11523064547E+04  0.11523064547E+04  0.00000000000E+00 0. -1.
         21   -1    0    0  501  502 -0.00000000000E+00 -0.00000000000E+00 -0.68588947861E+02  0.68588947861E+02  0.00000000000E+00 0. -1.
         25    1    1    2    0    0 -0.11749609799E+03 -0.28819166670E+02  0.35163319888E+03  0.39230955120E+03  0.12500000000E+03 0.  0.
         25    1    1    2    0    0 -0.47815008690E+02  0.15389128751E+02  0.11378509340E+03  0.17633816326E+03  0.12500000000E+03 0.  0.
         25    1    1    2    0    0  0.16531110668E+03  0.13430037918E+02  0.61829921453E+03  0.65224768808E+03  0.12500000000E+03 0.  0.
</event>
<event>
 5    0  0.5634041E-005  0.3689929E+03  0.7546771E-02  0.1055079E+00
         21   -1    0    0  502  501  0.00000000000E+00  0.00000000000E+00  0.62343759373E+03  0.62343759373E+03  0.00000000000E+00 0. -1.
         21   -1    0    0  501  502 -0.00000000000E+00 -0.00000000000E+00 -0.21839521678E+03  0.21839521678E+03  0.00000000000E+00 0. -1.
         25    1    1    2    0    0 -0.70952505964E+02  0.18398910455E+03  0.10415388838E+03  0.25565461303E+03  0.12500000000E+03 0.  0.
         25    1    1    2    0    0 -0.79558424176E+02 -0.18770608224E+03  0.14839829495E+02  0.23960036875E+03  0.12500000000E+03 0.  0.
         25    1    1    2    0    0  0.15051093014E+03  0.37169776876E+01  0.28604865906E+03  0.34657782873E+03  0.12500000000E+03 0.  0.
</event>
<event>
 5    0  0.5634041E-005  0.3629771E+03  0.7546771E-02  0.1057411E+00
         21   -1    0    0  502  501  0.00000000000E+00  0.00000000000E+00  0.95090430856E+03  0.95090430856E+03  0.00000000000E+00 0.  1.
         21   -1    0    0  501  502 -0.00000000000E+00 -0.00000000000E+00 -0.13855480308E+03  0.13855480308E+03  0.00000000000E+00 0.  1.
         25    1    1    2    0    0 -0.23597116297E+03 -0.20233198258E+01  0.26273410132E+03  0.37462073030E+03  0.12500000000E+03 0.  0.
         25    1    1    2    0    0  0.26461800349E+03 -0.78242346227E+02  0.32781450102E+03  0.44635400703E+03  0.12500000000E+03 0.  0.
         25    1    1    2    0    0 -0.28646840520E+02  0.80265666052E+02  0.22180090313E+03  0.26848437431E+03  0.12500000000E+03 0.  0.
</event>
<event>
 5    0  0.5634041E-005  0.2648191E+03  0.7546771E-02  0.1104282E+00
         21   -1    0    0  502  501  0.00000000000E+00  0.00000000000E+00  0.10783380199E+03  0.10783380199E+03  0.00000000000E+00 0.  1.
         21   -1    0    0  501  502 -0.00000000000E+00 -0.00000000000E+00 -0.65034462166E+03  0.65034462166E+03  0.00000000000E+00 0.  1.
         25    1    1    2    0    0  0.77308416437E+02  0.76704572103E+02 -0.35728028206E+03  0.39387102278E+03  0.12500000000E+03 0.  0.
         25    1    1    2    0    0  0.10694634858E+02 -0.69387818971E+01 -0.14433629744E+03  0.19136480519E+03  0.12500000000E+03 0.  0.
         25    1    1    2    0    0 -0.88003051295E+02 -0.69765790206E+02 -0.40894240176E+02  0.17294259568E+03  0.12500000000E+03 0.  0.
</event>
<event>
 5    0  0.5634041E-005  0.3493380E+03  0.7546771E-02  0.1062887E+00
         21   -1    0    0  502  501  0.00000000000E+00  0.00000000000E+00  0.54338596894E+03  0.54338596894E+03  0.00000000000E+00 0. -1.
         21   -1    0    0  501  502 -0.00000000000E+00 -0.00000000000E+00 -0.22458625573E+03  0.22458625573E+03  0.00000000000E+00 0. -1.
         25    1    1    2    0    0 -0.17063222766E+03 -0.46787810216E+02  0.13273967120E+03  0.25406549670E+03  0.12500000000E+03 0.  0.
         25    1    1    2    0    0  0.14029276604E+03  0.29706656739E+02 -0.88812661851E+02  0.20994578958E+03  0.12500000000E+03 0.  0.
         25    1    1    2    0    0  0.30339461627E+02  0.17081153476E+02  0.27487270386E+03  0.30396093839E+03  0.12500000000E+03 0.  0.
</event>
<event>
 5    0  0.5634041E-005  0.2971435E+03  0.7546771E-02  0.1086677E+00
         21   -1    0    0  502  501  0.00000000000E+00  0.00000000000E+00  0.38981282895E+03  0.38981282895E+03  0.00000000000E+00 0.  1.
         21   -1    0    0  501  502 -0.00000000000E+00 -0.00000000000E+00 -0.22650424540E+03  0.22650424540E+03  0.00000000000E+00 0.  1.
         25    1    1    2    0    0 -0.36111909933E+02 -0.89604657107E+02  0.24155634962E+03  0.28863044652E+03  0.12500000000E+03 0.  0.
         25    1    1    2    0    0  0.62799326978E+02  0.12242523741E+03 -0.38184581066E+02  0.18977554230E+03  0.12500000000E+03 0.  0.
         25    1    1    2    0    0 -0.26687417046E+02 -0.32820580302E+02 -0.40063185015E+02  0.13791108554E+03  0.12500000000E+03 0.  0.
</event>
<event>
 5    0  0.5634041E-005  0.3435249E+03  0.7546771E-02  0.1065305E+00
         21   -1    0    0  502  501  0.00000000000E+00  0.00000000000E+00  0.82505103751E+03  0.82505103751E+03  0.00000000000E+00 0.  1.
         21   -1    0    0  501  502 -0.00000000000E+00 -0.00000000000E+00 -0.14303277747E+03  0.14303277747E+03  0.00000000000E+00 0.  1.
         25    1    1    2    0    0 -0.30761786717E+02  0.12343990263E+03  0.15367405983E+03  0.23542390225E+03  0.12500000000E+03 0.  0.
         25    1    1    2    0    0  0.14841261124E+03  0.97734540281E+02  0.30523362186E+03  0.37466105675E+03  0.12500000000E+03 0.  0.
         25    1    1    2    0    0 -0.11765082452E+03 -0.22117444291E+03  0.22311057835E+03  0.35799885597E+03  0.12500000000E+03 0.  0.
</event>
<event>
 5    0  0.5634041E-005  0.3619061E+03  0.7546771E-02  0.1057832E+00
         21   -1    0    0  502  501  0.00000000000E+00  0.00000000000E+00  0.14756204706E+03  0.14756204706E+03  0.00000000000E+00 0. -1.
         21   -1    0    0  501  502 -0.00000000000E+00 -0.00000000000E+00 -0.88759991270E+03  0.88759991270E+03  0.00000000000E+00 0. -1.
         25    1    1    2    0    0 -0.19377554481E+03 -0.43959108391E+02 -0.23385776782E+03  0.33135452396E+03  0.12500000000E+03 0.  0.
         25    1    1    2    0    0  0.24144741415E+03  0.12136151043E+03 -0.44953227966E+03  0.53919360203E+03  0.12500000000E+03 0.  0.
         25    1    1    2    0    0 -0.47671869336E+02 -0.77402402036E+02 -0.56647818145E+02  0.16461383377E+03  0.12500000000E+03 0.  0.
</event>
<event>
 5    0  0.5634041E-005  0.2371456E+03  0.7546771E-02  0.1121709E+00
         21   -1    0    0  502  501  0.00000000000E+00  0.00000000000E+00  0.16766548263E+03  0.16766548263E+03  0.00000000000E+00 0. -1.
         21   -1    0    0  501  502 -0.00000000000E+00 -0.00000000000E+00 -0.33541815580E+03  0.33541815580E+03  0.00000000000E+00 0. -1.
         25    1    1    2    0    0  0.16849611895E+02  0.55858217701E+02 -0.11734842919E+03  0.18110688485E+03  0.12500000000E+03 0.  0.
         25    1    1    2    0    0  0.83715611701E+02 -0.38439950337E+02 -0.98757170329E+01  0.15559069127E+03  0.12500000000E+03 0.  0.
         25    1    1    2    0    0 -0.10056522360E+03 -0.17418267364E+02 -0.40528526952E+02  0.16638606231E+03  0.12500000000E+03 0.  0.
</event>
<event>
 5    0  0.5634041E-005  0.6703571E+03  0.7546771E-02  0.9769313E-01
         21   -1    0    0  502  501  0.00000000000E+00  0.00000000000E+00  0.27759492871E+03  0.27759492871E+03  0.00000000000E+00 0.  1.
         21   -1    0    0  501  502 -0.00000000000E+00 -0.00000000000E+00 -0.16188287606E+04  0.16188287606E+04  0.00000000000E+00 0.  1.
         25    1    1    2    0    0 -0.16237878119E+03 -0.13616108901E+03 -0.16964199650E+03  0.29884798430E+03  0.12500000000E+03 0.  0.
         25    1    1    2    0    0 -0.33058230433E+03  0.33875743575E+03 -0.31883662377E+03  0.58422859641E+03  0.12500000000E+03 0.  0.
         25    1    1    2    0    0  0.49296108552E+03 -0.20259634674E+03 -0.85275521161E+03  0.10133471086E+04  0.12500000000E+03 0.  0.
</event>
<event>
 5    0  0.5634041E-005  0.2951958E+03  0.7546771E-02  0.1087667E+00
         21   -1    0    0  502  501  0.00000000000E+00  0.00000000000E+00  0.22518278915E+04  0.22518278915E+04  0.00000000000E+00 0.  1.
         21   -1    0    0  501  502 -0.00000000000E+00 -0.00000000000E+00 -0.38697692880E+02  0.38697692880E+02  0.00000000000E+00 0.  1.
         25    1    1    2    0    0 -0.11689120762E+02 -0.54262542201E+02  0.33345756374E+03  0.36041643393E+03  0.12500000000E+03 0.  0.
         25    1    1    2    0    0 -0.19371118330E+02 -0.11574611782E+03  0.40078179922E+03  0.43591679779E+03  0.12500000000E+03 0.  0.
         25    1    1    2    0    0  0.31060239092E+02  0.17000866002E+03  0.14788908357E+04  0.14941923527E+04  0.12500000000E+03 0.  0.
</event>
<event>
 5    0  0.5634041E-005  0.2820613E+03  0.7546771E-02  0.1094568E+00
         21   -1    0    0  502  501  0.00000000000E+00  0.00000000000E+00  0.35173891849E+03  0.35173891849E+03  0.00000000000E+00 0. -1.
         21   -1    0    0  501  502 -0.00000000000E+00 -0.00000000000E+00 -0.22618643832E+03  0.22618643832E+03  0.00000000000E+00 0. -1.
         25    1    1    2    0    0 -0.27247784555E+02 -0.16259726773E+01  0.97288743481E+02  0.16073327334E+03  0.12500000000E+03 0.  0.
         25    1    1    2    0    0 -0.10815569550E+03  0.37284675622E+02 -0.93426658677E+02  0.19349765388E+03  0.12500000000E+03 0.  0.
         25    1    1    2    0    0  0.13540348005E+03 -0.35658702945E+02  0.12169039537E+03  0.22369442959E+03  0.12500000000E+03 0.  0.
</event>
<event>
 5    0  0.6215891E-005  0.3217252E+03  0.7546771E-02  0.1074858E+00
         21   -1    0    0  502  501  0.00000000000E+00  0.00000000000E+00  0.34379740593E+03  0.34379740593E+03  0.00000000000E+00 0.  1.
         21   -1    0    0  501  502 -0.00000000000E+00 -0.00000000000E+00 -0.30106998333E+03  0.30106998333E+03  0.00000000000E+00 0.  1.
         25    1    1    2    0    0  0.12461667562E+03 -0.70273670914E+02  0.69619416045E+02  0.20233528549E+03  0.12500000000E+03 0.  0.
         25    1    1    2    0    0 -0.82579228994E+02  0.13083008473E+03  0.12303427335E+03  0.23387661822E+03  0.12500000000E+03 0.  0.
         25    1    1    2    0    0 -0.42037446623E+02 -0.60556413817E+02 -0.14992626679E+03  0.20865548554E+03  0.12500000000E+03 0.  0.
</event>
<event>
 5    0  0.5634041E-005  0.3503343E+03  0.7546771E-02  0.1062478E+00
         21   -1    0    0  502  501  0.00000000000E+00  0.00000000000E+00  0.27323153396E+04  0.27323153396E+04  0.00000000000E+00 0.  1.
         21   -1    0    0  501  502 -0.00000000000E+00 -0.00000000000E+00 -0.44919446623E+02  0.44919446623E+02  0.00000000000E+00 0.  1.
         25    1    1    2    0    0 -0.21716975932E+03  0.13861458239E+03  0.10692222331E+04  0.11069046439E+04  0.12500000000E+03 0.  0.
         25    1    1    2    0    0  0.31293776892E+02 -0.83765771567E+02  0.36377892193E+03  0.39491278658E+03  0.12500000000E+03 0.  0.
         25    1    1    2    0    0  0.18587598243E+03 -0.54848810819E+02  0.12543947379E+04  0.12754173558E+04  0.12500000000E+03 0.  0.
</event>
<event>
 5    0  0.5634041E-005  0.3459447E+03  0.7546771E-02  0.1064292E+00
         21   -1    0    0  502  501  0.00000000000E+00  0.00000000000E+00  0.33769349041E+03  0.33769349041E+03  0.00000000000E+00 0. -1.
         21   -1    0    0  501  502 -0.00000000000E+00 -0.00000000000E+00 -0.35439760309E+03  0.35439760309E+03  0.00000000000E+00 0. -1.
         25    1    1    2    0    0  0.47296295159E+02  0.18759245962E+02 -0.23248146037E+02  0.13694643164E+03  0.12500000000E+03 0.  0.
         25    1    1    2    0    0 -0.21984460629E+03  0.11738363074E+03  0.83149123022E+02  0.29094560375E+03  0.12500000000E+03 0.  0.
         25    1    1    2    0    0  0.17254831113E+03 -0.13614287670E+03 -0.76605089667E+02  0.26419905812E+03  0.12500000000E+03 0.  0.
</event>
<event>
 5    0  0.5634041E-005  0.4052071E+03  0.7546771E-02  0.1041991E+00
         21   -1    0    0  502  501  0.00000000000E+00  0.00000000000E+00  0.73225119116E+03  0.73225119116E+03  0.00000000000E+00 0. -1.
         21   -1    0    0  501  502 -0.00000000000E+00 -0.00000000000E+00 -0.22423016635E+03  0.22423016635E+03  0.00000000000E+00 0. -1.
         25    1    1    2    0    0  0.10404012543E+03  0.79235007091E+02  0.25236735113E+03  0.31051056981E+03  0.12500000000E+03 0.  0.
         25    1    1    2    0    0 -0.28514374100E+03 -0.17015125283E+03  0.14236095229E+03  0.38229575280E+03  0.12500000000E+03 0.  0.
         25    1    1    2    0    0  0.18110361557E+03  0.90916245737E+02  0.11329272139E+03  0.26367503490E+03  0.12500000000E+03 0.  0.
</event>
<event>
 5    0  0.5634041E-005  0.3019698E+03  0.7546771E-02  0.1084260E+00
         21   -1    0    0  502  501  0.00000000000E+00  0.00000000000E+00  0.11771179016E+03  0.11771179016E+03  0.00000000000E+00 0.  1.
         21   -1    0    0  501  502 -0.00000000000E+00 -0.00000000000E+00 -0.77465260035E+03  0.77465260035E+03  0.00000000000E+00 0.  1.
         25    1    1    2    0    0  0.16042204480E+03 -0.13584579023E+03 -0.31837510193E+03  0.40146857500E+03  0.12500000000E+03 0.  0.
         25    1    1    2    0    0 -0.43652558162E+01  0.31980377355E+02 -0.10548766654E+03  0.16671666919E+03  0.12500000000E+03 0.  0.
         25    1    1    2    0    0 -0.15605678899E+03  0.10386541287E+03 -0.23307804172E+03  0.32417914632E+03  0.12500000000E+03 0.  0.
</event>
<event>
 5    0  0.5634041E-005  0.4536032E+03  0.7546771E-02  0.1026653E+00
         21   -1    0    0  502  501  0.00000000000E+00  0.00000000000E+00  0.29332528680E+03  0.29332528680E+03  0.00000000000E+00 0. -1.
         21   -1    0    0  501  502 -0.00000000000E+00 -0.00000000000E+00 -0.70145962447E+03  0.70145962447E+03  0.00000000000E+00 0. -1.
         25    1    1    2    0    0  0.23509634086E+03  0.23792709926E+03 -0.12229005310E+03  0.37743800966E+03  0.12500000000E+03 0.  0.
         25    1    1    2    0    0  0.14993401244E+02  0.52099359661E+02 -0.28144223683E+02  0.13912671449E+03  0.12500000000E+03 0.  0.
         25    1    1    2    0    0 -0.25008974211E+03 -0.29002645892E+03 -0.25770006090E+03  0.47822018712E+03  0.12500000000E+03 0.  0.
</event>
<event>
 5    0  0.5634041E-005  0.3061994E+03  0.7546771E-02  0.1082182E+00
         21   -1    0    0  502  501  0.00000000000E+00  0.00000000000E+00  0.76482253318E+03  0.76482253318E+03  0.00000000000E+00 0.  1.
         21   -1    0    0  501  502 -0.00000000000E+00 -0.00000000000E+00 -0.12258803054E+03  0.12258803054E+03  0.00000000000E+00 0.  1.
         25    1    1    2    0    0 -0.10366233927E+03 -0.11460491004E+03  0.24405457068E+03  0.31475037643E+03  0.12500000000E+03 0.  0.
         25    1    1    2    0    0  0.11500813078E+02  0.11986503342E+03  0.34206522805E+02  0.17690387543E+03  0.12500000000E+03 0.  0.
         25    1    1    2    0    0  0.92161526193E+02 -0.52601233797E+01  0.36397340916E+03  0.39575631187E+03  0.12500000000E+03 0.  0.
</event>
<event>
 5    0  0.5634041E-005  0.3020559E+03  0.7546771E-02  0.1084217E+00
         21   -1    0    0  502  501  0.00000000000E+00  0.00000000000E+00  0.29489981091E+04  0.29489981091E+04  0.00000000000E+00 0.  1.
         21   -1    0    0  501  502 -0.00000000000E+00 -0.00000000000E+00 -0.30938573751E+02  0.30938573751E+02  0.00000000000E+00 0.  1.
         25    1    1    2    0    0 -0.34148028226E+02 -0.28946952233E+02  0.28305125700E+03  0.31264521101E+03  0.12500000000E+03 0.  0.
         25    1    1    2    0    0  0.10804930787E+02 -0.92996514705E+02  0.20596614011E+04  0.20655738151E+04  0.12500000000E+03 0.  0.
         25    1    1    2    0    0  0.23343097439E+02  0.12194346694E+03  0.57534687719E+03  0.60171765673E+03  0.12500000000E+03 0.  0.
</event>
<event>
 5    0  0.5634041E-005  0.3421293E+03  0.7546771E-02  0.1065893E+00
         21   -1    0    0  502  501  0.00000000000E+00  0.00000000000E+00  0.48629243988E+03  0.48629243988E+03  0.00000000000E+00 0. -1.
         21   -1    0    0  501  502 -0.00000000000E+00 -0.00000000000E+00 -0.24070382770E+03  0.24070382770E+03  0.00000000000E+00 0. -1.
         25    1    1    2    0    0 -0.33911732916E+02  0.14907999016E+03 -0.44127432617E+01  0.19753308938E+03  0.12500000000E+03 0.  0.
         25    1    1    2    0    0 -0.38536434116E+02 -0.21129883703E+03  0.27447923245E+03  0.37026491102E+03  0.12500000000E+03 0.  0.
         25    1    1    2    0    0  0.72448167032E+02  0.62218846868E+02 -0.24477877009E+02  0.15919826719E+03  0.12500000000E+03 0.  0.
</event>
<event>
 5    0  0.5634041E-005  0.4051425E+03  0.7546771E-02  0.1042013E+00
         21   -1    0    0  502  501  0.00000000000E+00  0.00000000000E+00  0.10706661362E+04  0.10706661362E+04  0.00000000000E+00 0.  1.
         21   -1    0    0  501  502 -0.00000000000E+00 -0.00000000000E+00 -0.15330685275E+03  0.15330685275E+03  0.00000000000E+00 0.  1.
         25    1    1    2    0    0  0.75597487242E+02  0.21096632657E+03  0.51768570753E+03  0.57779344303E+03  0.12500000000E+03 0.  0.
         25    1    1    2    0    0  0.25947653538E+02  0.49509555071E+02  0.29033442034E+03  0.32100397568E+03  0.12500000000E+03 0.  0.
         25    1    1    2    0    0 -0.10154514078E+03 -0.26047588164E+03  0.10933915557E+03  0.32517557023E+03  0.12500000000E+03 0.  0.
</event>
<event>
 5    0  0.5634041E-005  0.4367940E+03  0.7546771E-02  0.1031735E+00
         21   -1    0    0  502  501  0.00000000000E+00  0.00000000000E+00  0.40541579798E+03  0.40541579798E+03  0.00000000000E+00 0.  1.
         21   -1    0    0  501  502 -0.00000000000E+00 -0.00000000000E+00 -0.47060081028E+03  0.47060081028E+03  0.00000000000E+00 0.  1.
         25    1    1    2    0    0  0.92389961990E+02  0.52535339719E+02 -0.54469248653E+01  0.16416618405E+03  0.12500000000E+03 0.  0.
         25    1    1    2    0    0 -0.34067043267E+03 -0.17373518181E+03  0.22664038059E+01  0.40233119899E+03  0.12500000000E+03 0.  0.
         25    1    1    2    0    0  0.24828047068E+03  0.12119984209E+03 -0.62004491242E+02  0.30951922522E+03  0.12500000000E+03 0.  0.
</event>
<event>
 5    0  0.5634041E-005  0.2520431E+03  0.7546771E-02  0.1112020E+00
         21   -1    0    0  502  501  0.00000000000E+00  0.00000000000E+00  0.39471699906E+03  0.39471699906E+03  0.00000000000E+00 0. -1.
         21   -1    0    0  501  502 -0.00000000000E+00 -0.00000000000E+00 -0.16093996866E+03  0.16093996866E+03  0.00000000000E+00 0. -1.
         25    1    1    2    0    0  0.84597589065E+02 -0.34002258327E+02  0.59100333955E+02  0.16562232676E+03  0.12500000000E+03 0.  0.
         25    1    1    2    0    0  0.64581239453E+01 -0.94393714131E+01 -0.30775493516E+02  0.12923985492E+03  0.12500000000E+03 0.  0.
         25    1    1    2    0    0 -0.91055713010E+02  0.43441629740E+02  0.20545218996E+03  0.26079478604E+03  0.12500000000E+03 0.  0.
</event>
<event>
 5    0  0.5634041E-005  0.2343442E+03  0.7546771E-02  0.1123619E+00
         21   -1    0    0  502  501  0.00000000000E+00  0.00000000000E+00  0.14214310391E+03  0.14214310391E+03  0.00000000000E+00 0. -1.
         21   -1    0    0  501  502 -0.00000000000E+00 -0.00000000000E+00 -0.38635152252E+03  0.38635152252E+03  0.00000000000E+00 0. -1.
         25    1    1    2    0    0  0.87388553227E+02 -0.30830649666E+02 -0.68551208328E+02  0.17003398589E+03  0.12500000000E+03 0.  0.
         25    1    1    2    0    0 -0.22145450892E+02  0.70217649458E+02 -0.22885471282E+02  0.14686621152E+03  0.12500000000E+03 0.  0.
         25    1    1    2    0    0 -0.65243102336E+02 -0.39386999793E+02 -0.15277173900E+03  0.21159442902E+03  0.12500000000E+03 0.  0.
</event>
<event>
 5    0  0.5634041E-005  0.2533219E+03  0.7546771E-02  0.1111223E+00
         21   -1    0    0  502  501  0.00000000000E+00  0.00000000000E+00  0.35655214835E+03  0.35655214835E+03  0.00000000000E+00 0. -1.
         21   -1    0    0  501  502 -0.00000000000E+00 -0.00000000000E+00 -0.17997929588E+03  0.17997929588E+03  0.00000000000E+00 0. -1.
         25    1    1    2    0    0  0.33924144101E+02 -0.17124193214E+02  0.85884053081E+02  0.15634946792E+03  0.12500000000E+03 0.  0.
         25    1    1    2    0    0 -0.10901492383E+03  0.24762092398E+02  0.14766014408E+03  0.22344111750E+03  0.12500000000E+03 0.  0.
         25    1    1    2    0    0  0.75090779732E+02 -0.76378991834E+01 -0.56971344690E+02  0.15674085881E+03  0.12500000000E+03 0.  0.
</event>
<event>
 5    0  0.5634041E-005  0.2154586E+03  0.7546771E-02  0.1137315E+00
         21   -1    0    0  502  501  0.00000000000E+00  0.00000000000E+00  0.20938155622E+03  0.20938155622E+03  0.00000000000E+00 0.  1.
         21   -1    0    0  501  502 -0.00000000000E+00 -0.00000000000E+00 -0.22171204329E+03  0.22171204329E+03  0.00000000000E+00 0.  1.
         25    1    1    2    0    0 -0.64899650860E+02 -0.24973552385E+02  0.33280009024E+02  0.14686116574E+03  0.12500000000E+03 0.  0.
         25    1    1    2    0    0  0.16095353107E+02 -0.18905551850E+02  0.19209456056E+02  0.12888166466E+03  0.12500000000E+03 0.  0.
         25    1    1    2    0    0  0.48804297753E+02  0.43879104235E+02 -0.64819952151E+02  0.15535076911E+03  0.12500000000E+03 0.  0.
</event>
<event>
 5    0  0.5634041E-005  0.3096585E+03  0.7546771E-02  0.1080510E+00
         21   -1    0    0  502  501  0.00000000000E+00  0.00000000000E+00  0.27812993700E+03  0.27812993700E+03  0.00000000000E+00 0. -1.
         21   -1    0    0  501  502 -0.00000000000E+00 -0.00000000000E+00 -0.34476112432E+03  0.34476112432E+03  0.00000000000E+00 0. -1.
         25    1    1    2    0    0  0.17461140772E+03  0.33452854184E+02  0.11964857490E+03  0.24809074677E+03  0.12500000000E+03 0.  0.
         25    1    1    2    0    0 -0.45038133271E+02  0.93621058624E+01 -0.40496935250E+02  0.13921596259E+03  0.12500000000E+03 0.  0.
         25    1    1    2    0    0 -0.12957327444E+03 -0.42814960047E+02 -0.14578282696E+03  0.23558435196E+03  0.12500000000E+03 0.  0.
</event>
<event>
 5    0  0.5634041E-005  0.2738350E+03  0.7546771E-02  0.1099105E+00
         21   -1    0    0  502  501  0.00000000000E+00  0.00000000000E+00  0.24163611477E+03  0.24163611477E+03  0.00000000000E+00 0.  1.
         21   -1    0    0  501  502 -0.00000000000E+00 -0.00000000000E+00 -0.31032459534E+03  0.31032459534E+03  0.00000000000E+00 0.  1.
         25    1    1    2    0    0 -0.50884766470E+02 -0.54783240610E+02 -0.13492762645E+03  0.19854704050E+03  0.12500000000E+03 0.  0.
         25    1    1    2    0    0 -0.49765457363E+02 -0.18783766425E+02 -0.46914968269E+02  0.14372002253E+03  0.12500000000E+03 0.  0.
         25    1    1    2    0    0  0.10065022383E+03  0.73567007034E+02  0.11315411415E+03  0.20969364709E+03  0.12500000000E+03 0.  0.
</event>
<event>
 5    0  0.5634041E-005  0.2564239E+03  0.7546771E-02  0.1109311E+00
         21   -1    0    0  502  501  0.00000000000E+00  0.00000000000E+00  0.76867634713E+03  0.76867634713E+03  0.00000000000E+00 0. -1.
         21   -1    0    0  501  502 -0.00000000000E+00 -0.00000000000E+00 -0.85540823545E+02  0.85540823545E+02  0.00000000000E+00 0. -1.
         25    1    1    2    0    0 -0.57084312089E+01  0.15620054536E+02  0.41345095920E+03  0.43225370786E+03  0.12500000000E+03 0.  0.
         25    1    1    2    0    0  0.31992483087E+02 -0.42158987971E+02  0.15978135909E+02  0.13667918667E+03  0.12500000000E+03 0.  0.
         25    1    1    2    0    0 -0.26284051878E+02  0.26538933434E+02  0.25370642847E+03  0.28528427615E+03  0.12500000000E+03 0.  0.
</event>
<event>
 5    0  0.5822635E-005  0.3226844E+03  0.7546771E-02  0.1074420E+00
         21   -1    0    0  502  501  0.00000000000E+00  0.00000000000E+00  0.15292905182E+03  0.15292905182E+03  0.00000000000E+00 0.  1.
         21   -1    0    0  501  502 -0.00000000000E+00 -0.00000000000E+00 -0.68087289407E+03  0.68087289407E+03  0.00000000000E+00 0.  1.
         25    1    1    2    0    0  0.56115498651E+02 -0.15326844762E+03 -0.28156075568E+03  0.34862820506E+03  0.12500000000E+03 0.  0.
         25    1    1    2    0    0 -0.10995098297E+03  0.10626361726E+03 -0.27479800212E+03  0.33840821057E+03  0.12500000000E+03 0.  0.
         25    1    1    2    0    0  0.53835484323E+02  0.47004830356E+02  0.28414915555E+02  0.14676553027E+03  0.12500000000E+03 0.  0.
</event>
<event>
 5    0  0.5634041E-005  0.2822056E+03  0.7546771E-02  0.1094490E+00
         21   -1    0    0  502  501  0.00000000000E+00  0.00000000000E+00  0.85038576556E+02  0.85038576556E+02  0.00000000000E+00 0.  1.
         21   -1    0    0  501  502 -0.00000000000E+00 -0.00000000000E+00 -0.93651624157E+03  0.93651624157E+03  0.00000000000E+00 0.  1.
         25    1    1    2    0    0 -0.13999822362E+02 -0.60895612906E+02 -0.71110955732E+02  0.15679935817E+03  0.12500000000E+03 0.  0.
         25    1    1    2    0    0  0.90515367150E+02  0.98515870819E+02 -0.23005871481E+03  0.29402452407E+03  0.12500000000E+03 0.  0.
         25    1    1    2    0    0 -0.76515544789E+02 -0.37620257913E+02 -0.55030799447E+03  0.57073093589E+03  0.12500000000E+03 0.  0.
</event>
<event>
 5    0  0.5634041E-005  0.2612078E+03  0.7546771E-02  0.1106420E+00
         21   -1    0    0  502  501  0.00000000000E+00  0.00000000000E+00  0.56397479559E+03  0.56397479559E+03  0.00000000000E+00 0. -1.
         21   -1    0    0  501  502 -0.00000000000E+00 -0.00000000000E+00 -0.12097970103E+03  0.12097970103E+03  0.00000000000E+00 0. -1.
         25    1    1    2    0    0 -0.98241634994E+02  0.14831264040E+02  0.42012983618E+02  0.16511049643E+03  0.12500000000E+03 0.  0.
         25    1    1    2    0    0  0.13457949160E+03 -0.32754746032E+02  0.16187087991E+03  0.24700545482E+03  0.12500000000E+03 0.  0.
         25    1    1    2    0    0 -0.36337856607E+02  0.17923481991E+02  0.23911123103E+03  0.27283854536E+03  0.12500000000E+03 0.  0.
</event>
<event>
 5    0  0.5634041E-005  0.2809619E+03  0.7546771E-02  0.1095165E+00
         21   -1    0    0  502  501  0.00000000000E+00  0.00000000000E+00  0.31794367487E+04  0.31794367487E+04  0.00000000000E+00 0. -1.
         21   -1    0    0  501  502 -0.00000000000E+00 -0.00000000000E+00 -0.24828161526E+02  0.24828161526E+02  0.00000000000E+00 0. -1.
         25    1    1    2    0    0  0.84153629591E+01 -0.50179824250E+02  0.23412630971E+04  0.23451496163E+04  0.12500000000E+03 0.  0.
         25    1    1    2    0    0 -0.18819528645E+02 -0.23547719749E+01  0.25733214191E+03  0.28671336012E+03  0.12500000000E+03 0.  0.
         25    1    1    2    0    0  0.10404165686E+02  0.52534596225E+02  0.55601334811E+03  0.57240193373E+03  0.12500000000E+03 0.  0.
</event>
<event>
 5    0  0.5634041E-005  0.3304766E+03  0.7546771E-02  0.1070926E+00
         21   -1    0    0  502  501  0.00000000000E+00  0.00000000000E+00  0.13295385682E+04  0.13295385682E+04  0.00000000000E+00 0.  1.
         21   -1    0    0  501  502 -0.00000000000E+00 -0.00000000000E+00 -0.82144865074E+02  0.82144865074E+02  0.00000000000E+00 0.  1.
         25    1    1    2    0    0 -0.11501043032E+02  0.80441386401E+02  0.49821420182E+03  0.52004373040E+03  0.12500000000E+03 0.  0.
         25    1    1    2    0    0  0.25702618623E+02  0.15971739813E+03  0.24415498643E+03  0.31844454661E+03  0.12500000000E+03 0.  0.
         25    1    1    2    0    0 -0.14201575592E+02 -0.24015878453E+03  0.50502451490E+03  0.57319515628E+03  0.12500000000E+03 0.  0.
</event>
<event>
 5    0  0.5634041E-005  0.3872480E+03  0.7546771E-02  0.1048287E+00
         21   -1    0    0  502  501  0.00000000000E+00  0.00000000000E+00  0.10342133984E+03  0.10342133984E+03  0.00000000000E+00 0.  1.
         21   -1    0    0  501  502 -0.00000000000E+00 -0.00000000000E+00 -0.14500006608E+04  0.14500006608E+04  0.00000000000E+00 0.  1.
         25    1    1    2    0    0  0.12814350924E+03  0.10185026780E+03 -0.59164650416E+03  0.62647012849E+03  0.12500000000E+03 0.  0.
         25    1    1    2    0    0 -0.28608356607E+02 -0.21210002650E+03 -0.14562612705E+03  0.28746622095E+03  0.12500000000E+03 0.  0.
         25    1    1    2    0    0 -0.99535152630E+02  0.11024975870E+03 -0.60930668980E+03  0.63948565124E+03  0.12500000000E+03 0.  0.
</event>
<event>
 5    0  0.5725769E-005  0.3624199E+03  0.7546771E-02  0.1057630E+00
         21   -1    0    0  502  501  0.00000000000E+00  0.00000000000E+00  0.48612898435E+03  0.48612898435E+03  0.00000000000E+00 0.  1.
         21   -1    0    0  501  502 -0.00000000000E+00 -0.00000000000E+00 -0.27019199811E+03  0.27019199811E+03  0.00000000000E+00 0.  1.
         25    1    1    2    0    0  0.53711584418E+02  0.13625557242E+03  0.72070764377E+02  0.20559598827E+03  0.12500000000E+03 0.  0.
         25    1    1    2    0    0  0.16523531293E+01 -0.62443546282E+02  0.29969823602E+03  0.33067500573E+03  0.12500000000E+03 0.  0.
         25    1    1    2    0    0 -0.55363937547E+02 -0.73812026134E+02 -0.15583201416E+03  0.22004998846E+03  0.12500000000E+03 0.  0.
</event>
<event>
 5    0  0.5634041E-005  0.2764625E+03  0.7546771E-02  0.1097637E+00
         21   -1    0    0  502  501  0.00000000000E+00  0.00000000000E+00  0.31701603869E+03  0.31701603869E+03  0.00000000000E+00 0. -1.
         21   -1    0    0  501  502 -0.00000000000E+00 -0.00000000000E+00 -0.24109664201E+03  0.24109664201E+03  0.00000000000E+00 0. -1.
         25    1    1    2    0    0 -0.75671624790E+02  0.23323019338E+02 -0.83539562952E+02  0.16992356107E+03  0.12500000000E+03 0.  0.
         25    1    1    2    0    0  0.44708495785E+02 -0.12961487850E+03  0.10118552487E+03  0.21133475050E+03  0.12500000000E+03 0.  0.
         25    1    1    2    0    0  0.30963129004E+02  0.10629185916E+03  0.58273434762E+02  0.17685436913E+03  0.12500000000E+03 0.  0.
</event>
<event>
 5    0  0.5634041E-005  0.3007915E+03  0.7546771E-02  0.1084846E+00
         21   -1    0    0  502  501  0.00000000000E+00  0.00000000000E+00  0.69251912675E+03  0.69251912675E+03  0.00000000000E+00 0. -1.
         21   -1    0    0  501  502 -0.00000000000E+00 -0.00000000000E+00 -0.13064698711E+03  0.13064698711E+03  0.00000000000E+00 0. -1.
         25    1    1    2    0    0  0.40372431681E+02  0.21580892063E+02  0.23388910093E+03  0.26911852347E+03  0.12500000000E+03 0.  0.
         25    1    1    2    0    0 -0.36103310290E+02  0.89384537526E+02  0.35138707596E+03  0.38521542248E+03  0.12500000000E+03 0.  0.
         25    1    1    2    0    0 -0.42691213911E+01 -0.11096542959E+03 -0.23404037247E+02  0.16883216791E+03  0.12500000000E+03 0.  0.
</event>
<event>
 5    0  0.5634041E-005  0.3838143E+03  0.7546771E-02  0.1049533E+00
         21   -1    0    0  502  501  0.00000000000E+00  0.00000000000E+00  0.15507644649E+03  0.15507644649E+03  0.00000000000E+00 0.  1.
         21   -1    0    0  501  502 -0.00000000000E+00 -0.00000000000E+00 -0.94994064389E+03  0.94994064389E+03  0.00000000000E+00 0.  1.
         25    1    1    2    0    0  0.71829738647E+02  0.19826322880E+03 -0.48970263888E+03  0.54763262665E+03  0.12500000000E+03 0.  0.
         25    1    1    2    0    0 -0.13827345019E+03  0.38533836529E+02 -0.13265718101E+03  0.23200717932E+03  0.12500000000E+03 0.  0.
         25    1    1    2    0    0  0.66443711539E+02 -0.23679706533E+03 -0.17250437751E+03  0.32537728441E+03  0.12500000000E+03 0.  0.
</event>
<event>
 5    0  0.5634041E-005  0.3280517E+03  0.7546771E-02  0.1072002E+00
         21   -1    0    0  502  501  0.00000000000E+00  0.00000000000E+00  0.10211237183E+03  0.10211237183E+03  0.00000000000E+00 0.  1.
         21   -1    0    0  501  502 -0.00000000000E+00 -0.00000000000E+00 -0.10539165585E+04  0.10539165585E+04  0.00000000000E+00 0.  1.
         25    1    1    2    0    0  0.17172555409E+03  0.15140546869E+03 -0.57397867811E+03  0.63046792527E+03  0.12500000000E+03 0.  0.
         25    1    1    2    0    0 -0.12946945444E+03 -0.14783412128E+03 -0.25324650819E+03  0.34405822321E+03  0.12500000000E+03 0.  0.
         25    1    1    2    0    0 -0.42256099646E+02 -0.35713474027E+01 -0.12457900034E+03  0.18150278181E+03  0.12500000000E+03 0.  0.
</event>
<event>
 5    0  0.5634041E-005  0.2507640E+03  0.7546771E-02  0.1112823E+00
         21   -1    0    0  502  501  0.00000000000E+00  0.00000000000E+00  0.38980251527E+03  0.38980251527E+03  0.00000000000E+00 0. -1.
         21   -1    0    0  501  502 -0.00000000000E+00 -0.00000000000E+00 -0.16131912125E+03  0.16131912125E+03  0.00000000000E+00 0. -1.
         25    1    1    2    0    0 -0.47023583865E+02  0.90624579666E+02 -0.36293824295E+02  0.16542754777E+03  0.12500000000E+03 0.  0.
         25    1    1    2    0    0  0.24999658322E+02 -0.18010746858E+02  0.16216181059E+03  0.20705270520E+03  0.12500000000E+03 0.  0.
         25    1    1    2    0    0  0.22023925542E+02 -0.72613832808E+02  0.10261540773E+03  0.17864138355E+03  0.12500000000E+03 0.  0.
</event>
<event>
 5    0  0.5634041E-005  0.3859759E+03  0.7546771E-02  0.1048747E+00
         21   -1    0    0  502  501  0.00000000000E+00  0.00000000000E+00  0.14493871762E+03  0.14493871762E+03  0.00000000000E+00 0. -1.
         21   -1    0    0  501  502 -0.00000000000E+00 -0.00000000000E+00 -0.10278645336E+04  0.10278645336E+04  0.00000000000E+00 0. -1.
         25    1    1    2    0    0 -0.26962239663E+02  0.19678415082E+03 -0.35948432351E+03  0.42930751592E+03  0.12500000000E+03 0.  0.
         25    1    1    2    0    0  0.22341305879E+03 -0.12077594820E+03 -0.27867865125E+03  0.39722413719E+03  0.12500000000E+03 0.  0.
         25    1    1    2    0    0 -0.19645081913E+03 -0.76008202622E+02 -0.24476284121E+03  0.34627159809E+03  0.12500000000E+03 0.  0.
</event>
<event>
 5    0  0.5634041E-005  0.2942973E+03  0.7546771E-02  0.1088127E+00
         21   -1    0    0  502  501  0.00000000000E+00  0.00000000000E+00  0.17437012443E+03  0.17437012443E+03  0.00000000000E+00 0.  1.
         21   -1    0    0  501  502 -0.00000000000E+00 -0.00000000000E+00 -0.49670728963E+03  0.49670728963E+03  0.00000000000E+00 0.  1.
         25    1    1    2    0    0  0.54938783887E+02  0.11609139624E+03 -0.88429515944E+02  0.19985059806E+03  0.12500000000E+03 0.  0.
         25    1    1    2    0    0 -0.87829638682E+02 -0.16211044364E+03 -0.29008778161E+02  0.22463381441E+03  0.12500000000E+03 0.  0.
         25    1    1    2    0    0  0.32890854796E+02  0.46019047398E+02 -0.20489887110E+03  0.24659300159E+03  0.12500000000E+03 0.  0.
</event>
<event>
 5    0  0.6288165E-005  0.3490796E+03  0.7546771E-02  0.1062993E+00
         21   -1    0    0  502  501  0.00000000000E+00  0.00000000000E+00  0.19277218323E+03  0.19277218323E+03  0.00000000000E+00 0.  1.
         21   -1    0    0  501  502 -0.00000000000E+00 -0.00000000000E+00 -0.63212742238E+03  0.63212742238E+03  0.00000000000E+00 0.  1.
         25    1    1    2    0    0 -0.18541207036E+03  0.34623237262E+02 -0.16642873817E+03  0.28089131222E+03  0.12500000000E+03 0.  0.
         25    1    1    2    0    0  0.12898701001E+03 -0.95282308126E+02  0.30448804149E+02  0.20559303652E+03  0.12500000000E+03 0.  0.
         25    1    1    2    0    0  0.56425060345E+02  0.60659070864E+02 -0.30337530513E+03  0.33841525686E+03  0.12500000000E+03 0.  0.
</event>
<event>
 5    0  0.5634041E-005  0.3946467E+03  0.7546771E-02  0.1045649E+00
         21   -1    0    0  502  501  0.00000000000E+00  0.00000000000E+00  0.18979940117E+03  0.18979940117E+03  0.00000000000E+00 0.  1.
         21   -1    0    0  501  502 -0.00000000000E+00 -0.00000000000E+00 -0.82058217450E+03  0.82058217450E+03  0.00000000000E+00 0.  1.
         25    1    1    2    0    0  0.56170291610E+01  0.13538712144E+03 -0.41427211010E+03  0.45343974779E+03  0.12500000000E+03 0.  0.
         25    1    1    2    0    0  0.19073175176E+03  0.60987242948E+01 -0.37994292700E+02  0.23126686283E+03  0.12500000000E+03 0.  0.
         25    1    1    2    0    0 -0.19634878092E+03 -0.14148584573E+03 -0.17851637052E+03  0.32567496504E+03  0.12500000000E+03 0.  0.
</event>
<event>
 5    0  0.5634041E-005  0.4307909E+03  0.7546771E-02  0.1033610E+00
         21   -1    0    0  502  501  0.00000000000E+00  0.00000000000E+00  0.24683227042E+03  0.24683227042E+03  0.00000000000E+00 0. -1.
         21   -1    0    0  501  502 -0.00000000000E+00 -0.00000000000E+00 -0.75184973773E+03  0.75184973773E+03  0.00000000000E+00 0. -1.
         25    1    1    2    0    0  0.17078058637E+02  0.67790966190E+02  0.70280041018E+02  0.15953544857E+03  0.12500000000E+03 0.  0.
         25    1    1    2    0    0 -0.72491374358E+02 -0.20873480101E+03 -0.58992665594E+03  0.64223335004E+03  0.12500000000E+03 0.  0.
         25    1    1    2    0    0  0.55413315721E+02  0.14094383482E+03  0.14629147609E+02  0.19691320955E+03  0.12500000000E+03 0.  0.
</event>
<event>
 5    0  0.5634041E-005  0.3961633E+03  0.7546771E-02  0.1045116E+00
         21   -1    0    0  502  501  0.00000000000E+00  0.00000000000E+00  0.51319074109E+03  0.51319074109E+03  0.00000000000E+00 0. -1.
         21   -1    0    0  501  502 -0.00000000000E+00 -0.00000000000E+00 -0.30582268324E+03  0.30582268324E+03  0.00000000000E+00 0. -1.
         25    1    1    2    0    0  0.12244002386E+03  0.24288368893E+03 -0.61340748262E+02  0.30556788638E+03  0.12500000000E+03 0.  0.
         25    1    1    2    0    0 -0.90550202681E+02 -0.16661315659E+01  0.15004753200E+03  0.21527047419E+03  0.12500000000E+03 0.  0.
         25    1    1    2    0    0 -0.31889821181E+02 -0.24121755736E+03  0.11866127411E+03  0.29817506376E+03  0.12500000000E+03 0.  0.
</event>
<event>
 5    0  0.5634041E-005  0.2635677E+03  0.7546771E-02  0.1105018E+00
         21   -1    0    0  502  501  0.00000000000E+00  0.00000000000E+00  0.26745585734E+04  0.26745585734E+04  0.00000000000E+00 0. -1.
         21   -1    0    0  501  502 -0.00000000000E+00 -0.00000000000E+00 -0.25973599456E+02  0.25973599456E+02  0.00000000000E+00 0. -1.
         25    1    1    2    0    0  0.33295731249E+02  0.38288906778E+02  0.53409974092E+03  0.55087401405E+03  0.12500000000E+03 0.  0.
         25    1    1    2    0    0  0.61723968268E+02 -0.12437325017E+02  0.16987949618E+04  0.17045509255E+04  0.12500000000E+03 0.  0.
         25    1    1    2    0    0 -0.95019699517E+02 -0.25851581761E+02  0.41569027126E+03  0.44510723337E+03  0.12500000000E+03 0.  0.
</event>
<event>
 5    0  0.5634041E-005  0.3043275E+03  0.7546771E-02  0.1083097E+00
         21   -1    0    0  502  501  0.00000000000E+00  0.00000000000E+00  0.70645997336E+03  0.70645997336E+03  0.00000000000E+00 0.  1.
         21   -1    0    0  501  502 -0.00000000000E+00 -0.00000000000E+00 -0.13109766822E+03  0.13109766822E+03  0.00000000000E+00 0.  1.
         25    1    1    2    0    0  0.76087151516E+02  0.19904922779E+02  0.19218891903E+03  0.24237788920E+03  0.12500000000E+03 0.  0.
         25    1    1    2    0    0 -0.15108264768E+03  0.11112837437E+03  0.31566486787E+03  0.38787213206E+03  0.12500000000E+03 0.  0.
         25    1    1    2    0    0  0.74995496164E+02 -0.13103329715E+03  0.67508518247E+02  0.20730762032E+03  0.12500000000E+03 0.  0.
</event>
<event>
 5    0  0.5634041E-005  0.4441810E+03  0.7546771E-02  0.1029472E+00
         21   -1    0    0  502  501  0.00000000000E+00  0.00000000000E+00  0.67820458566E+03  0.67820458566E+03  0.00000000000E+00 0.  1.
         21   -1    0    0  501  502 -0.00000000000E+00 -0.00000000000E+00 -0.29091042959E+03  0.29091042959E+03  0.00000000000E+00 0.  1.
         25    1    1    2    0    0 -0.15188936289E+03  0.18950145166E+02  0.49431956665E+03  0.53235920254E+03  0.12500000000E+03 0.  0.
         25    1    1    2    0    0  0.14787097287E+03  0.86821412907E+02 -0.15872539370E+03  0.26499534517E+03  0.12500000000E+03 0.  0.
         25    1    1    2    0    0  0.40183900171E+01 -0.10577155807E+03  0.51699983124E+02  0.17176046754E+03  0.12500000000E+03 0.  0.
</event>
<event>
 5    0  0.5901754E-005  0.3423298E+03  0.7546771E-02  0.1065808E+00
         21   -1    0    0  502  501  0.00000000000E+00  0.00000000000E+00  0.11311735131E+04  0.11311735131E+04  0.00000000000E+00 0.  1.
         21   -1    0    0  501  502 -0.00000000000E+00 -0.00000000000E+00 -0.10360007869E+03  0.10360007869E+03  0.00000000000E+00 0.  1.
         25    1    1    2    0    0 -0.10676315040E+03  0.28417865524E+02  0.62447187358E+03  0.64637146151E+03  0.12500000000E+03 0.  0.
         25    1    1    2    0    0 -0.94040964966E+02 -0.12081847695E+02  0.53056875595E+02  0.16561916007E+03  0.12500000000E+03 0.  0.
         25    1    1    2    0    0  0.20080411537E+03 -0.16336017829E+02  0.35004468523E+03  0.42278297019E+03  0.12500000000E+03 0.  0.
</event>
<event>
 5    0  0.5634041E-005  0.2153693E+03  0.7546771E-02  0.1137383E+00
         21   -1    0    0  502  501  0.00000000000E+00  0.00000000000E+00  0.10236589180E+04  0.10236589180E+04  0.00000000000E+00 0. -1.
         21   -1    0    0  501  502 -0.00000000000E+00 -0.00000000000E+00 -0.45311909726E+02  0.45311909726E+02  0.00000000000E+00 0. -1.
         25    1    1    2    0    0  0.16961064894E+02  0.16980276763E+01  0.43588375773E+03  0.45377330383E+03  0.12500000000E+03 0.  0.
         25    1    1    2    0    0  0.48856273294E+01 -0.44981291107E+02  0.14982369799E+03  0.20029809381E+03  0.12500000000E+03 0.  0.
         25    1    1    2    0    0 -0.21846692223E+02  0.43283263431E+02  0.39263955261E+03  0.41489943013E+03  0.12500000000E+03 0.  0.
</event>
<event>
 5    0  0.5634041E-005  0.3196694E+03  0.7546771E-02  0.1075802E+00
         21   -1    0    0  502  501  0.00000000000E+00  0.00000000000E+00  0.14680657638E+03  0.14680657638E+03  0.00000000000E+00 0. -1.
         21   -1    0    0  501  502 -0.00000000000E+00 -0.00000000000E+00 -0.69607611525E+03  0.69607611525E+03  0.00000000000E+00 0. -1.
         25    1    1    2    0    0  0.10510149645E+03  0.81801674727E+02 -0.45977091755E+03  0.49472430218E+03  0.12500000000E+03 0.  0.
         25    1    1    2    0    0 -0.10289467050E+03 -0.11627111655E+03 -0.89440734910E+02  0.21847409646E+03  0.12500000000E+03 0.  0.
         25    1    1    2    0    0 -0.22068259506E+01  0.34469441819E+02 -0.57886417407E-01  0.12968429300E+03  0.12500000000E+03 0.  0.
</event>
<event>
 5    0  0.5634041E-005  0.4329080E+03  0.7546771E-02  0.1032945E+00
         21   -1    0    0  502  501  0.00000000000E+00  0.00000000000E+00  0.13395298334E+04  0.13395298334E+04  0.00000000000E+00 0. -1.
         21   -1    0    0  501  502 -0.00000000000E+00 -0.00000000000E+00 -0.13990682065E+03  0.13990682065E+03  0.00000000000E+00 0. -1.
         25    1    1    2    0    0  0.25075943956E+03 -0.10874264855E+03  0.12635314058E+03  0.32602971687E+03  0.12500000000E+03 0.  0.
         25    1    1    2    0    0 -0.75323551037E+02 -0.39064266385E+02  0.27902984243E+03  0.31730475448E+03  0.12500000000E+03 0.  0.
         25    1    1    2    0    0 -0.17543588853E+03  0.14780691494E+03  0.79424002979E+03  0.83610218275E+03  0.12500000000E+03 0.  0.
</event>
<event>
 5    0  0.5634041E-005  0.2517061E+03  0.7546771E-02  0.1112231E+00
         21   -1    0    0  502  501  0.00000000000E+00  0.00000000000E+00  0.56667091730E+02  0.56667091730E+02  0.00000000000E+00 0.  1.
         21   -1    0    0  501  502 -0.00000000000E+00 -0.00000000000E+00 -0.11180378314E+04  0.11180378314E+04  0.00000000000E+00 0.  1.
         25    1    1    2    0    0  0.79322250554E+02  0.29011101065E+02 -0.73744348274E+03  0.75271611757E+03  0.12500000000E+03 0.  0.
         25    1    1    2    0    0 -0.11789034350E+02 -0.25574105201E+02 -0.14541813440E+03  0.19381550506E+03  0.12500000000E+03 0.  0.
         25    1    1    2    0    0 -0.67533216204E+02 -0.34369958633E+01 -0.17850912249E+03  0.22817330046E+03  0.12500000000E+03 0.  0.
</event>
<event>
 5    0  0.5634041E-005  0.2810631E+03  0.7546771E-02  0.1095110E+00
         21   -1    0    0  502  501  0.00000000000E+00  0.00000000000E+00  0.96263993974E+03  0.96263993974E+03  0.00000000000E+00 0.  1.
         21   -1    0    0  501  502 -0.00000000000E+00 -0.00000000000E+00 -0.82062290731E+02  0.82062290731E+02  0.00000000000E+00 0.  1.
         25    1    1    2    0    0 -0.16185083835E+03  0.34839045735E+02  0.23925195466E+03  0.31666378194E+03  0.12500000000E+03 0.  0.
         25    1    1    2    0    0  0.11309031248E+03 -0.82658823993E+02  0.46430715666E+03  0.50082735117E+03  0.12500000000E+03 0.  0.
         25    1    1    2    0    0  0.48760525874E+02  0.47819778259E+02  0.17701853769E+03  0.22721109736E+03  0.12500000000E+03 0.  0.
</event>
<event>
 5    0  0.6079981E-005  0.7183251E+03  0.7546771E-02  0.9686397E-01
         21   -1    0    0  502  501  0.00000000000E+00  0.00000000000E+00  0.20680760206E+03  0.20680760206E+03  0.00000000000E+00 0.  1.
         21   -1    0    0  501  502 -0.00000000000E+00 -0.00000000000E+00 -0.24950290411E+04  0.24950290411E+04  0.00000000000E+00 0.  1.
         25    1    1    2    0    0 -0.23471591446E+03  0.17998278942E+03 -0.92615917872E+03  0.98024547401E+03  0.12500000000E+03 0.  0.
         25    1    1    2    0    0  0.52061778953E+03  0.93399057433E+01 -0.12156040645E+04  0.13283253962E+04  0.12500000000E+03 0.  0.
         25    1    1    2    0    0 -0.28590187507E+03 -0.18932269516E+03 -0.14645819587E+03  0.39326577299E+03  0.12500000000E+03 0.  0.
</event>
<event>
 5    0  0.5634041E-005  0.3388373E+03  0.7546771E-02  0.1067292E+00
         21   -1    0    0  502  501  0.00000000000E+00  0.00000000000E+00  0.43368129088E+03  0.43368129088E+03  0.00000000000E+00 0. -1.
         21   -1    0    0  501  502 -0.00000000000E+00 -0.00000000000E+00 -0.26473515111E+03  0.26473515111E+03  0.00000000000E+00 0. -1.
         25    1    1    2    0    0 -0.17565792416E+03  0.62334453493E+02  0.11919322237E+03  0.25411279911E+03  0.12500000000E+03 0.  0.
         25    1    1    2    0    0 -0.34462440921E+02 -0.43028857209E+02 -0.88491482011E+02  0.16277249392E+03  0.12500000000E+03 0.  0.
         25    1    1    2    0    0  0.21012036508E+03 -0.19305596284E+02  0.13824439941E+03  0.28153114897E+03  0.12500000000E+03 0.  0.
</event>
<event>
 5    0  0.5634041E-005  0.2462820E+03  0.7546771E-02  0.1115677E+00
         21   -1    0    0  502  501  0.00000000000E+00  0.00000000000E+00  0.77461994316E+03  0.77461994316E+03  0.00000000000E+00 0.  1.
         21   -1    0    0  501  502 -0.00000000000E+00 -0.00000000000E+00 -0.78302699779E+02  0.78302699779E+02  0.00000000000E+00 0.  1.
         25    1    1    2    0    0 -0.21276203128E+01  0.40197902970E+02  0.53626283388E+02  0.14184913268E+03  0.12500000000E+03 0.  0.
         25    1    1    2    0    0 -0.35431499091E+02 -0.92256926365E+02  0.40101892953E+03  0.43151814960E+03  0.12500000000E+03 0.  0.
         25    1    1    2    0    0  0.37559119404E+02  0.52059023395E+02  0.24167203046E+03  0.27955536066E+03  0.12500000000E+03 0.  0.
</event>
<event>
 5    0  0.5634041E-005  0.2865436E+03  0.7546771E-02  0.1092168E+00
         21   -1    0    0  502  501  0.00000000000E+00  0.00000000000E+00  0.28281132871E+03  0.28281132871E+03  0.00000000000E+00 0. -1.
         21   -1    0    0  501  502 -0.00000000000E+00 -0.00000000000E+00 -0.29032504640E+03  0.29032504640E+03  0.00000000000E+00 0. -1.
         25    1    1    2    0    0 -0.39707965149E+02 -0.99108106964E+02 -0.74268199976E+02  0.18038820607E+03  0.12500000000E+03 0.  0.
         25    1    1    2    0    0  0.12687162724E+01  0.40397057852E+01 -0.10025891644E+03  0.16029591133E+03  0.12500000000E+03 0.  0.
         25    1    1    2    0    0  0.38439248876E+02  0.95068401178E+02  0.16701339873E+03  0.23245225770E+03  0.12500000000E+03 0.  0.
</event>
<event>
 5    0  0.5634041E-005  0.2430099E+03  0.7546771E-02  0.1117804E+00
         21   -1    0    0  502  501  0.00000000000E+00  0.00000000000E+00  0.21735606472E+03  0.21735606472E+03  0.00000000000E+00 0. -1.
         21   -1    0    0  501  502 -0.00000000000E+00 -0.00000000000E+00 -0.27169162633E+03  0.27169162633E+03  0.00000000000E+00 0. -1.
         25    1    1    2    0    0  0.73113052259E+02 -0.67955035916E+02 -0.79763697362E+01  0.16016250432E+03  0.12500000000E+03 0.  0.
         25    1    1    2    0    0 -0.13774874027E+02 -0.31299424710E+02  0.43046055140E+02  0.13655535143E+03  0.12500000000E+03 0.  0.
         25    1    1    2    0    0 -0.59338178232E+02  0.99254460626E+02 -0.89405247010E+02  0.19232983529E+03  0.12500000000E+03 0.  0.
</event>
<event>
 5    0  0.5634041E-005  0.3453951E+03  0.7546771E-02  0.1064521E+00
         21   -1    0    0  502  501  0.00000000000E+00  0.00000000000E+00  0.26569692472E+04  0.26569692472E+04  0.00000000000E+00 0. -1.
         21   -1    0    0  501  502 -0.00000000000E+00 -0.00000000000E+00 -0.44899946776E+02  0.44899946776E+02  0.00000000000E+00 0. -1.
         25    1    1    2    0    0  0.29564036891E+02  0.16563736432E+03  0.92956418701E+03  0.95290311496E+03  0.12500000000E+03 0.  0.
         25    1    1    2    0    0 -0.36072585902E+02  0.69232498455E+02  0.23640723370E+03  0.27858167643E+03  0.12500000000E+03 0.  0.
         25    1    1    2    0    0  0.65085490105E+01 -0.23486986278E+03  0.14460978797E+04  0.14703844026E+04  0.12500000000E+03 0.  0.
</event>
<event>
 5    0  0.6334342E-005  0.2867279E+03  0.7546771E-02  0.1092070E+00
         21   -1    0    0  502  501  0.00000000000E+00  0.00000000000E+00  0.20483716623E+03  0.20483716623E+03  0.00000000000E+00 0. -1.
         21   -1    0    0  501  502 -0.00000000000E+00 -0.00000000000E+00 -0.40135720694E+03  0.40135720694E+03  0.00000000000E+00 0. -1.
         25    1    1    2    0    0  0.10039734196E+03  0.60809306759E+02 -0.83324827547E+01  0.17167360988E+03  0.12500000000E+03 0.  0.
         25    1    1    2    0    0  0.17047927284E+02  0.73155245729E+02  0.14735068713E+01  0.14584064257E+03  0.12500000000E+03 0.  0.
         25    1    1    2    0    0 -0.11744526924E+03 -0.13396455249E+03 -0.18966106483E+03  0.28868012073E+03  0.12500000000E+03 0.  0.
</event>
<event>
 5    0  0.5634041E-005  0.3092716E+03  0.7546771E-02  0.1080696E+00
         21   -1    0    0  502  501  0.00000000000E+00  0.00000000000E+00  0.12949374232E+03  0.12949374232E+03  0.00000000000E+00 0. -1.
         21   -1    0    0  501  502 -0.00000000000E+00 -0.00000000000E+00 -0.73863725679E+03  0.73863725679E+03  0.00000000000E+00 0. -1.
         25    1    1    2    0    0  0.12210318950E+03  0.12465201477E+03 -0.24316726000E+03  0.32434954911E+03  0.12500000000E+03 0.  0.
         25    1    1    2    0    0  0.15219207169E+01  0.58353955219E+02 -0.72658160851E+02  0.15592212374E+03  0.12500000000E+03 0.  0.
         25    1    1    2    0    0 -0.12362511022E+03 -0.18300596999E+03 -0.29331809362E+03  0.38785932626E+03  0.12500000000E+03 0.  0.
</event>
<event>
 5    0  0.5634041E-005  0.3469839E+03  0.7546771E-02  0.1063860E+00
         21   -1    0    0  502  501  0.00000000000E+00  0.00000000000E+00  0.17292439548E+03  0.17292439548E+03  0.00000000000E+00 0. -1.
         21   -1    0    0  501  502 -0.00000000000E+00 -0.00000000000E+00 -0.69624544013E+03  0.69624544013E+03  0.00000000000E+00 0. -1.
         25    1    1    2    0    0  0.95465982191E+02 -0.11981226132E+03  0.56375596566E+02  0.20560140954E+03  0.12500000000E+03 0.  0.
         25    1    1    2    0    0 -0.93485290208E+02  0.17208871275E+02 -0.33870484471E+03  0.37333847453E+03  0.12500000000E+03 0.  0.
         25    1    1    2    0    0 -0.19806919826E+01  0.10260339004E+03 -0.24099179650E+03  0.29022995154E+03  0.12500000000E+03 0.  0.
</event>
<event>
 5    0  0.5634041E-005  0.4394428E+03  0.7546771E-02  0.1030918E+00
         21   -1    0    0  502  501  0.00000000000E+00  0.00000000000E+00  0.80511850437E+03  0.80511850437E+03  0.00000000000E+00 0. -1.
         21   -1    0    0  501  502 -0.00000000000E+00 -0.00000000000E+00 -0.23985283244E+03  0.23985283244E+03  0.00000000000E+00 0. -1.
         25    1    1    2    0    0 -0.47731400554E+02 -0.59534437890E+01  0.97747004928E+02  0.16581075678E+03  0.12500000000E+03 0.  0.
         25    1    1    2    0    0  0.36715975234E+03  0.63380976363E+02  0.29191059545E+03  0.48955104702E+03  0.12500000000E+03 0.  0.
         25    1    1    2    0    0 -0.31942835178E+03 -0.57427532574E+02  0.17560807155E+03  0.38960953301E+03  0.12500000000E+03 0.  0.
</event>
<event>
 5    0  0.5634041E-005  0.2589228E+03  0.7546771E-02  0.1107792E+00
         21   -1    0    0  502  501  0.00000000000E+00  0.00000000000E+00  0.28978845970E+03  0.28978845970E+03  0.00000000000E+00 0.  1.
         21   -1    0    0  501  502 -0.00000000000E+00 -0.00000000000E+00 -0.23134465780E+03  0.23134465780E+03  0.00000000000E+00 0.  1.
         25    1    1    2    0    0 -0.10775426500E+03  0.11489763750E+03 -0.31495305934E+01  0.20111531088E+03  0.12500000000E+03 0.  0.
         25    1    1    2    0    0  0.23637703067E+02 -0.77330360787E+02  0.69999558453E+02  0.16451037624E+03  0.12500000000E+03 0.  0.
         25    1    1    2    0    0  0.84116561931E+02 -0.37567276710E+02 -0.84062259590E+01  0.15550743039E+03  0.12500000000E+03 0.  0.
</event>
<event>
 5    0  0.5634041E-005  0.3212222E+03  0.7546771E-02  0.1075088E+00
         21   -1    0    0  502  501  0.00000000000E+00  0.00000000000E+00  0.22461246382E+03  0.22461246382E+03  0.00000000000E+00 0.  1.
         21   -1    0    0  501  502 -0.00000000000E+00 -0.00000000000E+00 -0.45938535961E+03  0.45938535961E+03  0.00000000000E+00 0.  1.
         25    1    1    2    0    0  0.11835022507E+02  0.55366780984E+02 -0.38628225207E+01  0.13727880241E+03  0.12500000000E+03 0.  0.
         25    1    1    2    0    0  0.12376587184E+03 -0.33566765208E+02  0.70691466435E+02  0.19252792573E+03  0.12500000000E+03 0.  0.
         25    1    1    2    0    0 -0.13560089434E+03 -0.21800015776E+02 -0.30160153970E+03  0.35419109529E+03  0.12500000000E+03 0.  0.
</event>
<event>
 5    0  0.5634041E-005  0.3419574E+03  0.7546771E-02  0.1065965E+00
         21   -1    0    0  502  501  0.00000000000E+00  0.00000000000E+00  0.15240102392E+04  0.15240102392E+04  0.00000000000E+00 0. -1.
         21   -1    0    0  501  502 -0.00000000000E+00 -0.00000000000E+00 -0.76728415464E+02  0.76728415464E+02  0.00000000000E+00 0. -1.
         25    1    1    2    0    0  0.50275375664E+02  0.47618299874E+01  0.10209277616E+03  0.16911009245E+03  0.12500000000E+03 0.  0.
         25    1    1    2    0    0  0.97513041912E+02 -0.11802119842E+03  0.27779360191E+03  0.34092826501E+03  0.12500000000E+03 0.  0.
         25    1    1    2    0    0 -0.14778841758E+03  0.11325936843E+03  0.10673954457E+04  0.10907002972E+04  0.12500000000E+03 0.  0.
</event>
<event>
 5    0  0.5634041E-005  0.2779198E+03  0.7546771E-02  0.1096831E+00
         21   -1    0    0  502  501  0.00000000000E+00  0.00000000000E+00  0.11289833720E+03  0.11289833720E+03  0.00000000000E+00 0.  1.
         21   -1    0    0  501  502 -0.00000000000E+00 -0.00000000000E+00 -0.68415006541E+03  0.68415006541E+03  0.00000000000E+00 0.  1.
         25    1    1    2    0    0 -0.78783385242E+02 -0.39095303979E+02 -0.35033266664E+03  0.38222145662E+03  0.12500000000E+03 0.  0.
         25    1    1    2    0    0  0.76126709500E+02  0.12922726606E+03 -0.10288097224E+03  0.22069086216E+03  0.12500000000E+03 0.  0.
         25    1    1    2    0    0  0.26566757427E+01 -0.90131962077E+02 -0.11803808933E+03  0.19413608384E+03  0.12500000000E+03 0.  0.
</event>
<event>
 5    0  0.5634041E-005  0.2813088E+03  0.7546771E-02  0.1094976E+00
         21   -1    0    0  502  501  0.00000000000E+00  0.00000000000E+00  0.14882151288E+03  0.14882151288E+03  0.00000000000E+00 0. -1.
         21   -1    0    0  501  502 -0.00000000000E+00 -0.00000000000E+00 -0.53174179195E+03  0.53174179195E+03  0.00000000000E+00 0. -1.
         25    1    1    2    0    0  0.91677391276E+02 -0.60140771286E+02 -0.14409204886E+03  0.22002085125E+03  0.12500000000E+03 0.  0.
         25    1    1    2    0    0 -0.25365729526E+02  0.14531731382E+03 -0.32195124306E+02  0.19601547888E+03  0.12500000000E+03 0.  0.
         25    1    1    2    0    0 -0.66311661750E+02 -0.85176542537E+02 -0.20663310592E+03  0.26452697470E+03  0.12500000000E+03 0.  0.
</event>
<event>
 5    0  0.5634041E-005  0.3557061E+03  0.7546771E-02  0.1060297E+00
         21   -1    0    0  502  501  0.00000000000E+00  0.00000000000E+00  0.79885582912E+03  0.79885582912E+03  0.00000000000E+00 0. -1.
         21   -1    0    0  501  502 -0.00000000000E+00 -0.00000000000E+00 -0.15838504343E+03  0.15838504343E+03  0.00000000000E+00 0. -1.
         25    1    1    2    0    0  0.15776079838E+03  0.10753511741E+03  0.46585337331E+03  0.51874525194E+03  0.12500000000E+03 0.  0.
         25    1    1    2    0    0  0.91512229476E+01 -0.10353732658E+03 -0.58717395799E+01  0.16267513701E+03  0.12500000000E+03 0.  0.
         25    1    1    2    0    0 -0.16691202133E+03 -0.39977908328E+01  0.18048915197E+03  0.27582048360E+03  0.12500000000E+03 0.  0.
</event>
<event>
 5    0  0.5634041E-005  0.2539032E+03  0.7546771E-02  0.1110863E+00
         21   -1    0    0  502  501  0.00000000000E+00  0.00000000000E+00  0.22984472043E+03  0.22984472043E+03  0.00000000000E+00 0.  1.
         21   -1    0    0  501  502 -0.00000000000E+00 -0.00000000000E+00 -0.28048005406E+03  0.28048005406E+03  0.00000000000E+00 0.  1.
         25    1    1    2    0    0  0.40441226810E+02  0.37215786314E+02 -0.49824795971E+02  0.14535479996E+03  0.12500000000E+03 0.  0.
         25    1    1    2    0    0  0.60291337437E+01  0.10957948139E+03  0.70318682077E+01  0.16648861933E+03  0.12500000000E+03 0.  0.
         25    1    1    2    0    0 -0.46470360554E+02 -0.14679526771E+03 -0.78424058678E+01  0.19848135520E+03  0.12500000000E+03 0.  0.
</event>
<event>
 5    0  0.5634041E-005  0.3775075E+03  0.7546771E-02  0.1051859E+00
         21   -1    0    0  502  501  0.00000000000E+00  0.00000000000E+00  0.40054941491E+03  0.40054941491E+03  0.00000000000E+00 0.  1.
         21   -1    0    0  501  502 -0.00000000000E+00 -0.00000000000E+00 -0.35579100847E+03  0.35579100847E+03  0.00000000000E+00 0.  1.
         25    1    1    2    0    0  0.26150835763E+03 -0.90672018131E+02 -0.55873891311E+02  0.30879593215E+03  0.12500000000E+03 0.  0.
         25    1    1    2    0    0 -0.17825581293E+03  0.16037683916E+03  0.67089835415E+02  0.27860709144E+03  0.12500000000E+03 0.  0.
         25    1    1    2    0    0 -0.83252544692E+02 -0.69704821025E+02  0.33542462340E+02  0.16893739980E+03  0.12500000000E+03 0.  0.
</event>
<event>
 5    0  0.5634041E-005  0.2330891E+03  0.7546771E-02  0.1124484E+00
         21   -1    0    0  502  501  0.00000000000E+00  0.00000000000E+00  0.10690987544E+03  0.10690987544E+03  0.00000000000E+00 0.  1.
         21   -1    0    0  501  502 -0.00000000000E+00 -0.00000000000E+00 -0.50818993496E+03  0.50818993496E+03  0.00000000000E+00 0.  1.
         25    1    1    2    0    0  0.16642447601E+02  0.11523791213E+02  0.95185575341E+01  0.12698571480E+03  0.12500000000E+03 0.  0.
         25    1    1    2    0    0 -0.22131459686E+02 -0.43935777527E+02 -0.21389732218E+03  0.25258111270E+03  0.12500000000E+03 0.  0.
         25    1    1    2    0    0  0.54890120851E+01  0.32411986314E+02 -0.19690129487E+03  0.23553298290E+03  0.12500000000E+03 0.  0.
</event>
<event>
 5    0  0.5634041E-005  0.4255736E+03  0.7546771E-02  0.1035267E+00
         21   -1    0    0  502  501  0.00000000000E+00  0.00000000000E+00  0.15115457548E+03  0.15115457548E+03  0.00000000000E+00 0.  1.
         21   -1    0    0  501  502 -0.00000000000E+00 -0.00000000000E+00 -0.11981963025E+04  0.11981963025E+04  0.00000000000E+00 0.  1.
         25    1    1    2    0    0 -0.58897176236E+02 -0.15969374336E+03 -0.95636359715E+03  0.97940150040E+03  0.12500000000E+03 0.  0.
         25    1    1    2    0    0  0.53176163493E+02 -0.38386748088E+01 -0.91864245020E+02  0.16403194598E+03  0.12500000000E+03 0.  0.
         25    1    1    2    0    0  0.57210127428E+01  0.16353241817E+03  0.11861151312E+01  0.20591743163E+03  0.12500000000E+03 0.  0.
</event>
<event>
 5    0  0.5634041E-005  0.2432195E+03  0.7546771E-02  0.1117667E+00
         21   -1    0    0  502  501  0.00000000000E+00  0.00000000000E+00  0.31949118533E+03  0.31949118533E+03  0.00000000000E+00 0.  1.
         21   -1    0    0  501  502 -0.00000000000E+00 -0.00000000000E+00 -0.18515599044E+03  0.18515599044E+03  0.00000000000E+00 0.  1.
         25    1    1    2    0    0  0.12829921386E+03 -0.63778862248E+02  0.20705890937E+02  0.19126464771E+03  0.12500000000E+03 0.  0.
         25    1    1    2    0    0 -0.42994753835E+02  0.23160575006E+02  0.38514413530E+02  0.13961848424E+03  0.12500000000E+03 0.  0.
         25    1    1    2    0    0 -0.85304460021E+02  0.40618287242E+02  0.75114890424E+02  0.17376404381E+03  0.12500000000E+03 0.  0.
</event>
<event>
 5    0  0.5845110E-005  0.4042173E+03  0.7546771E-02  0.1042329E+00
         21   -1    0    0  502  501  0.00000000000E+00  0.00000000000E+00  0.39661391240E+03  0.39661391240E+03  0.00000000000E+00 0.  1.
         21   -1    0    0  501  502 -0.00000000000E+00 -0.00000000000E+00 -0.41196652019E+03  0.41196652019E+03  0.00000000000E+00 0.  1.
         25    1    1    2    0    0  0.12713409721E+03  0.63144679072E+02 -0.13694999524E+03  0.23351794441E+03  0.12500000000E+03 0.  0.
         25    1    1    2    0    0 -0.22009940731E+03  0.14085783267E+03  0.13165280330E+03  0.31818569851E+03  0.12500000000E+03 0.  0.
         25    1    1    2    0    0  0.92965310102E+02 -0.20400251174E+03 -0.10055415853E+02  0.25687678966E+03  0.12500000000E+03 0.  0.
</event>
<event>
 5    0  0.5634041E-005  0.3846994E+03  0.7546771E-02  0.1049210E+00
         21   -1    0    0  502  501  0.00000000000E+00  0.00000000000E+00  0.10989278338E+03  0.10989278338E+03  0.00000000000E+00 0. -1.
         21   -1    0    0  501  502 -0.00000000000E+00 -0.00000000000E+00 -0.13467091188E+04  0.13467091188E+04  0.00000000000E+00 0. -1.
         25    1    1    2    0    0  0.80538811628E+02  0.19423362468E+03 -0.12518723111E+03  0.27479090954E+03  0.12500000000E+03 0.  0.
         25    1    1    2    0    0  0.58254455206E+02 -0.14900180197E+03 -0.46896637657E+03  0.51102796488E+03  0.12500000000E+03 0.  0.
         25    1    1    2    0    0 -0.13879326683E+03 -0.45231822705E+02 -0.64266272776E+03  0.67078302778E+03  0.12500000000E+03 0.  0.
</event>
<event>
 5    0  0.5634041E-005  0.2434603E+03  0.7546771E-02  0.1117509E+00
         21   -1    0    0  502  501  0.00000000000E+00  0.00000000000E+00  0.66108832999E+03  0.66108832999E+03  0.00000000000E+00 0. -1.
         21   -1    0    0  501  502 -0.00000000000E+00 -0.00000000000E+00 -0.89659570020E+02  0.89659570020E+02  0.00000000000E+00 0. -1.
         25    1    1    2    0    0 -0.48848429403E+02 -0.25935919699E+02  0.21004412486E+03  0.25060402106E+03  0.12500000000E+03 0.  0.
         25    1    1    2    0    0  0.11837180168E+03 -0.37079711585E+02  0.12193118964E+03  0.21419384550E+03  0.12500000000E+03 0.  0.
         25    1    1    2    0    0 -0.69523372276E+02  0.63015631283E+02  0.23945344547E+03  0.28595003344E+03  0.12500000000E+03 0.  0.
</event>
<event>
 5    0  0.5634041E-005  0.4975588E+03  0.7546771E-02  0.1014418E+00
         21   -1    0    0  502  501  0.00000000000E+00  0.00000000000E+00  0.40848019891E+03  0.40848019891E+03  0.00000000000E+00 0. -1.
         21   -1    0    0  501  502 -0.00000000000E+00 -0.00000000000E+00 -0.60606300437E+03  0.60606300437E+03  0.00000000000E+00 0. -1.
         25    1    1    2    0    0 -0.98878888654E+02  0.15422851779E+03  0.56285665936E+02  0.22881552943E+03  0.12500000000E+03 0.  0.
         25    1    1    2    0    0 -0.23228723871E+03 -0.96751486671E+02 -0.31483241330E+03  0.42197471477E+03  0.12500000000E+03 0.  0.
         25    1    1    2    0    0  0.33116612737E+03 -0.57477031116E+02  0.60963941912E+02  0.36375295907E+03  0.12500000000E+03 0.  0.
</event>
<event>
 5    0  0.5866265E-005  0.4360690E+03  0.7546771E-02  0.1031960E+00
         21   -1    0    0  502  501  0.00000000000E+00  0.00000000000E+00  0.56876578785E+03  0.56876578785E+03  0.00000000000E+00 0. -1.
         21   -1    0    0  501  502 -0.00000000000E+00 -0.00000000000E+00 -0.33433129524E+03  0.33433129524E+03  0.00000000000E+00 0. -1.
         25    1    1    2    0    0 -0.25054319836E+03 -0.14945156504E+01  0.35780950114E+02  0.28227540491E+03  0.12500000000E+03 0.  0.
         25    1    1    2    0    0  0.50450939279E+02 -0.20043293441E+03  0.19471530936E+03  0.31025426696E+03  0.12500000000E+03 0.  0.
         25    1    1    2    0    0  0.20009225909E+03  0.20192745006E+03  0.39382331441E+01  0.31056741122E+03  0.12500000000E+03 0.  0.
</event>
<event>
 5    0  0.5634041E-005  0.4595503E+03  0.7546771E-02  0.1024912E+00
         21   -1    0    0  502  501  0.00000000000E+00  0.00000000000E+00  0.93017513627E+03  0.93017513627E+03  0.00000000000E+00 0.  1.
         21   -1    0    0  501  502 -0.00000000000E+00 -0.00000000000E+00 -0.22703950992E+03  0.22703950992E+03  0.00000000000E+00 0.  1.
         25    1    1    2    0    0  0.20884957767E+03  0.15352490679E+03  0.22982371982E+03  0.36828248029E+03  0.12500000000E+03 0.  0.
         25    1    1    2    0    0 -0.83151063155E+02 -0.34133523879E+03  0.28338457677E+03  0.46835420666E+03  0.12500000000E+03 0.  0.
         25    1    1    2    0    0 -0.12569851452E+03  0.18781033201E+03  0.18992732976E+03  0.32057795924E+03  0.12500000000E+03 0.  0.
</event>
<event>
 5    0  0.5634041E-005  0.3456221E+03  0.7546771E-02  0.1064426E+00
         21   -1    0    0  502  501  0.00000000000E+00  0.00000000000E+00  0.22834011003E+03  0.22834011003E+03  0.00000000000E+00 0.  1.
         21   -1    0    0  501  502 -0.00000000000E+00 -0.00000000000E+00 -0.52314359140E+03  0.52314359140E+03  0.00000000000E+00 0.  1.
         25    1    1    2    0    0 -0.11982998790E+03 -0.17854438376E+02 -0.27220246489E+03  0.32310553827E+03  0.12500000000E+03 0.  0.
         25    1    1    2    0    0  0.15722073337E+01 -0.51019037495E+01 -0.16273875182E+03  0.20527396962E+03  0.12500000000E+03 0.  0.
         25    1    1    2    0    0  0.11825778056E+03  0.22956342125E+02  0.14013773534E+03  0.22310419354E+03  0.12500000000E+03 0.  0.
</event>
<event>
 5    0  0.5634041E-005  0.2993827E+03  0.7546771E-02  0.1085550E+00
         21   -1    0    0  502  501  0.00000000000E+00  0.00000000000E+00  0.43429672288E+03  0.43429672288E+03  0.00000000000E+00 0.  1.
         21   -1    0    0  501  502 -0.00000000000E+00 -0.00000000000E+00 -0.20637961613E+03  0.20637961613E+03  0.00000000000E+00 0.  1.
         25    1    1    2    0    0  0.45756488236E+02 -0.92365126918E+02  0.24546701257E+03  0.29411566967E+03  0.12500000000E+03 0.  0.
         25    1    1    2    0    0 -0.35724530966E+02  0.57114340180E+02  0.97920548893E+02  0.17248688026E+03  0.12500000000E+03 0.  0.
         25    1    1    2    0    0 -0.10031957270E+02  0.35250786738E+02 -0.11547045471E+03  0.17407378908E+03  0.12500000000E+03 0.  0.
</event>
<event>
 5    0  0.5634041E-005  0.2730644E+03  0.7546771E-02  0.1099538E+00
         21   -1    0    0  502  501  0.00000000000E+00  0.00000000000E+00  0.27046366781E+04  0.27046366781E+04  0.00000000000E+00 0.  1.
         21   -1    0    0  501  502 -0.00000000000E+00 -0.00000000000E+00 -0.27569004937E+02  0.27569004937E+02  0.00000000000E+00 0.  1.
         25    1    1    2    0    0 -0.44597068892E+02 -0.18366189507E+02  0.10350942814E+04  0.10437295564E+04  0.12500000000E+03 0.  0.
         25    1    1    2    0    0  0.50610737601E+02 -0.10832479268E+03  0.11930227371E+04  0.12054973906E+04  0.12500000000E+03 0.  0.
         25    1    1    2    0    0 -0.60136687095E+01  0.12669098218E+03  0.44895065466E+03  0.48297873607E+03  0.12500000000E+03 0.  0.
</event>
<event>
 5    0  0.5634041E-005  0.3335079E+03  0.7546771E-02  0.1069595E+00
         21   -1    0    0  502  501  0.00000000000E+00  0.00000000000E+00  0.22081457066E+03  0.22081457066E+03  0.00000000000E+00 0. -1.
         21   -1    0    0  501  502 -0.00000000000E+00 -0.00000000000E+00 -0.50371456610E+03  0.50371456610E+03  0.00000000000E+00 0. -1.
         25    1    1    2    0    0 -0.62093161057E+02  0.68939214571E+02 -0.11572888971E+03  0.19397513209E+03  0.12500000000E+03 0.  0.
         25    1    1    2    0    0  0.18303550698E+03  0.26606817238E+02  0.57766833785E+02  0.23059038711E+03  0.12500000000E+03 0.  0.
         25    1    1    2    0    0 -0.12094234593E+03 -0.95546031809E+02 -0.22493793951E+03  0.29996361757E+03  0.12500000000E+03 0.  0.
</event>
<event>
 5    0  0.5634041E-005  0.3244845E+03  0.7546771E-02  0.1073604E+00
         21   -1    0    0  502  501  0.00000000000E+00  0.00000000000E+00  0.14819568538E+03  0.14819568538E+03  0.00000000000E+00 0.  1.
         21   -1    0    0  501  502 -0.00000000000E+00 -0.00000000000E+00 -0.71048078274E+03  0.71048078274E+03  0.00000000000E+00 0.  1.
         25    1    1    2    0    0 -0.85401600189E+02 -0.14365194617E+03 -0.12666543064E+03  0.24412793014E+03  0.12500000000E+03 0.  0.
         25    1    1    2    0    0  0.97976756652E+02 -0.51107727345E+02 -0.30720312377E+03  0.34958576043E+03  0.12500000000E+03 0.  0.
         25    1    1    2    0    0 -0.12575156463E+02  0.19475967352E+03 -0.12841654294E+03  0.26496277756E+03  0.12500000000E+03 0.  0.
</event>
<event>
 5    0  0.5634041E-005  0.2534028E+03  0.7546771E-02  0.1111173E+00
         21   -1    0    0  502  501  0.00000000000E+00  0.00000000000E+00  0.35470008564E+03  0.35470008564E+03  0.00000000000E+00 0. -1.
         21   -1    0    0  501  502 -0.00000000000E+00 -0.00000000000E+00 -0.18103452173E+03  0.18103452173E+03  0.00000000000E+00 0. -1.
         25    1    1    2    0    0  0.60560441782E+02  0.24734773464E+02 -0.72137025005E+02  0.15845544012E+03  0.12500000000E+03 0.  0.
         25    1    1    2    0    0  0.16912412091E+02 -0.49302090008E+02  0.96639649832E+02  0.16637592278E+03  0.12500000000E+03 0.  0.
         25    1    1    2    0    0 -0.77472853873E+02  0.24567316544E+02  0.14916293909E+03  0.21090324447E+03  0.12500000000E+03 0.  0.
</event>
<event>
 5    0  0.5634041E-005  0.4843811E+03  0.7546771E-02  0.1017938E+00
         21   -1    0    0  502  501  0.00000000000E+00  0.00000000000E+00  0.59987774242E+03  0.59987774242E+03  0.00000000000E+00 0.  1.
         21   -1    0    0  501  502 -0.00000000000E+00 -0.00000000000E+00 -0.39112152386E+03  0.39112152386E+03  0.00000000000E+00 0.  1.
         25    1    1    2    0    0 -0.26454851808E+03  0.98673034738E+02  0.24967501138E+03  0.39709557730E+03  0.12500000000E+03 0.  0.
         25    1    1    2    0    0 -0.75439115551E+02  0.10226661000E+03 -0.12430883491E+02  0.17868700719E+03  0.12500000000E+03 0.  0.
         25    1    1    2    0    0  0.33998763363E+03 -0.20093964474E+03 -0.28487909329E+02  0.41521668178E+03  0.12500000000E+03 0.  0.
</event>
<event>
 5    0  0.5634041E-005  0.2498630E+03  0.7546771E-02  0.1113391E+00
         21   -1    0    0  502  501  0.00000000000E+00  0.00000000000E+00  0.57734535613E+02  0.57734535613E+02  0.00000000000E+00 0.  1.
         21   -1    0    0  501  502 -0.00000000000E+00 -0.00000000000E+00 -0.10813551943E+04  0.10813551943E+04  0.00000000000E+00 0.  1.
         25    1    1    2    0    0 -0.59481810988E+02  0.80881821780E+02 -0.17499957603E+03  0.23733901184E+03  0.12500000000E+03 0.  0.
         25    1    1    2    0    0  0.63387011930E+02  0.13112154179E+02 -0.50387050994E+03  0.52316377231E+03  0.12500000000E+03 0.  0.
         25    1    1    2    0    0 -0.39052009413E+01 -0.93993975959E+02 -0.34475057271E+03  0.37858694576E+03  0.12500000000E+03 0.  0.
</event>
<event>
 5    0  0.5634041E-005  0.6060075E+03  0.7546771E-02  0.9893020E-01
         21   -1    0    0  502  501  0.00000000000E+00  0.00000000000E+00  0.30249643779E+03  0.30249643779E+03  0.00000000000E+00 0.  1.
         21   -1    0    0  501  502 -0.00000000000E+00 -0.00000000000E+00 -0.12140475025E+04  0.12140475025E+04  0.00000000000E+00 0.  1.
         25    1    1    2    0    0 -0.10293954410E+03 -0.36562745989E+03 -0.87737326663E+03  0.96420373271E+03  0.12500000000E+03 0.  0.
         25    1    1    2    0    0  0.21084362072E+03  0.20176726894E+03 -0.37508941453E+02  0.31968262997E+03  0.12500000000E+03 0.  0.
         25    1    1    2    0    0 -0.10790407662E+03  0.16386019094E+03  0.33311433276E+01  0.23265757766E+03  0.12500000000E+03 0.  0.
</event>
<event>
 5    0  0.5634041E-005  0.2151575E+03  0.7546771E-02  0.1137546E+00
         21   -1    0    0  502  501  0.00000000000E+00  0.00000000000E+00  0.14447213266E+04  0.14447213266E+04  0.00000000000E+00 0. -1.
         21   -1    0    0  501  502 -0.00000000000E+00 -0.00000000000E+00 -0.32042681649E+02  0.32042681649E+02  0.00000000000E+00 0. -1.
         25    1    1    2    0    0 -0.77957620665E+02 -0.94857518156E+01  0.68304344454E+03  0.69881379297E+03  0.12500000000E+03 0.  0.
         25    1    1    2    0    0  0.32177850352E+02  0.19388996116E+02  0.44162130337E+03  0.46050594222E+03  0.12500000000E+03 0.  0.
         25    1    1    2    0    0  0.45779770313E+02 -0.99032443005E+01  0.28801389704E+03  0.31744427307E+03  0.12500000000E+03 0.  0.
</event>
<event>
 5    0  0.5700337E-005  0.3321457E+03  0.7546771E-02  0.1070191E+00
         21   -1    0    0  502  501  0.00000000000E+00  0.00000000000E+00  0.42422120126E+03  0.42422120126E+03  0.00000000000E+00 0.  1.
         21   -1    0    0  501  502 -0.00000000000E+00 -0.00000000000E+00 -0.26005478426E+03  0.26005478426E+03  0.00000000000E+00 0.  1.
         25    1    1    2    0    0  0.17780564067E+02 -0.12299031234E+03 -0.63643501514E+02  0.18739866775E+03  0.12500000000E+03 0.  0.
         25    1    1    2    0    0  0.45083867508E+02  0.22984765402E+03  0.13431494107E+03  0.29753655668E+03  0.12500000000E+03 0.  0.
         25    1    1    2    0    0 -0.62864431575E+02 -0.10685734168E+03  0.93494977443E+02  0.19934076110E+03  0.12500000000E+03 0.  0.
</event>
<event>
 5    0  0.5634041E-005  0.3487114E+03  0.7546771E-02  0.1063145E+00
         21   -1    0    0  502  501  0.00000000000E+00  0.00000000000E+00  0.17998076193E+03  0.17998076193E+03  0.00000000000E+00 0. -1.
         21   -1    0    0  501  502 -0.00000000000E+00 -0.00000000000E+00 -0.67562586083E+03  0.67562586083E+03  0.00000000000E+00 0. -1.
         25    1    1    2    0    0  0.18771360883E+03  0.69823214536E+02 -0.45631632297E+03  0.51377160961E+03  0.12500000000E+03 0.  0.
         25    1    1    2    0    0 -0.12664608884E+03 -0.89232673026E+02 -0.25422791066E+02  0.20068138942E+03  0.12500000000E+03 0.  0.
         25    1    1    2    0    0 -0.61067519997E+02  0.19409458490E+02 -0.13905984865E+02  0.14115362373E+03  0.12500000000E+03 0.  0.
</event>
<event>
 5    0  0.5634041E-005  0.3028618E+03  0.7546771E-02  0.1083819E+00
         21   -1    0    0  502  501  0.00000000000E+00  0.00000000000E+00  0.73731068214E+02  0.73731068214E+02  0.00000000000E+00 0. -1.
         21   -1    0    0  501  502 -0.00000000000E+00 -0.00000000000E+00 -0.12440516993E+04  0.12440516993E+04  0.00000000000E+00 0. -1.
         25    1    1    2    0    0  0.77322487781E+02 -0.16669342403E+02 -0.65792304919E+02  0.16189583527E+03  0.12500000000E+03 0.  0.
         25    1    1    2    0    0 -0.49496033426E+02  0.11615102207E+03 -0.61913668564E+03  0.64412433021E+03  0.12500000000E+03 0.  0.
         25    1    1    2    0    0 -0.27826454354E+02 -0.99481679671E+02 -0.48539164056E+03  0.51176260207E+03  0.12500000000E+03 0.  0.
</event>
<event>
 5    0  0.5634041E-005  0.3105281E+03  0.7546771E-02  0.1080093E+00
         21   -1    0    0  502  501  0.00000000000E+00  0.00000000000E+00  0.74650070367E+02  0.74650070367E+02  0.00000000000E+00 0. -1.
         21   -1    0    0  501  502 -0.00000000000E+00 -0.00000000000E+00 -0.12917295887E+04  0.12917295887E+04  0.00000000000E+00 0. -1.
         25    1    1    2    0    0  0.98529134760E+02 -0.75653004279E+01 -0.13478742086E+03  0.20870522991E+03  0.12500000000E+03 0.  0.
         25    1    1    2    0    0 -0.81824797060E+02 -0.11208302147E+03 -0.27870106321E+03  0.33549543030E+03  0.12500000000E+03 0.  0.
         25    1    1    2    0    0 -0.16704337700E+02  0.11964832190E+03 -0.80359103421E+03  0.82217899882E+03  0.12500000000E+03 0.  0.
</event>
<event>
 5    0  0.5634041E-005  0.5201361E+03  0.7546771E-02  0.1008653E+00
         21   -1    0    0  502  501  0.00000000000E+00  0.00000000000E+00  0.10133324236E+04  0.10133324236E+04  0.00000000000E+00 0. -1.
         21   -1    0    0  501  502 -0.00000000000E+00 -0.00000000000E+00 -0.26698200808E+03  0.26698200808E+03  0.00000000000E+00 0. -1.
         25    1    1    2    0    0  0.18525361789E+03  0.89660800520E+02 -0.54170836679E+02  0.24681458960E+03  0.12500000000E+03 0.  0.
         25    1    1    2    0    0  0.24818255655E+02  0.95131616909E+02 -0.17475342364E+02  0.15998861816E+03  0.12500000000E+03 0.  0.
         25    1    1    2    0    0 -0.21007187355E+03 -0.18479241743E+03  0.81799659459E+03  0.87351122394E+03  0.12500000000E+03 0.  0.
</event>
<event>
 5    0  0.5634041E-005  0.3279926E+03  0.7546771E-02  0.1072029E+00
         21   -1    0    0  502  501  0.00000000000E+00  0.00000000000E+00  0.21457748922E+03  0.21457748922E+03  0.00000000000E+00 0.  1.
         21   -1    0    0  501  502 -0.00000000000E+00 -0.00000000000E+00 -0.50135340639E+03  0.50135340639E+03  0.00000000000E+00 0.  1.
         25    1    1    2    0    0  0.80585526129E+01 -0.43476334199E+02 -0.17242078454E+03  0.21750645702E+03  0.12500000000E+03 0.  0.
         25    1    1    2    0    0  0.41129226706E+02 -0.15000309884E+03  0.56563923000E+02  0.20740544915E+03  0.12500000000E+03 0.  0.
         25    1    1    2    0    0 -0.49187779319E+02  0.19347943304E+03 -0.17091905563E+03  0.29101898945E+03  0.12500000000E+03 0.  0.
</event>
<event>
 5    0  0.5634041E-005  0.3289252E+03  0.7546771E-02  0.1071613E+00
         21   -1    0    0  502  501  0.00000000000E+00  0.00000000000E+00  0.51560995865E+03  0.51560995865E+03  0.00000000000E+00 0. -1.
         21   -1    0    0  501  502 -0.00000000000E+00 -0.00000000000E+00 -0.20983261159E+03  0.20983261159E+03  0.00000000000E+00 0. -1.
         25    1    1    2    0    0 -0.80200834714E+02 -0.23399155418E+03  0.10129428188E+03  0.29507584255E+03  0.12500000000E+03 0.  0.
         25    1    1    2    0    0 -0.19286876692E+02  0.53253023290E+02  0.67010439039E+02  0.15271956994E+03  0.12500000000E+03 0.  0.
         25    1    1    2    0    0  0.99487711405E+02  0.18073853089E+03  0.13747262614E+03  0.27764715775E+03  0.12500000000E+03 0.  0.
</event>
<event>
 5    0  0.5634041E-005  0.2971795E+03  0.7546771E-02  0.1086659E+00
         21   -1    0    0  502  501  0.00000000000E+00  0.00000000000E+00  0.65057999215E+02  0.65057999215E+02  0.00000000000E+00 0.  1.
         21   -1    0    0  501  502 -0.00000000000E+00 -0.00000000000E+00 -0.13574910960E+04  0.13574910960E+04  0.00000000000E+00 0.  1.
         25    1    1    2    0    0  0.72228760552E+02 -0.46274192754E+02 -0.17699312876E+03  0.23304476478E+03  0.12500000000E+03 0.  0.
         25    1    1    2    0    0 -0.60738075378E+01 -0.44590278064E+02 -0.92907925510E+03  0.93852993894E+03  0.12500000000E+03 0.  0.
         25    1    1    2    0    0 -0.66154953015E+02  0.90864470818E+02 -0.18636071297E+03  0.25097439153E+03  0.12500000000E+03 0.  0.
</event>
<event>
 5    0  0.6302504E-005  0.2865180E+03  0.7546771E-02  0.1092181E+00
         21   -1    0    0  502  501  0.00000000000E+00  0.00000000000E+00  0.18520631338E+03  0.18520631338E+03  0.00000000000E+00 0.  1.
         21   -1    0    0  501  502 -0.00000000000E+00 -0.00000000000E+00 -0.44324923943E+03  0.44324923943E+03  0.00000000000E+00 0.  1.
         25    1    1    2    0    0 -0.93452396690E+02 -0.77431919555E+01 -0.15107509509E+03  0.21735222986E+03  0.12500000000E+03 0.  0.
         25    1    1    2    0    0 -0.71334476722E+02 -0.60547138187E+02 -0.11375431468E+03  0.19318283469E+03  0.12500000000E+03 0.  0.
         25    1    1    2    0    0  0.16478687341E+03  0.68290330143E+02  0.67864837183E+01  0.21792048825E+03  0.12500000000E+03 0.  0.
</event>
<event>
 5    0  0.5634041E-005  0.2600954E+03  0.7546771E-02  0.1107086E+00
         21   -1    0    0  502  501  0.00000000000E+00  0.00000000000E+00  0.58664704501E+02  0.58664704501E+02  0.00000000000E+00 0.  1.
         21   -1    0    0  501  502 -0.00000000000E+00 -0.00000000000E+00 -0.11531570691E+04  0.11531570691E+04  0.00000000000E+00 0.  1.
         25    1    1    2    0    0  0.49844877214E+02  0.52568242008E+01 -0.40433159935E+03  0.42617037464E+03  0.12500000000E+03 0.  0.
         25    1    1    2    0    0  0.11411687926E+02  0.39212048372E+02 -0.59933654443E+03  0.61359359910E+03  0.12500000000E+03 0.  0.
         25    1    1    2    0    0 -0.61256565140E+02 -0.44468872573E+02 -0.90824220768E+02  0.17205779982E+03  0.12500000000E+03 0.  0.
</event>
<event>
 5    0  0.5634041E-005  0.3802333E+03  0.7546771E-02  0.1050848E+00
         21   -1    0    0  502  501  0.00000000000E+00  0.00000000000E+00  0.12827701198E+03  0.12827701198E+03  0.00000000000E+00 0.  1.
         21   -1    0    0  501  502 -0.00000000000E+00 -0.00000000000E+00 -0.11270713361E+04  0.11270713361E+04  0.00000000000E+00 0.  1.
         25    1    1    2    0    0 -0.12841703188E+03 -0.32168281628E+02 -0.30300668991E+03  0.35350217333E+03  0.12500000000E+03 0.  0.
         25    1    1    2    0    0  0.16423049258E+03  0.10631187476E+03 -0.48105509540E+02  0.23709282877E+03  0.12500000000E+03 0.  0.
         25    1    1    2    0    0 -0.35813460691E+02 -0.74143593130E+02 -0.64768212471E+03  0.66475334602E+03  0.12500000000E+03 0.  0.
</event>
<event>
 5    0  0.5634041E-005  0.2541886E+03  0.7546771E-02  0.1110686E+00
         21   -1    0    0  502  501  0.00000000000E+00  0.00000000000E+00  0.39713520448E+02  0.39713520448E+02  0.00000000000E+00 0.  1.
         21   -1    0    0  501  502 -0.00000000000E+00 -0.00000000000E+00 -0.16269484848E+04  0.16269484848E+04  0.00000000000E+00 0.  1.
         25    1    1    2    0    0  0.40716438809E+02  0.54677080098E+02 -0.10968021219E+04  0.11060051112E+04  0.12500000000E+03 0.  0.
         25    1    1    2    0    0 -0.17897252984E+00 -0.50914200678E+02 -0.19348832625E+03  0.23591316253E+03  0.12500000000E+03 0.  0.
         25    1    1    2    0    0 -0.40537466279E+02 -0.37628794207E+01 -0.29694451626E+03  0.32474373153E+03  0.12500000000E+03 0.  0.
</event>
<event>
 5    0  0.5634041E-005  0.3427327E+03  0.7546771E-02  0.1065638E+00
         21   -1    0    0  502  501  0.00000000000E+00  0.00000000000E+00  0.77020485995E+03  0.77020485995E+03  0.00000000000E+00 0.  1.
         21   -1    0    0  501  502 -0.00000000000E+00 -0.00000000000E+00 -0.15251229689E+03  0.15251229689E+03  0.00000000000E+00 0.  1.
         25    1    1    2    0    0  0.33506481965E+02 -0.17210171236E+03  0.14053539445E+03  0.25713202995E+03  0.12500000000E+03 0.  0.
         25    1    1    2    0    0 -0.12041275879E+02  0.10500622110E+03 -0.37404272592E+01  0.16373847926E+03  0.12500000000E+03 0.  0.
         25    1    1    2    0    0 -0.21465206086E+02  0.67095491266E+02  0.48089759587E+03  0.50184664762E+03  0.12500000000E+03 0.  0.
</event>
<event>
 5    0  0.5634041E-005  0.3035457E+03  0.7546771E-02  0.1083481E+00
         21   -1    0    0  502  501  0.00000000000E+00  0.00000000000E+00  0.15166883632E+04  0.15166883632E+04  0.00000000000E+00 0. -1.
         21   -1    0    0  501  502 -0.00000000000E+00 -0.00000000000E+00 -0.60750784450E+02  0.60750784450E+02  0.00000000000E+00 0. -1.
         25    1    1    2    0    0  0.91036163436E+02  0.55226146554E+02  0.48733795558E+03  0.51425751649E+03  0.12500000000E+03 0.  0.
         25    1    1    2    0    0 -0.17548817042E+03 -0.13586262307E+03  0.69829426497E+03  0.74329982564E+03  0.12500000000E+03 0.  0.
         25    1    1    2    0    0  0.84452006988E+02  0.80636476513E+02  0.27030535817E+03  0.31988180549E+03  0.12500000000E+03 0.  0.
</event>
<event>
 5    0  0.5634041E-005  0.2604870E+03  0.7546771E-02  0.1106851E+00
         21   -1    0    0  502  501  0.00000000000E+00  0.00000000000E+00  0.15363944931E+04  0.15363944931E+04  0.00000000000E+00 0. -1.
         21   -1    0    0  501  502 -0.00000000000E+00 -0.00000000000E+00 -0.44164093912E+02  0.44164093912E+02  0.00000000000E+00 0. -1.
         25    1    1    2    0    0 -0.35998451488E+02 -0.63203951082E+02  0.25703155595E+03  0.29492515779E+03  0.12500000000E+03 0.  0.
         25    1    1    2    0    0 -0.10507501548E+02 -0.14303958077E+02  0.18383930665E+03  0.22301771561E+03  0.12500000000E+03 0.  0.
         25    1    1    2    0    0  0.46505953037E+02  0.77507909159E+02  0.10513595366E+04  0.10626157136E+04  0.12500000000E+03 0.  0.
</event>
<event>
 5    0  0.5634041E-005  0.2442174E+03  0.7546771E-02  0.1117015E+00
         21   -1    0    0  502  501  0.00000000000E+00  0.00000000000E+00  0.81514052166E+02  0.81514052166E+02  0.00000000000E+00 0.  1.
         21   -1    0    0  501  502 -0.00000000000E+00 -0.00000000000E+00 -0.73167894584E+03  0.73167894584E+03  0.00000000000E+00 0.  1.
         25    1    1    2    0    0  0.27794912605E+01  0.70351615511E+02 -0.11441809734E+03  0.18350361407E+03  0.12500000000E+03 0.  0.
         25    1    1    2    0    0  0.44382448130E+02 -0.10323190834E+03 -0.41071424244E+03  0.44377676544E+03  0.12500000000E+03 0.  0.
         25    1    1    2    0    0 -0.47161939390E+02  0.32880292826E+02 -0.12503255389E+03  0.18591261850E+03  0.12500000000E+03 0.  0.
</event>
<event>
 5    0  0.5634041E-005  0.2720164E+03  0.7546771E-02  0.1100131E+00
         21   -1    0    0  502  501  0.00000000000E+00  0.00000000000E+00  0.13818028109E+03  0.13818028109E+03  0.00000000000E+00 0. -1.
         21   -1    0    0  501  502 -0.00000000000E+00 -0.00000000000E+00 -0.53548106619E+03  0.53548106619E+03  0.00000000000E+00 0. -1.
         25    1    1    2    0    0 -0.72084578097E+02 -0.11423338582E+03 -0.20903256238E+03  0.27850505376E+03  0.12500000000E+03 0.  0.
         25    1    1    2    0    0  0.12272154560E+03  0.10273966991E+03 -0.15580654911E+03  0.25596229854E+03  0.12500000000E+03 0.  0.
         25    1    1    2    0    0 -0.50636967501E+02  0.11493715916E+02 -0.32461673606E+02  0.13919399497E+03  0.12500000000E+03 0.  0.
</event>
<event>
 5    0  0.5634041E-005  0.3177123E+03  0.7546771E-02  0.1076707E+00
         21   -1    0    0  502  501  0.00000000000E+00  0.00000000000E+00  0.17452159394E+04  0.17452159394E+04  0.00000000000E+00 0.  1.
         21   -1    0    0  501  502 -0.00000000000E+00 -0.00000000000E+00 -0.57838752100E+02  0.57838752100E+02  0.00000000000E+00 0.  1.
         25    1    1    2    0    0  0.55998403510E+02  0.34969366306E+02  0.87507066306E+03  0.88641544612E+03  0.12500000000E+03 0.  0.
         25    1    1    2    0    0  0.56347062813E+02 -0.13363088448E+03  0.21280930781E+03  0.28626038194E+03  0.12500000000E+03 0.  0.
         25    1    1    2    0    0 -0.11234546632E+03  0.98661518173E+02  0.59949721645E+03  0.63037886346E+03  0.12500000000E+03 0.  0.
</event>
<event>
 5    0  0.5634041E-005  0.3201794E+03  0.7546771E-02  0.1075567E+00
         21   -1    0    0  502  501  0.00000000000E+00  0.00000000000E+00  0.20577926575E+03  0.20577926575E+03  0.00000000000E+00 0.  1.
         21   -1    0    0  501  502 -0.00000000000E+00 -0.00000000000E+00 -0.49817855173E+03  0.49817855173E+03  0.00000000000E+00 0.  1.
         25    1    1    2    0    0  0.17213936668E+03 -0.47552292886E+02  0.22850537362E+02  0.21918104201E+03  0.12500000000E+03 0.  0.
         25    1    1    2    0    0 -0.16902578579E+03 -0.41987331351E+02 -0.17784249418E+03  0.27854192681E+03  0.12500000000E+03 0.  0.
         25    1    1    2    0    0 -0.31135808849E+01  0.89539624237E+02 -0.13740732916E+03  0.20623484866E+03  0.12500000000E+03 0.  0.
</event>
<event>
 5    0  0.5634041E-005  0.2722355E+03  0.7546771E-02  0.1100007E+00
         21   -1    0    0  502  501  0.00000000000E+00  0.00000000000E+00  0.71120989213E+02  0.71120989213E+02  0.00000000000E+00 0. -1.
         21   -1    0    0  501  502 -0.00000000000E+00 -0.00000000000E+00 -0.10420573124E+04  0.10420573124E+04  0.00000000000E+00 0. -1.
         25    1    1    2    0    0  0.62569460969E+02 -0.54810187178E+02 -0.15618790522E+03  0.21665353863E+03  0.12500000000E+03 0.  0.
         25    1    1    2    0    0  0.54798589299E+02  0.17855688346E+02 -0.61711985170E+03  0.63228444734E+03  0.12500000000E+03 0.  0.
         25    1    1    2    0    0 -0.11736805027E+03  0.36954498831E+02 -0.19762856632E+03  0.26424031568E+03  0.12500000000E+03 0.  0.
</event>
<event>
 5    0  0.6179563E-005  0.4084505E+03  0.7546771E-02  0.1040892E+00
         21   -1    0    0  502  501  0.00000000000E+00  0.00000000000E+00  0.62872137074E+03  0.62872137074E+03  0.00000000000E+00 0. -1.
         21   -1    0    0  501  502 -0.00000000000E+00 -0.00000000000E+00 -0.26535089413E+03  0.26535089413E+03  0.00000000000E+00 0. -1.
         25    1    1    2    0    0  0.22866743666E+03  0.55958856673E+02  0.16154149439E+03  0.31167426047E+03  0.12500000000E+03 0.  0.
         25    1    1    2    0    0 -0.41474465472E+02 -0.13521687099E+03 -0.86913576015E+02  0.20780448307E+03  0.12500000000E+03 0.  0.
         25    1    1    2    0    0 -0.18719297119E+03  0.79258014316E+02  0.28874255823E+03  0.37459352134E+03  0.12500000000E+03 0.  0.
</event>
<event>
 5    0  0.5634041E-005  0.6229942E+03  0.7546771E-02  0.9858816E-01
         21   -1    0    0  502  501  0.00000000000E+00  0.00000000000E+00  0.15150298018E+04  0.15150298018E+04  0.00000000000E+00 0. -1.
         21   -1    0    0  501  502 -0.00000000000E+00 -0.00000000000E+00 -0.25618095021E+03  0.25618095021E+03  0.00000000000E+00 0. -1.
         25    1    1    2    0    0  0.47665455063E+02 -0.29606581913E+02 -0.33028672067E+02  0.14094125896E+03  0.12500000000E+03 0.  0.
         25    1    1    2    0    0  0.11560633093E+03 -0.19305991487E+03 -0.43381200915E+02  0.26104383362E+03  0.12500000000E+03 0.  0.
         25    1    1    2    0    0 -0.16327178599E+03  0.22266649678E+03  0.13352587246E+04  0.13692256595E+04  0.12500000000E+03 0.  0.
</event>
<event>
 5    0  0.5634041E-005  0.4629009E+03  0.7546771E-02  0.1023943E+00
         21   -1    0    0  502  501  0.00000000000E+00  0.00000000000E+00  0.22516514258E+03  0.22516514258E+03  0.00000000000E+00 0. -1.
         21   -1    0    0  501  502 -0.00000000000E+00 -0.00000000000E+00 -0.95164482236E+03  0.95164482236E+03  0.00000000000E+00 0. -1.
         25    1    1    2    0    0  0.20539126266E+03  0.14090456410E+02 -0.49003807231E+03  0.54602786015E+03  0.12500000000E+03 0.  0.
         25    1    1    2    0    0 -0.18307257820E+03 -0.19819122149E+03  0.10603041912E+02  0.29754454064E+03  0.12500000000E+03 0.  0.
         25    1    1    2    0    0 -0.22318684460E+02  0.18410076508E+03 -0.24704464937E+03  0.33323756415E+03  0.12500000000E+03 0.  0.
</event>
<event>
 5    0  0.5634041E-005  0.2638204E+03  0.7546771E-02  0.1104869E+00
         21   -1    0    0  502  501  0.00000000000E+00  0.00000000000E+00  0.69114004016E+02  0.69114004016E+02  0.00000000000E+00 0.  1.
         21   -1    0    0  501  502 -0.00000000000E+00 -0.00000000000E+00 -0.10070489101E+04  0.10070489101E+04  0.00000000000E+00 0.  1.
         25    1    1    2    0    0  0.70205971577E+02  0.27692032295E+00 -0.50485456868E+03  0.52481624465E+03  0.12500000000E+03 0.  0.
         25    1    1    2    0    0 -0.28684522609E+02 -0.68935822959E+02 -0.35465005723E+03  0.38337528952E+03  0.12500000000E+03 0.  0.
         25    1    1    2    0    0 -0.41521448968E+02  0.68658902636E+02 -0.78430280196E+02  0.16797137996E+03  0.12500000000E+03 0.  0.
</event>
<event>
 5    0  0.5634041E-005  0.2400041E+03  0.7546771E-02  0.1119790E+00
         21   -1    0    0  502  501  0.00000000000E+00  0.00000000000E+00  0.12863848957E+04  0.12863848957E+04  0.00000000000E+00 0.  1.
         21   -1    0    0  501  502 -0.00000000000E+00 -0.00000000000E+00 -0.44778180629E+02  0.44778180629E+02  0.00000000000E+00 0.  1.
         25    1    1    2    0    0 -0.29751534323E+02  0.31585908884E+02  0.13226081400E+03  0.18708486405E+03  0.12500000000E+03 0.  0.
         25    1    1    2    0    0  0.50964005586E+02 -0.19946172092E+00  0.74255614469E+03  0.75472643896E+03  0.12500000000E+03 0.  0.
         25    1    1    2    0    0 -0.21212471262E+02 -0.31386447163E+02  0.36678975635E+03  0.38935177329E+03  0.12500000000E+03 0.  0.
</event>
<event>
 5    0  0.5634041E-005  0.2228151E+03  0.7546771E-02  0.1131802E+00
         21   -1    0    0  502  501  0.00000000000E+00  0.00000000000E+00  0.20835946874E+03  0.20835946874E+03  0.00000000000E+00 0.  1.
         21   -1    0    0  501  502 -0.00000000000E+00 -0.00000000000E+00 -0.23827367460E+03  0.23827367460E+03  0.00000000000E+00 0.  1.
         25    1    1    2    0    0  0.58101796352E+02  0.28624284049E+02  0.28431035295E+02  0.14362622374E+03  0.12500000000E+03 0.  0.
         25    1    1    2    0    0 -0.99314623532E+02 -0.99158626544E+00 -0.53684157889E+02  0.16843801975E+03  0.12500000000E+03 0.  0.
         25    1    1    2    0    0  0.41212827180E+02 -0.27632697784E+02 -0.46610832635E+01  0.13456889985E+03  0.12500000000E+03 0.  0.
</event>
<event>
 5    0  0.5634041E-005  0.2445937E+03  0.7546771E-02  0.1116770E+00
         21   -1    0    0  502  501  0.00000000000E+00  0.00000000000E+00  0.53566646170E+03  0.53566646170E+03  0.00000000000E+00 0.  1.
         21   -1    0    0  501  502 -0.00000000000E+00 -0.00000000000E+00 -0.11168528266E+03  0.11168528266E+03  0.00000000000E+00 0.  1.
         25    1    1    2    0    0 -0.10216086745E+03  0.45278953343E+02  0.16746142549E+03  0.23697121235E+03  0.12500000000E+03 0.  0.
         25    1    1    2    0    0  0.11356559875E+03 -0.76935382513E+02  0.18694231714E+03  0.26341721326E+03  0.12500000000E+03 0.  0.
         25    1    1    2    0    0 -0.11404731296E+02  0.31656429170E+02  0.69577436403E+02  0.14696331876E+03  0.12500000000E+03 0.  0.
</event>
<event>
 5    0  0.5634041E-005  0.2657165E+03  0.7546771E-02  0.1103757E+00
         21   -1    0    0  502  501  0.00000000000E+00  0.00000000000E+00  0.20375358735E+04  0.20375358735E+04  0.00000000000E+00 0.  1.
         21   -1    0    0  501  502 -0.00000000000E+00 -0.00000000000E+00 -0.34652270723E+02  0.34652270723E+02  0.00000000000E+00 0.  1.
         25    1    1    2    0    0  0.28586078163E+02  0.10194601848E+03  0.41422115574E+03  0.44543722387E+03  0.12500000000E+03 0.  0.
         25    1    1    2    0    0  0.54516672423E+02  0.40069728103E+02  0.58274863058E+03  0.59983215746E+03  0.12500000000E+03 0.  0.
         25    1    1    2    0    0 -0.83102750586E+02 -0.14201574659E+03  0.10059138164E+04  0.10269187629E+04  0.12500000000E+03 0.  0.
</event>
<event>
 5    0  0.5634041E-005  0.3317523E+03  0.7546771E-02  0.1070364E+00
         21   -1    0    0  502  501  0.00000000000E+00  0.00000000000E+00  0.40781441106E+03  0.40781441106E+03  0.00000000000E+00 0. -1.
         21   -1    0    0  501  502 -0.00000000000E+00 -0.00000000000E+00 -0.26987667014E+03  0.26987667014E+03  0.00000000000E+00 0. -1.
         25    1    1    2    0    0 -0.13523421930E+03  0.11843557491E+03  0.14380886867E+03  0.26195661890E+03  0.12500000000E+03 0.  0.
         25    1    1    2    0    0  0.41283064962E+02 -0.76074318120E+02  0.13326675666E+03  0.20217967692E+03  0.12500000000E+03 0.  0.
         25    1    1    2    0    0  0.93951154343E+02 -0.42361256794E+02 -0.13913788441E+03  0.21355478538E+03  0.12500000000E+03 0.  0.
</event>
<event>
 5    0  0.5634041E-005  0.2084380E+03  0.7546771E-02  0.1142809E+00
         21   -1    0    0  502  501  0.00000000000E+00  0.00000000000E+00  0.20931713051E+03  0.20931713051E+03  0.00000000000E+00 0. -1.
         21   -1    0    0  501  502 -0.00000000000E+00 -0.00000000000E+00 -0.20756246665E+03  0.20756246665E+03  0.00000000000E+00 0. -1.
         25    1    1    2    0    0 -0.23959102171E+02  0.30332233645E+02 -0.46815311156E+02  0.13896314739E+03  0.12500000000E+03 0.  0.
         25    1    1    2    0    0  0.90920486365E+01 -0.66472223352E+02  0.14598285542E+02  0.14261602914E+03  0.12500000000E+03 0.  0.
         25    1    1    2    0    0  0.14867053534E+02  0.36139989707E+02  0.33971689478E+02  0.13530042063E+03  0.12500000000E+03 0.  0.
</event>
<event>
 5    0  0.5634041E-005  0.3372709E+03  0.7546771E-02  0.1067964E+00
         21   -1    0    0  502  501  0.00000000000E+00  0.00000000000E+00  0.71292275731E+03  0.71292275731E+03  0.00000000000E+00 0. -1.
         21   -1    0    0  501  502 -0.00000000000E+00 -0.00000000000E+00 -0.15955674218E+03  0.15955674218E+03  0.00000000000E+00 0. -1.
         25    1    1    2    0    0  0.81465912246E+02 -0.82207695158E+01  0.99681302220E+02  0.17962638426E+03  0.12500000000E+03 0.  0.
         25    1    1    2    0    0  0.51340443522E+02  0.12016130972E+03 -0.11100947034E+02  0.18117067235E+03  0.12500000000E+03 0.  0.
         25    1    1    2    0    0 -0.13280635577E+03 -0.11194054020E+03  0.46478565994E+03  0.51168244289E+03  0.12500000000E+03 0.  0.
</event>
<event>
 5    0  0.5634041E-005  0.2476680E+03  0.7546771E-02  0.1114788E+00
         21   -1    0    0  502  501  0.00000000000E+00  0.00000000000E+00  0.91759102352E+02  0.91759102352E+02  0.00000000000E+00 0.  1.
         21   -1    0    0  501  502 -0.00000000000E+00 -0.00000000000E+00 -0.66848323692E+03  0.66848323692E+03  0.00000000000E+00 0.  1.
         25    1    1    2    0    0 -0.86801414032E+02  0.56833057874E+02 -0.34132916158E+03  0.37801465381E+03  0.12500000000E+03 0.  0.
         25    1    1    2    0    0  0.41917907919E+02 -0.45920362128E+02 -0.20077404826E+03  0.24454244850E+03  0.12500000000E+03 0.  0.
         25    1    1    2    0    0  0.44883506114E+02 -0.10912695746E+02 -0.34620924720E+02  0.13768523696E+03  0.12500000000E+03 0.  0.
</event>
<event>
 5    0  0.5634041E-005  0.3500469E+03  0.7546771E-02  0.1062596E+00
         21   -1    0    0  502  501  0.00000000000E+00  0.00000000000E+00  0.18398277013E+04  0.18398277013E+04  0.00000000000E+00 0. -1.
         21   -1    0    0  501  502 -0.00000000000E+00 -0.00000000000E+00 -0.66600173322E+02  0.66600173322E+02  0.00000000000E+00 0. -1.
         25    1    1    2    0    0  0.23438551135E+03 -0.22197958427E+02  0.89724969994E+03  0.93600819512E+03  0.12500000000E+03 0.  0.
         25    1    1    2    0    0 -0.91548591944E+02  0.81088765070E+02  0.19921960123E+03  0.26508485816E+03  0.12500000000E+03 0.  0.
         25    1    1    2    0    0 -0.14283691941E+03 -0.58890806643E+02  0.67675822679E+03  0.70533482133E+03  0.12500000000E+03 0.  0.
</event>
<event>
 5    0  0.5634041E-005  0.3746935E+03  0.7546771E-02  0.1052913E+00
         21   -1    0    0  502  501  0.00000000000E+00  0.00000000000E+00  0.24457146205E+04  0.24457146205E+04  0.00000000000E+00 0.  1.
         21   -1    0    0  501  502 -0.00000000000E+00 -0.00000000000E+00 -0.57404568880E+02  0.57404568880E+02  0.00000000000E+00 0.  1.
         25    1    1    2    0    0 -0.14929049309E+03  0.17663165790E+03  0.96013426172E+03  0.99547435650E+03  0.12500000000E+03 0.  0.
         25    1    1    2    0    0 -0.83074970932E+02 -0.30668355602E+01  0.29116113416E+03  0.32758306171E+03  0.12500000000E+03 0.  0.
         25    1    1    2    0    0  0.23236546402E+03 -0.17356482234E+03  0.11370146558E+04  0.11800617712E+04  0.12500000000E+03 0.  0.
</event>
<event>
 5    0  0.5634041E-005  0.4604146E+03  0.7546771E-02  0.1024661E+00
         21   -1    0    0  502  501  0.00000000000E+00  0.00000000000E+00  0.11810075093E+04  0.11810075093E+04  0.00000000000E+00 0. -1.
         21   -1    0    0  501  502 -0.00000000000E+00 -0.00000000000E+00 -0.17949217962E+03  0.17949217962E+03  0.00000000000E+00 0. -1.
         25    1    1    2    0    0  0.16133559799E+03  0.10005840420E+03  0.29801221661E+03  0.37480280239E+03  0.12500000000E+03 0.  0.
         25    1    1    2    0    0 -0.26915212321E+03  0.28190380296E+02  0.53439954983E+02  0.30285044454E+03  0.12500000000E+03 0.  0.
         25    1    1    2    0    0  0.10781652521E+03 -0.12824878450E+03  0.65006315805E+03  0.68284644195E+03  0.12500000000E+03 0.  0.
</event>
<event>
 5    0  0.5634041E-005  0.2268156E+03  0.7546771E-02  0.1128901E+00
         21   -1    0    0  502  501  0.00000000000E+00  0.00000000000E+00  0.46329153612E+02  0.46329153612E+02  0.00000000000E+00 0.  1.
         21   -1    0    0  501  502 -0.00000000000E+00 -0.00000000000E+00 -0.11104307428E+04  0.11104307428E+04  0.00000000000E+00 0.  1.
         25    1    1    2    0    0 -0.79168663421E+02  0.26905449907E+02 -0.20931155406E+03  0.25773611925E+03  0.12500000000E+03 0.  0.
         25    1    1    2    0    0  0.80284643652E+02 -0.36073895130E+02 -0.44856819505E+03  0.47390439492E+03  0.12500000000E+03 0.  0.
         25    1    1    2    0    0 -0.11159802311E+01  0.91684452230E+01 -0.40622184007E+03  0.42511938223E+03  0.12500000000E+03 0.  0.
</event>
<event>
 5    0  0.5907822E-005  0.3036871E+03  0.7546771E-02  0.1083412E+00
         21   -1    0    0  502  501  0.00000000000E+00  0.00000000000E+00  0.19243882201E+03  0.19243882201E+03  0.00000000000E+00 0. -1.
         21   -1    0    0  501  502 -0.00000000000E+00 -0.00000000000E+00 -0.47924769600E+03  0.47924769600E+03  0.00000000000E+00 0. -1.
         25    1    1    2    0    0  0.16273805611E+03 -0.87819362629E+02 -0.27542725638E+03  0.35451528728E+03  0.12500000000E+03 0.  0.
         25    1    1    2    0    0 -0.50400968484E+02  0.41744381919E+02  0.10772579040E+02  0.14150582852E+03  0.12500000000E+03 0.  0.
         25    1    1    2    0    0 -0.11233708763E+03  0.46074980710E+02 -0.22154196651E+02  0.17566540221E+03  0.12500000000E+03 0.  0.
</event>
<event>
 5    0  0.5634041E-005  0.2482871E+03  0.7546771E-02  0.1114392E+00
         21   -1    0    0  502  501  0.00000000000E+00  0.00000000000E+00  0.36769679437E+03  0.36769679437E+03  0.00000000000E+00 0. -1.
         21   -1    0    0  501  502 -0.00000000000E+00 -0.00000000000E+00 -0.16765576044E+03  0.16765576044E+03  0.00000000000E+00 0. -1.
         25    1    1    2    0    0 -0.82548395954E+02 -0.22511577310E+02  0.14926193986E+03  0.21266202171E+03  0.12500000000E+03 0.  0.
         25    1    1    2    0    0  0.46220646547E+02  0.16063951980E+02 -0.64283957186E+02  0.14883489467E+03  0.12500000000E+03 0.  0.
         25    1    1    2    0    0  0.36327749407E+02  0.64476253306E+01  0.11506305125E+03  0.17385563843E+03  0.12500000000E+03 0.  0.
</event>
<event>
 5    0  0.5634041E-005  0.2455668E+03  0.7546771E-02  0.1116139E+00
         21   -1    0    0  502  501  0.00000000000E+00  0.00000000000E+00  0.94103249936E+03  0.94103249936E+03  0.00000000000E+00 0. -1.
         21   -1    0    0  501  502 -0.00000000000E+00 -0.00000000000E+00 -0.64081814673E+02  0.64081814673E+02  0.00000000000E+00 0. -1.
         25    1    1    2    0    0 -0.50782188234E+02 -0.10373180469E+03  0.30000539607E+03  0.34491644730E+03  0.12500000000E+03 0.  0.
         25    1    1    2    0    0  0.77930642130E+01 -0.15618852326E+02  0.34773003116E+03  0.36992682380E+03  0.12500000000E+03 0.  0.
         25    1    1    2    0    0  0.42989124021E+02  0.11935065701E+03  0.22921525746E+03  0.29027104293E+03  0.12500000000E+03 0.  0.
</event>
<event>
 5    0  0.5634041E-005  0.4807212E+03  0.7546771E-02  0.1018937E+00
         21   -1    0    0  502  501  0.00000000000E+00  0.00000000000E+00  0.40795733375E+03  0.40795733375E+03  0.00000000000E+00 0. -1.
         21   -1    0    0  501  502 -0.00000000000E+00 -0.00000000000E+00 -0.56646325147E+03  0.56646325147E+03  0.00000000000E+00 0. -1.
         25    1    1    2    0    0  0.93863620438E+02 -0.21566879920E+03 -0.27797826553E+03  0.38499393020E+03  0.12500000000E+03 0.  0.
         25    1    1    2    0    0 -0.23045475452E+03  0.87962340766E+01  0.16236465855E+03  0.30850291727E+03  0.12500000000E+03 0.  0.
         25    1    1    2    0    0  0.13659113408E+03  0.20687256512E+03 -0.42892310747E+02  0.28092373775E+03  0.12500000000E+03 0.  0.
</event>
<event>
 5    0  0.5634041E-005  0.2983744E+03  0.7546771E-02  0.1086056E+00
         21   -1    0    0  502  501  0.00000000000E+00  0.00000000000E+00  0.17439166155E+03  0.17439166155E+03  0.00000000000E+00 0.  1.
         21   -1    0    0  501  502 -0.00000000000E+00 -0.00000000000E+00 -0.51050180886E+03  0.51050180886E+03  0.00000000000E+00 0.  1.
         25    1    1    2    0    0  0.75542448953E+02 -0.83134179522E+02 -0.38339707180E+01  0.16810012710E+03  0.12500000000E+03 0.  0.
         25    1    1    2    0    0  0.96102577786E+02  0.81219401651E+02 -0.19671292982E+03  0.26486463225E+03  0.12500000000E+03 0.  0.
         25    1    1    2    0    0 -0.17164502674E+03  0.19147778713E+01 -0.13556324677E+03  0.25192871106E+03  0.12500000000E+03 0.  0.
</event>
<event>
 5    0  0.6858206E-005  0.3379696E+03  0.7546771E-02  0.1067664E+00
         21   -1    0    0  502  501  0.00000000000E+00  0.00000000000E+00  0.54018566341E+03  0.54018566341E+03  0.00000000000E+00 0. -1.
         21   -1    0    0  501  502 -0.00000000000E+00 -0.00000000000E+00 -0.21145222497E+03  0.21145222497E+03  0.00000000000E+00 0. -1.
         25    1    1    2    0    0 -0.17232630514E+03  0.31095186830E+02  0.14222903531E+03  0.25790960543E+03  0.12500000000E+03 0.  0.
         25    1    1    2    0    0  0.25262351038E+02 -0.79374774267E+02 -0.72773882376E+02  0.16691189031E+03  0.12500000000E+03 0.  0.
         25    1    1    2    0    0  0.14706395411E+03  0.48279587437E+02  0.25927828551E+03  0.32681639264E+03  0.12500000000E+03 0.  0.
</event>
<event>
 5    0  0.5634041E-005  0.2817017E+03  0.7546771E-02  0.1094763E+00
         21   -1    0    0  502  501  0.00000000000E+00  0.00000000000E+00  0.28707534232E+03  0.28707534232E+03  0.00000000000E+00 0. -1.
         21   -1    0    0  501  502 -0.00000000000E+00 -0.00000000000E+00 -0.27642860058E+03  0.27642860058E+03  0.00000000000E+00 0. -1.
         25    1    1    2    0    0  0.14314212166E+02  0.29072675126E+01 -0.85795695908E+02  0.15231300112E+03  0.12500000000E+03 0.  0.
         25    1    1    2    0    0  0.10215002285E+03 -0.94757500947E+02  0.10935637492E+03  0.21678890168E+03  0.12500000000E+03 0.  0.
         25    1    1    2    0    0 -0.11646423501E+03  0.91850233434E+02 -0.12913937279E+02  0.19440204010E+03  0.12500000000E+03 0.  0.
</event>
<event>
 5    0  0.5634041E-005  0.2208783E+03  0.7546771E-02  0.1133230E+00
         21   -1    0    0  502  501  0.00000000000E+00  0.00000000000E+00  0.29861105936E+03  0.29861105936E+03  0.00000000000E+00 0. -1.
         21   -1    0    0  501  502 -0.00000000000E+00 -0.00000000000E+00 -0.16338051170E+03  0.16338051170E+03  0.00000000000E+00 0. -1.
         25    1    1    2    0    0  0.63672616988E+02  0.44006620930E+02  0.58659250789E+02  0.15829305905E+03  0.12500000000E+03 0.  0.
         25    1    1    2    0    0 -0.69488314757E+02 -0.28512304614E+01 -0.14163635676E+02  0.14374409198E+03  0.12500000000E+03 0.  0.
         25    1    1    2    0    0  0.58156977695E+01 -0.41155390469E+02  0.90734932540E+02  0.15995442003E+03  0.12500000000E+03 0.  0.
</event>
<event>
 5    0  0.5634041E-005  0.3214218E+03  0.7546771E-02  0.1074997E+00
         21   -1    0    0  502  501  0.00000000000E+00  0.00000000000E+00  0.63855736179E+03  0.63855736179E+03  0.00000000000E+00 0. -1.
         21   -1    0    0  501  502 -0.00000000000E+00 -0.00000000000E+00 -0.16178964261E+03  0.16178964261E+03  0.00000000000E+00 0. -1.
         25    1    1    2    0    0 -0.75605348791E+02 -0.15828889276E+03  0.43281622352E+03  0.48345260955E+03  0.12500000000E+03 0.  0.
         25    1    1    2    0    0  0.49355704535E+02  0.43500304960E+02  0.31431367319E+02  0.14471072163E+03  0.12500000000E+03 0.  0.
         25    1    1    2    0    0  0.26249644256E+02  0.11478858780E+03  0.12520128338E+02  0.17218367323E+03  0.12500000000E+03 0.  0.
</event>
<event>
 5    0  0.6424971E-005  0.3388865E+03  0.7546771E-02  0.1067271E+00
         21   -1    0    0  502  501  0.00000000000E+00  0.00000000000E+00  0.61239962803E+03  0.61239962803E+03  0.00000000000E+00 0. -1.
         21   -1    0    0  501  502 -0.00000000000E+00 -0.00000000000E+00 -0.18753125527E+03  0.18753125527E+03  0.00000000000E+00 0.  1.
         25    1    1    2    0    0 -0.21734609711E+03 -0.70003309742E+01  0.43613095298E+02  0.25458875200E+03  0.12500000000E+03 0.  0.
         25    1    1    2    0    0  0.19943355704E+02  0.47739130381E+02  0.22093629716E+03  0.25906487490E+03  0.12500000000E+03 0.  0.
         25    1    1    2    0    0  0.19740274140E+03 -0.40738799406E+02  0.16031898030E+03  0.28627725640E+03  0.12500000000E+03 0.  0.
</event>
<event>
 5    0  0.5634041E-005  0.3229782E+03  0.7546771E-02  0.1074287E+00
         21   -1    0    0  502  501  0.00000000000E+00  0.00000000000E+00  0.80407256917E+03  0.80407256917E+03  0.00000000000E+00 0.  1.
         21   -1    0    0  501  502 -0.00000000000E+00 -0.00000000000E+00 -0.12973321829E+03  0.12973321829E+03  0.00000000000E+00 0.  1.
         25    1    1    2    0    0 -0.41695109366E+02 -0.12566028315E+03  0.18364262829E+03  0.25860897864E+03  0.12500000000E+03 0.  0.
         25    1    1    2    0    0  0.19537206808E+03  0.87297906322E+02  0.35144652722E+03  0.43003584842E+03  0.12500000000E+03 0.  0.
         25    1    1    2    0    0 -0.15367695872E+03  0.38362376825E+02  0.13925019536E+03  0.24516096040E+03  0.12500000000E+03 0.  0.
</event>
<event>
 5    0  0.5634041E-005  0.4527924E+03  0.7546771E-02  0.1026893E+00
         21   -1    0    0  502  501  0.00000000000E+00  0.00000000000E+00  0.13233901605E+04  0.13233901605E+04  0.00000000000E+00 0. -1.
         21   -1    0    0  501  502 -0.00000000000E+00 -0.00000000000E+00 -0.15492102218E+03  0.15492102218E+03  0.00000000000E+00 0. -1.
         25    1    1    2    0    0 -0.85288439995E+02 -0.98141151772E+01 -0.78935725503E+02  0.17095696422E+03  0.12500000000E+03 0.  0.
         25    1    1    2    0    0  0.10969865956E+03 -0.27841481528E+02  0.10827997304E+04  0.10958509023E+04  0.12500000000E+03 0.  0.
         25    1    1    2    0    0 -0.24410219563E+02  0.37655596706E+02  0.16460513344E+03  0.21150331613E+03  0.12500000000E+03 0.  0.
</event>
<event>
 5    0  0.5634041E-005  0.2788716E+03  0.7546771E-02  0.1096307E+00
         21   -1    0    0  502  501  0.00000000000E+00  0.00000000000E+00  0.26576638662E+03  0.26576638662E+03  0.00000000000E+00 0. -1.
         21   -1    0    0  501  502 -0.00000000000E+00 -0.00000000000E+00 -0.29262313610E+03  0.29262313610E+03  0.00000000000E+00 0. -1.
         25    1    1    2    0    0 -0.99545781823E+02 -0.68809665311E+02 -0.31215011959E+02  0.17675833698E+03  0.12500000000E+03 0.  0.
         25    1    1    2    0    0  0.12266539824E+03 -0.74230221766E+02 -0.11784883415E+00  0.19021550840E+03  0.12500000000E+03 0.  0.
         25    1    1    2    0    0 -0.23119616419E+02  0.14303988708E+03  0.44761113187E+01  0.19141567734E+03  0.12500000000E+03 0.  0.
</event>
<event>
 5    0  0.5723510E-005  0.2973968E+03  0.7546771E-02  0.1086549E+00
         21   -1    0    0  502  501  0.00000000000E+00  0.00000000000E+00  0.29779893169E+03  0.29779893169E+03  0.00000000000E+00 0. -1.
         21   -1    0    0  501  502 -0.00000000000E+00 -0.00000000000E+00 -0.29699525711E+03  0.29699525711E+03  0.00000000000E+00 0. -1.
         25    1    1    2    0    0  0.10880133169E+03 -0.11131453713E+03  0.34138090296E+01  0.19966299118E+03  0.12500000000E+03 0.  0.
         25    1    1    2    0    0 -0.15235433444E+02 -0.44063364966E+02 -0.86966817973E+02  0.15925428092E+03  0.12500000000E+03 0.  0.
         25    1    1    2    0    0 -0.93565898248E+02  0.15537790209E+03  0.84356683527E+02  0.23587691669E+03  0.12500000000E+03 0.  0.
</event>
<event>
 5    0  0.5634041E-005  0.3108496E+03  0.7546771E-02  0.1079939E+00
         21   -1    0    0  502  501  0.00000000000E+00  0.00000000000E+00  0.54221444378E+03  0.54221444378E+03  0.00000000000E+00 0.  1.
         21   -1    0    0  501  502 -0.00000000000E+00 -0.00000000000E+00 -0.17820891787E+03  0.17820891787E+03  0.00000000000E+00 0.  1.
         25    1    1    2    0    0  0.14578508902E+03  0.11809672521E+03  0.15446128902E+03  0.27328267140E+03  0.12500000000E+03 0.  0.
         25    1    1    2    0    0  0.41647237685E+02 -0.10575335370E+03  0.79490250365E+02  0.18671358849E+03  0.12500000000E+03 0.  0.
         25    1    1    2    0    0 -0.18743232670E+03 -0.12343371511E+02  0.13005398653E+03  0.26042710175E+03  0.12500000000E+03 0.  0.
</event>
<event>
 5    0  0.5634041E-005  0.3816045E+03  0.7546771E-02  0.1050342E+00
         21   -1    0    0  502  501  0.00000000000E+00  0.00000000000E+00  0.22505556767E+03  0.22505556767E+03  0.00000000000E+00 0.  1.
         21   -1    0    0  501  502 -0.00000000000E+00 -0.00000000000E+00 -0.64704894879E+03  0.64704894879E+03  0.00000000000E+00 0.  1.
         25    1    1    2    0    0  0.20594397800E+02  0.27518837919E+03 -0.11155894893E+03  0.32283613854E+03  0.12500000000E+03 0.  0.
         25    1    1    2    0    0  0.50473837538E+02 -0.16110002198E+02 -0.25398645465E+02  0.13812035201E+03  0.12500000000E+03 0.  0.
         25    1    1    2    0    0 -0.71068235339E+02 -0.25907837699E+03 -0.28503578672E+03  0.41114802591E+03  0.12500000000E+03 0.  0.
</event>
<event>
 5    0  0.5634041E-005  0.3435580E+03  0.7546771E-02  0.1065291E+00
         21   -1    0    0  502  501  0.00000000000E+00  0.00000000000E+00  0.56624372237E+03  0.56624372237E+03  0.00000000000E+00 0. -1.
         21   -1    0    0  501  502 -0.00000000000E+00 -0.00000000000E+00 -0.20844750331E+03  0.20844750331E+03  0.00000000000E+00 0. -1.
         25    1    1    2    0    0 -0.54285716537E+02  0.75889915261E+02  0.36026555323E+03  0.39258436941E+03  0.12500000000E+03 0.  0.
         25    1    1    2    0    0 -0.83400864763E+02 -0.11840030731E+03  0.10939896116E+01  0.19131265988E+03  0.12500000000E+03 0.  0.
         25    1    1    2    0    0  0.13768658130E+03  0.42510392053E+02 -0.35633237833E+01  0.19079419640E+03  0.12500000000E+03 0.  0.
</event>
<event>
 5    0  0.5634041E-005  0.2526295E+03  0.7546771E-02  0.1111654E+00
         21   -1    0    0  502  501  0.00000000000E+00  0.00000000000E+00  0.83012028652E+02  0.83012028652E+02  0.00000000000E+00 0. -1.
         21   -1    0    0  501  502 -0.00000000000E+00 -0.00000000000E+00 -0.76882456349E+03  0.76882456349E+03  0.00000000000E+00 0. -1.
         25    1    1    2    0    0 -0.11264761123E+02 -0.49960103057E+02 -0.32450422385E+03  0.35149807687E+03  0.12500000000E+03 0.  0.
         25    1    1    2    0    0 -0.29004759021E+02 -0.16635344006E+02 -0.23064796398E+02  0.13143437735E+03  0.12500000000E+03 0.  0.
         25    1    1    2    0    0  0.40269520144E+02  0.66595447062E+02 -0.33824351458E+03  0.36890413793E+03  0.12500000000E+03 0.  0.
</event>
<event>
 5    0  0.5634041E-005  0.2770473E+03  0.7546771E-02  0.1097313E+00
         21   -1    0    0  502  501  0.00000000000E+00  0.00000000000E+00  0.30727743306E+03  0.30727743306E+03  0.00000000000E+00 0.  1.
         21   -1    0    0  501  502 -0.00000000000E+00 -0.00000000000E+00 -0.24979128117E+03  0.24979128117E+03  0.00000000000E+00 0.  1.
         25    1    1    2    0    0  0.91806678024E+02  0.18910500414E+02 -0.84006721350E+02  0.17739279125E+03  0.12500000000E+03 0.  0.
         25    1    1    2    0    0 -0.21020952163E+02 -0.83031626176E+02  0.16107726990E+03  0.22114931213E+03  0.12500000000E+03 0.  0.
         25    1    1    2    0    0 -0.70785725861E+02  0.64121125763E+02 -0.19584396663E+02  0.15852661085E+03  0.12500000000E+03 0.  0.
</event>
<event>
 5    0  0.5634041E-005  0.2698963E+03  0.7546771E-02  0.1101339E+00
         21   -1    0    0  502  501  0.00000000000E+00  0.00000000000E+00  0.13205297292E+03  0.13205297292E+03  0.00000000000E+00 0.  1.
         21   -1    0    0  501  502 -0.00000000000E+00 -0.00000000000E+00 -0.55162711472E+03  0.55162711472E+03  0.00000000000E+00 0.  1.
         25    1    1    2    0    0 -0.68291601781E+02  0.28801218848E+02 -0.10446895177E+03  0.17897490037E+03  0.12500000000E+03 0.  0.
         25    1    1    2    0    0  0.83644637310E+02  0.46200252338E+02 -0.32155201932E+03  0.35798266689E+03  0.12500000000E+03 0.  0.
         25    1    1    2    0    0 -0.15353035529E+02 -0.75001471186E+02  0.64468292842E+01  0.14672252038E+03  0.12500000000E+03 0.  0.
</event>
<event>
 5    0  0.5634041E-005  0.6279133E+03  0.7546771E-02  0.9849129E-01
         21   -1    0    0  502  501  0.00000000000E+00  0.00000000000E+00  0.10971835795E+04  0.10971835795E+04  0.00000000000E+00 0. -1.
         21   -1    0    0  501  502 -0.00000000000E+00 -0.00000000000E+00 -0.35935202224E+03  0.35935202224E+03  0.00000000000E+00 0. -1.
         25    1    1    2    0    0 -0.16325894685E+03 -0.30973779330E+03  0.47055466005E+03  0.59969798434E+03  0.12500000000E+03 0.  0.
         25    1    1    2    0    0 -0.25051419332E+03  0.99409623607E+02  0.22807434772E+03  0.37454311155E+03  0.12500000000E+03 0.  0.
         25    1    1    2    0    0  0.41377314017E+03  0.21032816970E+03  0.39202549498E+02  0.48229450586E+03  0.12500000000E+03 0.  0.
</event>
<event>
 5    0  0.5634041E-005  0.3982057E+03  0.7546771E-02  0.1044403E+00
         21   -1    0    0  502  501  0.00000000000E+00  0.00000000000E+00  0.41181695825E+03  0.41181695825E+03  0.00000000000E+00 0.  1.
         21   -1    0    0  501  502 -0.00000000000E+00 -0.00000000000E+00 -0.38504422103E+03  0.38504422103E+03  0.00000000000E+00 0.  1.
         25    1    1    2    0    0  0.11846910337E+03 -0.17851311012E+03  0.16814551245E+03  0.29966610134E+03  0.12500000000E+03 0.  0.
         25    1    1    2    0    0 -0.17751422020E+03  0.20762343657E+02 -0.18137348933E+03  0.28366126968E+03  0.12500000000E+03 0.  0.
         25    1    1    2    0    0  0.59045116830E+02  0.15775076646E+03  0.40000714093E+02  0.21353380826E+03  0.12500000000E+03 0.  0.
</event>
<event>
 5    0  0.5634041E-005  0.4075234E+03  0.7546771E-02  0.1041205E+00
         21   -1    0    0  502  501  0.00000000000E+00  0.00000000000E+00  0.56384601204E+03  0.56384601204E+03  0.00000000000E+00 0. -1.
         21   -1    0    0  501  502 -0.00000000000E+00 -0.00000000000E+00 -0.29454015040E+03  0.29454015040E+03  0.00000000000E+00 0. -1.
         25    1    1    2    0    0  0.10088847904E+03 -0.12724398333E+03 -0.14456903645E+03  0.25078820307E+03  0.12500000000E+03 0.  0.
         25    1    1    2    0    0 -0.12373495270E+03  0.21799539768E+03  0.20643190693E+03  0.34795324992E+03  0.12500000000E+03 0.  0.
         25    1    1    2    0    0  0.22846473659E+02 -0.90751414353E+02  0.20744299117E+03  0.25964470946E+03  0.12500000000E+03 0.  0.
</event>
<event>
 5    0  0.5634041E-005  0.3014356E+03  0.7546771E-02  0.1084525E+00
         21   -1    0    0  502  501  0.00000000000E+00  0.00000000000E+00  0.18618626494E+03  0.18618626494E+03  0.00000000000E+00 0. -1.
         21   -1    0    0  501  502 -0.00000000000E+00 -0.00000000000E+00 -0.48802423522E+03  0.48802423522E+03  0.00000000000E+00 0. -1.
         25    1    1    2    0    0 -0.14270724435E+03  0.13878863207E+03 -0.64234868671E+02  0.24367757454E+03  0.12500000000E+03 0.  0.
         25    1    1    2    0    0  0.11863673614E+03 -0.21759397128E+02 -0.62944845083E+02  0.18475713802E+03  0.12500000000E+03 0.  0.
         25    1    1    2    0    0  0.24070508211E+02 -0.11702923494E+03 -0.17465825653E+03  0.24577578760E+03  0.12500000000E+03 0.  0.
</event>
<event>
 5    0  0.5634041E-005  0.2690850E+03  0.7546771E-02  0.1101804E+00
         21   -1    0    0  502  501  0.00000000000E+00  0.00000000000E+00  0.99341823605E+03  0.99341823605E+03  0.00000000000E+00 0. -1.
         21   -1    0    0  501  502 -0.00000000000E+00 -0.00000000000E+00 -0.72886474771E+02  0.72886474771E+02  0.00000000000E+00 0. -1.
         25    1    1    2    0    0  0.75799311683E+02  0.42803582531E+02  0.54933918661E+03  0.57006685948E+03  0.12500000000E+03 0.  0.
         25    1    1    2    0    0 -0.42630569047E+02  0.57764850926E+02  0.87466677004E+02  0.16861068473E+03  0.12500000000E+03 0.  0.
         25    1    1    2    0    0 -0.33168742635E+02 -0.10056843346E+03  0.28372589767E+03  0.32762716662E+03  0.12500000000E+03 0.  0.
</event>
<event>
 5    0  0.5634041E-005  0.3028359E+03  0.7546771E-02  0.1083832E+00
         21   -1    0    0  502  501  0.00000000000E+00  0.00000000000E+00  0.74785505105E+03  0.74785505105E+03  0.00000000000E+00 0. -1.
         21   -1    0    0  501  502 -0.00000000000E+00 -0.00000000000E+00 -0.12263013622E+03  0.12263013622E+03  0.00000000000E+00 0. -1.
         25    1    1    2    0    0 -0.23273395445E+02  0.32273129849E+02  0.76360998892E+02  0.15178671878E+03  0.12500000000E+03 0.  0.
         25    1    1    2    0    0  0.15991826504E+03  0.98706257916E+02  0.19446148661E+03  0.29792120874E+03  0.12500000000E+03 0.  0.
         25    1    1    2    0    0 -0.13664486959E+03 -0.13097938777E+03  0.35440242933E+03  0.42077725975E+03  0.12500000000E+03 0.  0.
</event>
<event>
 5    0  0.6358343E-005  0.3022072E+03  0.7546771E-02  0.1084142E+00
         21   -1    0    0  502  501  0.00000000000E+00  0.00000000000E+00  0.51369747677E+03  0.51369747677E+03  0.00000000000E+00 0.  1.
         21   -1    0    0  501  502 -0.00000000000E+00 -0.00000000000E+00 -0.17778793846E+03  0.17778793846E+03  0.00000000000E+00 0.  1.
         25    1    1    2    0    0  0.12459609318E+03 -0.97110519349E+02  0.10852900862E+03  0.22881911003E+03  0.12500000000E+03 0.  0.
         25    1    1    2    0    0 -0.78222497475E+02  0.13503984557E+03  0.25220156072E+03  0.32184646375E+03  0.12500000000E+03 0.  0.
         25    1    1    2    0    0 -0.46373595701E+02 -0.37929326217E+02 -0.24821031019E+02  0.14081984145E+03  0.12500000000E+03 0.  0.
</event>
<event>
 5    0  0.5634041E-005  0.3402103E+03  0.7546771E-02  0.1066706E+00
         21   -1    0    0  502  501  0.00000000000E+00  0.00000000000E+00  0.48271749637E+03  0.48271749637E+03  0.00000000000E+00 0. -1.
         21   -1    0    0  501  502 -0.00000000000E+00 -0.00000000000E+00 -0.23977384364E+03  0.23977384364E+03  0.00000000000E+00 0. -1.
         25    1    1    2    0    0  0.19373232556E+02 -0.49262911397E+02  0.19873490766E+02  0.13719370326E+03  0.12500000000E+03 0.  0.
         25    1    1    2    0    0  0.12172658953E+03 -0.10097376004E+03 -0.63006051018E+02  0.21120564690E+03  0.12500000000E+03 0.  0.
         25    1    1    2    0    0 -0.14109982209E+03  0.15023667144E+03  0.28607621298E+03  0.37409198986E+03  0.12500000000E+03 0.  0.
</event>
<event>
 5    0  0.5634041E-005  0.3246956E+03  0.7546771E-02  0.1073508E+00
         21   -1    0    0  502  501  0.00000000000E+00  0.00000000000E+00  0.55771642063E+02  0.55771642063E+02  0.00000000000E+00 0. -1.
         21   -1    0    0  501  502 -0.00000000000E+00 -0.00000000000E+00 -0.18903371099E+04  0.18903371099E+04  0.00000000000E+00 0. -1.
         25    1    1    2    0    0 -0.10403579820E+03 -0.23931508627E+02 -0.93015540031E+03  0.94456880804E+03  0.12500000000E+03 0.  0.
         25    1    1    2    0    0  0.14542402409E+02  0.11251223721E+03 -0.74214731929E+03  0.76110323119E+03  0.12500000000E+03 0.  0.
         25    1    1    2    0    0  0.89493395786E+02 -0.88580728581E+02 -0.16226274825E+03  0.24043671274E+03  0.12500000000E+03 0.  0.
</event>
<event>
 5    0  0.5634041E-005  0.4741198E+03  0.7546771E-02  0.1020764E+00
         21   -1    0    0  502  501  0.00000000000E+00  0.00000000000E+00  0.12908866886E+03  0.12908866886E+03  0.00000000000E+00 0.  1.
         21   -1    0    0  501  502 -0.00000000000E+00 -0.00000000000E+00 -0.17413577941E+04  0.17413577941E+04  0.00000000000E+00 0.  1.
         25    1    1    2    0    0  0.10515978922E+03 -0.27946199035E+02 -0.64318079787E+02  0.17776778869E+03  0.12500000000E+03 0.  0.
         25    1    1    2    0    0 -0.37427298177E+02 -0.24739569310E+03 -0.31442513251E+03  0.42082489894E+03  0.12500000000E+03 0.  0.
         25    1    1    2    0    0 -0.67732491043E+02  0.27534189213E+03 -0.12335259129E+04  0.12718537753E+04  0.12500000000E+03 0.  0.
</event>
<event>
 5    0  0.6788293E-005  0.2895923E+03  0.7546771E-02  0.1090562E+00
         21   -1    0    0  502  501  0.00000000000E+00  0.00000000000E+00  0.33216231119E+03  0.33216231119E+03  0.00000000000E+00 0.  1.
         21   -1    0    0  501  502 -0.00000000000E+00 -0.00000000000E+00 -0.25247809228E+03  0.25247809228E+03  0.00000000000E+00 0.  1.
         25    1    1    2    0    0  0.12756896133E+03 -0.88599614088E+01  0.91979467878E+01  0.17905848496E+03  0.12500000000E+03 0.  0.
         25    1    1    2    0    0 -0.13819681726E+03 -0.10721737333E+03  0.90976773982E+02  0.23344313836E+03  0.12500000000E+03 0.  0.
         25    1    1    2    0    0  0.10627855923E+02  0.11607733474E+03 -0.20490501862E+02  0.17213878014E+03  0.12500000000E+03 0.  0.
</event>
<event>
 5    0  0.5634041E-005  0.3794182E+03  0.7546771E-02  0.1051149E+00
         21   -1    0    0  502  501  0.00000000000E+00  0.00000000000E+00  0.20743176247E+03  0.20743176247E+03  0.00000000000E+00 0. -1.
         21   -1    0    0  501  502 -0.00000000000E+00 -0.00000000000E+00 -0.69400254094E+03  0.69400254094E+03  0.00000000000E+00 0. -1.
         25    1    1    2    0    0 -0.28673457014E+03  0.14288492769E+02 -0.13999771189E+03  0.34299451027E+03  0.12500000000E+03 0.  0.
         25    1    1    2    0    0  0.12125142427E+03  0.82846454526E+02 -0.23409565469E+03  0.30330054147E+03  0.12500000000E+03 0.  0.
         25    1    1    2    0    0  0.16548314587E+03 -0.97134947295E+02 -0.11247741189E+03  0.25513925166E+03  0.12500000000E+03 0.  0.
</event>
<event>
 5    0  0.5634041E-005  0.2922480E+03  0.7546771E-02  0.1089181E+00
         21   -1    0    0  502  501  0.00000000000E+00  0.00000000000E+00  0.17532316474E+03  0.17532316474E+03  0.00000000000E+00 0.  1.
         21   -1    0    0  501  502 -0.00000000000E+00 -0.00000000000E+00 -0.48715135240E+03  0.48715135240E+03  0.00000000000E+00 0.  1.
         25    1    1    2    0    0  0.14156449855E+03  0.13410172001E+02 -0.23959610060E+03  0.30537130086E+03  0.12500000000E+03 0.  0.
         25    1    1    2    0    0 -0.60635617994E+02  0.92292062985E+02 -0.42076785545E+02  0.17201732163E+03  0.12500000000E+03 0.  0.
         25    1    1    2    0    0 -0.80928880561E+02 -0.10570223499E+03 -0.30155301509E+02  0.18508589465E+03  0.12500000000E+03 0.  0.
</event>
<event>
 5    0  0.5634041E-005  0.3250640E+03  0.7546771E-02  0.1073342E+00
         21   -1    0    0  502  501  0.00000000000E+00  0.00000000000E+00  0.43653985515E+03  0.43653985515E+03  0.00000000000E+00 0. -1.
         21   -1    0    0  501  502 -0.00000000000E+00 -0.00000000000E+00 -0.24205493070E+03  0.24205493070E+03  0.00000000000E+00 0. -1.
         25    1    1    2    0    0 -0.18843740528E+03  0.91908936260E+02  0.14526768580E+03  0.28404860290E+03  0.12500000000E+03 0.  0.
         25    1    1    2    0    0  0.38284067676E+02 -0.56035186947E+02  0.11750685425E+03  0.18449518370E+03  0.12500000000E+03 0.  0.
         25    1    1    2    0    0  0.15015333761E+03 -0.35873749313E+02 -0.68289615599E+02  0.21005099924E+03  0.12500000000E+03 0.  0.
</event>
<event>
 5    0  0.5634041E-005  0.2792690E+03  0.7546771E-02  0.1096089E+00
         21   -1    0    0  502  501  0.00000000000E+00  0.00000000000E+00  0.45146406162E+03  0.45146406162E+03  0.00000000000E+00 0.  1.
         21   -1    0    0  501  502 -0.00000000000E+00 -0.00000000000E+00 -0.17275162062E+03  0.17275162062E+03  0.00000000000E+00 0.  1.
         25    1    1    2    0    0  0.59715206370E+02 -0.80017042625E+02  0.38839208855E+02  0.16462720652E+03  0.12500000000E+03 0.  0.
         25    1    1    2    0    0 -0.34100846424E+02  0.13581172958E+02 -0.47137489937E+02  0.13854334680E+03  0.12500000000E+03 0.  0.
         25    1    1    2    0    0 -0.25614359947E+02  0.66435869666E+02  0.28701072208E+03  0.32104512892E+03  0.12500000000E+03 0.  0.
</event>
<event>
 5    0  0.5634041E-005  0.2437812E+03  0.7546771E-02  0.1117299E+00
         21   -1    0    0  502  501  0.00000000000E+00  0.00000000000E+00  0.60659847687E+02  0.60659847687E+02  0.00000000000E+00 0. -1.
         21   -1    0    0  501  502 -0.00000000000E+00 -0.00000000000E+00 -0.97971350358E+03  0.97971350358E+03  0.00000000000E+00 0. -1.
         25    1    1    2    0    0  0.70100065826E+01  0.23374075253E+02 -0.61973879175E+03  0.63269001698E+03  0.12500000000E+03 0.  0.
         25    1    1    2    0    0  0.34106850654E+02  0.19368494803E+02 -0.19268992912E+03  0.23300820723E+03  0.12500000000E+03 0.  0.
         25    1    1    2    0    0 -0.41116857236E+02 -0.42742570056E+02 -0.10662493503E+03  0.17467512706E+03  0.12500000000E+03 0.  0.
</event>
<event>
 5    0  0.5634041E-005  0.2451062E+03  0.7546771E-02  0.1116437E+00
         21   -1    0    0  502  501  0.00000000000E+00  0.00000000000E+00  0.34410755776E+02  0.34410755776E+02  0.00000000000E+00 0.  1.
         21   -1    0    0  501  502 -0.00000000000E+00 -0.00000000000E+00 -0.17458802332E+04  0.17458802332E+04  0.00000000000E+00 0.  1.
         25    1    1    2    0    0  0.34663625087E+02  0.13369479057E+02 -0.23670740766E+03  0.27025119189E+03  0.12500000000E+03 0.  0.
         25    1    1    2    0    0  0.62223717431E+02 -0.25165490872E+02 -0.41750040305E+03  0.44094974712E+03  0.12500000000E+03 0.  0.
         25    1    1    2    0    0 -0.96887342518E+02  0.11796011815E+02 -0.10572616667E+04  0.10690900499E+04  0.12500000000E+03 0.  0.
</event>
<event>
 5    0  0.5634041E-005  0.6363335E+03  0.7546771E-02  0.9832767E-01
         21   -1    0    0  502  501  0.00000000000E+00  0.00000000000E+00  0.52251384435E+03  0.52251384435E+03  0.00000000000E+00 0. -1.
         21   -1    0    0  501  502 -0.00000000000E+00 -0.00000000000E+00 -0.77494660171E+03  0.77494660171E+03  0.00000000000E+00 0. -1.
         25    1    1    2    0    0 -0.10701764375E+03  0.47699617856E+03  0.88989305234E+02  0.51236922905E+03  0.12500000000E+03 0.  0.
         25    1    1    2    0    0  0.63031991711E+02 -0.16622575048E+03 -0.38734078028E+03  0.44414177035E+03  0.12500000000E+03 0.  0.
         25    1    1    2    0    0  0.43985652036E+02 -0.31077042807E+03  0.45918717684E+02  0.34094944667E+03  0.12500000000E+03 0.  0.
</event>
<event>
 5    0  0.5634041E-005  0.2478608E+03  0.7546771E-02  0.1114664E+00
         21   -1    0    0  502  501  0.00000000000E+00  0.00000000000E+00  0.33821292466E+03  0.33821292466E+03  0.00000000000E+00 0. -1.
         21   -1    0    0  501  502 -0.00000000000E+00 -0.00000000000E+00 -0.18164590762E+03  0.18164590762E+03  0.00000000000E+00 0. -1.
         25    1    1    2    0    0 -0.66673178975E+02 -0.25466707135E+02  0.18203847350E+03  0.23207083359E+03  0.12500000000E+03 0.  0.
         25    1    1    2    0    0  0.72099514731E+02  0.56642018932E+02  0.57157935071E+01  0.15512681467E+03  0.12500000000E+03 0.  0.
         25    1    1    2    0    0 -0.54263357559E+01 -0.31175311797E+02 -0.31187249978E+02  0.13266118402E+03  0.12500000000E+03 0.  0.
</event>
<event>
 5    0  0.5634041E-005  0.3336021E+03  0.7546771E-02  0.1069554E+00
         21   -1    0    0  502  501  0.00000000000E+00  0.00000000000E+00  0.15547024438E+03  0.15547024438E+03  0.00000000000E+00 0. -1.
         21   -1    0    0  501  502 -0.00000000000E+00 -0.00000000000E+00 -0.71583041261E+03  0.71583041261E+03  0.00000000000E+00 0. -1.
         25    1    1    2    0    0  0.20319782841E+03 -0.14998600707E+03 -0.26528250575E+03  0.38702062949E+03  0.12500000000E+03 0.  0.
         25    1    1    2    0    0 -0.69587366823E+02  0.58113420630E+02 -0.21440221523E+03  0.26422127313E+03  0.12500000000E+03 0.  0.
         25    1    1    2    0    0 -0.13361046159E+03  0.91872586442E+02 -0.80675447246E+02  0.22005875437E+03  0.12500000000E+03 0.  0.
</event>
<event>
 5    0  0.5634041E-005  0.2824925E+03  0.7546771E-02  0.1094335E+00
         21   -1    0    0  502  501  0.00000000000E+00  0.00000000000E+00  0.85980032798E+03  0.85980032798E+03  0.00000000000E+00 0.  1.
         21   -1    0    0  501  502 -0.00000000000E+00 -0.00000000000E+00 -0.92814573592E+02  0.92814573592E+02  0.00000000000E+00 0.  1.
         25    1    1    2    0    0 -0.68166627457E+02 -0.74384382886E+02  0.40942275856E+03  0.43980873200E+03  0.12500000000E+03 0.  0.
         25    1    1    2    0    0 -0.17947867479E+02 -0.58032258645E+02  0.24599825398E+03  0.28254204988E+03  0.12500000000E+03 0.  0.
         25    1    1    2    0    0  0.86114494935E+02  0.13241664153E+03  0.11156474184E+03  0.23026411969E+03  0.12500000000E+03 0.  0.
</event>
<event>
 5    0  0.5634041E-005  0.2344764E+03  0.7546771E-02  0.1123528E+00
         21   -1    0    0  502  501  0.00000000000E+00  0.00000000000E+00  0.12739341327E+04  0.12739341327E+04  0.00000000000E+00 0.  1.
         21   -1    0    0  501  502 -0.00000000000E+00 -0.00000000000E+00 -0.43157017942E+02  0.43157017942E+02  0.00000000000E+00 0.  1.
         25    1    1    2    0    0  0.43371341895E+02  0.32102116962E+02  0.41288505344E+03  0.43475359293E+03  0.12500000000E+03 0.  0.
         25    1    1    2    0    0  0.35708281011E+02 -0.10399672116E+03  0.42091705472E+03  0.45264397301E+03  0.12500000000E+03 0.  0.
         25    1    1    2    0    0 -0.79079622905E+02  0.71894604196E+02  0.39697500655E+03  0.42969358466E+03  0.12500000000E+03 0.  0.
</event>
<event>
 5    0  0.5634041E-005  0.2338868E+03  0.7546771E-02  0.1123934E+00
         21   -1    0    0  502  501  0.00000000000E+00  0.00000000000E+00  0.69057758987E+02  0.69057758987E+02  0.00000000000E+00 0. -1.
         21   -1    0    0  501  502 -0.00000000000E+00 -0.00000000000E+00 -0.79213474605E+03  0.79213474605E+03  0.00000000000E+00 0. -1.
         25    1    1    2    0    0 -0.60269147675E+01 -0.94392335565E+01 -0.27497497292E+03  0.30226091141E+03  0.12500000000E+03 0.  0.
         25    1    1    2    0    0 -0.71914815120E+02 -0.13037120402E+00 -0.86028182930E+02  0.16792142772E+03  0.12500000000E+03 0.  0.
         25    1    1    2    0    0  0.77941729888E+02  0.95696047605E+01 -0.36207383121E+03  0.39101016591E+03  0.12500000000E+03 0.  0.
</event>
<event>
 5    0  0.5634041E-005  0.2858652E+03  0.7546771E-02  0.1092528E+00
         21   -1    0    0  502  501  0.00000000000E+00  0.00000000000E+00  0.11275851174E+04  0.11275851174E+04  0.00000000000E+00 0.  1.
         21   -1    0    0  501  502 -0.00000000000E+00 -0.00000000000E+00 -0.72472489967E+02  0.72472489967E+02  0.00000000000E+00 0.  1.
         25    1    1    2    0    0  0.89840014940E+02 -0.67010350397E+02  0.32868391213E+03  0.36907957060E+03  0.12500000000E+03 0.  0.
         25    1    1    2    0    0  0.99393620050E+02  0.34928764809E+02  0.21075890943E+03  0.26672725437E+03  0.12500000000E+03 0.  0.
         25    1    1    2    0    0 -0.18923363499E+03  0.32081585588E+02  0.51566980589E+03  0.56425078241E+03  0.12500000000E+03 0.  0.
</event>
<event>
 5    0  0.5634041E-005  0.3008699E+03  0.7546771E-02  0.1084807E+00
         21   -1    0    0  502  501  0.00000000000E+00  0.00000000000E+00  0.53040562432E+03  0.53040562432E+03  0.00000000000E+00 0.  1.
         21   -1    0    0  501  502 -0.00000000000E+00 -0.00000000000E+00 -0.17066695341E+03  0.17066695341E+03  0.00000000000E+00 0.  1.
         25    1    1    2    0    0  0.75055973278E+01  0.45492298283E+02 -0.44389222355E+02  0.14043249715E+03  0.12500000000E+03 0.  0.
         25    1    1    2    0    0  0.13421604206E+03 -0.70349325515E+02  0.18009837949E+03  0.26650215729E+03  0.12500000000E+03 0.  0.
         25    1    1    2    0    0 -0.14172163939E+03  0.24857027231E+02  0.22402951378E+03  0.29413792329E+03  0.12500000000E+03 0.  0.
</event>
<event>
 5    0  0.5634041E-005  0.2064914E+03  0.7546771E-02  0.1144375E+00
         21   -1    0    0  502  501  0.00000000000E+00  0.00000000000E+00  0.34692672887E+02  0.34692672887E+02  0.00000000000E+00 0. -1.
         21   -1    0    0  501  502 -0.00000000000E+00 -0.00000000000E+00 -0.12290403414E+04  0.12290403414E+04  0.00000000000E+00 0. -1.
         25    1    1    2    0    0 -0.39546098992E+02 -0.50249960698E+02 -0.44439718838E+03  0.46605022641E+03  0.12500000000E+03 0.  0.
         25    1    1    2    0    0  0.14632612571E+02 -0.13970795976E+02 -0.29969276657E+03  0.32534604781E+03  0.12500000000E+03 0.  0.
         25    1    1    2    0    0  0.24913486420E+02  0.64220756674E+02 -0.45025771351E+03  0.47233674002E+03  0.12500000000E+03 0.  0.
</event>
<event>
 5    0  0.5634041E-005  0.3674562E+03  0.7546771E-02  0.1055670E+00
         21   -1    0    0  502  501  0.00000000000E+00  0.00000000000E+00  0.83522831192E+03  0.83522831192E+03  0.00000000000E+00 0.  1.
         21   -1    0    0  501  502 -0.00000000000E+00 -0.00000000000E+00 -0.16166125295E+03  0.16166125295E+03  0.00000000000E+00 0.  1.
         25    1    1    2    0    0  0.13573432978E+03  0.11383171875E+03  0.24617799757E+03  0.32803974601E+03  0.12500000000E+03 0.  0.
         25    1    1    2    0    0 -0.20517538814E+03  0.85713513014E+02  0.29480547492E+03  0.38984485922E+03  0.12500000000E+03 0.  0.
         25    1    1    2    0    0  0.69441058361E+02 -0.19954523176E+03  0.13258358648E+03  0.27900495965E+03  0.12500000000E+03 0.  0.
</event>
<event>
 5    0  0.6014931E-005  0.4703973E+03  0.7546771E-02  0.1021808E+00
         21   -1    0    0  502  501  0.00000000000E+00  0.00000000000E+00  0.26684154203E+03  0.26684154203E+03  0.00000000000E+00 0. -1.
         21   -1    0    0  501  502 -0.00000000000E+00 -0.00000000000E+00 -0.82923241360E+03  0.82923241360E+03  0.00000000000E+00 0. -1.
         25    1    1    2    0    0 -0.10149891050E+02 -0.92707704365E+02  0.13883775066E+03  0.20880292083E+03  0.12500000000E+03 0.  0.
         25    1    1    2    0    0 -0.15737442669E+03 -0.11960349785E+03 -0.21884114246E+03  0.32029385337E+03  0.12500000000E+03 0.  0.
         25    1    1    2    0    0  0.16752431774E+03  0.21231120222E+03 -0.48238747978E+03  0.56697718144E+03  0.12500000000E+03 0.  0.
</event>
<event>
 5    0  0.5634041E-005  0.5181116E+03  0.7546771E-02  0.1009157E+00
         21   -1    0    0  502  501  0.00000000000E+00  0.00000000000E+00  0.11594354284E+04  0.11594354284E+04  0.00000000000E+00 0. -1.
         21   -1    0    0  501  502 -0.00000000000E+00 -0.00000000000E+00 -0.23152612510E+03  0.23152612510E+03  0.00000000000E+00 0. -1.
         25    1    1    2    0    0  0.36679887175E+03 -0.21760502661E+03  0.54814617247E+03  0.70567881244E+03  0.12500000000E+03 0.  0.
         25    1    1    2    0    0 -0.11052360217E+03  0.19462202124E+03  0.74561445548E+02  0.26697866385E+03  0.12500000000E+03 0.  0.
         25    1    1    2    0    0 -0.25627526958E+03  0.22983005375E+02  0.30520168531E+03  0.41830407726E+03  0.12500000000E+03 0.  0.
</event>
<event>
 5    0  0.5634041E-005  0.2313051E+03  0.7546771E-02  0.1125725E+00
         21   -1    0    0  502  501  0.00000000000E+00  0.00000000000E+00  0.59525265583E+03  0.59525265583E+03  0.00000000000E+00 0.  1.
         21   -1    0    0  501  502 -0.00000000000E+00 -0.00000000000E+00 -0.89881212308E+02  0.89881212308E+02  0.00000000000E+00 0.  1.
         25    1    1    2    0    0  0.73635529070E+02 -0.72255082405E+02  0.11795047245E+03  0.20045024826E+03  0.12500000000E+03 0.  0.
         25    1    1    2    0    0 -0.74959717839E+02 -0.20425932442E-02  0.17354094705E+03  0.22662837334E+03  0.12500000000E+03 0.  0.
         25    1    1    2    0    0  0.13241887687E+01  0.72257124998E+02  0.21388002402E+03  0.25805524654E+03  0.12500000000E+03 0.  0.
</event>
<event>
 5    0  0.5634041E-005  0.4258871E+03  0.7546771E-02  0.1035167E+00
         21   -1    0    0  502  501  0.00000000000E+00  0.00000000000E+00  0.63860288589E+03  0.63860288589E+03  0.00000000000E+00 0. -1.
         21   -1    0    0  501  502 -0.00000000000E+00 -0.00000000000E+00 -0.28402599573E+03  0.28402599573E+03  0.00000000000E+00 0. -1.
         25    1    1    2    0    0  0.17204569797E+03 -0.88180663922E+02 -0.73551599249E+02  0.24168241440E+03  0.12500000000E+03 0.  0.
         25    1    1    2    0    0  0.17692248750E+02 -0.34024206305E+02 -0.48106942297E+02  0.13931956136E+03  0.12500000000E+03 0.  0.
         25    1    1    2    0    0 -0.18973794672E+03  0.12220487023E+03  0.47623543171E+03  0.54162690586E+03  0.12500000000E+03 0.  0.
</event>
<event>
 5    0  0.6752472E-005  0.3490616E+03  0.7546771E-02  0.1063001E+00
         21   -1    0    0  502  501  0.00000000000E+00  0.00000000000E+00  0.12505601277E+03  0.12505601277E+03  0.00000000000E+00 0.  1.
         21   -1    0    0  501  502 -0.00000000000E+00 -0.00000000000E+00 -0.97431532596E+03  0.97431532596E+03  0.00000000000E+00 0.  1.
         25    1    1    2    0    0 -0.75618786931E+02 -0.20371016032E+03 -0.38304681045E+03  0.45778367091E+03  0.12500000000E+03 0.  0.
         25    1    1    2    0    0  0.29353641783E+02  0.13409763152E+03 -0.40397788881E+02  0.19000208528E+03  0.12500000000E+03 0.  0.
         25    1    1    2    0    0  0.46265145149E+02  0.69612528801E+02 -0.42581471386E+03  0.45158558254E+03  0.12500000000E+03 0.  0.
</event>
<event>
 5    0  0.5634041E-005  0.2789017E+03  0.7546771E-02  0.1096290E+00
         21   -1    0    0  502  501  0.00000000000E+00  0.00000000000E+00  0.33876165647E+03  0.33876165647E+03  0.00000000000E+00 0.  1.
         21   -1    0    0  501  502 -0.00000000000E+00 -0.00000000000E+00 -0.22961906736E+03  0.22961906736E+03  0.00000000000E+00 0.  1.
         25    1    1    2    0    0  0.39744967191E+02  0.31971217522E+02  0.69604841728E+02  0.15189356523E+03  0.12500000000E+03 0.  0.
         25    1    1    2    0    0 -0.70595557151E+02 -0.62834004226E+02 -0.12843113689E+03  0.20261145500E+03  0.12500000000E+03 0.  0.
         25    1    1    2    0    0  0.30850589960E+02  0.30862786704E+02  0.16796888427E+03  0.21387570359E+03  0.12500000000E+03 0.  0.
</event>
<event>
 5    0  0.5634041E-005  0.3669908E+03  0.7546771E-02  0.1055850E+00
         21   -1    0    0  502  501  0.00000000000E+00  0.00000000000E+00  0.86034195227E+03  0.86034195227E+03  0.00000000000E+00 0. -1.
         21   -1    0    0  501  502 -0.00000000000E+00 -0.00000000000E+00 -0.15654499177E+03  0.15654499177E+03  0.00000000000E+00 0. -1.
         25    1    1    2    0    0 -0.41143021972E+02  0.51943053570E+01  0.71744725381E+03  0.72943491215E+03  0.12500000000E+03 0.  0.
         25    1    1    2    0    0  0.66330943169E+02  0.46532244162E+02  0.18685748574E+01  0.14897494870E+03  0.12500000000E+03 0.  0.
         25    1    1    2    0    0 -0.25187921196E+02 -0.51726549519E+02 -0.15518868167E+02  0.13847708319E+03  0.12500000000E+03 0.  0.
</event>
<event>
 5    0  0.5634041E-005  0.3980446E+03  0.7546771E-02  0.1044459E+00
         21   -1    0    0  502  501  0.00000000000E+00  0.00000000000E+00  0.67480653732E+03  0.67480653732E+03  0.00000000000E+00 0. -1.
         21   -1    0    0  501  502 -0.00000000000E+00 -0.00000000000E+00 -0.23479249189E+03  0.23479249189E+03  0.00000000000E+00 0. -1.
         25    1    1    2    0    0 -0.13992524919E+03  0.63778606063E+02  0.18234061742E+03  0.26929516652E+03  0.12500000000E+03 0.  0.
         25    1    1    2    0    0 -0.11961253989E+03 -0.19697327767E+03  0.16464227742E+03  0.30957666471E+03  0.12500000000E+03 0.  0.
         25    1    1    2    0    0  0.25953778907E+03  0.13319467161E+03  0.93031150592E+02  0.33072719798E+03  0.12500000000E+03 0.  0.
</event>
<event>
 5    0  0.5634041E-005  0.4511227E+03  0.7546771E-02  0.1027388E+00
         21   -1    0    0  502  501  0.00000000000E+00  0.00000000000E+00  0.43265770315E+03  0.43265770315E+03  0.00000000000E+00 0.  1.
         21   -1    0    0  501  502 -0.00000000000E+00 -0.00000000000E+00 -0.47037575810E+03  0.47037575810E+03  0.00000000000E+00 0.  1.
         25    1    1    2    0    0 -0.51244331160E+02 -0.60309325757E+02  0.60827558317E+02  0.15996308355E+03  0.12500000000E+03 0.  0.
         25    1    1    2    0    0  0.23594610267E+03  0.68575924733E+01 -0.32506335326E+03  0.42072410624E+03  0.12500000000E+03 0.  0.
         25    1    1    2    0    0 -0.18470177151E+03  0.53451733284E+02  0.22651773999E+03  0.32234627146E+03  0.12500000000E+03 0.  0.
</event>
<event>
 5    0  0.5634041E-005  0.2970794E+03  0.7546771E-02  0.1086710E+00
         21   -1    0    0  502  501  0.00000000000E+00  0.00000000000E+00  0.10905297737E+03  0.10905297737E+03  0.00000000000E+00 0.  1.
         21   -1    0    0  501  502 -0.00000000000E+00 -0.00000000000E+00 -0.80929624474E+03  0.80929624474E+03  0.00000000000E+00 0.  1.
         25    1    1    2    0    0  0.96342991202E+02  0.12602595014E+03 -0.29855452066E+03  0.36045015448E+03  0.12500000000E+03 0.  0.
         25    1    1    2    0    0 -0.24934611555E+02 -0.59913481498E+02 -0.16992785865E+02  0.14186301452E+03  0.12500000000E+03 0.  0.
         25    1    1    2    0    0 -0.71408379647E+02 -0.66112468638E+02 -0.38469596085E+03  0.41603605311E+03  0.12500000000E+03 0.  0.
</event>
<event>
 5    0  0.5634041E-005  0.3617109E+03  0.7546771E-02  0.1057908E+00
         21   -1    0    0  502  501  0.00000000000E+00  0.00000000000E+00  0.74527327622E+03  0.74527327622E+03  0.00000000000E+00 0.  1.
         21   -1    0    0  501  502 -0.00000000000E+00 -0.00000000000E+00 -0.17555271457E+03  0.17555271457E+03  0.00000000000E+00 0.  1.
         25    1    1    2    0    0  0.12122045815E+03  0.14677722801E+03  0.43518821577E+03  0.49117383611E+03  0.12500000000E+03 0.  0.
         25    1    1    2    0    0 -0.19638596443E+03 -0.78246096808E+02  0.64381466981E+02  0.25388948773E+03  0.12500000000E+03 0.  0.
         25    1    1    2    0    0  0.75165506285E+02 -0.68531131206E+02  0.70150878908E+02  0.17576266694E+03  0.12500000000E+03 0.  0.
</event>
<event>
 5    0  0.5634041E-005  0.2241795E+03  0.7546771E-02  0.1130805E+00
         21   -1    0    0  502  501  0.00000000000E+00  0.00000000000E+00  0.17693467360E+03  0.17693467360E+03  0.00000000000E+00 0.  1.
         21   -1    0    0  501  502 -0.00000000000E+00 -0.00000000000E+00 -0.28403960406E+03  0.28403960406E+03  0.00000000000E+00 0.  1.
         25    1    1    2    0    0  0.67284704268E+02  0.88444427455E+02 -0.88441262683E+01  0.16748990043E+03  0.12500000000E+03 0.  0.
         25    1    1    2    0    0 -0.19350713490E+02 -0.47746374680E+02 -0.33441160574E+02  0.13927482769E+03  0.12500000000E+03 0.  0.
         25    1    1    2    0    0 -0.47933990778E+02 -0.40698052775E+02 -0.64819643611E+02  0.15420954954E+03  0.12500000000E+03 0.  0.
</event>
<event>
 5    0  0.5634041E-005  0.3191625E+03  0.7546771E-02  0.1076035E+00
         21   -1    0    0  502  501  0.00000000000E+00  0.00000000000E+00  0.16767028227E+03  0.16767028227E+03  0.00000000000E+00 0.  1.
         21   -1    0    0  501  502 -0.00000000000E+00 -0.00000000000E+00 -0.60752993596E+03  0.60752993596E+03  0.00000000000E+00 0.  1.
         25    1    1    2    0    0 -0.10322239753E+03  0.13906552361E+03 -0.93476154108E+02  0.23314560814E+03  0.12500000000E+03 0.  0.
         25    1    1    2    0    0 -0.48342744553E+01 -0.18424003524E+03 -0.28137671865E+03  0.35883926568E+03  0.12500000000E+03 0.  0.
         25    1    1    2    0    0  0.10805667198E+03  0.45174511633E+02 -0.65006780925E+02  0.18321534441E+03  0.12500000000E+03 0.  0.
</event>
<event>
 5    0  0.5634041E-005  0.3606494E+03  0.7546771E-02  0.1058327E+00
         21   -1    0    0  502  501  0.00000000000E+00  0.00000000000E+00  0.16717757605E+03  0.16717757605E+03  0.00000000000E+00 0. -1.
         21   -1    0    0  501  502 -0.00000000000E+00 -0.00000000000E+00 -0.77802279760E+03  0.77802279760E+03  0.00000000000E+00 0. -1.
         25    1    1    2    0    0  0.16922812817E+03  0.49590547335E+02  0.26377432138E+02  0.21775709099E+03  0.12500000000E+03 0.  0.
         25    1    1    2    0    0 -0.13773440035E+03 -0.58771024358E+02 -0.51028046048E+03  0.54629291290E+03  0.12500000000E+03 0.  0.
         25    1    1    2    0    0 -0.31493727815E+02  0.91804770235E+01 -0.12694219321E+03  0.18115036977E+03  0.12500000000E+03 0.  0.
</event>
<event>
 5    0  0.5634041E-005  0.3349796E+03  0.7546771E-02  0.1068955E+00
         21   -1    0    0  502  501  0.00000000000E+00  0.00000000000E+00  0.51849301032E+03  0.51849301032E+03  0.00000000000E+00 0.  1.
         21   -1    0    0  501  502 -0.00000000000E+00 -0.00000000000E+00 -0.21641816993E+03  0.21641816993E+03  0.00000000000E+00 0.  1.
         25    1    1    2    0    0 -0.18607484689E+02  0.17406031161E+03  0.18274408862E+03  0.28224746676E+03  0.12500000000E+03 0.  0.
         25    1    1    2    0    0 -0.71234148612E+02 -0.14955908201E+03 -0.59060131469E+02  0.21576682337E+03  0.12500000000E+03 0.  0.
         25    1    1    2    0    0  0.89841633301E+02 -0.24501229603E+02  0.17839088324E+03  0.23689689012E+03  0.12500000000E+03 0.  0.
</event>
<event>
 5    0  0.5634041E-005  0.3338526E+03  0.7546771E-02  0.1069445E+00
         21   -1    0    0  502  501  0.00000000000E+00  0.00000000000E+00  0.61001815205E+02  0.61001815205E+02  0.00000000000E+00 0.  1.
         21   -1    0    0  501  502 -0.00000000000E+00 -0.00000000000E+00 -0.18271188653E+04  0.18271188653E+04  0.00000000000E+00 0.  1.
         25    1    1    2    0    0  0.59171183132E+02  0.77114046194E+02 -0.82387336411E+03  0.83895180143E+03  0.12500000000E+03 0.  0.
         25    1    1    2    0    0 -0.20752439686E+03 -0.96837689939E+02 -0.45730558878E+03  0.52649531339E+03  0.12500000000E+03 0.  0.
         25    1    1    2    0    0  0.14835321373E+03  0.19723643745E+02 -0.48493809716E+03  0.52267356565E+03  0.12500000000E+03 0.  0.
</event>
<event>
 5    0  0.5634041E-005  0.2615293E+03  0.7546771E-02  0.1106228E+00
         21   -1    0    0  502  501  0.00000000000E+00  0.00000000000E+00  0.13976241704E+04  0.13976241704E+04  0.00000000000E+00 0.  1.
         21   -1    0    0  501  502 -0.00000000000E+00 -0.00000000000E+00 -0.48938455476E+02  0.48938455476E+02  0.00000000000E+00 0.  1.
         25    1    1    2    0    0  0.21086111806E+02  0.62681287291E+02  0.19263357886E+03  0.23896916871E+03  0.12500000000E+03 0.  0.
         25    1    1    2    0    0 -0.13552644411E+02  0.16104191196E+02  0.92219478776E+03  0.93086585806E+03  0.12500000000E+03 0.  0.
         25    1    1    2    0    0 -0.75334673947E+01 -0.78785478487E+02  0.23385734833E+03  0.27672759913E+03  0.12500000000E+03 0.  0.
</event>
<event>
 5    0  0.5634041E-005  0.2759340E+03  0.7546771E-02  0.1097931E+00
         21   -1    0    0  502  501  0.00000000000E+00  0.00000000000E+00  0.15569939181E+03  0.15569939181E+03  0.00000000000E+00 0.  1.
         21   -1    0    0  501  502 -0.00000000000E+00 -0.00000000000E+00 -0.48901663163E+03  0.48901663163E+03  0.00000000000E+00 0.  1.
         25    1    1    2    0    0  0.43592604769E+02 -0.15285196016E+03 -0.24849381900E+03  0.32037199472E+03  0.12500000000E+03 0.  0.
         25    1    1    2    0    0 -0.13176768616E+02  0.78133425447E+02 -0.93938030084E+02  0.17529350501E+03  0.12500000000E+03 0.  0.
         25    1    1    2    0    0 -0.30415836153E+02  0.74718534711E+02  0.91146092649E+01  0.14905052372E+03  0.12500000000E+03 0.  0.
</event>
<event>
 5    0  0.5634041E-005  0.3476435E+03  0.7546771E-02  0.1063586E+00
         21   -1    0    0  502  501  0.00000000000E+00  0.00000000000E+00  0.26477557405E+03  0.26477557405E+03  0.00000000000E+00 0. -1.
         21   -1    0    0  501  502 -0.00000000000E+00 -0.00000000000E+00 -0.45644697919E+03  0.45644697919E+03  0.00000000000E+00 0. -1.
         25    1    1    2    0    0  0.19489880960E+03 -0.72888323311E+02 -0.23875843347E+02  0.24391250389E+03  0.12500000000E+03 0.  0.
         25    1    1    2    0    0 -0.23354086864E+03  0.13920133215E+03 -0.98064007417E+02  0.31489664613E+03  0.12500000000E+03 0.  0.
         25    1    1    2    0    0  0.38642059038E+02 -0.66313008840E+02 -0.69731554383E+02  0.16241340322E+03  0.12500000000E+03 0.  0.
</event>
<event>
 5    0  0.5634041E-005  0.2891681E+03  0.7546771E-02  0.1090784E+00
         21   -1    0    0  502  501  0.00000000000E+00  0.00000000000E+00  0.89948328060E+03  0.89948328060E+03  0.00000000000E+00 0.  1.
         21   -1    0    0  501  502 -0.00000000000E+00 -0.00000000000E+00 -0.92962485120E+02  0.92962485120E+02  0.00000000000E+00 0.  1.
         25    1    1    2    0    0 -0.98005586190E+02  0.77416970877E+02  0.79310489800E+02  0.19368437236E+03  0.12500000000E+03 0.  0.
         25    1    1    2    0    0  0.31241896046E+02 -0.12629309127E+03  0.38699215452E+03  0.42698235166E+03  0.12500000000E+03 0.  0.
         25    1    1    2    0    0  0.66763690143E+02  0.48876120394E+02  0.34021815116E+03  0.37177904169E+03  0.12500000000E+03 0.  0.
</event>
<event>
 5    0  0.5634041E-005  0.2354947E+03  0.7546771E-02  0.1122831E+00
         21   -1    0    0  502  501  0.00000000000E+00  0.00000000000E+00  0.11144574359E+04  0.11144574359E+04  0.00000000000E+00 0.  1.
         21   -1    0    0  501  502 -0.00000000000E+00 -0.00000000000E+00 -0.49762129517E+02  0.49762129517E+02  0.00000000000E+00 0.  1.
         25    1    1    2    0    0  0.50161181226E+01 -0.78777461004E+02  0.28197653968E+03  0.31838156155E+03  0.12500000000E+03 0.  0.
         25    1    1    2    0    0 -0.75178844281E+02  0.97501269900E+02  0.45471935781E+03  0.48739414300E+03  0.12500000000E+03 0.  0.
         25    1    1    2    0    0  0.70162726158E+02 -0.18723808896E+02  0.32799940885E+03  0.35844386083E+03  0.12500000000E+03 0.  0.
</event>
<event>
 5    0  0.5634041E-005  0.6291900E+03  0.7546771E-02  0.9846631E-01
         21   -1    0    0  502  501  0.00000000000E+00  0.00000000000E+00  0.15795840356E+04  0.15795840356E+04  0.00000000000E+00 0.  1.
         21   -1    0    0  501  502 -0.00000000000E+00 -0.00000000000E+00 -0.25062297506E+03  0.25062297506E+03  0.00000000000E+00 0.  1.
         25    1    1    2    0    0  0.41721657759E+03  0.36388703275E+03  0.69209780301E+03  0.89504626369E+03  0.12500000000E+03 0.  0.
         25    1    1    2    0    0 -0.24350517709E+03 -0.27844475227E+03  0.19413014808E+03  0.43604789385E+03  0.12500000000E+03 0.  0.
         25    1    1    2    0    0 -0.17371140049E+03 -0.85442280486E+02  0.44273310948E+03  0.49911285316E+03  0.12500000000E+03 0.  0.
</event>
<event>
 5    0  0.5634041E-005  0.2535516E+03  0.7546771E-02  0.1111081E+00
         21   -1    0    0  502  501  0.00000000000E+00  0.00000000000E+00  0.17489375413E+03  0.17489375413E+03  0.00000000000E+00 0.  1.
         21   -1    0    0  501  502 -0.00000000000E+00 -0.00000000000E+00 -0.36758541828E+03  0.36758541828E+03  0.00000000000E+00 0.  1.
         25    1    1    2    0    0  0.35059218868E+01  0.67508755538E+02  0.25237901288E+02  0.14433182332E+03  0.12500000000E+03 0.  0.
         25    1    1    2    0    0  0.18610318304E+01 -0.12428073623E+03 -0.54230187061E+02  0.18443177066E+03  0.12500000000E+03 0.  0.
         25    1    1    2    0    0 -0.53669537172E+01  0.56771980697E+02 -0.16369937837E+03  0.21371557843E+03  0.12500000000E+03 0.  0.
</event>
<event>
 5    0  0.5634041E-005  0.2229867E+03  0.7546771E-02  0.1131676E+00
         21   -1    0    0  502  501  0.00000000000E+00  0.00000000000E+00  0.34572299377E+03  0.34572299377E+03  0.00000000000E+00 0. -1.
         21   -1    0    0  501  502 -0.00000000000E+00 -0.00000000000E+00 -0.14382340882E+03  0.14382340882E+03  0.00000000000E+00 0. -1.
         25    1    1    2    0    0  0.11716795661E+02 -0.32641170706E+02  0.29531255318E+02  0.13304068688E+03  0.12500000000E+03 0.  0.
         25    1    1    2    0    0  0.58021441519E+02 -0.30648331141E+02  0.13557600360E+03  0.19573364716E+03  0.12500000000E+03 0.  0.
         25    1    1    2    0    0 -0.69738237180E+02  0.63289501847E+02  0.36792326036E+02  0.16077206855E+03  0.12500000000E+03 0.  0.
</event>
<event>
 5    0  0.5634041E-005  0.2691402E+03  0.7546771E-02  0.1101773E+00
         21   -1    0    0  502  501  0.00000000000E+00  0.00000000000E+00  0.94183363998E+03  0.94183363998E+03  0.00000000000E+00 0.  1.
         21   -1    0    0  501  502 -0.00000000000E+00 -0.00000000000E+00 -0.76910042165E+02  0.76910042165E+02  0.00000000000E+00 0.  1.
         25    1    1    2    0    0 -0.32281898320E+02  0.14600824028E+03  0.32082144053E+03  0.37538237025E+03  0.12500000000E+03 0.  0.
         25    1    1    2    0    0  0.46499515774E+02  0.14981204812E+02  0.26971478806E+03  0.30126020043E+03  0.12500000000E+03 0.  0.
         25    1    1    2    0    0 -0.14217617454E+02 -0.16098944509E+03  0.27438736922E+03  0.34210111146E+03  0.12500000000E+03 0.  0.
</event>
<event>
 5    0  0.5634041E-005  0.3303418E+03  0.7546771E-02  0.1070986E+00
         21   -1    0    0  502  501  0.00000000000E+00  0.00000000000E+00  0.22845773725E+03  0.22845773725E+03  0.00000000000E+00 0.  1.
         21   -1    0    0  501  502 -0.00000000000E+00 -0.00000000000E+00 -0.47766259219E+03  0.47766259219E+03  0.00000000000E+00 0.  1.
         25    1    1    2    0    0  0.23031622732E+02  0.74722893271E+02 -0.12039237803E+03  0.19035044290E+03  0.12500000000E+03 0.  0.
         25    1    1    2    0    0  0.10981913038E+03  0.92236470665E+02  0.65575123213E+02  0.20122848880E+03  0.12500000000E+03 0.  0.
         25    1    1    2    0    0 -0.13285075312E+03 -0.16695936394E+03 -0.19438760013E+03  0.31454139774E+03  0.12500000000E+03 0.  0.
</event>
<event>
 5    0  0.5634041E-005  0.2209953E+03  0.7546771E-02  0.1133143E+00
         21   -1    0    0  502  501  0.00000000000E+00  0.00000000000E+00  0.23132947603E+03  0.23132947603E+03  0.00000000000E+00 0.  1.
         21   -1    0    0  501  502 -0.00000000000E+00 -0.00000000000E+00 -0.21112282448E+03  0.21112282448E+03  0.00000000000E+00 0.  1.
         25    1    1    2    0    0  0.47423229818E+02 -0.12632804822E+02  0.10689403845E+02  0.13471382200E+03  0.12500000000E+03 0.  0.
         25    1    1    2    0    0 -0.98082249529E+02  0.49274568368E+02  0.20162182215E+02  0.16756975966E+03  0.12500000000E+03 0.  0.
         25    1    1    2    0    0  0.50659019711E+02 -0.36641763546E+02 -0.10644934512E+02  0.14016871885E+03  0.12500000000E+03 0.  0.
</event>
<event>
 5    0  0.5634041E-005  0.3111037E+03  0.7546771E-02  0.1079818E+00
         21   -1    0    0  502  501  0.00000000000E+00  0.00000000000E+00  0.74193920707E+03  0.74193920707E+03  0.00000000000E+00 0.  1.
         21   -1    0    0  501  502 -0.00000000000E+00 -0.00000000000E+00 -0.13044935385E+03  0.13044935385E+03  0.00000000000E+00 0.  1.
         25    1    1    2    0    0 -0.17864673949E+03  0.45992793384E+02  0.22312927031E+03  0.31534372650E+03  0.12500000000E+03 0.  0.
         25    1    1    2    0    0  0.82627846553E+02 -0.14621268787E+03  0.16993116816E+03  0.26964256532E+03  0.12500000000E+03 0.  0.
         25    1    1    2    0    0  0.96018892942E+02  0.10021989449E+03  0.21842941475E+03  0.28740226910E+03  0.12500000000E+03 0.  0.
</event>
