<event>
 4    0  0.2196599E-002  0.2046562E+03  0.7546771E-02  0.1145869E+00
         21   -1    0    0  502  501  0.00000000000E+00  0.00000000000E+00  0.33905189054E+02  0.33905189054E+02  0.00000000000E+00 0. -1.
         21   -1    0    0  501  502 -0.00000000000E+00 -0.00000000000E+00 -0.12353318292E+04  0.12353318292E+04  0.00000000000E+00 0. -1.
         25    1    1    2    0    0  0.14791775209E+02  0.14335271015E+03 -0.83048069724E+03  0.85211031247E+03  0.12500000000E+03 0.  0.
         25    1    1    2    0    0 -0.14791775209E+02 -0.14335271015E+03 -0.37094594287E+03  0.41712670576E+03  0.12500000000E+03 0.  0.
</event>
<event>
 4    0  0.2196599E-002  0.3002336E+03  0.7546771E-02  0.1085124E+00
         21   -1    0    0  502  501  0.00000000000E+00  0.00000000000E+00  0.32093887467E+03  0.32093887467E+03  0.00000000000E+00 0. -1.
         21   -1    0    0  501  502 -0.00000000000E+00 -0.00000000000E+00 -0.28086404871E+03  0.28086404871E+03  0.00000000000E+00 0.  1.
         25    1    1    2    0    0 -0.20427036163E+03 -0.16637743023E+03  0.91662204457E+02  0.30567104811E+03  0.12500000000E+03 0.  0.
         25    1    1    2    0    0  0.20427036163E+03  0.16637743023E+03 -0.51587378502E+02  0.29613187527E+03  0.12500000000E+03 0.  0.
</event>
<event>
 4    0  0.2196599E-002  0.2259110E+03  0.7546771E-02  0.1129551E+00
         21   -1    0    0  502  501  0.00000000000E+00  0.00000000000E+00  0.12570143918E+03  0.12570143918E+03  0.00000000000E+00 0.  1.
         21   -1    0    0  501  502 -0.00000000000E+00 -0.00000000000E+00 -0.40600804972E+03  0.40600804972E+03  0.00000000000E+00 0.  1.
         25    1    1    2    0    0  0.96693064433E+02 -0.12499859045E+03 -0.19930603375E+02  0.20247573997E+03  0.12500000000E+03 0.  0.
         25    1    1    2    0    0 -0.96693064433E+02  0.12499859045E+03 -0.26037600716E+03  0.32923374892E+03  0.12500000000E+03 0.  0.
</event>
<event>
 4    0  0.2196599E-002  0.1456339E+03  0.7546771E-02  0.1205943E+00
         21   -1    0    0  502  501  0.00000000000E+00  0.00000000000E+00  0.16601828399E+04  0.16601828399E+04  0.00000000000E+00 0.  1.
         21   -1    0    0  501  502 -0.00000000000E+00 -0.00000000000E+00 -0.12775243532E+02  0.12775243532E+02  0.00000000000E+00 0.  1.
         25    1    1    2    0    0 -0.46915016542E+02 -0.55968603266E+02  0.73275404748E+03  0.74691833384E+03  0.12500000000E+03 0.  0.
         25    1    1    2    0    0  0.46915016542E+02  0.55968603266E+02  0.91465354890E+03  0.92603974960E+03  0.12500000000E+03 0.  0.
</event>
<event>
 4    0  0.2196599E-002  0.2483688E+03  0.7546771E-02  0.1114340E+00
         21   -1    0    0  502  501  0.00000000000E+00  0.00000000000E+00  0.14281514591E+03  0.14281514591E+03  0.00000000000E+00 0. -1.
         21   -1    0    0  501  502 -0.00000000000E+00 -0.00000000000E+00 -0.43193634450E+03  0.43193634450E+03  0.00000000000E+00 0. -1.
         25    1    1    2    0    0  0.32253418119E+02 -0.18749088325E+03 -0.25950512901E+03  0.34519708322E+03  0.12500000000E+03 0.  0.
         25    1    1    2    0    0 -0.32253418119E+02  0.18749088325E+03 -0.29616069576E+02  0.22955440719E+03  0.12500000000E+03 0.  0.
</event>
<event>
 4    0  0.2196599E-002  0.2687875E+03  0.7546771E-02  0.1101976E+00
         21   -1    0    0  502  501  0.00000000000E+00  0.00000000000E+00  0.16919262277E+04  0.16919262277E+04  0.00000000000E+00 0. -1.
         21   -1    0    0  501  502 -0.00000000000E+00 -0.00000000000E+00 -0.42700877771E+02  0.42700877771E+02  0.00000000000E+00 0. -1.
         25    1    1    2    0    0 -0.79545630627E+02  0.90124814372E+02  0.16197243027E+03  0.23729740345E+03  0.12500000000E+03 0.  0.
         25    1    1    2    0    0  0.79545630627E+02 -0.90124814372E+02  0.14872529196E+04  0.14973297020E+04  0.12500000000E+03 0.  0.
</event>
<event>
 4    0  0.2196599E-002  0.3051704E+03  0.7546771E-02  0.1082684E+00
         21   -1    0    0  502  501  0.00000000000E+00  0.00000000000E+00  0.92352073295E+03  0.92352073295E+03  0.00000000000E+00 0. -1.
         21   -1    0    0  501  502 -0.00000000000E+00 -0.00000000000E+00 -0.10084126512E+03  0.10084126512E+03  0.00000000000E+00 0. -1.
         25    1    1    2    0    0 -0.23932210040E+03  0.11919910383E+03  0.28111380761E+03  0.40759473368E+03  0.12500000000E+03 0.  0.
         25    1    1    2    0    0  0.23932210040E+03 -0.11919910383E+03  0.54156566022E+03  0.61676726439E+03  0.12500000000E+03 0.  0.
</event>
<event>
 4    0  0.2196599E-002  0.2884784E+03  0.7546771E-02  0.1091146E+00
         21   -1    0    0  502  501  0.00000000000E+00  0.00000000000E+00  0.45137873826E+03  0.45137873826E+03  0.00000000000E+00 0.  1.
         21   -1    0    0  501  502 -0.00000000000E+00 -0.00000000000E+00 -0.18436803364E+03  0.18436803364E+03  0.00000000000E+00 0. -1.
         25    1    1    2    0    0  0.21491332755E+03  0.13903994907E+03  0.83312005647E+02  0.29679241244E+03  0.12500000000E+03 0.  0.
         25    1    1    2    0    0 -0.21491332755E+03 -0.13903994907E+03  0.18369869897E+03  0.33895435946E+03  0.12500000000E+03 0.  0.
</event>
<event>
 4    0  0.2196599E-002  0.2840359E+03  0.7546771E-02  0.1093505E+00
         21   -1    0    0  502  501  0.00000000000E+00  0.00000000000E+00  0.61766239642E+02  0.61766239642E+02  0.00000000000E+00 0. -1.
         21   -1    0    0  501  502 -0.00000000000E+00 -0.00000000000E+00 -0.13061568288E+04  0.13061568288E+04  0.00000000000E+00 0. -1.
         25    1    1    2    0    0 -0.78314155656E+02  0.11465005917E+02 -0.12060415523E+04  0.12150826224E+04  0.12500000000E+03 0.  0.
         25    1    1    2    0    0  0.78314155656E+02 -0.11465005917E+02 -0.38349036913E+02  0.15284044612E+03  0.12500000000E+03 0.  0.
</event>
<event>
 4    0  0.2196599E-002  0.2621762E+03  0.7546771E-02  0.1105843E+00
         21   -1    0    0  502  501  0.00000000000E+00  0.00000000000E+00  0.23226148864E+03  0.23226148864E+03  0.00000000000E+00 0. -1.
         21   -1    0    0  501  502 -0.00000000000E+00 -0.00000000000E+00 -0.29594385666E+03  0.29594385666E+03  0.00000000000E+00 0. -1.
         25    1    1    2    0    0 -0.11828218363E+03 -0.19077699467E+03 -0.84424595676E+02  0.27044232105E+03  0.12500000000E+03 0.  0.
         25    1    1    2    0    0  0.11828218363E+03  0.19077699467E+03  0.20742227651E+02  0.25776302425E+03  0.12500000000E+03 0.  0.
</event>
<event>
 4    0  0.2196599E-002  0.3647948E+03  0.7546771E-02  0.1056701E+00
         21   -1    0    0  502  501  0.00000000000E+00  0.00000000000E+00  0.48234332278E+03  0.48234332278E+03  0.00000000000E+00 0. -1.
         21   -1    0    0  501  502 -0.00000000000E+00 -0.00000000000E+00 -0.27589321480E+03  0.27589321480E+03  0.00000000000E+00 0. -1.
         25    1    1    2    0    0 -0.34091224500E+03  0.19195008762E+02  0.72736449920E+02  0.37081693367E+03  0.12500000000E+03 0.  0.
         25    1    1    2    0    0  0.34091224500E+03 -0.19195008762E+02  0.13371365806E+03  0.38741960392E+03  0.12500000000E+03 0.  0.
</event>
<event>
 4    0  0.2196599E-002  0.2102701E+03  0.7546771E-02  0.1141352E+00
         21   -1    0    0  502  501  0.00000000000E+00  0.00000000000E+00  0.73814238447E+03  0.73814238447E+03  0.00000000000E+00 0. -1.
         21   -1    0    0  501  502 -0.00000000000E+00 -0.00000000000E+00 -0.59898340293E+02  0.59898340293E+02  0.00000000000E+00 0. -1.
         25    1    1    2    0    0  0.75540567095E+02 -0.14939720132E+03  0.29411103944E+03  0.36076613555E+03  0.12500000000E+03 0.  0.
         25    1    1    2    0    0 -0.75540567095E+02  0.14939720132E+03  0.38413300475E+03  0.43727458922E+03  0.12500000000E+03 0.  0.
</event>
<event>
 4    0  0.2196599E-002  0.2499057E+03  0.7546771E-02  0.1113364E+00
         21   -1    0    0  502  501  0.00000000000E+00  0.00000000000E+00  0.12846248783E+03  0.12846248783E+03  0.00000000000E+00 0. -1.
         21   -1    0    0  501  502 -0.00000000000E+00 -0.00000000000E+00 -0.48615648046E+03  0.48615648046E+03  0.00000000000E+00 0. -1.
         25    1    1    2    0    0  0.15145564960E+03  0.24778517227E+01 -0.36888630774E+03  0.41790795827E+03  0.12500000000E+03 0.  0.
         25    1    1    2    0    0 -0.15145564960E+03 -0.24778517227E+01  0.11192315108E+02  0.19671101002E+03  0.12500000000E+03 0.  0.
</event>
<event>
 4    0  0.2196599E-002  0.3374289E+03  0.7546771E-02  0.1067896E+00
         21   -1    0    0  502  501  0.00000000000E+00  0.00000000000E+00  0.40505897243E+03  0.40505897243E+03  0.00000000000E+00 0.  1.
         21   -1    0    0  501  502 -0.00000000000E+00 -0.00000000000E+00 -0.28109066590E+03  0.28109066590E+03  0.00000000000E+00 0. -1.
         25    1    1    2    0    0  0.29449976133E+03  0.33341394772E+02  0.16562869199E+03  0.36180052742E+03  0.12500000000E+03 0.  0.
         25    1    1    2    0    0 -0.29449976133E+03 -0.33341394772E+02 -0.41660385463E+02  0.32434911091E+03  0.12500000000E+03 0.  0.
</event>
<event>
 4    0  0.2196599E-002  0.2311987E+03  0.7546771E-02  0.1125799E+00
         21   -1    0    0  502  501  0.00000000000E+00  0.00000000000E+00  0.15783696502E+03  0.15783696502E+03  0.00000000000E+00 0.  1.
         21   -1    0    0  501  502 -0.00000000000E+00 -0.00000000000E+00 -0.33865863538E+03  0.33865863538E+03  0.00000000000E+00 0.  1.
         25    1    1    2    0    0  0.12349665025E+03  0.68871706387E+01  0.70754221259E+02  0.18955214472E+03  0.12500000000E+03 0.  0.
         25    1    1    2    0    0 -0.12349665025E+03 -0.68871706387E+01 -0.25157589161E+03  0.30694345568E+03  0.12500000000E+03 0.  0.
</event>
<event>
 4    0  0.2196599E-002  0.1523904E+03  0.7546771E-02  0.1197566E+00
         21   -1    0    0  502  501  0.00000000000E+00  0.00000000000E+00  0.97305048661E+03  0.97305048661E+03  0.00000000000E+00 0.  1.
         21   -1    0    0  501  502 -0.00000000000E+00 -0.00000000000E+00 -0.23866001540E+02  0.23866001540E+02  0.00000000000E+00 0.  1.
         25    1    1    2    0    0 -0.80402795870E+02 -0.97594491085E+01  0.57997346746E+03  0.59879385384E+03  0.12500000000E+03 0.  0.
         25    1    1    2    0    0  0.80402795870E+02  0.97594491085E+01  0.36921101761E+03  0.39812263431E+03  0.12500000000E+03 0.  0.
</event>
<event>
 4    0  0.2196599E-002  0.2623005E+03  0.7546771E-02  0.1105769E+00
         21   -1    0    0  502  501  0.00000000000E+00  0.00000000000E+00  0.16721192054E+03  0.16721192054E+03  0.00000000000E+00 0.  1.
         21   -1    0    0  501  502 -0.00000000000E+00 -0.00000000000E+00 -0.41146306227E+03  0.41146306227E+03  0.00000000000E+00 0.  1.
         25    1    1    2    0    0 -0.10746178397E+03  0.18783153813E+03 -0.34240009904E+02  0.25224214558E+03  0.12500000000E+03 0.  0.
         25    1    1    2    0    0  0.10746178397E+03 -0.18783153813E+03 -0.21001113182E+03  0.32643283723E+03  0.12500000000E+03 0.  0.
</event>
<event>
 4    0  0.2196599E-002  0.1655775E+03  0.7546771E-02  0.1182540E+00
         21   -1    0    0  502  501  0.00000000000E+00  0.00000000000E+00  0.60499176939E+02  0.60499176939E+02  0.00000000000E+00 0. -1.
         21   -1    0    0  501  502 -0.00000000000E+00 -0.00000000000E+00 -0.45316152312E+03  0.45316152312E+03  0.00000000000E+00 0. -1.
         25    1    1    2    0    0  0.52287396861E+02 -0.83645325757E+02 -0.26673876223E+03  0.31065266724E+03  0.12500000000E+03 0.  0.
         25    1    1    2    0    0 -0.52287396861E+02  0.83645325757E+02 -0.12592358395E+03  0.20300803281E+03  0.12500000000E+03 0.  0.
</event>
<event>
 4    0  0.2196599E-002  0.2304982E+03  0.7546771E-02  0.1126290E+00
         21   -1    0    0  502  501  0.00000000000E+00  0.00000000000E+00  0.95574661583E+02  0.95574661583E+02  0.00000000000E+00 0. -1.
         21   -1    0    0  501  502 -0.00000000000E+00 -0.00000000000E+00 -0.55589461540E+03  0.55589461540E+03  0.00000000000E+00 0. -1.
         25    1    1    2    0    0  0.42974483053E+02  0.14640615134E+03 -0.39869492923E+03  0.44481930482E+03  0.12500000000E+03 0.  0.
         25    1    1    2    0    0 -0.42974483053E+02 -0.14640615134E+03 -0.61625024591E+02  0.20664997217E+03  0.12500000000E+03 0.  0.
</event>
<event>
 4    0  0.2196599E-002  0.2069110E+03  0.7546771E-02  0.1144036E+00
         21   -1    0    0  502  501  0.00000000000E+00  0.00000000000E+00  0.13459054312E+04  0.13459054312E+04  0.00000000000E+00 0.  1.
         21   -1    0    0  501  502 -0.00000000000E+00 -0.00000000000E+00 -0.31809203735E+02  0.31809203735E+02  0.00000000000E+00 0.  1.
         25    1    1    2    0    0  0.33045916098E+01 -0.12761475505E+02  0.10986175093E+03  0.16693825176E+03  0.12500000000E+03 0.  0.
         25    1    1    2    0    0 -0.33045916098E+01  0.12761475505E+02  0.12042344766E+04  0.12107763832E+04  0.12500000000E+03 0.  0.
</event>
<event>
 4    0  0.2196599E-002  0.2972203E+03  0.7546771E-02  0.1086638E+00
         21   -1    0    0  502  501  0.00000000000E+00  0.00000000000E+00  0.28676103931E+03  0.28676103931E+03  0.00000000000E+00 0.  1.
         21   -1    0    0  501  502 -0.00000000000E+00 -0.00000000000E+00 -0.30806108845E+03  0.30806108845E+03  0.00000000000E+00 0.  1.
         25    1    1    2    0    0 -0.18962047014E+02  0.24810159775E+03 -0.11464436878E+03  0.30113500847E+03  0.12500000000E+03 0.  0.
         25    1    1    2    0    0  0.18962047014E+02 -0.24810159775E+03  0.93344319646E+02  0.29368711930E+03  0.12500000000E+03 0.  0.
</event>
<event>
 4    0  0.2196599E-002  0.1968033E+03  0.7546771E-02  0.1152464E+00
         21   -1    0    0  502  501  0.00000000000E+00  0.00000000000E+00  0.14028853334E+03  0.14028853334E+03  0.00000000000E+00 0.  1.
         21   -1    0    0  501  502 -0.00000000000E+00 -0.00000000000E+00 -0.27608475780E+03  0.27608475780E+03  0.00000000000E+00 0.  1.
         25    1    1    2    0    0  0.14451777130E+03  0.28681810262E+02 -0.28338615461E+02  0.19528468856E+03  0.12500000000E+03 0.  0.
         25    1    1    2    0    0 -0.14451777130E+03 -0.28681810262E+02 -0.10745760899E+03  0.22108860258E+03  0.12500000000E+03 0.  0.
</event>
<event>
 4    0  0.2196599E-002  0.2130302E+03  0.7546771E-02  0.1139189E+00
         21   -1    0    0  502  501  0.00000000000E+00  0.00000000000E+00  0.88514129706E+02  0.88514129706E+02  0.00000000000E+00 0.  1.
         21   -1    0    0  501  502 -0.00000000000E+00 -0.00000000000E+00 -0.51270764554E+03  0.51270764554E+03  0.00000000000E+00 0.  1.
         25    1    1    2    0    0  0.18471711352E+02 -0.14535286996E+03 -0.83629077273E+02  0.20997019667E+03  0.12500000000E+03 0.  0.
         25    1    1    2    0    0 -0.18471711352E+02  0.14535286996E+03 -0.34056443856E+03  0.39125157858E+03  0.12500000000E+03 0.  0.
</event>
<event>
 4    0  0.2196599E-002  0.2241072E+03  0.7546771E-02  0.1130857E+00
         21   -1    0    0  502  501  0.00000000000E+00  0.00000000000E+00  0.38761172669E+03  0.38761172669E+03  0.00000000000E+00 0.  1.
         21   -1    0    0  501  502 -0.00000000000E+00 -0.00000000000E+00 -0.12957310843E+03  0.12957310843E+03  0.00000000000E+00 0.  1.
         25    1    1    2    0    0 -0.90907306795E+02  0.25641881122E+02  0.31391871549E+03  0.35084413125E+03  0.12500000000E+03 0.  0.
         25    1    1    2    0    0  0.90907306795E+02 -0.25641881122E+02 -0.55880097242E+02  0.16634070387E+03  0.12500000000E+03 0.  0.
</event>
<event>
 4    0  0.2196599E-002  0.2048465E+03  0.7546771E-02  0.1145713E+00
         21   -1    0    0  502  501  0.00000000000E+00  0.00000000000E+00  0.16642757330E+03  0.16642757330E+03  0.00000000000E+00 0. -1.
         21   -1    0    0  501  502 -0.00000000000E+00 -0.00000000000E+00 -0.25213428337E+03  0.25213428337E+03  0.00000000000E+00 0. -1.
         25    1    1    2    0    0 -0.24461241247E+02 -0.12888194012E+03  0.54756439852E+02  0.18929388399E+03  0.12500000000E+03 0.  0.
         25    1    1    2    0    0  0.24461241247E+02  0.12888194012E+03 -0.14046314992E+03  0.22926797268E+03  0.12500000000E+03 0.  0.
</event>
<event>
 4    0  0.2196599E-002  0.2766866E+03  0.7546771E-02  0.1097513E+00
         21   -1    0    0  502  501  0.00000000000E+00  0.00000000000E+00  0.10293405617E+03  0.10293405617E+03  0.00000000000E+00 0.  1.
         21   -1    0    0  501  502 -0.00000000000E+00 -0.00000000000E+00 -0.74373302760E+03  0.74373302760E+03  0.00000000000E+00 0.  1.
         25    1    1    2    0    0 -0.13736771146E+03  0.11518308330E+03 -0.58002135783E+03  0.61982804581E+03  0.12500000000E+03 0.  0.
         25    1    1    2    0    0  0.13736771146E+03 -0.11518308330E+03 -0.60777613600E+02  0.22683903797E+03  0.12500000000E+03 0.  0.
</event>
<event>
 4    0  0.2196599E-002  0.6080321E+03  0.7546771E-02  0.9888881E-01
         21   -1    0    0  502  501  0.00000000000E+00  0.00000000000E+00  0.64751852136E+03  0.64751852136E+03  0.00000000000E+00 0. -1.
         21   -1    0    0  501  502 -0.00000000000E+00 -0.00000000000E+00 -0.57095366499E+03  0.57095366499E+03  0.00000000000E+00 0. -1.
         25    1    1    2    0    0  0.36639119559E+03 -0.24611192572E+03 -0.36158733430E+03  0.58410956893E+03  0.12500000000E+03 0.  0.
         25    1    1    2    0    0 -0.36639119559E+03  0.24611192572E+03  0.43815219067E+03  0.63436261742E+03  0.12500000000E+03 0.  0.
</event>
<event>
 4    0  0.2196599E-002  0.2216644E+03  0.7546771E-02  0.1132648E+00
         21   -1    0    0  502  501  0.00000000000E+00  0.00000000000E+00  0.28356994021E+03  0.28356994021E+03  0.00000000000E+00 0. -1.
         21   -1    0    0  501  502 -0.00000000000E+00 -0.00000000000E+00 -0.17327339146E+03  0.17327339146E+03  0.00000000000E+00 0. -1.
         25    1    1    2    0    0 -0.71688287335E+01 -0.17224212594E+03 -0.83029638411E+01  0.21310251351E+03  0.12500000000E+03 0.  0.
         25    1    1    2    0    0  0.71688287335E+01  0.17224212594E+03  0.11859951259E+03  0.24374081817E+03  0.12500000000E+03 0.  0.
</event>
<event>
 4    0  0.2196599E-002  0.2272786E+03  0.7546771E-02  0.1128570E+00
         21   -1    0    0  502  501  0.00000000000E+00  0.00000000000E+00  0.70415090483E+02  0.70415090483E+02  0.00000000000E+00 0. -1.
         21   -1    0    0  501  502 -0.00000000000E+00 -0.00000000000E+00 -0.73358638046E+03  0.73358638046E+03  0.00000000000E+00 0. -1.
         25    1    1    2    0    0  0.10667579861E+03  0.45946470064E+02 -0.66037747204E+02  0.18296663132E+03  0.12500000000E+03 0.  0.
         25    1    1    2    0    0 -0.10667579861E+03 -0.45946470064E+02 -0.59713354278E+03  0.62103483963E+03  0.12500000000E+03 0.  0.
</event>
<event>
 4    0  0.2196599E-002  0.2515182E+03  0.7546771E-02  0.1112349E+00
         21   -1    0    0  502  501  0.00000000000E+00  0.00000000000E+00  0.30856520872E+03  0.30856520872E+03  0.00000000000E+00 0.  1.
         21   -1    0    0  501  502 -0.00000000000E+00 -0.00000000000E+00 -0.20501788556E+03  0.20501788556E+03  0.00000000000E+00 0.  1.
         25    1    1    2    0    0 -0.16843237291E+03  0.14955418296E+02  0.19266425374E+03  0.28519755162E+03  0.12500000000E+03 0.  0.
         25    1    1    2    0    0  0.16843237291E+03 -0.14955418296E+02 -0.89116930584E+02  0.22838554266E+03  0.12500000000E+03 0.  0.
</event>
<event>
 4    0  0.2196599E-002  0.2538703E+03  0.7546771E-02  0.1110883E+00
         21   -1    0    0  502  501  0.00000000000E+00  0.00000000000E+00  0.10727364061E+03  0.10727364061E+03  0.00000000000E+00 0. -1.
         21   -1    0    0  501  502 -0.00000000000E+00 -0.00000000000E+00 -0.60080121171E+03  0.60080121171E+03  0.00000000000E+00 0. -1.
         25    1    1    2    0    0 -0.17093309160E+03 -0.99752565666E+02 -0.38380327216E+03  0.44955383202E+03  0.12500000000E+03 0.  0.
         25    1    1    2    0    0  0.17093309160E+03  0.99752565666E+02 -0.10972429894E+03  0.25852102030E+03  0.12500000000E+03 0.  0.
</event>
<event>
 4    0  0.2196599E-002  0.2219775E+03  0.7546771E-02  0.1132417E+00
         21   -1    0    0  502  501  0.00000000000E+00  0.00000000000E+00  0.11738778220E+03  0.11738778220E+03  0.00000000000E+00 0.  1.
         21   -1    0    0  501  502 -0.00000000000E+00 -0.00000000000E+00 -0.41975408408E+03  0.41975408408E+03  0.00000000000E+00 0.  1.
         25    1    1    2    0    0 -0.18146755324E+03  0.19318533937E+02 -0.12869972711E+03  0.25591463106E+03  0.12500000000E+03 0.  0.
         25    1    1    2    0    0  0.18146755324E+03 -0.19318533937E+02 -0.17366657477E+03  0.28122723521E+03  0.12500000000E+03 0.  0.
</event>
<event>
 4    0  0.2196599E-002  0.2236046E+03  0.7546771E-02  0.1131224E+00
         21   -1    0    0  502  501  0.00000000000E+00  0.00000000000E+00  0.36499940842E+03  0.36499940842E+03  0.00000000000E+00 0. -1.
         21   -1    0    0  501  502 -0.00000000000E+00 -0.00000000000E+00 -0.13698379732E+03  0.13698379732E+03  0.00000000000E+00 0. -1.
         25    1    1    2    0    0  0.48457856168E+02  0.17824615314E+03  0.96113138843E+02  0.24286331627E+03  0.12500000000E+03 0.  0.
         25    1    1    2    0    0 -0.48457856168E+02 -0.17824615314E+03  0.13190247226E+03  0.25911988947E+03  0.12500000000E+03 0.  0.
</event>
<event>
 4    0  0.2196599E-002  0.2611106E+03  0.7546771E-02  0.1106478E+00
         21   -1    0    0  502  501  0.00000000000E+00  0.00000000000E+00  0.90183416834E+03  0.90183416834E+03  0.00000000000E+00 0. -1.
         21   -1    0    0  501  502 -0.00000000000E+00 -0.00000000000E+00 -0.75600077744E+02  0.75600077744E+02  0.00000000000E+00 0. -1.
         25    1    1    2    0    0 -0.47944549882E+02 -0.21378442390E+03  0.28684722644E+03  0.38198009252E+03  0.12500000000E+03 0.  0.
         25    1    1    2    0    0  0.47944549882E+02  0.21378442390E+03  0.53938686416E+03  0.59545415356E+03  0.12500000000E+03 0.  0.
</event>
<event>
 4    0  0.2196599E-002  0.1690478E+03  0.7546771E-02  0.1178844E+00
         21   -1    0    0  502  501  0.00000000000E+00  0.00000000000E+00  0.75960114077E+03  0.75960114077E+03  0.00000000000E+00 0.  1.
         21   -1    0    0  501  502 -0.00000000000E+00 -0.00000000000E+00 -0.37621273913E+02  0.37621273913E+02  0.00000000000E+00 0.  1.
         25    1    1    2    0    0  0.64022704769E+02  0.68408090366E+02  0.20865665341E+03  0.26065527535E+03  0.12500000000E+03 0.  0.
         25    1    1    2    0    0 -0.64022704769E+02 -0.68408090366E+02  0.51332321345E+03  0.53656713934E+03  0.12500000000E+03 0.  0.
</event>
<event>
 4    0  0.2196599E-002  0.3697232E+03  0.7546771E-02  0.1054799E+00
         21   -1    0    0  502  501  0.00000000000E+00  0.00000000000E+00  0.12203302367E+03  0.12203302367E+03  0.00000000000E+00 0.  1.
         21   -1    0    0  501  502 -0.00000000000E+00 -0.00000000000E+00 -0.11201497644E+04  0.11201497644E+04  0.00000000000E+00 0.  1.
         25    1    1    2    0    0  0.24159042928E+02  0.14261388390E+03 -0.10306763582E+04  0.10482562352E+04  0.12500000000E+03 0.  0.
         25    1    1    2    0    0 -0.24159042928E+02 -0.14261388390E+03  0.32559617448E+02  0.19392655291E+03  0.12500000000E+03 0.  0.
</event>
<event>
 4    0  0.2196599E-002  0.2630248E+03  0.7546771E-02  0.1105339E+00
         21   -1    0    0  502  501  0.00000000000E+00  0.00000000000E+00  0.71945266440E+03  0.71945266440E+03  0.00000000000E+00 0.  1.
         21   -1    0    0  501  502 -0.00000000000E+00 -0.00000000000E+00 -0.96159281243E+02  0.96159281243E+02  0.00000000000E+00 0.  1.
         25    1    1    2    0    0 -0.11057203836E+03  0.13079439853E+03  0.55295768732E+03  0.59221664475E+03  0.12500000000E+03 0.  0.
         25    1    1    2    0    0  0.11057203836E+03 -0.13079439853E+03  0.70335695836E+02  0.22339530089E+03  0.12500000000E+03 0.  0.
</event>
<event>
 4    0  0.2196599E-002  0.2365960E+03  0.7546771E-02  0.1122081E+00
         21   -1    0    0  502  501  0.00000000000E+00  0.00000000000E+00  0.17107235745E+02  0.17107235745E+02  0.00000000000E+00 0.  1.
         21   -1    0    0  501  502 -0.00000000000E+00 -0.00000000000E+00 -0.32721637700E+04  0.32721637700E+04  0.00000000000E+00 0.  1.
         25    1    1    2    0    0  0.73569644594E+02 -0.15294052178E+03 -0.23745643567E+04  0.23839010424E+04  0.12500000000E+03 0.  0.
         25    1    1    2    0    0 -0.73569644594E+02  0.15294052178E+03 -0.88049217758E+03  0.90536996338E+03  0.12500000000E+03 0.  0.
</event>
<event>
 4    0  0.2196599E-002  0.2528828E+03  0.7546771E-02  0.1111496E+00
         21   -1    0    0  502  501  0.00000000000E+00  0.00000000000E+00  0.23015552752E+02  0.23015552752E+02  0.00000000000E+00 0. -1.
         21   -1    0    0  501  502 -0.00000000000E+00 -0.00000000000E+00 -0.27785430415E+04  0.27785430415E+04  0.00000000000E+00 0. -1.
         25    1    1    2    0    0  0.60874071321E+02  0.13717578027E+03 -0.22675299869E+04  0.22759262046E+04  0.12500000000E+03 0.  0.
         25    1    1    2    0    0 -0.60874071321E+02 -0.13717578027E+03 -0.48799750187E+03  0.52563238968E+03  0.12500000000E+03 0.  0.
</event>
<event>
 4    0  0.2196599E-002  0.2109388E+03  0.7546771E-02  0.1140825E+00
         21   -1    0    0  502  501  0.00000000000E+00  0.00000000000E+00  0.61831319803E+03  0.61831319803E+03  0.00000000000E+00 0. -1.
         21   -1    0    0  501  502 -0.00000000000E+00 -0.00000000000E+00 -0.71962230958E+02  0.71962230958E+02  0.00000000000E+00 0. -1.
         25    1    1    2    0    0  0.91432954144E+02 -0.13905318746E+03  0.32924775460E+03  0.38951875173E+03  0.12500000000E+03 0.  0.
         25    1    1    2    0    0 -0.91432954144E+02  0.13905318746E+03  0.21710321248E+03  0.30075667726E+03  0.12500000000E+03 0.  0.
</event>
<event>
 4    0  0.2196599E-002  0.3457655E+03  0.7546771E-02  0.1064367E+00
         21   -1    0    0  502  501  0.00000000000E+00  0.00000000000E+00  0.16411621802E+03  0.16411621802E+03  0.00000000000E+00 0. -1.
         21   -1    0    0  501  502 -0.00000000000E+00 -0.00000000000E+00 -0.72847009608E+03  0.72847009608E+03  0.00000000000E+00 0. -1.
         25    1    1    2    0    0  0.23374653890E+03 -0.29499840759E+02 -0.56620144544E+03  0.62587280008E+03  0.12500000000E+03 0.  0.
         25    1    1    2    0    0 -0.23374653890E+03  0.29499840759E+02  0.18475673803E+01  0.26671351402E+03  0.12500000000E+03 0.  0.
</event>
<event>
 4    0  0.2196599E-002  0.1548835E+03  0.7546771E-02  0.1194597E+00
         21   -1    0    0  502  501  0.00000000000E+00  0.00000000000E+00  0.75588182257E+03  0.75588182257E+03  0.00000000000E+00 0. -1.
         21   -1    0    0  501  502 -0.00000000000E+00 -0.00000000000E+00 -0.31736320855E+02  0.31736320855E+02  0.00000000000E+00 0. -1.
         25    1    1    2    0    0  0.97444903909E+01  0.77151551319E+02  0.23969423929E+03  0.28129281063E+03  0.12500000000E+03 0.  0.
         25    1    1    2    0    0 -0.97444903909E+01 -0.77151551319E+02  0.48445126242E+03  0.50632533279E+03  0.12500000000E+03 0.  0.
</event>
<event>
 4    0  0.2196599E-002  0.2041285E+03  0.7546771E-02  0.1146302E+00
         21   -1    0    0  502  501  0.00000000000E+00  0.00000000000E+00  0.59128175952E+03  0.59128175952E+03  0.00000000000E+00 0.  1.
         21   -1    0    0  501  502 -0.00000000000E+00 -0.00000000000E+00 -0.70471393234E+02  0.70471393234E+02  0.00000000000E+00 0. -1.
         25    1    1    2    0    0 -0.13577109357E+03  0.84744524701E+02  0.29394007866E+03  0.35726907809E+03  0.12500000000E+03 0.  0.
         25    1    1    2    0    0  0.13577109357E+03 -0.84744524701E+02  0.22687028763E+03  0.30448407466E+03  0.12500000000E+03 0.  0.
</event>
<event>
 4    0  0.2196599E-002  0.3027617E+03  0.7546771E-02  0.1083868E+00
         21   -1    0    0  502  501  0.00000000000E+00  0.00000000000E+00  0.55420502206E+03  0.55420502206E+03  0.00000000000E+00 0. -1.
         21   -1    0    0  501  502 -0.00000000000E+00 -0.00000000000E+00 -0.16539843808E+03  0.16539843808E+03  0.00000000000E+00 0. -1.
         25    1    1    2    0    0 -0.13057015281E+03 -0.15673352407E+03 -0.26094171192E+02  0.24066546936E+03  0.12500000000E+03 0.  0.
         25    1    1    2    0    0  0.13057015281E+03  0.15673352407E+03  0.41490075517E+03  0.47893799078E+03  0.12500000000E+03 0.  0.
</event>
<event>
 4    0  0.2196599E-002  0.2059319E+03  0.7546771E-02  0.1144829E+00
         21   -1    0    0  502  501  0.00000000000E+00  0.00000000000E+00  0.20757225806E+03  0.20757225806E+03  0.00000000000E+00 0.  1.
         21   -1    0    0  501  502 -0.00000000000E+00 -0.00000000000E+00 -0.20430442777E+03  0.20430442777E+03  0.00000000000E+00 0.  1.
         25    1    1    2    0    0 -0.13522676640E+03  0.32573411325E+02 -0.84598874543E+02  0.20525417182E+03  0.12500000000E+03 0.  0.
         25    1    1    2    0    0  0.13522676640E+03 -0.32573411325E+02  0.87866704828E+02  0.20662251400E+03  0.12500000000E+03 0.  0.
</event>
<event>
 4    0  0.2196599E-002  0.2482468E+03  0.7546771E-02  0.1114418E+00
         21   -1    0    0  502  501  0.00000000000E+00  0.00000000000E+00  0.12502355439E+03  0.12502355439E+03  0.00000000000E+00 0. -1.
         21   -1    0    0  501  502 -0.00000000000E+00 -0.00000000000E+00 -0.49291901415E+03  0.49291901415E+03  0.00000000000E+00 0. -1.
         25    1    1    2    0    0 -0.17447134521E+03  0.64898191420E+02 -0.51354288673E+02  0.23003105989E+03  0.12500000000E+03 0.  0.
         25    1    1    2    0    0  0.17447134521E+03 -0.64898191420E+02 -0.31654117109E+03  0.38791150865E+03  0.12500000000E+03 0.  0.
</event>
<event>
 4    0  0.2196599E-002  0.1890328E+03  0.7546771E-02  0.1159337E+00
         21   -1    0    0  502  501  0.00000000000E+00  0.00000000000E+00  0.38595871460E+03  0.38595871460E+03  0.00000000000E+00 0.  1.
         21   -1    0    0  501  502 -0.00000000000E+00 -0.00000000000E+00 -0.92583504785E+02  0.92583504785E+02  0.00000000000E+00 0.  1.
         25    1    1    2    0    0 -0.98807536523E+02 -0.57654823213E+02  0.40624346043E+02  0.17424794233E+03  0.12500000000E+03 0.  0.
         25    1    1    2    0    0  0.98807536523E+02  0.57654823213E+02  0.25275086377E+03  0.30429427706E+03  0.12500000000E+03 0.  0.
</event>
<event>
 4    0  0.2196599E-002  0.1937427E+03  0.7546771E-02  0.1155128E+00
         21   -1    0    0  502  501  0.00000000000E+00  0.00000000000E+00  0.68398316467E+02  0.68398316467E+02  0.00000000000E+00 0.  1.
         21   -1    0    0  501  502 -0.00000000000E+00 -0.00000000000E+00 -0.54878869540E+03  0.54878869540E+03  0.00000000000E+00 0.  1.
         25    1    1    2    0    0 -0.39599667622E+02  0.95366851480E+02 -0.71266258904E+02  0.17710688777E+03  0.12500000000E+03 0.  0.
         25    1    1    2    0    0  0.39599667622E+02 -0.95366851480E+02 -0.40912412003E+03  0.44008012410E+03  0.12500000000E+03 0.  0.
</event>
<event>
 4    0  0.2196599E-002  0.2320893E+03  0.7546771E-02  0.1125178E+00
         21   -1    0    0  502  501  0.00000000000E+00  0.00000000000E+00  0.51469093934E+03  0.51469093934E+03  0.00000000000E+00 0.  1.
         21   -1    0    0  501  502 -0.00000000000E+00 -0.00000000000E+00 -0.10465591235E+03  0.10465591235E+03  0.00000000000E+00 0.  1.
         25    1    1    2    0    0 -0.66051714088E+02  0.16663545257E+03  0.30931603954E+03  0.37872366615E+03  0.12500000000E+03 0.  0.
         25    1    1    2    0    0  0.66051714088E+02 -0.16663545257E+03  0.10071898745E+03  0.24062318554E+03  0.12500000000E+03 0.  0.
</event>
<event>
 4    0  0.2196599E-002  0.2214637E+03  0.7546771E-02  0.1132796E+00
         21   -1    0    0  502  501  0.00000000000E+00  0.00000000000E+00  0.92865241472E+02  0.92865241472E+02  0.00000000000E+00 0. -1.
         21   -1    0    0  501  502 -0.00000000000E+00 -0.00000000000E+00 -0.52814370273E+03  0.52814370273E+03  0.00000000000E+00 0. -1.
         25    1    1    2    0    0  0.91863839990E+02 -0.83193183139E+02 -0.40606381656E+03  0.44257529748E+03  0.12500000000E+03 0.  0.
         25    1    1    2    0    0 -0.91863839990E+02  0.83193183139E+02 -0.29214644699E+02  0.17843364672E+03  0.12500000000E+03 0.  0.
</event>
<event>
 4    0  0.2196599E-002  0.1847292E+03  0.7546771E-02  0.1163303E+00
         21   -1    0    0  502  501  0.00000000000E+00  0.00000000000E+00  0.34407504511E+03  0.34407504511E+03  0.00000000000E+00 0.  1.
         21   -1    0    0  501  502 -0.00000000000E+00 -0.00000000000E+00 -0.99178544847E+02  0.99178544847E+02  0.00000000000E+00 0.  1.
         25    1    1    2    0    0  0.54932829859E+02  0.11918880152E+03  0.79587563086E+02  0.19794637254E+03  0.12500000000E+03 0.  0.
         25    1    1    2    0    0 -0.54932829859E+02 -0.11918880152E+03  0.16530893717E+03  0.24530721741E+03  0.12500000000E+03 0.  0.
</event>
<event>
 4    0  0.2196599E-002  0.2615881E+03  0.7546771E-02  0.1106193E+00
         21   -1    0    0  502  501  0.00000000000E+00  0.00000000000E+00  0.24109283146E+03  0.24109283146E+03  0.00000000000E+00 0.  1.
         21   -1    0    0  501  502 -0.00000000000E+00 -0.00000000000E+00 -0.28382571978E+03  0.28382571978E+03  0.00000000000E+00 0.  1.
         25    1    1    2    0    0 -0.73441447505E+02 -0.21414400181E+03  0.18160778072E+02  0.25924141950E+03  0.12500000000E+03 0.  0.
         25    1    1    2    0    0  0.73441447505E+02  0.21414400181E+03 -0.60893666394E+02  0.26567713174E+03  0.12500000000E+03 0.  0.
</event>
<event>
 4    0  0.2196599E-002  0.1852269E+03  0.7546771E-02  0.1162838E+00
         21   -1    0    0  502  501  0.00000000000E+00  0.00000000000E+00  0.29790292562E+03  0.29790292562E+03  0.00000000000E+00 0. -1.
         21   -1    0    0  501  502 -0.00000000000E+00 -0.00000000000E+00 -0.11516837394E+03  0.11516837394E+03  0.00000000000E+00 0. -1.
         25    1    1    2    0    0  0.54614758722E+02 -0.11045718983E+03  0.25396453005E+02  0.17735146597E+03  0.12500000000E+03 0.  0.
         25    1    1    2    0    0 -0.54614758722E+02  0.11045718983E+03  0.15733809867E+03  0.23571983360E+03  0.12500000000E+03 0.  0.
</event>
<event>
 4    0  0.2196599E-002  0.3109362E+03  0.7546771E-02  0.1079898E+00
         21   -1    0    0  502  501  0.00000000000E+00  0.00000000000E+00  0.72138123987E+03  0.72138123987E+03  0.00000000000E+00 0. -1.
         21   -1    0    0  501  502 -0.00000000000E+00 -0.00000000000E+00 -0.13402253783E+03  0.13402253783E+03  0.00000000000E+00 0. -1.
         25    1    1    2    0    0  0.25312382715E+03  0.13002563029E+03  0.30582832779E+03  0.43604392265E+03  0.12500000000E+03 0.  0.
         25    1    1    2    0    0 -0.25312382715E+03 -0.13002563029E+03  0.28153037425E+03  0.41935985505E+03  0.12500000000E+03 0.  0.
</event>
<event>
 4    0  0.2196599E-002  0.2835741E+03  0.7546771E-02  0.1093753E+00
         21   -1    0    0  502  501  0.00000000000E+00  0.00000000000E+00  0.81560381381E+02  0.81560381381E+02  0.00000000000E+00 0. -1.
         21   -1    0    0  501  502 -0.00000000000E+00 -0.00000000000E+00 -0.98594802341E+03  0.98594802341E+03  0.00000000000E+00 0. -1.
         25    1    1    2    0    0  0.22502340693E+03 -0.60014041370E+02 -0.64554359517E+03  0.69755913878E+03  0.12500000000E+03 0.  0.
         25    1    1    2    0    0 -0.22502340693E+03  0.60014041370E+02 -0.25884404686E+03  0.36994926601E+03  0.12500000000E+03 0.  0.
</event>
<event>
 4    0  0.2196599E-002  0.1803387E+03  0.7546771E-02  0.1167476E+00
         21   -1    0    0  502  501  0.00000000000E+00  0.00000000000E+00  0.17485170380E+03  0.17485170380E+03  0.00000000000E+00 0. -1.
         21   -1    0    0  501  502 -0.00000000000E+00 -0.00000000000E+00 -0.18599782647E+03  0.18599782647E+03  0.00000000000E+00 0. -1.
         25    1    1    2    0    0  0.16051253676E+02 -0.75429345536E+02 -0.11026434642E+03  0.18365852826E+03  0.12500000000E+03 0.  0.
         25    1    1    2    0    0 -0.16051253676E+02  0.75429345536E+02  0.99118223753E+02  0.17719100201E+03  0.12500000000E+03 0.  0.
</event>
<event>
 4    0  0.2196599E-002  0.2251904E+03  0.7546771E-02  0.1130072E+00
         21   -1    0    0  502  501  0.00000000000E+00  0.00000000000E+00  0.80250471524E+03  0.80250471524E+03  0.00000000000E+00 0. -1.
         21   -1    0    0  501  502 -0.00000000000E+00 -0.00000000000E+00 -0.63190550107E+02  0.63190550107E+02  0.00000000000E+00 0. -1.
         25    1    1    2    0    0  0.69380258454E+02  0.76762847535E+02  0.66977927361E+03  0.68915559229E+03  0.12500000000E+03 0.  0.
         25    1    1    2    0    0 -0.69380258454E+02 -0.76762847535E+02  0.69534891526E+02  0.17653967306E+03  0.12500000000E+03 0.  0.
</event>
<event>
 4    0  0.2196599E-002  0.2246601E+03  0.7546771E-02  0.1130456E+00
         21   -1    0    0  502  501  0.00000000000E+00  0.00000000000E+00  0.53748953686E+03  0.53748953686E+03  0.00000000000E+00 0.  1.
         21   -1    0    0  501  502 -0.00000000000E+00 -0.00000000000E+00 -0.93903493799E+02  0.93903493799E+02  0.00000000000E+00 0.  1.
         25    1    1    2    0    0  0.77494316550E+01  0.90824907188E+02 -0.71236436967E+01  0.15487079698E+03  0.12500000000E+03 0.  0.
         25    1    1    2    0    0 -0.77494316550E+01 -0.90824907188E+02  0.45070968676E+03  0.47652223368E+03  0.12500000000E+03 0.  0.
</event>
<event>
 4    0  0.2196599E-002  0.2218849E+03  0.7546771E-02  0.1132486E+00
         21   -1    0    0  502  501  0.00000000000E+00  0.00000000000E+00  0.69753323542E+03  0.69753323542E+03  0.00000000000E+00 0.  1.
         21   -1    0    0  501  502 -0.00000000000E+00 -0.00000000000E+00 -0.70581450442E+02  0.70581450442E+02  0.00000000000E+00 0.  1.
         25    1    1    2    0    0  0.84068839157E+02  0.56060457100E+02  0.48715118012E+02  0.16795388442E+03  0.12500000000E+03 0.  0.
         25    1    1    2    0    0 -0.84068839157E+02 -0.56060457100E+02  0.57823666696E+03  0.60016080144E+03  0.12500000000E+03 0.  0.
</event>
<event>
 4    0  0.2196599E-002  0.2609379E+03  0.7546771E-02  0.1106581E+00
         21   -1    0    0  502  501  0.00000000000E+00  0.00000000000E+00  0.44177474459E+03  0.44177474459E+03  0.00000000000E+00 0.  1.
         21   -1    0    0  501  502 -0.00000000000E+00 -0.00000000000E+00 -0.15412512561E+03  0.15412512561E+03  0.00000000000E+00 0.  1.
         25    1    1    2    0    0 -0.98775557109E+00 -0.18650500313E+03 -0.79951217137E+01  0.22466422462E+03  0.12500000000E+03 0.  0.
         25    1    1    2    0    0  0.98775557109E+00  0.18650500313E+03  0.29564474069E+03  0.37123564558E+03  0.12500000000E+03 0.  0.
</event>
<event>
 4    0  0.2196599E-002  0.2188655E+03  0.7546771E-02  0.1134732E+00
         21   -1    0    0  502  501  0.00000000000E+00  0.00000000000E+00  0.11545577204E+03  0.11545577204E+03  0.00000000000E+00 0.  1.
         21   -1    0    0  501  502 -0.00000000000E+00 -0.00000000000E+00 -0.41489578674E+03  0.41489578674E+03  0.00000000000E+00 0.  1.
         25    1    1    2    0    0  0.10535604364E+03  0.11106642816E+03 -0.35795107130E+02  0.20085302360E+03  0.12500000000E+03 0.  0.
         25    1    1    2    0    0 -0.10535604364E+03 -0.11106642816E+03 -0.26364490757E+03  0.32949853517E+03  0.12500000000E+03 0.  0.
</event>
<event>
 4    0  0.2196599E-002  0.3122486E+03  0.7546771E-02  0.1079273E+00
         21   -1    0    0  502  501  0.00000000000E+00  0.00000000000E+00  0.44973960406E+03  0.44973960406E+03  0.00000000000E+00 0.  1.
         21   -1    0    0  501  502 -0.00000000000E+00 -0.00000000000E+00 -0.21679032016E+03  0.21679032016E+03  0.00000000000E+00 0.  1.
         25    1    1    2    0    0 -0.21472259432E+03  0.18126959871E+03  0.17404722342E+03  0.35338632671E+03  0.12500000000E+03 0.  0.
         25    1    1    2    0    0  0.21472259432E+03 -0.18126959871E+03  0.58902060492E+02  0.31314359751E+03  0.12500000000E+03 0.  0.
</event>
<event>
 4    0  0.2196599E-002  0.2074945E+03  0.7546771E-02  0.1143566E+00
         21   -1    0    0  502  501  0.00000000000E+00  0.00000000000E+00  0.48048504993E+02  0.48048504993E+02  0.00000000000E+00 0.  1.
         21   -1    0    0  501  502 -0.00000000000E+00 -0.00000000000E+00 -0.89605180775E+03  0.89605180775E+03  0.00000000000E+00 0.  1.
         25    1    1    2    0    0  0.15205591885E+03 -0.26254730457E+02 -0.28714871459E+03  0.34912705083E+03  0.12500000000E+03 0.  0.
         25    1    1    2    0    0 -0.15205591885E+03  0.26254730457E+02 -0.56085458817E+03  0.59497326192E+03  0.12500000000E+03 0.  0.
</event>
<event>
 4    0  0.2196599E-002  0.2247026E+03  0.7546771E-02  0.1130425E+00
         21   -1    0    0  502  501  0.00000000000E+00  0.00000000000E+00  0.65148184784E+03  0.65148184784E+03  0.00000000000E+00 0.  1.
         21   -1    0    0  501  502 -0.00000000000E+00 -0.00000000000E+00 -0.77502198264E+02  0.77502198264E+02  0.00000000000E+00 0.  1.
         25    1    1    2    0    0  0.50920121547E+02  0.15342489674E+03  0.13539238666E+03  0.24512885608E+03  0.12500000000E+03 0.  0.
         25    1    1    2    0    0 -0.50920121547E+02 -0.15342489674E+03  0.43858726291E+03  0.48385519002E+03  0.12500000000E+03 0.  0.
</event>
<event>
 4    0  0.2196599E-002  0.3028137E+03  0.7546771E-02  0.1083842E+00
         21   -1    0    0  502  501  0.00000000000E+00  0.00000000000E+00  0.23593738381E+03  0.23593738381E+03  0.00000000000E+00 0.  1.
         21   -1    0    0  501  502 -0.00000000000E+00 -0.00000000000E+00 -0.38864603701E+03  0.38864603701E+03  0.00000000000E+00 0.  1.
         25    1    1    2    0    0 -0.21438923203E+03 -0.12204309987E+03 -0.20355950140E+03  0.34339296971E+03  0.12500000000E+03 0.  0.
         25    1    1    2    0    0  0.21438923203E+03  0.12204309987E+03  0.50850848193E+02  0.28119045111E+03  0.12500000000E+03 0.  0.
</event>
<event>
 4    0  0.2196599E-002  0.2209484E+03  0.7546771E-02  0.1133178E+00
         21   -1    0    0  502  501  0.00000000000E+00  0.00000000000E+00  0.35722344027E+03  0.35722344027E+03  0.00000000000E+00 0.  1.
         21   -1    0    0  501  502 -0.00000000000E+00 -0.00000000000E+00 -0.13666008154E+03  0.13666008154E+03  0.00000000000E+00 0.  1.
         25    1    1    2    0    0  0.64281410568E+02  0.85658019992E+02 -0.54447869862E+02  0.17337521930E+03  0.12500000000E+03 0.  0.
         25    1    1    2    0    0 -0.64281410568E+02 -0.85658019992E+02  0.27501122858E+03  0.32050830251E+03  0.12500000000E+03 0.  0.
</event>
<event>
 4    0  0.2196599E-002  0.2786573E+03  0.7546771E-02  0.1096425E+00
         21   -1    0    0  502  501  0.00000000000E+00  0.00000000000E+00  0.48530645224E+03  0.48530645224E+03  0.00000000000E+00 0.  1.
         21   -1    0    0  501  502 -0.00000000000E+00 -0.00000000000E+00 -0.16000175377E+03  0.16000175377E+03  0.00000000000E+00 0.  1.
         25    1    1    2    0    0 -0.12621912260E+03 -0.10923934325E+03  0.37665943356E+03  0.43053667661E+03  0.12500000000E+03 0.  0.
         25    1    1    2    0    0  0.12621912260E+03  0.10923934325E+03 -0.51354735092E+02  0.21477152940E+03  0.12500000000E+03 0.  0.
</event>
<event>
 4    0  0.2196599E-002  0.1984123E+03  0.7546771E-02  0.1151086E+00
         21   -1    0    0  502  501  0.00000000000E+00  0.00000000000E+00  0.26336351987E+03  0.26336351987E+03  0.00000000000E+00 0.  1.
         21   -1    0    0  501  502 -0.00000000000E+00 -0.00000000000E+00 -0.14947940641E+03  0.14947940641E+03  0.00000000000E+00 0.  1.
         25    1    1    2    0    0 -0.85835676636E+02 -0.90007964800E+02 -0.37686843329E+02  0.18031776194E+03  0.12500000000E+03 0.  0.
         25    1    1    2    0    0  0.85835676636E+02  0.90007964800E+02  0.15157095678E+03  0.23252516434E+03  0.12500000000E+03 0.  0.
</event>
<event>
 4    0  0.2196599E-002  0.1701638E+03  0.7546771E-02  0.1177677E+00
         21   -1    0    0  502  501  0.00000000000E+00  0.00000000000E+00  0.20418859869E+03  0.20418859869E+03  0.00000000000E+00 0. -1.
         21   -1    0    0  501  502 -0.00000000000E+00 -0.00000000000E+00 -0.14180863373E+03  0.14180863373E+03  0.00000000000E+00 0. -1.
         25    1    1    2    0    0 -0.44257718201E+02 -0.29772141247E+02 -0.72915063790E+02  0.15422948013E+03  0.12500000000E+03 0.  0.
         25    1    1    2    0    0  0.44257718201E+02  0.29772141247E+02  0.13529502875E+03  0.19176775229E+03  0.12500000000E+03 0.  0.
</event>
<event>
 4    0  0.2196599E-002  0.1805474E+03  0.7546771E-02  0.1167274E+00
         21   -1    0    0  502  501  0.00000000000E+00  0.00000000000E+00  0.48616965053E+03  0.48616965053E+03  0.00000000000E+00 0.  1.
         21   -1    0    0  501  502 -0.00000000000E+00 -0.00000000000E+00 -0.67049382161E+02  0.67049382161E+02  0.00000000000E+00 0.  1.
         25    1    1    2    0    0  0.11857706974E+03 -0.17296635255E+02  0.13124983468E+03  0.21728141698E+03  0.12500000000E+03 0.  0.
         25    1    1    2    0    0 -0.11857706974E+03  0.17296635255E+02  0.28787043369E+03  0.33593761572E+03  0.12500000000E+03 0.  0.
</event>
<event>
 4    0  0.2196599E-002  0.2358251E+03  0.7546771E-02  0.1122606E+00
         21   -1    0    0  502  501  0.00000000000E+00  0.00000000000E+00  0.14179775235E+04  0.14179775235E+04  0.00000000000E+00 0. -1.
         21   -1    0    0  501  502 -0.00000000000E+00 -0.00000000000E+00 -0.39220282340E+02  0.39220282340E+02  0.00000000000E+00 0. -1.
         25    1    1    2    0    0  0.13973446040E+03  0.27625516654E+02  0.11230163661E+04  0.11388940456E+04  0.12500000000E+03 0.  0.
         25    1    1    2    0    0 -0.13973446040E+03 -0.27625516654E+02  0.25574087500E+03  0.31830376017E+03  0.12500000000E+03 0.  0.
</event>
<event>
 4    0  0.2196599E-002  0.2338792E+03  0.7546771E-02  0.1123939E+00
         21   -1    0    0  502  501  0.00000000000E+00  0.00000000000E+00  0.44764693712E+03  0.44764693712E+03  0.00000000000E+00 0.  1.
         21   -1    0    0  501  502 -0.00000000000E+00 -0.00000000000E+00 -0.12219336953E+03  0.12219336953E+03  0.00000000000E+00 0.  1.
         25    1    1    2    0    0 -0.69771124531E+02 -0.14210873191E+03  0.30693008089E+03  0.36727915277E+03  0.12500000000E+03 0.  0.
         25    1    1    2    0    0  0.69771124531E+02  0.14210873191E+03  0.18523486695E+02  0.20256115388E+03  0.12500000000E+03 0.  0.
</event>
<event>
 4    0  0.2196599E-002  0.4399058E+03  0.7546771E-02  0.1030776E+00
         21   -1    0    0  502  501  0.00000000000E+00  0.00000000000E+00  0.19310423341E+03  0.19310423341E+03  0.00000000000E+00 0.  1.
         21   -1    0    0  501  502 -0.00000000000E+00 -0.00000000000E+00 -0.10021379739E+04  0.10021379739E+04  0.00000000000E+00 0.  1.
         25    1    1    2    0    0  0.34451302058E+03 -0.44501868531E+02 -0.72949151912E+03  0.81758945328E+03  0.12500000000E+03 0.  0.
         25    1    1    2    0    0 -0.34451302058E+03  0.44501868531E+02 -0.79542221375E+02  0.37765275404E+03  0.12500000000E+03 0.  0.
</event>
<event>
 4    0  0.2196599E-002  0.1924057E+03  0.7546771E-02  0.1156309E+00
         21   -1    0    0  502  501  0.00000000000E+00  0.00000000000E+00  0.32521399785E+03  0.32521399785E+03  0.00000000000E+00 0.  1.
         21   -1    0    0  501  502 -0.00000000000E+00 -0.00000000000E+00 -0.11383256985E+03  0.11383256985E+03  0.00000000000E+00 0.  1.
         25    1    1    2    0    0 -0.71777567122E+02  0.47961716228E+02 -0.29030065079E+02  0.15466121053E+03  0.12500000000E+03 0.  0.
         25    1    1    2    0    0  0.71777567122E+02 -0.47961716228E+02  0.24041149308E+03  0.28438535716E+03  0.12500000000E+03 0.  0.
</event>
<event>
 4    0  0.2196599E-002  0.3048963E+03  0.7546771E-02  0.1082818E+00
         21   -1    0    0  502  501  0.00000000000E+00  0.00000000000E+00  0.12966240992E+04  0.12966240992E+04  0.00000000000E+00 0. -1.
         21   -1    0    0  501  502 -0.00000000000E+00 -0.00000000000E+00 -0.71695199628E+02  0.71695199628E+02  0.00000000000E+00 0. -1.
         25    1    1    2    0    0  0.16922786890E+03  0.19710608577E+03  0.83514174138E+03  0.88350190087E+03  0.12500000000E+03 0.  0.
         25    1    1    2    0    0 -0.16922786890E+03 -0.19710608577E+03  0.38978715816E+03  0.48481739792E+03  0.12500000000E+03 0.  0.
</event>
<event>
 4    0  0.2196599E-002  0.2175470E+03  0.7546771E-02  0.1135725E+00
         21   -1    0    0  502  501  0.00000000000E+00  0.00000000000E+00  0.21788338449E+04  0.21788338449E+04  0.00000000000E+00 0. -1.
         21   -1    0    0  501  502 -0.00000000000E+00 -0.00000000000E+00 -0.21721114777E+02  0.21721114777E+02  0.00000000000E+00 0. -1.
         25    1    1    2    0    0  0.92002025886E+02  0.14862011637E+03  0.90708859782E+03  0.93219474148E+03  0.12500000000E+03 0.  0.
         25    1    1    2    0    0 -0.92002025886E+02 -0.14862011637E+03  0.12500241323E+04  0.12683602182E+04  0.12500000000E+03 0.  0.
</event>
<event>
 4    0  0.2196599E-002  0.2180385E+03  0.7546771E-02  0.1135354E+00
         21   -1    0    0  502  501  0.00000000000E+00  0.00000000000E+00  0.83268431815E+03  0.83268431815E+03  0.00000000000E+00 0.  1.
         21   -1    0    0  501  502 -0.00000000000E+00 -0.00000000000E+00 -0.57093418596E+02  0.57093418596E+02  0.00000000000E+00 0.  1.
         25    1    1    2    0    0 -0.93206813895E+02 -0.12029028370E+03  0.19683915529E+03  0.27843835146E+03  0.12500000000E+03 0.  0.
         25    1    1    2    0    0  0.93206813895E+02  0.12029028370E+03  0.57875174426E+03  0.61133938528E+03  0.12500000000E+03 0.  0.
</event>
<event>
 4    0  0.2196599E-002  0.2942210E+03  0.7546771E-02  0.1088166E+00
         21   -1    0    0  502  501  0.00000000000E+00  0.00000000000E+00  0.39291243350E+03  0.39291243350E+03  0.00000000000E+00 0.  1.
         21   -1    0    0  501  502 -0.00000000000E+00 -0.00000000000E+00 -0.22031876033E+03  0.22031876033E+03  0.00000000000E+00 0.  1.
         25    1    1    2    0    0  0.27596740708E+02 -0.15945746960E+03  0.30675709577E+03  0.36866404831E+03  0.12500000000E+03 0.  0.
         25    1    1    2    0    0 -0.27596740708E+02  0.15945746960E+03 -0.13416342260E+03  0.24456714553E+03  0.12500000000E+03 0.  0.
</event>
<event>
 4    0  0.2196599E-002  0.2559676E+03  0.7546771E-02  0.1109590E+00
         21   -1    0    0  502  501  0.00000000000E+00  0.00000000000E+00  0.22592097991E+03  0.22592097991E+03  0.00000000000E+00 0. -1.
         21   -1    0    0  501  502 -0.00000000000E+00 -0.00000000000E+00 -0.29001022436E+03  0.29001022436E+03  0.00000000000E+00 0. -1.
         25    1    1    2    0    0 -0.13396752117E+03 -0.17850192817E+03 -0.41290051969E+02  0.25911407426E+03  0.12500000000E+03 0.  0.
         25    1    1    2    0    0  0.13396752117E+03  0.17850192817E+03 -0.22799192488E+02  0.25681713001E+03  0.12500000000E+03 0.  0.
</event>
<event>
 4    0  0.2196599E-002  0.2264227E+03  0.7546771E-02  0.1129183E+00
         21   -1    0    0  502  501  0.00000000000E+00  0.00000000000E+00  0.18689573043E+04  0.18689573043E+04  0.00000000000E+00 0. -1.
         21   -1    0    0  501  502 -0.00000000000E+00 -0.00000000000E+00 -0.27430936651E+02  0.27430936651E+02  0.00000000000E+00 0. -1.
         25    1    1    2    0    0  0.78079134567E+02 -0.59337731778E+02  0.15963358180E+04  0.16042226658E+04  0.12500000000E+03 0.  0.
         25    1    1    2    0    0 -0.78079134567E+02  0.59337731778E+02  0.24519054972E+03  0.29216557521E+03  0.12500000000E+03 0.  0.
</event>
<event>
 4    0  0.2196599E-002  0.1968932E+03  0.7546771E-02  0.1152387E+00
         21   -1    0    0  502  501  0.00000000000E+00  0.00000000000E+00  0.51725838557E+03  0.51725838557E+03  0.00000000000E+00 0.  1.
         21   -1    0    0  501  502 -0.00000000000E+00 -0.00000000000E+00 -0.74946920689E+02  0.74946920689E+02  0.00000000000E+00 0.  1.
         25    1    1    2    0    0 -0.31609377779E+02  0.14647910124E+03  0.26056308289E+03  0.32553555878E+03  0.12500000000E+03 0.  0.
         25    1    1    2    0    0  0.31609377779E+02 -0.14647910124E+03  0.18174838199E+03  0.26666974748E+03  0.12500000000E+03 0.  0.
</event>
<event>
 4    0  0.2196599E-002  0.2040858E+03  0.7546771E-02  0.1146337E+00
         21   -1    0    0  502  501  0.00000000000E+00  0.00000000000E+00  0.10494370925E+03  0.10494370925E+03  0.00000000000E+00 0. -1.
         21   -1    0    0  501  502 -0.00000000000E+00 -0.00000000000E+00 -0.39688912989E+03  0.39688912989E+03  0.00000000000E+00 0. -1.
         25    1    1    2    0    0  0.10426810391E+03 -0.90629908784E+02 -0.43547111380E+02  0.19132947700E+03  0.12500000000E+03 0.  0.
         25    1    1    2    0    0 -0.10426810391E+03  0.90629908784E+02 -0.24839830926E+03  0.31050336214E+03  0.12500000000E+03 0.  0.
</event>
<event>
 4    0  0.2196599E-002  0.1922248E+03  0.7546771E-02  0.1156470E+00
         21   -1    0    0  502  501  0.00000000000E+00  0.00000000000E+00  0.31948843492E+02  0.31948843492E+02  0.00000000000E+00 0.  1.
         21   -1    0    0  501  502 -0.00000000000E+00 -0.00000000000E+00 -0.11565486136E+04  0.11565486136E+04  0.00000000000E+00 0.  1.
         25    1    1    2    0    0  0.65626009413E+02 -0.12462656465E+03 -0.68150377076E+03  0.70704380577E+03  0.12500000000E+03 0.  0.
         25    1    1    2    0    0 -0.65626009413E+02  0.12462656465E+03 -0.44309599938E+03  0.48145365134E+03  0.12500000000E+03 0.  0.
</event>
<event>
 4    0  0.2196599E-002  0.2682396E+03  0.7546771E-02  0.1102291E+00
         21   -1    0    0  502  501  0.00000000000E+00  0.00000000000E+00  0.10467389047E+04  0.10467389047E+04  0.00000000000E+00 0. -1.
         21   -1    0    0  501  502 -0.00000000000E+00 -0.00000000000E+00 -0.68739663330E+02  0.68739663330E+02  0.00000000000E+00 0. -1.
         25    1    1    2    0    0  0.68545491943E+02  0.22304418180E+03  0.39883823349E+03  0.47869001242E+03  0.12500000000E+03 0.  0.
         25    1    1    2    0    0 -0.68545491943E+02 -0.22304418180E+03  0.57916100784E+03  0.63678855557E+03  0.12500000000E+03 0.  0.
</event>
<event>
 4    0  0.2196599E-002  0.2438730E+03  0.7546771E-02  0.1117239E+00
         21   -1    0    0  502  501  0.00000000000E+00  0.00000000000E+00  0.10102249821E+03  0.10102249821E+03  0.00000000000E+00 0. -1.
         21   -1    0    0  501  502 -0.00000000000E+00 -0.00000000000E+00 -0.58872065668E+03  0.58872065668E+03  0.00000000000E+00 0. -1.
         25    1    1    2    0    0  0.15388663166E+03  0.12227073948E+03 -0.34599888056E+03  0.41709885457E+03  0.12500000000E+03 0.  0.
         25    1    1    2    0    0 -0.15388663166E+03 -0.12227073948E+03 -0.14169927792E+03  0.27264430032E+03  0.12500000000E+03 0.  0.
</event>
<event>
 4    0  0.2196599E-002  0.2107291E+03  0.7546771E-02  0.1140990E+00
         21   -1    0    0  502  501  0.00000000000E+00  0.00000000000E+00  0.38662653884E+03  0.38662653884E+03  0.00000000000E+00 0. -1.
         21   -1    0    0  501  502 -0.00000000000E+00 -0.00000000000E+00 -0.11485697248E+03  0.11485697248E+03  0.00000000000E+00 0. -1.
         25    1    1    2    0    0 -0.16566880400E+03  0.16441051051E+02  0.17472097846E+03  0.27178830198E+03  0.12500000000E+03 0.  0.
         25    1    1    2    0    0  0.16566880400E+03 -0.16441051051E+02  0.97048587904E+02  0.22969520934E+03  0.12500000000E+03 0.  0.
</event>
<event>
 4    0  0.2196599E-002  0.2206176E+03  0.7546771E-02  0.1133423E+00
         21   -1    0    0  502  501  0.00000000000E+00  0.00000000000E+00  0.15739604079E+03  0.15739604079E+03  0.00000000000E+00 0. -1.
         21   -1    0    0  501  502 -0.00000000000E+00 -0.00000000000E+00 -0.30923341304E+03  0.30923341304E+03  0.00000000000E+00 0. -1.
         25    1    1    2    0    0  0.98543596412E+02  0.15064594382E+03 -0.49121164993E+02  0.22459503475E+03  0.12500000000E+03 0.  0.
         25    1    1    2    0    0 -0.98543596412E+02 -0.15064594382E+03 -0.10271620726E+03  0.24203441908E+03  0.12500000000E+03 0.  0.
</event>
<event>
 4    0  0.2196599E-002  0.2668906E+03  0.7546771E-02  0.1103072E+00
         21   -1    0    0  502  501  0.00000000000E+00  0.00000000000E+00  0.10485062441E+04  0.10485062441E+04  0.00000000000E+00 0. -1.
         21   -1    0    0  501  502 -0.00000000000E+00 -0.00000000000E+00 -0.67935306828E+02  0.67935306828E+02  0.00000000000E+00 0. -1.
         25    1    1    2    0    0  0.17305873375E+03 -0.14646797956E+03  0.62588963238E+03  0.67732195172E+03  0.12500000000E+03 0.  0.
         25    1    1    2    0    0 -0.17305873375E+03  0.14646797956E+03  0.35468130486E+03  0.43911959917E+03  0.12500000000E+03 0.  0.
</event>
<event>
 4    0  0.2196599E-002  0.2352737E+03  0.7546771E-02  0.1122982E+00
         21   -1    0    0  502  501  0.00000000000E+00  0.00000000000E+00  0.82674408945E+03  0.82674408945E+03  0.00000000000E+00 0.  1.
         21   -1    0    0  501  502 -0.00000000000E+00 -0.00000000000E+00 -0.66953857098E+02  0.66953857098E+02  0.00000000000E+00 0.  1.
         25    1    1    2    0    0 -0.89511077750E+01 -0.19820852091E+03  0.41602953060E+03  0.47756916821E+03  0.12500000000E+03 0.  0.
         25    1    1    2    0    0  0.89511077750E+01  0.19820852091E+03  0.34376070175E+03  0.41612877834E+03  0.12500000000E+03 0.  0.
</event>
<event>
 4    0  0.2196599E-002  0.1885861E+03  0.7546771E-02  0.1159743E+00
         21   -1    0    0  502  501  0.00000000000E+00  0.00000000000E+00  0.18799560946E+03  0.18799560946E+03  0.00000000000E+00 0. -1.
         21   -1    0    0  501  502 -0.00000000000E+00 -0.00000000000E+00 -0.18917839476E+03  0.18917839476E+03  0.00000000000E+00 0. -1.
         25    1    1    2    0    0 -0.16179299568E+02  0.42724183438E+02  0.13302281916E+03  0.18816799941E+03  0.12500000000E+03 0.  0.
         25    1    1    2    0    0  0.16179299568E+02 -0.42724183438E+02 -0.13420560446E+03  0.18900600481E+03  0.12500000000E+03 0.  0.
</event>
<event>
 4    0  0.2196599E-002  0.3260027E+03  0.7546771E-02  0.1072919E+00
         21   -1    0    0  502  501  0.00000000000E+00  0.00000000000E+00  0.25633583606E+03  0.25633583606E+03  0.00000000000E+00 0.  1.
         21   -1    0    0  501  502 -0.00000000000E+00 -0.00000000000E+00 -0.41460357771E+03  0.41460357771E+03  0.00000000000E+00 0.  1.
         25    1    1    2    0    0  0.11521584539E+03  0.10899474326E+03  0.18422432499E+03  0.27334620357E+03  0.12500000000E+03 0.  0.
         25    1    1    2    0    0 -0.11521584539E+03 -0.10899474326E+03 -0.34249206664E+03  0.39759321020E+03  0.12500000000E+03 0.  0.
</event>
<event>
 4    0  0.2196599E-002  0.1690213E+03  0.7546771E-02  0.1178872E+00
         21   -1    0    0  502  501  0.00000000000E+00  0.00000000000E+00  0.44797035121E+02  0.44797035121E+02  0.00000000000E+00 0. -1.
         21   -1    0    0  501  502 -0.00000000000E+00 -0.00000000000E+00 -0.63772552205E+03  0.63772552205E+03  0.00000000000E+00 0. -1.
         25    1    1    2    0    0 -0.15579496598E+02  0.11238920841E+03 -0.27967365816E+03  0.32667477703E+03  0.12500000000E+03 0.  0.
         25    1    1    2    0    0  0.15579496598E+02 -0.11238920841E+03 -0.31325482877E+03  0.35584778014E+03  0.12500000000E+03 0.  0.
</event>
<event>
 4    0  0.2196599E-002  0.1944732E+03  0.7546771E-02  0.1154488E+00
         21   -1    0    0  502  501  0.00000000000E+00  0.00000000000E+00  0.81478302609E+02  0.81478302609E+02  0.00000000000E+00 0. -1.
         21   -1    0    0  501  502 -0.00000000000E+00 -0.00000000000E+00 -0.46417044709E+03  0.46417044709E+03  0.00000000000E+00 0. -1.
         25    1    1    2    0    0  0.14337851808E+03 -0.18712105793E+02 -0.24167985599E+03  0.30812610266E+03  0.12500000000E+03 0.  0.
         25    1    1    2    0    0 -0.14337851808E+03  0.18712105793E+02 -0.14101228850E+03  0.23752264704E+03  0.12500000000E+03 0.  0.
</event>
<event>
 4    0  0.2196599E-002  0.2002985E+03  0.7546771E-02  0.1149487E+00
         21   -1    0    0  502  501  0.00000000000E+00  0.00000000000E+00  0.47626103010E+02  0.47626103010E+02  0.00000000000E+00 0.  1.
         21   -1    0    0  501  502 -0.00000000000E+00 -0.00000000000E+00 -0.84238466246E+03  0.84238466246E+03  0.00000000000E+00 0.  1.
         25    1    1    2    0    0 -0.10560834383E+03 -0.11380109607E+03 -0.35346538358E+03  0.40579131231E+03  0.12500000000E+03 0.  0.
         25    1    1    2    0    0  0.10560834383E+03  0.11380109607E+03 -0.44129317587E+03  0.48421945317E+03  0.12500000000E+03 0.  0.
</event>
<event>
 4    0  0.2196599E-002  0.2606187E+03  0.7546771E-02  0.1106772E+00
         21   -1    0    0  502  501  0.00000000000E+00  0.00000000000E+00  0.30709409501E+03  0.30709409501E+03  0.00000000000E+00 0.  1.
         21   -1    0    0  501  502 -0.00000000000E+00 -0.00000000000E+00 -0.22117681671E+03  0.22117681671E+03  0.00000000000E+00 0.  1.
         25    1    1    2    0    0  0.31052095632E+02 -0.10656588974E+03 -0.15968078732E+03  0.23117844912E+03  0.12500000000E+03 0.  0.
         25    1    1    2    0    0 -0.31052095632E+02  0.10656588974E+03  0.24559806561E+03  0.29709246260E+03  0.12500000000E+03 0.  0.
</event>
<event>
 4    0  0.2196599E-002  0.1968026E+03  0.7546771E-02  0.1152465E+00
         21   -1    0    0  502  501  0.00000000000E+00  0.00000000000E+00  0.15059051456E+02  0.15059051456E+02  0.00000000000E+00 0.  1.
         21   -1    0    0  501  502 -0.00000000000E+00 -0.00000000000E+00 -0.25719596944E+04  0.25719596944E+04  0.00000000000E+00 0.  1.
         25    1    1    2    0    0 -0.31228303059E+02  0.14007818521E+03 -0.94921713501E+03  0.96810912313E+03  0.12500000000E+03 0.  0.
         25    1    1    2    0    0  0.31228303059E+02 -0.14007818521E+03 -0.16076835079E+04  0.16189096227E+04  0.12500000000E+03 0.  0.
</event>
<event>
 4    0  0.2196599E-002  0.2420215E+03  0.7546771E-02  0.1118453E+00
         21   -1    0    0  502  501  0.00000000000E+00  0.00000000000E+00  0.27244773058E+03  0.27244773058E+03  0.00000000000E+00 0. -1.
         21   -1    0    0  501  502 -0.00000000000E+00 -0.00000000000E+00 -0.21499320461E+03  0.21499320461E+03  0.00000000000E+00 0. -1.
         25    1    1    2    0    0  0.97810900071E+02 -0.13787059164E+03 -0.92006559528E+02  0.22948960588E+03  0.12500000000E+03 0.  0.
         25    1    1    2    0    0 -0.97810900071E+02  0.13787059164E+03  0.14946108550E+03  0.25795132931E+03  0.12500000000E+03 0.  0.
</event>
<event>
 4    0  0.2196599E-002  0.2649457E+03  0.7546771E-02  0.1104208E+00
         21   -1    0    0  502  501  0.00000000000E+00  0.00000000000E+00  0.64591797306E+03  0.64591797306E+03  0.00000000000E+00 0.  1.
         21   -1    0    0  501  502 -0.00000000000E+00 -0.00000000000E+00 -0.10867668796E+03  0.10867668796E+03  0.00000000000E+00 0.  1.
         25    1    1    2    0    0  0.22484107095E+03 -0.10715941074E+02  0.17965550325E+03  0.31395770165E+03  0.12500000000E+03 0.  0.
         25    1    1    2    0    0 -0.22484107095E+03  0.10715941074E+02  0.35758578185E+03  0.44063695937E+03  0.12500000000E+03 0.  0.
</event>
<event>
 4    0  0.2196599E-002  0.2961235E+03  0.7546771E-02  0.1087195E+00
         21   -1    0    0  502  501  0.00000000000E+00  0.00000000000E+00  0.30126354130E+03  0.30126354130E+03  0.00000000000E+00 0.  1.
         21   -1    0    0  501  502 -0.00000000000E+00 -0.00000000000E+00 -0.29107119209E+03  0.29107119209E+03  0.00000000000E+00 0.  1.
         25    1    1    2    0    0  0.26410151699E+03  0.46082679477E+02  0.18915364900E+02  0.29640515456E+03  0.12500000000E+03 0.  0.
         25    1    1    2    0    0 -0.26410151699E+03 -0.46082679477E+02 -0.87230156903E+01  0.29592957883E+03  0.12500000000E+03 0.  0.
</event>
<event>
 4    0  0.2196599E-002  0.2430627E+03  0.7546771E-02  0.1117769E+00
         21   -1    0    0  502  501  0.00000000000E+00  0.00000000000E+00  0.53362659981E+03  0.53362659981E+03  0.00000000000E+00 0.  1.
         21   -1    0    0  501  502 -0.00000000000E+00 -0.00000000000E+00 -0.11071314794E+03  0.11071314794E+03  0.00000000000E+00 0.  1.
         25    1    1    2    0    0 -0.67285702080E+01 -0.97996955522E+02 -0.32247031604E+02  0.16221451229E+03  0.12500000000E+03 0.  0.
         25    1    1    2    0    0  0.67285702080E+01  0.97996955522E+02  0.45516048348E+03  0.48212523546E+03  0.12500000000E+03 0.  0.
</event>
<event>
 4    0  0.2196599E-002  0.2218215E+03  0.7546771E-02  0.1132532E+00
         21   -1    0    0  502  501  0.00000000000E+00  0.00000000000E+00  0.68146888566E+03  0.68146888566E+03  0.00000000000E+00 0.  1.
         21   -1    0    0  501  502 -0.00000000000E+00 -0.00000000000E+00 -0.72203985930E+02  0.72203985930E+02  0.00000000000E+00 0.  1.
         25    1    1    2    0    0  0.23694160023E+02  0.12268051880E+03  0.76914479338E+02  0.19275051243E+03  0.12500000000E+03 0.  0.
         25    1    1    2    0    0 -0.23694160023E+02 -0.12268051880E+03  0.53235042039E+03  0.56092235916E+03  0.12500000000E+03 0.  0.
</event>
<event>
 4    0  0.2196599E-002  0.2614342E+03  0.7546771E-02  0.1106285E+00
         21   -1    0    0  502  501  0.00000000000E+00  0.00000000000E+00  0.11659002974E+04  0.11659002974E+04  0.00000000000E+00 0.  1.
         21   -1    0    0  501  502 -0.00000000000E+00 -0.00000000000E+00 -0.58622358268E+02  0.58622358268E+02  0.00000000000E+00 0.  1.
         25    1    1    2    0    0 -0.21302764277E+03 -0.74490767076E+02  0.65281019813E+03  0.70193718077E+03  0.12500000000E+03 0.  0.
         25    1    1    2    0    0  0.21302764277E+03  0.74490767076E+02  0.45446774101E+03  0.52258547491E+03  0.12500000000E+03 0.  0.
</event>
<event>
 4    0  0.2196599E-002  0.2180053E+03  0.7546771E-02  0.1135379E+00
         21   -1    0    0  502  501  0.00000000000E+00  0.00000000000E+00  0.91097402060E+02  0.91097402060E+02  0.00000000000E+00 0. -1.
         21   -1    0    0  501  502 -0.00000000000E+00 -0.00000000000E+00 -0.52170889379E+03  0.52170889379E+03  0.00000000000E+00 0. -1.
         25    1    1    2    0    0  0.43099792346E+02 -0.58268441632E+02  0.14130836990E+02  0.14518086632E+03  0.12500000000E+03 0.  0.
         25    1    1    2    0    0 -0.43099792346E+02  0.58268441632E+02 -0.44474232872E+03  0.46762542954E+03  0.12500000000E+03 0.  0.
</event>
<event>
 4    0  0.2196599E-002  0.2135894E+03  0.7546771E-02  0.1138755E+00
         21   -1    0    0  502  501  0.00000000000E+00  0.00000000000E+00  0.38651509438E+03  0.38651509438E+03  0.00000000000E+00 0.  1.
         21   -1    0    0  501  502 -0.00000000000E+00 -0.00000000000E+00 -0.11803015611E+03  0.11803015611E+03  0.00000000000E+00 0.  1.
         25    1    1    2    0    0  0.39739736282E+02 -0.16844319095E+03  0.14199488160E+03  0.25639793607E+03  0.12500000000E+03 0.  0.
         25    1    1    2    0    0 -0.39739736282E+02  0.16844319095E+03  0.12649005667E+03  0.24814731442E+03  0.12500000000E+03 0.  0.
</event>
<event>
 4    0  0.2196599E-002  0.1737041E+03  0.7546771E-02  0.1174039E+00
         21   -1    0    0  502  501  0.00000000000E+00  0.00000000000E+00  0.24186892118E+03  0.24186892118E+03  0.00000000000E+00 0. -1.
         21   -1    0    0  501  502 -0.00000000000E+00 -0.00000000000E+00 -0.12474989683E+03  0.12474989683E+03  0.00000000000E+00 0. -1.
         25    1    1    2    0    0  0.11264512101E+03  0.71676479162E+01  0.13689854145E+02  0.16897547328E+03  0.12500000000E+03 0.  0.
         25    1    1    2    0    0 -0.11264512101E+03 -0.71676479162E+01  0.10342917021E+03  0.19764334472E+03  0.12500000000E+03 0.  0.
</event>
<event>
 4    0  0.2196599E-002  0.3843154E+03  0.7546771E-02  0.1049350E+00
         21   -1    0    0  502  501  0.00000000000E+00  0.00000000000E+00  0.20450048396E+03  0.20450048396E+03  0.00000000000E+00 0. -1.
         21   -1    0    0  501  502 -0.00000000000E+00 -0.00000000000E+00 -0.72223953547E+03  0.72223953547E+03  0.00000000000E+00 0. -1.
         25    1    1    2    0    0  0.15524154641E+03  0.25568671724E+03 -0.10022075483E+02  0.32434715522E+03  0.12500000000E+03 0.  0.
         25    1    1    2    0    0 -0.15524154641E+03 -0.25568671724E+03 -0.50771697603E+03  0.60239286421E+03  0.12500000000E+03 0.  0.
</event>
<event>
 4    0  0.2196599E-002  0.2433791E+03  0.7546771E-02  0.1117562E+00
         21   -1    0    0  502  501  0.00000000000E+00  0.00000000000E+00  0.14916911389E+03  0.14916911389E+03  0.00000000000E+00 0. -1.
         21   -1    0    0  501  502 -0.00000000000E+00 -0.00000000000E+00 -0.39708892354E+03  0.39708892354E+03  0.00000000000E+00 0. -1.
         25    1    1    2    0    0 -0.81881707999E+01 -0.14259782703E+03  0.47000693604E+02  0.19553836354E+03  0.12500000000E+03 0.  0.
         25    1    1    2    0    0  0.81881707999E+01  0.14259782703E+03 -0.29492050325E+03  0.35071967389E+03  0.12500000000E+03 0.  0.
</event>
<event>
 4    0  0.2196599E-002  0.2474838E+03  0.7546771E-02  0.1114905E+00
         21   -1    0    0  502  501  0.00000000000E+00  0.00000000000E+00  0.28675612416E+03  0.28675612416E+03  0.00000000000E+00 0.  1.
         21   -1    0    0  501  502 -0.00000000000E+00 -0.00000000000E+00 -0.21359001287E+03  0.21359001287E+03  0.00000000000E+00 0.  1.
         25    1    1    2    0    0 -0.19504978262E+03  0.29789522172E+01  0.12453395966E+03  0.26303421634E+03  0.12500000000E+03 0.  0.
         25    1    1    2    0    0  0.19504978262E+03 -0.29789522172E+01 -0.51367848371E+02  0.23731192069E+03  0.12500000000E+03 0.  0.
</event>
<event>
 4    0  0.2196599E-002  0.3225258E+03  0.7546771E-02  0.1074493E+00
         21   -1    0    0  502  501  0.00000000000E+00  0.00000000000E+00  0.73052810206E+03  0.73052810206E+03  0.00000000000E+00 0.  1.
         21   -1    0    0  501  502 -0.00000000000E+00 -0.00000000000E+00 -0.14239406592E+03  0.14239406592E+03  0.00000000000E+00 0. -1.
         25    1    1    2    0    0  0.19681434447E+03 -0.22027838655E+03  0.33974655510E+03  0.46723781469E+03  0.12500000000E+03 0.  0.
         25    1    1    2    0    0 -0.19681434447E+03  0.22027838655E+03  0.24838748103E+03  0.40568435329E+03  0.12500000000E+03 0.  0.
</event>
<event>
 4    0  0.2196599E-002  0.2255771E+03  0.7546771E-02  0.1129792E+00
         21   -1    0    0  502  501  0.00000000000E+00  0.00000000000E+00  0.44411835731E+03  0.44411835731E+03  0.00000000000E+00 0. -1.
         21   -1    0    0  501  502 -0.00000000000E+00 -0.00000000000E+00 -0.11457541365E+03  0.11457541365E+03  0.00000000000E+00 0. -1.
         25    1    1    2    0    0 -0.18070507485E+03 -0.37665847464E+02  0.20743678239E+03  0.30451282211E+03  0.12500000000E+03 0.  0.
         25    1    1    2    0    0  0.18070507485E+03  0.37665847464E+02  0.12210616126E+03  0.25418094885E+03  0.12500000000E+03 0.  0.
</event>
<event>
 4    0  0.2196599E-002  0.2390332E+03  0.7546771E-02  0.1120439E+00
         21   -1    0    0  502  501  0.00000000000E+00  0.00000000000E+00  0.48380683480E+02  0.48380683480E+02  0.00000000000E+00 0.  1.
         21   -1    0    0  501  502 -0.00000000000E+00 -0.00000000000E+00 -0.11809850730E+04  0.11809850730E+04  0.00000000000E+00 0.  1.
         25    1    1    2    0    0 -0.16729589884E+03 -0.11509264442E+03 -0.52345459950E+03  0.57520774709E+03  0.12500000000E+03 0.  0.
         25    1    1    2    0    0  0.16729589884E+03  0.11509264442E+03 -0.60914979000E+03  0.65415800937E+03  0.12500000000E+03 0.  0.
</event>
<event>
 4    0  0.2196599E-002  0.1794534E+03  0.7546771E-02  0.1168333E+00
         21   -1    0    0  502  501  0.00000000000E+00  0.00000000000E+00  0.25525480570E+03  0.25525480570E+03  0.00000000000E+00 0. -1.
         21   -1    0    0  501  502 -0.00000000000E+00 -0.00000000000E+00 -0.12616223854E+03  0.12616223854E+03  0.00000000000E+00 0. -1.
         25    1    1    2    0    0 -0.10672941526E+03  0.11802211214E+02  0.14005213110E+03  0.21626386590E+03  0.12500000000E+03 0.  0.
         25    1    1    2    0    0  0.10672941526E+03 -0.11802211214E+02 -0.10959563940E+02  0.16515317833E+03  0.12500000000E+03 0.  0.
</event>
<event>
 4    0  0.2196599E-002  0.2013754E+03  0.7546771E-02  0.1148584E+00
         21   -1    0    0  502  501  0.00000000000E+00  0.00000000000E+00  0.31868159330E+02  0.31868159330E+02  0.00000000000E+00 0.  1.
         21   -1    0    0  501  502 -0.00000000000E+00 -0.00000000000E+00 -0.12724946643E+04  0.12724946643E+04  0.00000000000E+00 0.  1.
         25    1    1    2    0    0  0.64342669178E+02 -0.56875142690E+02 -0.19124243255E+03  0.24407668660E+03  0.12500000000E+03 0.  0.
         25    1    1    2    0    0 -0.64342669178E+02  0.56875142690E+02 -0.10493840724E+04  0.10602861370E+04  0.12500000000E+03 0.  0.
</event>
<event>
 4    0  0.2196599E-002  0.2253314E+03  0.7546771E-02  0.1129970E+00
         21   -1    0    0  502  501  0.00000000000E+00  0.00000000000E+00  0.22251893228E+03  0.22251893228E+03  0.00000000000E+00 0. -1.
         21   -1    0    0  501  502 -0.00000000000E+00 -0.00000000000E+00 -0.22817948023E+03  0.22817948023E+03  0.00000000000E+00 0. -1.
         25    1    1    2    0    0 -0.13682304684E+03 -0.12816982483E+03 -0.39277048458E+01  0.22536298944E+03  0.12500000000E+03 0.  0.
         25    1    1    2    0    0  0.13682304684E+03  0.12816982483E+03 -0.17328431114E+01  0.22533542307E+03  0.12500000000E+03 0.  0.
</event>
<event>
 4    0  0.2196599E-002  0.1853359E+03  0.7546771E-02  0.1162737E+00
         21   -1    0    0  502  501  0.00000000000E+00  0.00000000000E+00  0.67054969286E+03  0.67054969286E+03  0.00000000000E+00 0.  1.
         21   -1    0    0  501  502 -0.00000000000E+00 -0.00000000000E+00 -0.51225753327E+02  0.51225753327E+02  0.00000000000E+00 0.  1.
         25    1    1    2    0    0  0.86743222697E+01 -0.22194723326E-01  0.43747367059E+02  0.13271803376E+03  0.12500000000E+03 0.  0.
         25    1    1    2    0    0 -0.86743222697E+01  0.22194723326E-01  0.57557657247E+03  0.58905741243E+03  0.12500000000E+03 0.  0.
</event>
<event>
 4    0  0.2196599E-002  0.2348519E+03  0.7546771E-02  0.1123271E+00
         21   -1    0    0  502  501  0.00000000000E+00  0.00000000000E+00  0.13823033264E+03  0.13823033264E+03  0.00000000000E+00 0.  1.
         21   -1    0    0  501  502 -0.00000000000E+00 -0.00000000000E+00 -0.39901085663E+03  0.39901085663E+03  0.00000000000E+00 0.  1.
         25    1    1    2    0    0  0.12140945548E+03  0.14483267887E+03 -0.59756022516E+02  0.23433425481E+03  0.12500000000E+03 0.  0.
         25    1    1    2    0    0 -0.12140945548E+03 -0.14483267887E+03 -0.20102450148E+03  0.30290693446E+03  0.12500000000E+03 0.  0.
</event>
<event>
 4    0  0.2196599E-002  0.2093940E+03  0.7546771E-02  0.1142047E+00
         21   -1    0    0  502  501  0.00000000000E+00  0.00000000000E+00  0.13171469359E+03  0.13171469359E+03  0.00000000000E+00 0. -1.
         21   -1    0    0  501  502 -0.00000000000E+00 -0.00000000000E+00 -0.33288487113E+03  0.33288487113E+03  0.00000000000E+00 0. -1.
         25    1    1    2    0    0  0.30945313612E+02 -0.13871656509E+03 -0.19994176382E+03  0.27532091599E+03  0.12500000000E+03 0.  0.
         25    1    1    2    0    0 -0.30945313612E+02  0.13871656509E+03 -0.12284137223E+01  0.18927864873E+03  0.12500000000E+03 0.  0.
</event>
<event>
 4    0  0.2243149E-002  0.2234898E+03  0.7546771E-02  0.1131308E+00
         21   -1    0    0  502  501  0.00000000000E+00  0.00000000000E+00  0.20058017786E+03  0.20058017786E+03  0.00000000000E+00 0.  1.
         21   -1    0    0  501  502 -0.00000000000E+00 -0.00000000000E+00 -0.24901618706E+03  0.24901618706E+03  0.00000000000E+00 0.  1.
         25    1    1    2    0    0  0.61897473620E+01  0.13145654734E+02  0.16155644396E+03  0.20478429089E+03  0.12500000000E+03 0.  0.
         25    1    1    2    0    0 -0.61897473620E+01 -0.13145654734E+02 -0.20999245315E+03  0.24481207403E+03  0.12500000000E+03 0.  0.
</event>
<event>
 4    0  0.2196599E-002  0.1473068E+03  0.7546771E-02  0.1203822E+00
         21   -1    0    0  502  501  0.00000000000E+00  0.00000000000E+00  0.37482561924E+03  0.37482561924E+03  0.00000000000E+00 0.  1.
         21   -1    0    0  501  502 -0.00000000000E+00 -0.00000000000E+00 -0.57891722360E+02  0.57891722360E+02  0.00000000000E+00 0.  1.
         25    1    1    2    0    0  0.44533376277E+02  0.63954341953E+02  0.15987667343E+03  0.21739119155E+03  0.12500000000E+03 0.  0.
         25    1    1    2    0    0 -0.44533376277E+02 -0.63954341953E+02  0.15705722345E+03  0.21532615005E+03  0.12500000000E+03 0.  0.
</event>
<event>
 4    0  0.2196599E-002  0.2278129E+03  0.7546771E-02  0.1128189E+00
         21   -1    0    0  502  501  0.00000000000E+00  0.00000000000E+00  0.24095910726E+03  0.24095910726E+03  0.00000000000E+00 0. -1.
         21   -1    0    0  501  502 -0.00000000000E+00 -0.00000000000E+00 -0.21538398954E+03  0.21538398954E+03  0.00000000000E+00 0. -1.
         25    1    1    2    0    0 -0.21352906985E+02 -0.67119694993E+02  0.19002015570E+03  0.23810430417E+03  0.12500000000E+03 0.  0.
         25    1    1    2    0    0  0.21352906985E+02  0.67119694993E+02 -0.16444503798E+03  0.21823879263E+03  0.12500000000E+03 0.  0.
</event>
<event>
 4    0  0.2196599E-002  0.2383138E+03  0.7546771E-02  0.1120921E+00
         21   -1    0    0  502  501  0.00000000000E+00  0.00000000000E+00  0.68536226949E+03  0.68536226949E+03  0.00000000000E+00 0.  1.
         21   -1    0    0  501  502 -0.00000000000E+00 -0.00000000000E+00 -0.82866362292E+02  0.82866362292E+02  0.00000000000E+00 0.  1.
         25    1    1    2    0    0  0.64443603755E+02 -0.67919667516E+02  0.11113051414E+02  0.15657125922E+03  0.12500000000E+03 0.  0.
         25    1    1    2    0    0 -0.64443603755E+02  0.67919667516E+02  0.59138285579E+03  0.61165737257E+03  0.12500000000E+03 0.  0.
</event>
<event>
 4    0  0.2196599E-002  0.2463434E+03  0.7546771E-02  0.1115638E+00
         21   -1    0    0  502  501  0.00000000000E+00  0.00000000000E+00  0.32373776585E+02  0.32373776585E+02  0.00000000000E+00 0.  1.
         21   -1    0    0  501  502 -0.00000000000E+00 -0.00000000000E+00 -0.18745139151E+04  0.18745139151E+04  0.00000000000E+00 0.  1.
         25    1    1    2    0    0  0.90571603069E+02  0.18951637339E+02 -0.16604828274E+04  0.16677501612E+04  0.12500000000E+03 0.  0.
         25    1    1    2    0    0 -0.90571603069E+02 -0.18951637339E+02 -0.18165731111E+03  0.23913753056E+03  0.12500000000E+03 0.  0.
</event>
<event>
 4    0  0.2196599E-002  0.1529844E+03  0.7546771E-02  0.1196853E+00
         21   -1    0    0  502  501  0.00000000000E+00  0.00000000000E+00  0.18831442947E+03  0.18831442947E+03  0.00000000000E+00 0. -1.
         21   -1    0    0  501  502 -0.00000000000E+00 -0.00000000000E+00 -0.12428272037E+03  0.12428272037E+03  0.00000000000E+00 0. -1.
         25    1    1    2    0    0 -0.92029058704E+01  0.85551730257E+02  0.51811820520E+02  0.16035353682E+03  0.12500000000E+03 0.  0.
         25    1    1    2    0    0  0.92029058704E+01 -0.85551730257E+02  0.12219888579E+02  0.15224361301E+03  0.12500000000E+03 0.  0.
</event>
<event>
 4    0  0.2196599E-002  0.2532812E+03  0.7546771E-02  0.1111249E+00
         21   -1    0    0  502  501  0.00000000000E+00  0.00000000000E+00  0.13678360216E+04  0.13678360216E+04  0.00000000000E+00 0.  1.
         21   -1    0    0  501  502 -0.00000000000E+00 -0.00000000000E+00 -0.46899886811E+02  0.46899886811E+02  0.00000000000E+00 0.  1.
         25    1    1    2    0    0  0.28001494119E+01 -0.18369269477E+03  0.99994765893E+03  0.10243393810E+04  0.12500000000E+03 0.  0.
         25    1    1    2    0    0 -0.28001494119E+01  0.18369269477E+03  0.32098847584E+03  0.39039652736E+03  0.12500000000E+03 0.  0.
</event>
<event>
 4    0  0.2196599E-002  0.2128163E+03  0.7546771E-02  0.1139355E+00
         21   -1    0    0  502  501  0.00000000000E+00  0.00000000000E+00  0.53245872526E+02  0.53245872526E+02  0.00000000000E+00 0. -1.
         21   -1    0    0  501  502 -0.00000000000E+00 -0.00000000000E+00 -0.85059682796E+03  0.85059682796E+03  0.00000000000E+00 0. -1.
         25    1    1    2    0    0  0.64895036560E+01 -0.16118272358E+03 -0.52685966412E+03  0.56500273425E+03  0.12500000000E+03 0.  0.
         25    1    1    2    0    0 -0.64895036560E+01  0.16118272358E+03 -0.27049129132E+03  0.33883996624E+03  0.12500000000E+03 0.  0.
</event>
<event>
 4    0  0.2196599E-002  0.2258704E+03  0.7546771E-02  0.1129581E+00
         21   -1    0    0  502  501  0.00000000000E+00  0.00000000000E+00  0.15736286014E+03  0.15736286014E+03  0.00000000000E+00 0. -1.
         21   -1    0    0  501  502 -0.00000000000E+00 -0.00000000000E+00 -0.32420254981E+03  0.32420254981E+03  0.00000000000E+00 0. -1.
         25    1    1    2    0    0  0.76980288083E+02  0.11780111417E+03  0.49680837951E+02  0.19466959935E+03  0.12500000000E+03 0.  0.
         25    1    1    2    0    0 -0.76980288083E+02 -0.11780111417E+03 -0.21652052763E+03  0.28689581060E+03  0.12500000000E+03 0.  0.
</event>
<event>
 4    0  0.2196599E-002  0.1418072E+03  0.7546771E-02  0.1210918E+00
         21   -1    0    0  502  501  0.00000000000E+00  0.00000000000E+00  0.14029675338E+03  0.14029675338E+03  0.00000000000E+00 0. -1.
         21   -1    0    0  501  502 -0.00000000000E+00 -0.00000000000E+00 -0.14333386933E+03  0.14333386933E+03  0.00000000000E+00 0. -1.
         25    1    1    2    0    0 -0.17600975225E+01 -0.56235942575E+02 -0.37834512550E+02  0.14220418250E+03  0.12500000000E+03 0.  0.
         25    1    1    2    0    0  0.17600975225E+01  0.56235942575E+02  0.34797396593E+02  0.14142644021E+03  0.12500000000E+03 0.  0.
</event>
<event>
 4    0  0.2196599E-002  0.1990594E+03  0.7546771E-02  0.1150535E+00
         21   -1    0    0  502  501  0.00000000000E+00  0.00000000000E+00  0.10824514614E+04  0.10824514614E+04  0.00000000000E+00 0.  1.
         21   -1    0    0  501  502 -0.00000000000E+00 -0.00000000000E+00 -0.36606384413E+02  0.36606384413E+02  0.00000000000E+00 0.  1.
         25    1    1    2    0    0  0.34997288042E+02 -0.69339137984E+02  0.14615230859E+03  0.20740834972E+03  0.12500000000E+03 0.  0.
         25    1    1    2    0    0 -0.34997288042E+02  0.69339137984E+02  0.89969276835E+03  0.91164949605E+03  0.12500000000E+03 0.  0.
</event>
<event>
 4    0  0.2196599E-002  0.1789514E+03  0.7546771E-02  0.1168822E+00
         21   -1    0    0  502  501  0.00000000000E+00  0.00000000000E+00  0.80627654292E+02  0.80627654292E+02  0.00000000000E+00 0.  1.
         21   -1    0    0  501  502 -0.00000000000E+00 -0.00000000000E+00 -0.39717904198E+03  0.39717904198E+03  0.00000000000E+00 0.  1.
         25    1    1    2    0    0  0.71592495628E+02 -0.38332054938E+02 -0.26090169418E+02  0.15132920672E+03  0.12500000000E+03 0.  0.
         25    1    1    2    0    0 -0.71592495628E+02  0.38332054938E+02 -0.29046121827E+03  0.32647748956E+03  0.12500000000E+03 0.  0.
</event>
<event>
 4    0  0.2196599E-002  0.1964654E+03  0.7546771E-02  0.1152756E+00
         21   -1    0    0  502  501  0.00000000000E+00  0.00000000000E+00  0.10706208770E+03  0.10706208770E+03  0.00000000000E+00 0. -1.
         21   -1    0    0  501  502 -0.00000000000E+00 -0.00000000000E+00 -0.36052598441E+03  0.36052598441E+03  0.00000000000E+00 0. -1.
         25    1    1    2    0    0 -0.26991110487E+02  0.14545474216E+03 -0.16598507090E+03  0.25507184444E+03  0.12500000000E+03 0.  0.
         25    1    1    2    0    0  0.26991110487E+02 -0.14545474216E+03 -0.87478825810E+02  0.21251622768E+03  0.12500000000E+03 0.  0.
</event>
<event>
 4    0  0.2196599E-002  0.1985348E+03  0.7546771E-02  0.1150981E+00
         21   -1    0    0  502  501  0.00000000000E+00  0.00000000000E+00  0.55421349036E+03  0.55421349036E+03  0.00000000000E+00 0.  1.
         21   -1    0    0  501  502 -0.00000000000E+00 -0.00000000000E+00 -0.71120758060E+02  0.71120758060E+02  0.00000000000E+00 0.  1.
         25    1    1    2    0    0 -0.32182776025E+02 -0.91364503462E+02  0.52509928080E+02  0.16662981760E+03  0.12500000000E+03 0.  0.
         25    1    1    2    0    0  0.32182776025E+02  0.91364503462E+02  0.43058280422E+03  0.45870443082E+03  0.12500000000E+03 0.  0.
</event>
<event>
 4    0  0.2196599E-002  0.1932999E+03  0.7546771E-02  0.1155518E+00
         21   -1    0    0  502  501  0.00000000000E+00  0.00000000000E+00  0.36642184448E+03  0.36642184448E+03  0.00000000000E+00 0. -1.
         21   -1    0    0  501  502 -0.00000000000E+00 -0.00000000000E+00 -0.10197221476E+03  0.10197221476E+03  0.00000000000E+00 0. -1.
         25    1    1    2    0    0 -0.19028891099E+02  0.33608095965E+02  0.30462727678E+03  0.33153337776E+03  0.12500000000E+03 0.  0.
         25    1    1    2    0    0  0.19028891099E+02 -0.33608095965E+02 -0.40177647069E+02  0.13686068148E+03  0.12500000000E+03 0.  0.
</event>
<event>
 4    0  0.2196599E-002  0.2415575E+03  0.7546771E-02  0.1118760E+00
         21   -1    0    0  502  501  0.00000000000E+00  0.00000000000E+00  0.14101254431E+03  0.14101254431E+03  0.00000000000E+00 0.  1.
         21   -1    0    0  501  502 -0.00000000000E+00 -0.00000000000E+00 -0.41379301969E+03  0.41379301969E+03  0.00000000000E+00 0.  1.
         25    1    1    2    0    0 -0.13280982501E+03  0.29023351106E+02  0.42420792209E+02  0.18948701312E+03  0.12500000000E+03 0.  0.
         25    1    1    2    0    0  0.13280982501E+03 -0.29023351106E+02 -0.31520126759E+03  0.36531855088E+03  0.12500000000E+03 0.  0.
</event>
<event>
 4    0  0.2196599E-002  0.3367987E+03  0.7546771E-02  0.1068168E+00
         21   -1    0    0  502  501  0.00000000000E+00  0.00000000000E+00  0.13220283643E+03  0.13220283643E+03  0.00000000000E+00 0.  1.
         21   -1    0    0  501  502 -0.00000000000E+00 -0.00000000000E+00 -0.85802518727E+03  0.85802518727E+03  0.00000000000E+00 0.  1.
         25    1    1    2    0    0 -0.43627857821E+01  0.44342205915E+00 -0.82261710966E+03  0.83207159526E+03  0.12500000000E+03 0.  0.
         25    1    1    2    0    0  0.43627857821E+01 -0.44342205915E+00  0.96794758819E+02  0.15815642844E+03  0.12500000000E+03 0.  0.
</event>
<event>
 4    0  0.2196599E-002  0.1728724E+03  0.7546771E-02  0.1174885E+00
         21   -1    0    0  502  501  0.00000000000E+00  0.00000000000E+00  0.38252128383E+02  0.38252128383E+02  0.00000000000E+00 0.  1.
         21   -1    0    0  501  502 -0.00000000000E+00 -0.00000000000E+00 -0.78126047370E+03  0.78126047370E+03  0.00000000000E+00 0.  1.
         25    1    1    2    0    0  0.12205123814E+02  0.38997928134E+01 -0.90091743721E+02  0.15461466851E+03  0.12500000000E+03 0.  0.
         25    1    1    2    0    0 -0.12205123814E+02 -0.38997928134E+01 -0.65291660160E+03  0.66489793358E+03  0.12500000000E+03 0.  0.
</event>
<event>
 4    0  0.2196599E-002  0.2048540E+03  0.7546771E-02  0.1145707E+00
         21   -1    0    0  502  501  0.00000000000E+00  0.00000000000E+00  0.14792263934E+03  0.14792263934E+03  0.00000000000E+00 0. -1.
         21   -1    0    0  501  502 -0.00000000000E+00 -0.00000000000E+00 -0.28369657186E+03  0.28369657186E+03  0.00000000000E+00 0. -1.
         25    1    1    2    0    0 -0.81463000026E+02  0.99254969983E+02  0.36680575296E+02  0.18291592069E+03  0.12500000000E+03 0.  0.
         25    1    1    2    0    0  0.81463000026E+02 -0.99254969983E+02 -0.17245450782E+03  0.24870329050E+03  0.12500000000E+03 0.  0.
</event>
<event>
 4    0  0.2196599E-002  0.1981120E+03  0.7546771E-02  0.1151342E+00
         21   -1    0    0  502  501  0.00000000000E+00  0.00000000000E+00  0.61076353406E+02  0.61076353406E+02  0.00000000000E+00 0. -1.
         21   -1    0    0  501  502 -0.00000000000E+00 -0.00000000000E+00 -0.64261116474E+03  0.64261116474E+03  0.00000000000E+00 0. -1.
         25    1    1    2    0    0  0.10936660871E+03  0.10788613497E+03 -0.28227356016E+03  0.34482435527E+03  0.12500000000E+03 0.  0.
         25    1    1    2    0    0 -0.10936660871E+03 -0.10788613497E+03 -0.29926125118E+03  0.35886316288E+03  0.12500000000E+03 0.  0.
</event>
<event>
 4    0  0.2196599E-002  0.1971560E+03  0.7546771E-02  0.1152161E+00
         21   -1    0    0  502  501  0.00000000000E+00  0.00000000000E+00  0.18074501612E+02  0.18074501612E+02  0.00000000000E+00 0. -1.
         21   -1    0    0  501  502 -0.00000000000E+00 -0.00000000000E+00 -0.21505707057E+04  0.21505707057E+04  0.00000000000E+00 0. -1.
         25    1    1    2    0    0 -0.12699035090E+03  0.62893751264E+02 -0.75691949776E+03  0.78015017737E+03  0.12500000000E+03 0.  0.
         25    1    1    2    0    0  0.12699035090E+03 -0.62893751264E+02 -0.13755767064E+04  0.13884950300E+04  0.12500000000E+03 0.  0.
</event>
<event>
 4    0  0.2196599E-002  0.2271104E+03  0.7546771E-02  0.1128690E+00
         21   -1    0    0  502  501  0.00000000000E+00  0.00000000000E+00  0.32681842986E+02  0.32681842986E+02  0.00000000000E+00 0.  1.
         21   -1    0    0  501  502 -0.00000000000E+00 -0.00000000000E+00 -0.15782193767E+04  0.15782193767E+04  0.00000000000E+00 0.  1.
         25    1    1    2    0    0 -0.23972642674E+02  0.15101777548E+02 -0.10784314762E+03  0.16750491267E+03  0.12500000000E+03 0.  0.
         25    1    1    2    0    0  0.23972642674E+02 -0.15101777548E+02 -0.14376943861E+04  0.14433963070E+04  0.12500000000E+03 0.  0.
</event>
<event>
 4    0  0.2196599E-002  0.2190778E+03  0.7546771E-02  0.1134572E+00
         21   -1    0    0  502  501  0.00000000000E+00  0.00000000000E+00  0.27479693138E+03  0.27479693138E+03  0.00000000000E+00 0. -1.
         21   -1    0    0  501  502 -0.00000000000E+00 -0.00000000000E+00 -0.17465661848E+03  0.17465661848E+03  0.00000000000E+00 0. -1.
         25    1    1    2    0    0 -0.93774934321E+02  0.14929755877E+03  0.86864301055E+02  0.23292467915E+03  0.12500000000E+03 0.  0.
         25    1    1    2    0    0  0.93774934321E+02 -0.14929755877E+03  0.13276011852E+02  0.21652887071E+03  0.12500000000E+03 0.  0.
</event>
<event>
 4    0  0.2196599E-002  0.2640568E+03  0.7546771E-02  0.1104730E+00
         21   -1    0    0  502  501  0.00000000000E+00  0.00000000000E+00  0.60807614540E+02  0.60807614540E+02  0.00000000000E+00 0.  1.
         21   -1    0    0  501  502 -0.00000000000E+00 -0.00000000000E+00 -0.11466654333E+04  0.11466654333E+04  0.00000000000E+00 0.  1.
         25    1    1    2    0    0 -0.39263818846E+02 -0.78949674234E+02 -0.10350408155E+04  0.10462835124E+04  0.12500000000E+03 0.  0.
         25    1    1    2    0    0  0.39263818846E+02  0.78949674234E+02 -0.50817003311E+02  0.16118953551E+03  0.12500000000E+03 0.  0.
</event>
<event>
 4    0  0.2196599E-002  0.2814178E+03  0.7546771E-02  0.1094917E+00
         21   -1    0    0  502  501  0.00000000000E+00  0.00000000000E+00  0.65376122627E+03  0.65376122627E+03  0.00000000000E+00 0. -1.
         21   -1    0    0  501  502 -0.00000000000E+00 -0.00000000000E+00 -0.12113896038E+03  0.12113896038E+03  0.00000000000E+00 0. -1.
         25    1    1    2    0    0  0.18800846066E+03 -0.16273139544E+03  0.32377854205E+03  0.42694991819E+03  0.12500000000E+03 0.  0.
         25    1    1    2    0    0 -0.18800846066E+03  0.16273139544E+03  0.20884372383E+03  0.34795026847E+03  0.12500000000E+03 0.  0.
</event>
<event>
 4    0  0.2196599E-002  0.2316351E+03  0.7546771E-02  0.1125494E+00
         21   -1    0    0  502  501  0.00000000000E+00  0.00000000000E+00  0.21348190755E+03  0.21348190755E+03  0.00000000000E+00 0. -1.
         21   -1    0    0  501  502 -0.00000000000E+00 -0.00000000000E+00 -0.25133197211E+03  0.25133197211E+03  0.00000000000E+00 0. -1.
         25    1    1    2    0    0  0.43002668665E+02 -0.14218501562E+03 -0.14569483833E+03  0.24272987887E+03  0.12500000000E+03 0.  0.
         25    1    1    2    0    0 -0.43002668665E+02  0.14218501562E+03  0.10784477377E+03  0.22208400079E+03  0.12500000000E+03 0.  0.
</event>
<event>
 4    0  0.2196599E-002  0.1972728E+03  0.7546771E-02  0.1152061E+00
         21   -1    0    0  502  501  0.00000000000E+00  0.00000000000E+00  0.67933292967E+03  0.67933292967E+03  0.00000000000E+00 0.  1.
         21   -1    0    0  501  502 -0.00000000000E+00 -0.00000000000E+00 -0.57286435394E+02  0.57286435394E+02  0.00000000000E+00 0.  1.
         25    1    1    2    0    0  0.98083764175E+02  0.72845975833E+01  0.93150096699E+02  0.18432425416E+03  0.12500000000E+03 0.  0.
         25    1    1    2    0    0 -0.98083764175E+02 -0.72845975833E+01  0.52889639758E+03  0.55229511090E+03  0.12500000000E+03 0.  0.
</event>
<event>
 4    0  0.2196599E-002  0.1967497E+03  0.7546771E-02  0.1152511E+00
         21   -1    0    0  502  501  0.00000000000E+00  0.00000000000E+00  0.17493450536E+03  0.17493450536E+03  0.00000000000E+00 0. -1.
         21   -1    0    0  501  502 -0.00000000000E+00 -0.00000000000E+00 -0.22128528076E+03  0.22128528076E+03  0.00000000000E+00 0. -1.
         25    1    1    2    0    0 -0.15145783898E+03 -0.42575255719E+01 -0.34559640043E+02  0.19944165120E+03  0.12500000000E+03 0.  0.
         25    1    1    2    0    0  0.15145783898E+03  0.42575255719E+01 -0.11791135356E+02  0.19677813493E+03  0.12500000000E+03 0.  0.
</event>
<event>
 4    0  0.2196599E-002  0.2163736E+03  0.7546771E-02  0.1136616E+00
         21   -1    0    0  502  501  0.00000000000E+00  0.00000000000E+00  0.40185299866E+03  0.40185299866E+03  0.00000000000E+00 0. -1.
         21   -1    0    0  501  502 -0.00000000000E+00 -0.00000000000E+00 -0.11650416486E+03  0.11650416486E+03  0.00000000000E+00 0. -1.
         25    1    1    2    0    0  0.15211650253E+03  0.36758209806E+02  0.44613618991E+02  0.20519739601E+03  0.12500000000E+03 0.  0.
         25    1    1    2    0    0 -0.15211650253E+03 -0.36758209806E+02  0.24073521481E+03  0.31315976750E+03  0.12500000000E+03 0.  0.
</event>
<event>
 4    0  0.2196599E-002  0.1813965E+03  0.7546771E-02  0.1166458E+00
         21   -1    0    0  502  501  0.00000000000E+00  0.00000000000E+00  0.50065948845E+03  0.50065948845E+03  0.00000000000E+00 0. -1.
         21   -1    0    0  501  502 -0.00000000000E+00 -0.00000000000E+00 -0.65722696596E+02  0.65722696596E+02  0.00000000000E+00 0. -1.
         25    1    1    2    0    0  0.92181650981E+02  0.54493052633E+02  0.98442570125E+02  0.19178865758E+03  0.12500000000E+03 0.  0.
         25    1    1    2    0    0 -0.92181650981E+02 -0.54493052633E+02  0.33649422172E+03  0.37459352746E+03  0.12500000000E+03 0.  0.
</event>
<event>
 4    0  0.2196599E-002  0.3884028E+03  0.7546771E-02  0.1047871E+00
         21   -1    0    0  502  501  0.00000000000E+00  0.00000000000E+00  0.48466117493E+03  0.48466117493E+03  0.00000000000E+00 0. -1.
         21   -1    0    0  501  502 -0.00000000000E+00 -0.00000000000E+00 -0.31126231110E+03  0.31126231110E+03  0.00000000000E+00 0. -1.
         25    1    1    2    0    0 -0.60637076077E+02 -0.18396196054E+03  0.40698317129E+03  0.46773834527E+03  0.12500000000E+03 0.  0.
         25    1    1    2    0    0  0.60637076077E+02  0.18396196054E+03 -0.23358430747E+03  0.32818514076E+03  0.12500000000E+03 0.  0.
</event>
<event>
 4    0  0.2196599E-002  0.4061041E+03  0.7546771E-02  0.1041686E+00
         21   -1    0    0  502  501  0.00000000000E+00  0.00000000000E+00  0.77219020264E+03  0.77219020264E+03  0.00000000000E+00 0.  1.
         21   -1    0    0  501  502 -0.00000000000E+00 -0.00000000000E+00 -0.21357502643E+03  0.21357502643E+03  0.00000000000E+00 0.  1.
         25    1    1    2    0    0  0.56269787328E+02  0.34642747835E+03  0.83165905586E+02  0.38173270042E+03  0.12500000000E+03 0.  0.
         25    1    1    2    0    0 -0.56269787328E+02 -0.34642747835E+03  0.47544927063E+03  0.60403252864E+03  0.12500000000E+03 0.  0.
</event>
<event>
 4    0  0.2196599E-002  0.2839039E+03  0.7546771E-02  0.1093576E+00
         21   -1    0    0  502  501  0.00000000000E+00  0.00000000000E+00  0.51321569675E+03  0.51321569675E+03  0.00000000000E+00 0.  1.
         21   -1    0    0  501  502 -0.00000000000E+00 -0.00000000000E+00 -0.15705170451E+03  0.15705170451E+03  0.00000000000E+00 0.  1.
         25    1    1    2    0    0  0.38904927572E+02  0.16016590964E+03 -0.51452707414E+02  0.21316447430E+03  0.12500000000E+03 0.  0.
         25    1    1    2    0    0 -0.38904927572E+02 -0.16016590964E+03  0.40761669965E+03  0.45710292696E+03  0.12500000000E+03 0.  0.
</event>
<event>
 4    0  0.2196599E-002  0.2232569E+03  0.7546771E-02  0.1131478E+00
         21   -1    0    0  502  501  0.00000000000E+00  0.00000000000E+00  0.66572338016E+02  0.66572338016E+02  0.00000000000E+00 0. -1.
         21   -1    0    0  501  502 -0.00000000000E+00 -0.00000000000E+00 -0.74871394950E+03  0.74871394950E+03  0.00000000000E+00 0. -1.
         25    1    1    2    0    0 -0.54915337715E+02  0.93942822640E+02 -0.67932318009E+02  0.17911099372E+03  0.12500000000E+03 0.  0.
         25    1    1    2    0    0  0.54915337715E+02 -0.93942822640E+02 -0.61420929347E+03  0.63617529379E+03  0.12500000000E+03 0.  0.
</event>
<event>
 4    0  0.2196599E-002  0.1817204E+03  0.7546771E-02  0.1166148E+00
         21   -1    0    0  502  501  0.00000000000E+00  0.00000000000E+00  0.12106963949E+03  0.12106963949E+03  0.00000000000E+00 0. -1.
         21   -1    0    0  501  502 -0.00000000000E+00 -0.00000000000E+00 -0.27275447925E+03  0.27275447925E+03  0.00000000000E+00 0. -1.
         25    1    1    2    0    0 -0.41947951118E+02  0.12249328631E+03 -0.10310632007E+03  0.20741299148E+03  0.12500000000E+03 0.  0.
         25    1    1    2    0    0  0.41947951118E+02 -0.12249328631E+03 -0.48578519685E+02  0.18641112727E+03  0.12500000000E+03 0.  0.
</event>
<event>
 4    0  0.2196599E-002  0.2455483E+03  0.7546771E-02  0.1116151E+00
         21   -1    0    0  502  501  0.00000000000E+00  0.00000000000E+00  0.77820417918E+02  0.77820417918E+02  0.00000000000E+00 0. -1.
         21   -1    0    0  501  502 -0.00000000000E+00 -0.00000000000E+00 -0.77478333165E+03  0.77478333165E+03  0.00000000000E+00 0.  1.
         25    1    1    2    0    0 -0.12254090768E+03  0.14870564704E+03 -0.49922766360E+03  0.54952971132E+03  0.12500000000E+03 0.  0.
         25    1    1    2    0    0  0.12254090768E+03 -0.14870564704E+03 -0.19773525014E+03  0.30307403825E+03  0.12500000000E+03 0.  0.
</event>
<event>
 4    0  0.2196599E-002  0.1504998E+03  0.7546771E-02  0.1199860E+00
         21   -1    0    0  502  501  0.00000000000E+00  0.00000000000E+00  0.22791221589E+03  0.22791221589E+03  0.00000000000E+00 0.  1.
         21   -1    0    0  501  502 -0.00000000000E+00 -0.00000000000E+00 -0.99381187442E+02  0.99381187442E+02  0.00000000000E+00 0.  1.
         25    1    1    2    0    0  0.91533412791E+01 -0.22479325049E+02  0.15149878968E+03  0.19790398426E+03  0.12500000000E+03 0.  0.
         25    1    1    2    0    0 -0.91533412791E+01  0.22479325049E+02 -0.22967761234E+02  0.12938941907E+03  0.12500000000E+03 0.  0.
</event>
<event>
 4    0  0.2196599E-002  0.2816457E+03  0.7546771E-02  0.1094793E+00
         21   -1    0    0  502  501  0.00000000000E+00  0.00000000000E+00  0.27990285932E+03  0.27990285932E+03  0.00000000000E+00 0. -1.
         21   -1    0    0  501  502 -0.00000000000E+00 -0.00000000000E+00 -0.28339941553E+03  0.28339941553E+03  0.00000000000E+00 0. -1.
         25    1    1    2    0    0 -0.23072311077E+03  0.70985109161E+02 -0.75419685676E+02  0.28210843403E+03  0.12500000000E+03 0.  0.
         25    1    1    2    0    0  0.23072311077E+03 -0.70985109161E+02  0.71923129459E+02  0.28119384082E+03  0.12500000000E+03 0.  0.
</event>
<event>
 4    0  0.2196599E-002  0.2955763E+03  0.7546771E-02  0.1087473E+00
         21   -1    0    0  502  501  0.00000000000E+00  0.00000000000E+00  0.78149575210E+02  0.78149575210E+02  0.00000000000E+00 0.  1.
         21   -1    0    0  501  502 -0.00000000000E+00 -0.00000000000E+00 -0.11179249061E+04  0.11179249061E+04  0.00000000000E+00 0.  1.
         25    1    1    2    0    0  0.16043279535E+03 -0.19939138188E+03 -0.67977578105E+03  0.73703169369E+03  0.12500000000E+03 0.  0.
         25    1    1    2    0    0 -0.16043279535E+03  0.19939138188E+03 -0.35999954987E+03  0.45904278766E+03  0.12500000000E+03 0.  0.
</event>
<event>
 4    0  0.2196599E-002  0.2098929E+03  0.7546771E-02  0.1141651E+00
         21   -1    0    0  502  501  0.00000000000E+00  0.00000000000E+00  0.71248778054E+02  0.71248778054E+02  0.00000000000E+00 0. -1.
         21   -1    0    0  501  502 -0.00000000000E+00 -0.00000000000E+00 -0.61832669688E+03  0.61832669688E+03  0.00000000000E+00 0. -1.
         25    1    1    2    0    0 -0.16174131069E+03  0.40004432942E+02 -0.31604023225E+03  0.37850632047E+03  0.12500000000E+03 0.  0.
         25    1    1    2    0    0  0.16174131069E+03 -0.40004432942E+02 -0.23103768658E+03  0.31106915446E+03  0.12500000000E+03 0.  0.
</event>
<event>
 4    0  0.2196599E-002  0.4089459E+03  0.7546771E-02  0.1040725E+00
         21   -1    0    0  502  501  0.00000000000E+00  0.00000000000E+00  0.45169308559E+03  0.45169308559E+03  0.00000000000E+00 0. -1.
         21   -1    0    0  501  502 -0.00000000000E+00 -0.00000000000E+00 -0.37024423928E+03  0.37024423928E+03  0.00000000000E+00 0. -1.
         25    1    1    2    0    0  0.12890282046E+03  0.36329899483E+03  0.95856199916E+02  0.41643187657E+03  0.12500000000E+03 0.  0.
         25    1    1    2    0    0 -0.12890282046E+03 -0.36329899483E+03 -0.14407353611E+02  0.40550544830E+03  0.12500000000E+03 0.  0.
</event>
<event>
 4    0  0.2196599E-002  0.1759474E+03  0.7546771E-02  0.1171784E+00
         21   -1    0    0  502  501  0.00000000000E+00  0.00000000000E+00  0.85299246433E+03  0.85299246433E+03  0.00000000000E+00 0.  1.
         21   -1    0    0  501  502 -0.00000000000E+00 -0.00000000000E+00 -0.36292812198E+02  0.36292812198E+02  0.00000000000E+00 0.  1.
         25    1    1    2    0    0  0.69936916339E+02  0.45255975447E+01  0.66632600408E+03  0.68156217399E+03  0.12500000000E+03 0.  0.
         25    1    1    2    0    0 -0.69936916339E+02 -0.45255975447E+01  0.15037364805E+03  0.20772310254E+03  0.12500000000E+03 0.  0.
</event>
<event>
 4    0  0.2196599E-002  0.3032543E+03  0.7546771E-02  0.1083625E+00
         21   -1    0    0  502  501  0.00000000000E+00  0.00000000000E+00  0.10880213881E+03  0.10880213881E+03  0.00000000000E+00 0. -1.
         21   -1    0    0  501  502 -0.00000000000E+00 -0.00000000000E+00 -0.84523295509E+03  0.84523295509E+03  0.00000000000E+00 0. -1.
         25    1    1    2    0    0  0.23604244565E+03 -0.14320122152E+03 -0.38512253301E+03  0.49006835383E+03  0.12500000000E+03 0.  0.
         25    1    1    2    0    0 -0.23604244565E+03  0.14320122152E+03 -0.35130828327E+03  0.46396674007E+03  0.12500000000E+03 0.  0.
</event>
<event>
 4    0  0.2196599E-002  0.2541448E+03  0.7546771E-02  0.1110713E+00
         21   -1    0    0  502  501  0.00000000000E+00  0.00000000000E+00  0.23056411328E+03  0.23056411328E+03  0.00000000000E+00 0.  1.
         21   -1    0    0  501  502 -0.00000000000E+00 -0.00000000000E+00 -0.28013716992E+03  0.28013716992E+03  0.00000000000E+00 0.  1.
         25    1    1    2    0    0  0.17965312452E+03  0.42980680185E+02 -0.14719228909E+03  0.26723239696E+03  0.12500000000E+03 0.  0.
         25    1    1    2    0    0 -0.17965312452E+03 -0.42980680185E+02  0.97619232445E+02  0.24346888623E+03  0.12500000000E+03 0.  0.
</event>
<event>
 4    0  0.2196599E-002  0.3788512E+03  0.7546771E-02  0.1051359E+00
         21   -1    0    0  502  501  0.00000000000E+00  0.00000000000E+00  0.15454876665E+03  0.15454876665E+03  0.00000000000E+00 0. -1.
         21   -1    0    0  501  502 -0.00000000000E+00 -0.00000000000E+00 -0.92869206683E+03  0.92869206683E+03  0.00000000000E+00 0. -1.
         25    1    1    2    0    0  0.30394133105E+03  0.15558856657E+03 -0.53914572314E+03  0.65030088847E+03  0.12500000000E+03 0.  0.
         25    1    1    2    0    0 -0.30394133105E+03 -0.15558856657E+03 -0.23499757704E+03  0.43293994501E+03  0.12500000000E+03 0.  0.
</event>
<event>
 4    0  0.2196599E-002  0.2098467E+03  0.7546771E-02  0.1141687E+00
         21   -1    0    0  502  501  0.00000000000E+00  0.00000000000E+00  0.23135975697E+03  0.23135975697E+03  0.00000000000E+00 0.  1.
         21   -1    0    0  501  502 -0.00000000000E+00 -0.00000000000E+00 -0.19033408064E+03  0.19033408064E+03  0.00000000000E+00 0.  1.
         25    1    1    2    0    0 -0.37309444444E+02 -0.10323057436E+03 -0.10801126970E+03  0.19834308788E+03  0.12500000000E+03 0.  0.
         25    1    1    2    0    0  0.37309444444E+02  0.10323057436E+03  0.14903694602E+03  0.22335074973E+03  0.12500000000E+03 0.  0.
</event>
<event>
 4    0  0.2196599E-002  0.1955850E+03  0.7546771E-02  0.1153518E+00
         21   -1    0    0  502  501  0.00000000000E+00  0.00000000000E+00  0.83981997128E+02  0.83981997128E+02  0.00000000000E+00 0. -1.
         21   -1    0    0  501  502 -0.00000000000E+00 -0.00000000000E+00 -0.45549622093E+03  0.45549622093E+03  0.00000000000E+00 0. -1.
         25    1    1    2    0    0  0.31574706250E+02  0.17028934029E+02  0.15717934118E+02  0.13099236666E+03  0.12500000000E+03 0.  0.
         25    1    1    2    0    0 -0.31574706250E+02 -0.17028934029E+02 -0.38723215792E+03  0.40848585141E+03  0.12500000000E+03 0.  0.
</event>
<event>
 4    0  0.2196599E-002  0.1479134E+03  0.7546771E-02  0.1203061E+00
         21   -1    0    0  502  501  0.00000000000E+00  0.00000000000E+00  0.52341551867E+02  0.52341551867E+02  0.00000000000E+00 0. -1.
         21   -1    0    0  501  502 -0.00000000000E+00 -0.00000000000E+00 -0.41799261401E+03  0.41799261401E+03  0.00000000000E+00 0. -1.
         25    1    1    2    0    0  0.76060215911E+02  0.15119503400E+02 -0.20743692063E+03  0.25430067218E+03  0.12500000000E+03 0.  0.
         25    1    1    2    0    0 -0.76060215911E+02 -0.15119503400E+02 -0.15821414151E+03  0.21603349370E+03  0.12500000000E+03 0.  0.
</event>
<event>
 4    0  0.2196599E-002  0.2688985E+03  0.7546771E-02  0.1101912E+00
         21   -1    0    0  502  501  0.00000000000E+00  0.00000000000E+00  0.60850325373E+03  0.60850325373E+03  0.00000000000E+00 0.  1.
         21   -1    0    0  501  502 -0.00000000000E+00 -0.00000000000E+00 -0.11882660852E+03  0.11882660852E+03  0.00000000000E+00 0.  1.
         25    1    1    2    0    0  0.23451229965E+03 -0.84611429347E+01  0.29916757242E+03  0.40024223417E+03  0.12500000000E+03 0.  0.
         25    1    1    2    0    0 -0.23451229965E+03  0.84611429347E+01  0.19050907279E+03  0.32708762808E+03  0.12500000000E+03 0.  0.
</event>
<event>
 4    0  0.2196599E-002  0.2046487E+03  0.7546771E-02  0.1145875E+00
         21   -1    0    0  502  501  0.00000000000E+00  0.00000000000E+00  0.58994406779E+02  0.58994406779E+02  0.00000000000E+00 0. -1.
         21   -1    0    0  501  502 -0.00000000000E+00 -0.00000000000E+00 -0.70991661651E+03  0.70991661651E+03  0.00000000000E+00 0. -1.
         25    1    1    2    0    0 -0.41921522677E+02 -0.65909753104E+02 -0.58760442976E+02  0.15867986412E+03  0.12500000000E+03 0.  0.
         25    1    1    2    0    0  0.41921522677E+02  0.65909753104E+02 -0.59216176676E+03  0.61023115917E+03  0.12500000000E+03 0.  0.
</event>
<event>
 4    0  0.2196599E-002  0.1801401E+03  0.7546771E-02  0.1167668E+00
         21   -1    0    0  502  501  0.00000000000E+00  0.00000000000E+00  0.30622604231E+02  0.30622604231E+02  0.00000000000E+00 0.  1.
         21   -1    0    0  501  502 -0.00000000000E+00 -0.00000000000E+00 -0.10596892661E+04  0.10596892661E+04  0.00000000000E+00 0.  1.
         25    1    1    2    0    0  0.90280108577E+02  0.93050855895E+02 -0.50224599493E+03  0.53355880577E+03  0.12500000000E+03 0.  0.
         25    1    1    2    0    0 -0.90280108577E+02 -0.93050855895E+02 -0.52682066694E+03  0.55675306457E+03  0.12500000000E+03 0.  0.
</event>
<event>
 4    0  0.2196599E-002  0.3339980E+03  0.7546771E-02  0.1069381E+00
         21   -1    0    0  502  501  0.00000000000E+00  0.00000000000E+00  0.11261085634E+03  0.11261085634E+03  0.00000000000E+00 0.  1.
         21   -1    0    0  501  502 -0.00000000000E+00 -0.00000000000E+00 -0.99062084205E+03  0.99062084205E+03  0.00000000000E+00 0.  1.
         25    1    1    2    0    0 -0.75890058513E+02  0.60679715448E+02  0.46698958794E+02  0.16506702154E+03  0.12500000000E+03 0.  0.
         25    1    1    2    0    0  0.75890058513E+02 -0.60679715448E+02 -0.92470894450E+03  0.93816467685E+03  0.12500000000E+03 0.  0.
</event>
<event>
 4    0  0.2196599E-002  0.1814498E+03  0.7546771E-02  0.1166407E+00
         21   -1    0    0  502  501  0.00000000000E+00  0.00000000000E+00  0.19515684029E+03  0.19515684029E+03  0.00000000000E+00 0. -1.
         21   -1    0    0  501  502 -0.00000000000E+00 -0.00000000000E+00 -0.16870545211E+03  0.16870545211E+03  0.00000000000E+00 0. -1.
         25    1    1    2    0    0  0.24305136105E+02 -0.76028572652E+02 -0.91588415213E+02  0.17431156388E+03  0.12500000000E+03 0.  0.
         25    1    1    2    0    0 -0.24305136105E+02  0.76028572652E+02  0.11803980339E+03  0.18955072853E+03  0.12500000000E+03 0.  0.
</event>
<event>
 4    0  0.2196599E-002  0.2737525E+03  0.7546771E-02  0.1099151E+00
         21   -1    0    0  502  501  0.00000000000E+00  0.00000000000E+00  0.22419114626E+03  0.22419114626E+03  0.00000000000E+00 0. -1.
         21   -1    0    0  501  502 -0.00000000000E+00 -0.00000000000E+00 -0.33427036666E+03  0.33427036666E+03  0.00000000000E+00 0. -1.
         25    1    1    2    0    0  0.21563506750E+03 -0.81507118120E+02  0.25104767933E+02  0.26343337300E+03  0.12500000000E+03 0.  0.
         25    1    1    2    0    0 -0.21563506750E+03  0.81507118120E+02 -0.13518398833E+03  0.29502813991E+03  0.12500000000E+03 0.  0.
</event>
<event>
 4    0  0.2196599E-002  0.1899268E+03  0.7546771E-02  0.1158527E+00
         21   -1    0    0  502  501  0.00000000000E+00  0.00000000000E+00  0.22149193150E+02  0.22149193150E+02  0.00000000000E+00 0.  1.
         21   -1    0    0  501  502 -0.00000000000E+00 -0.00000000000E+00 -0.16286012184E+04  0.16286012184E+04  0.00000000000E+00 0.  1.
         25    1    1    2    0    0  0.10617037685E+03  0.65164826533E+02 -0.11083152211E+04  0.11222772531E+04  0.12500000000E+03 0.  0.
         25    1    1    2    0    0 -0.10617037685E+03 -0.65164826533E+02 -0.49813680418E+03  0.52847315846E+03  0.12500000000E+03 0.  0.
</event>
<event>
 4    0  0.2196599E-002  0.1848199E+03  0.7546771E-02  0.1163218E+00
         21   -1    0    0  502  501  0.00000000000E+00  0.00000000000E+00  0.54274715683E+02  0.54274715683E+02  0.00000000000E+00 0.  1.
         21   -1    0    0  501  502 -0.00000000000E+00 -0.00000000000E+00 -0.62936082636E+03  0.62936082636E+03  0.00000000000E+00 0.  1.
         25    1    1    2    0    0  0.49208964683E+02 -0.14418351389E+02 -0.54305347979E+02  0.14561415412E+03  0.12500000000E+03 0.  0.
         25    1    1    2    0    0 -0.49208964683E+02  0.14418351389E+02 -0.52078076269E+03  0.53802138792E+03  0.12500000000E+03 0.  0.
</event>
<event>
 4    0  0.2196599E-002  0.1797976E+03  0.7546771E-02  0.1167999E+00
         21   -1    0    0  502  501  0.00000000000E+00  0.00000000000E+00  0.12260873111E+03  0.12260873111E+03  0.00000000000E+00 0.  1.
         21   -1    0    0  501  502 -0.00000000000E+00 -0.00000000000E+00 -0.26366118771E+03  0.26366118771E+03  0.00000000000E+00 0.  1.
         25    1    1    2    0    0 -0.10580242972E+03  0.73803381520E+02 -0.78920683369E+02  0.19620032498E+03  0.12500000000E+03 0.  0.
         25    1    1    2    0    0  0.10580242972E+03 -0.73803381520E+02 -0.62131773227E+02  0.19006959384E+03  0.12500000000E+03 0.  0.
</event>
<event>
 4    0  0.2196599E-002  0.1934918E+03  0.7546771E-02  0.1155349E+00
         21   -1    0    0  502  501  0.00000000000E+00  0.00000000000E+00  0.14952969720E+03  0.14952969720E+03  0.00000000000E+00 0. -1.
         21   -1    0    0  501  502 -0.00000000000E+00 -0.00000000000E+00 -0.25037880689E+03  0.25037880689E+03  0.00000000000E+00 0. -1.
         25    1    1    2    0    0 -0.64873600324E+02 -0.28099994572E+02  0.83582557700E+02  0.16616027704E+03  0.12500000000E+03 0.  0.
         25    1    1    2    0    0  0.64873600324E+02  0.28099994572E+02 -0.18443166739E+03  0.23374822706E+03  0.12500000000E+03 0.  0.
</event>
<event>
 4    0  0.2196599E-002  0.2171867E+03  0.7546771E-02  0.1135998E+00
         21   -1    0    0  502  501  0.00000000000E+00  0.00000000000E+00  0.83098205812E+03  0.83098205812E+03  0.00000000000E+00 0. -1.
         21   -1    0    0  501  502 -0.00000000000E+00 -0.00000000000E+00 -0.56764215886E+02  0.56764215886E+02  0.00000000000E+00 0. -1.
         25    1    1    2    0    0  0.13940366586E+03 -0.24587931553E+01  0.16224530716E+03  0.24776595290E+03  0.12500000000E+03 0.  0.
         25    1    1    2    0    0 -0.13940366586E+03  0.24587931553E+01  0.61197253508E+03  0.63998032111E+03  0.12500000000E+03 0.  0.
</event>
<event>
 4    0  0.2196599E-002  0.2341131E+03  0.7546771E-02  0.1123778E+00
         21   -1    0    0  502  501  0.00000000000E+00  0.00000000000E+00  0.31420885024E+03  0.31420885024E+03  0.00000000000E+00 0. -1.
         21   -1    0    0  501  502 -0.00000000000E+00 -0.00000000000E+00 -0.17443474133E+03  0.17443474133E+03  0.00000000000E+00 0. -1.
         25    1    1    2    0    0 -0.18482103133E+03  0.65992678798E+02  0.96901981897E+02  0.25204928362E+03  0.12500000000E+03 0.  0.
         25    1    1    2    0    0  0.18482103133E+03 -0.65992678798E+02  0.42872127015E+02  0.23659430795E+03  0.12500000000E+03 0.  0.
</event>
<event>
 4    0  0.2196599E-002  0.2927302E+03  0.7546771E-02  0.1088932E+00
         21   -1    0    0  502  501  0.00000000000E+00  0.00000000000E+00  0.47123796264E+03  0.47123796264E+03  0.00000000000E+00 0.  1.
         21   -1    0    0  501  502 -0.00000000000E+00 -0.00000000000E+00 -0.18184226771E+03  0.18184226771E+03  0.00000000000E+00 0.  1.
         25    1    1    2    0    0 -0.18488087040E+03  0.13042782174E+03 -0.85508067747E+01  0.25863191841E+03  0.12500000000E+03 0.  0.
         25    1    1    2    0    0  0.18488087040E+03 -0.13042782174E+03  0.29794650170E+03  0.39444831195E+03  0.12500000000E+03 0.  0.
</event>
<event>
 4    0  0.2196599E-002  0.3186129E+03  0.7546771E-02  0.1076289E+00
         21   -1    0    0  502  501  0.00000000000E+00  0.00000000000E+00  0.30532571115E+03  0.30532571115E+03  0.00000000000E+00 0.  1.
         21   -1    0    0  501  502 -0.00000000000E+00 -0.00000000000E+00 -0.33247839589E+03  0.33247839589E+03  0.00000000000E+00 0.  1.
         25    1    1    2    0    0  0.84575372518E+02 -0.22042441179E+03 -0.18736940640E+03  0.32630079590E+03  0.12500000000E+03 0.  0.
         25    1    1    2    0    0 -0.84575372518E+02  0.22042441179E+03  0.16021672165E+03  0.31150331114E+03  0.12500000000E+03 0.  0.
</event>
<event>
 4    0  0.2196599E-002  0.2391523E+03  0.7546771E-02  0.1120359E+00
         21   -1    0    0  502  501  0.00000000000E+00  0.00000000000E+00  0.13340534312E+03  0.13340534312E+03  0.00000000000E+00 0. -1.
         21   -1    0    0  501  502 -0.00000000000E+00 -0.00000000000E+00 -0.42872229424E+03  0.42872229424E+03  0.00000000000E+00 0. -1.
         25    1    1    2    0    0 -0.20175175912E+03  0.75600484855E+01 -0.18106366755E+03  0.29861342627E+03  0.12500000000E+03 0.  0.
         25    1    1    2    0    0  0.20175175912E+03 -0.75600484855E+01 -0.11425328357E+03  0.26351421109E+03  0.12500000000E+03 0.  0.
</event>
<event>
 4    0  0.2196599E-002  0.3166376E+03  0.7546771E-02  0.1077207E+00
         21   -1    0    0  502  501  0.00000000000E+00  0.00000000000E+00  0.52636308976E+03  0.52636308976E+03  0.00000000000E+00 0.  1.
         21   -1    0    0  501  502 -0.00000000000E+00 -0.00000000000E+00 -0.19047562821E+03  0.19047562821E+03  0.00000000000E+00 0. -1.
         25    1    1    2    0    0 -0.64615239557E+02 -0.28364001633E+03  0.17105447409E+03  0.35987695280E+03  0.12500000000E+03 0.  0.
         25    1    1    2    0    0  0.64615239557E+02  0.28364001633E+03  0.16483298745E+03  0.35696176518E+03  0.12500000000E+03 0.  0.
</event>
<event>
 4    0  0.2196599E-002  0.2981323E+03  0.7546771E-02  0.1086178E+00
         21   -1    0    0  502  501  0.00000000000E+00  0.00000000000E+00  0.25431459007E+02  0.25431459007E+02  0.00000000000E+00 0.  1.
         21   -1    0    0  501  502 -0.00000000000E+00 -0.00000000000E+00 -0.34949959009E+04  0.34949959009E+04  0.00000000000E+00 0.  1.
         25    1    1    2    0    0  0.20456960234E+03 -0.33878125397E+02 -0.70771021205E+03  0.74798074429E+03  0.12500000000E+03 0.  0.
         25    1    1    2    0    0 -0.20456960234E+03  0.33878125397E+02 -0.27618542298E+04  0.27724466156E+04  0.12500000000E+03 0.  0.
</event>
<event>
 4    0  0.2196599E-002  0.2544091E+03  0.7546771E-02  0.1110550E+00
         21   -1    0    0  502  501  0.00000000000E+00  0.00000000000E+00  0.16402015891E+03  0.16402015891E+03  0.00000000000E+00 0.  1.
         21   -1    0    0  501  502 -0.00000000000E+00 -0.00000000000E+00 -0.39460989711E+03  0.39460989711E+03  0.00000000000E+00 0.  1.
         25    1    1    2    0    0  0.19732866516E+03  0.40286679860E+02 -0.21673819585E+03  0.32118851818E+03  0.12500000000E+03 0.  0.
         25    1    1    2    0    0 -0.19732866516E+03 -0.40286679860E+02 -0.13851542353E+02  0.23744153784E+03  0.12500000000E+03 0.  0.
</event>
<event>
 4    0  0.2196599E-002  0.1618504E+03  0.7546771E-02  0.1186623E+00
         21   -1    0    0  502  501  0.00000000000E+00  0.00000000000E+00  0.72965449032E+03  0.72965449032E+03  0.00000000000E+00 0. -1.
         21   -1    0    0  501  502 -0.00000000000E+00 -0.00000000000E+00 -0.35901322430E+02  0.35901322430E+02  0.00000000000E+00 0. -1.
         25    1    1    2    0    0 -0.25701542236E+02  0.25444275975E+02  0.57449060518E+03  0.58904366213E+03  0.12500000000E+03 0.  0.
         25    1    1    2    0    0  0.25701542236E+02 -0.25444275975E+02  0.11926256271E+03  0.17651215062E+03  0.12500000000E+03 0.  0.
</event>
<event>
 4    0  0.2196599E-002  0.2455577E+03  0.7546771E-02  0.1116145E+00
         21   -1    0    0  502  501  0.00000000000E+00  0.00000000000E+00  0.10938959652E+03  0.10938959652E+03  0.00000000000E+00 0. -1.
         21   -1    0    0  501  502 -0.00000000000E+00 -0.00000000000E+00 -0.55122794532E+03  0.55122794532E+03  0.00000000000E+00 0. -1.
         25    1    1    2    0    0 -0.13865711460E+03 -0.83958223937E+02 -0.40337658694E+03  0.45234107672E+03  0.12500000000E+03 0.  0.
         25    1    1    2    0    0  0.13865711460E+03  0.83958223937E+02 -0.38461761864E+02  0.20827646512E+03  0.12500000000E+03 0.  0.
</event>
<event>
 4    0  0.2196599E-002  0.2828552E+03  0.7546771E-02  0.1094140E+00
         21   -1    0    0  502  501  0.00000000000E+00  0.00000000000E+00  0.39930761566E+03  0.39930761566E+03  0.00000000000E+00 0.  1.
         21   -1    0    0  501  502 -0.00000000000E+00 -0.00000000000E+00 -0.20036443643E+03  0.20036443643E+03  0.00000000000E+00 0.  1.
         25    1    1    2    0    0  0.20025515610E+03  0.91520040258E+02 -0.34210394072E+02  0.25548658747E+03  0.12500000000E+03 0.  0.
         25    1    1    2    0    0 -0.20025515610E+03 -0.91520040258E+02  0.23315357330E+03  0.34418546462E+03  0.12500000000E+03 0.  0.
</event>
<event>
 4    0  0.2196599E-002  0.3368886E+03  0.7546771E-02  0.1068129E+00
         21   -1    0    0  502  501  0.00000000000E+00  0.00000000000E+00  0.56586283906E+02  0.56586283906E+02  0.00000000000E+00 0. -1.
         21   -1    0    0  501  502 -0.00000000000E+00 -0.00000000000E+00 -0.20056791338E+04  0.20056791338E+04  0.00000000000E+00 0. -1.
         25    1    1    2    0    0  0.10305468048E+01 -0.25584456724E+03 -0.42351380851E+03  0.51033954443E+03  0.12500000000E+03 0.  0.
         25    1    1    2    0    0 -0.10305468048E+01  0.25584456724E+03 -0.15255790413E+04  0.15519258732E+04  0.12500000000E+03 0.  0.
</event>
<event>
 4    0  0.2196599E-002  0.3125385E+03  0.7546771E-02  0.1079135E+00
         21   -1    0    0  502  501  0.00000000000E+00  0.00000000000E+00  0.24680817833E+03  0.24680817833E+03  0.00000000000E+00 0. -1.
         21   -1    0    0  501  502 -0.00000000000E+00 -0.00000000000E+00 -0.39577420231E+03  0.39577420231E+03  0.00000000000E+00 0. -1.
         25    1    1    2    0    0  0.90946049988E+02 -0.20549532835E+03 -0.25709734967E+03  0.36362557829E+03  0.12500000000E+03 0.  0.
         25    1    1    2    0    0 -0.90946049988E+02  0.20549532835E+03  0.10813132568E+03  0.27895680235E+03  0.12500000000E+03 0.  0.
</event>
<event>
 4    0  0.2196599E-002  0.2525546E+03  0.7546771E-02  0.1111701E+00
         21   -1    0    0  502  501  0.00000000000E+00  0.00000000000E+00  0.74272341774E+02  0.74272341774E+02  0.00000000000E+00 0.  1.
         21   -1    0    0  501  502 -0.00000000000E+00 -0.00000000000E+00 -0.85878335006E+03  0.85878335006E+03  0.00000000000E+00 0.  1.
         25    1    1    2    0    0 -0.14370379838E+03  0.15981426150E+03 -0.47419180136E+03  0.53541968989E+03  0.12500000000E+03 0.  0.
         25    1    1    2    0    0  0.14370379838E+03 -0.15981426150E+03 -0.31031920692E+03  0.39763600194E+03  0.12500000000E+03 0.  0.
</event>
<event>
 4    0  0.2196599E-002  0.2310973E+03  0.7546771E-02  0.1125870E+00
         21   -1    0    0  502  501  0.00000000000E+00  0.00000000000E+00  0.14327369360E+03  0.14327369360E+03  0.00000000000E+00 0.  1.
         21   -1    0    0  501  502 -0.00000000000E+00 -0.00000000000E+00 -0.37275490997E+03  0.37275490997E+03  0.00000000000E+00 0.  1.
         25    1    1    2    0    0 -0.10631502228E+02 -0.17258985968E+03 -0.15627561001E+02  0.21393809658E+03  0.12500000000E+03 0.  0.
         25    1    1    2    0    0  0.10631502228E+02  0.17258985968E+03 -0.21385365537E+03  0.30209050700E+03  0.12500000000E+03 0.  0.
</event>
<event>
 4    0  0.2196599E-002  0.3719534E+03  0.7546771E-02  0.1053949E+00
         21   -1    0    0  502  501  0.00000000000E+00  0.00000000000E+00  0.24898853056E+03  0.24898853056E+03  0.00000000000E+00 0. -1.
         21   -1    0    0  501  502 -0.00000000000E+00 -0.00000000000E+00 -0.55564543486E+03  0.55564543486E+03  0.00000000000E+00 0. -1.
         25    1    1    2    0    0  0.24873746058E+03 -0.24346998831E+03 -0.11038367125E+03  0.38595014495E+03  0.12500000000E+03 0.  0.
         25    1    1    2    0    0 -0.24873746058E+03  0.24346998831E+03 -0.19627323305E+03  0.41868382046E+03  0.12500000000E+03 0.  0.
</event>
<event>
 4    0  0.2196599E-002  0.2700698E+03  0.7546771E-02  0.1101240E+00
         21   -1    0    0  502  501  0.00000000000E+00  0.00000000000E+00  0.15542689132E+03  0.15542689132E+03  0.00000000000E+00 0. -1.
         21   -1    0    0  501  502 -0.00000000000E+00 -0.00000000000E+00 -0.46927338470E+03  0.46927338470E+03  0.00000000000E+00 0. -1.
         25    1    1    2    0    0  0.22119611943E+03 -0.76021493441E+02 -0.97885615950E+02  0.28268990878E+03  0.12500000000E+03 0.  0.
         25    1    1    2    0    0 -0.22119611943E+03  0.76021493441E+02 -0.21596087743E+03  0.34201036724E+03  0.12500000000E+03 0.  0.
</event>
<event>
 4    0  0.2196599E-002  0.2183611E+03  0.7546771E-02  0.1135111E+00
         21   -1    0    0  502  501  0.00000000000E+00  0.00000000000E+00  0.40201310322E+02  0.40201310322E+02  0.00000000000E+00 0. -1.
         21   -1    0    0  501  502 -0.00000000000E+00 -0.00000000000E+00 -0.11860703065E+04  0.11860703065E+04  0.00000000000E+00 0. -1.
         25    1    1    2    0    0 -0.98585300896E+02 -0.12291418578E+03 -0.33418682359E+03  0.39004203835E+03  0.12500000000E+03 0.  0.
         25    1    1    2    0    0  0.98585300896E+02  0.12291418578E+03 -0.81168217263E+03  0.83622957851E+03  0.12500000000E+03 0.  0.
</event>
<event>
 4    0  0.2196599E-002  0.2276708E+03  0.7546771E-02  0.1128290E+00
         21   -1    0    0  502  501  0.00000000000E+00  0.00000000000E+00  0.16687600243E+03  0.16687600243E+03  0.00000000000E+00 0.  1.
         21   -1    0    0  501  502 -0.00000000000E+00 -0.00000000000E+00 -0.31061390877E+03  0.31061390877E+03  0.00000000000E+00 0.  1.
         25    1    1    2    0    0  0.25045421689E+02  0.74097843217E+02  0.11003698701E+03  0.18398614629E+03  0.12500000000E+03 0.  0.
         25    1    1    2    0    0 -0.25045421689E+02 -0.74097843217E+02 -0.25377489336E+03  0.29350376491E+03  0.12500000000E+03 0.  0.
</event>
<event>
 4    0  0.2196599E-002  0.1980950E+03  0.7546771E-02  0.1151356E+00
         21   -1    0    0  502  501  0.00000000000E+00  0.00000000000E+00  0.54248989083E+03  0.54248989083E+03  0.00000000000E+00 0.  1.
         21   -1    0    0  501  502 -0.00000000000E+00 -0.00000000000E+00 -0.72336159188E+02  0.72336159188E+02  0.00000000000E+00 0.  1.
         25    1    1    2    0    0  0.18647646861E+02 -0.24542475889E+02  0.46871385098E+03  0.48607380300E+03  0.12500000000E+03 0.  0.
         25    1    1    2    0    0 -0.18647646861E+02  0.24542475889E+02  0.14398806572E+01  0.12875224702E+03  0.12500000000E+03 0.  0.
</event>
<event>
 4    0  0.2196599E-002  0.2007815E+03  0.7546771E-02  0.1149081E+00
         21   -1    0    0  502  501  0.00000000000E+00  0.00000000000E+00  0.11930571685E+04  0.11930571685E+04  0.00000000000E+00 0. -1.
         21   -1    0    0  501  502 -0.00000000000E+00 -0.00000000000E+00 -0.33789838481E+02  0.33789838481E+02  0.00000000000E+00 0. -1.
         25    1    1    2    0    0 -0.27697181780E+02  0.10693789966E+03  0.23825429333E+03  0.29084868326E+03  0.12500000000E+03 0.  0.
         25    1    1    2    0    0  0.27697181780E+02 -0.10693789966E+03  0.92101303668E+03  0.93599832371E+03  0.12500000000E+03 0.  0.
</event>
<event>
 4    0  0.2196599E-002  0.1909311E+03  0.7546771E-02  0.1157624E+00
         21   -1    0    0  502  501  0.00000000000E+00  0.00000000000E+00  0.70694443406E+02  0.70694443406E+02  0.00000000000E+00 0.  1.
         21   -1    0    0  501  502 -0.00000000000E+00 -0.00000000000E+00 -0.51566556250E+03  0.51566556250E+03  0.00000000000E+00 0.  1.
         25    1    1    2    0    0  0.49780891357E+02 -0.11712186955E+03 -0.11795660332E+03  0.21385609587E+03  0.12500000000E+03 0.  0.
         25    1    1    2    0    0 -0.49780891357E+02  0.11712186955E+03 -0.32701451577E+03  0.37250391004E+03  0.12500000000E+03 0.  0.
</event>
<event>
 4    0  0.2196599E-002  0.1769450E+03  0.7546771E-02  0.1170793E+00
         21   -1    0    0  502  501  0.00000000000E+00  0.00000000000E+00  0.61297829263E+02  0.61297829263E+02  0.00000000000E+00 0. -1.
         21   -1    0    0  501  502 -0.00000000000E+00 -0.00000000000E+00 -0.51077706507E+03  0.51077706507E+03  0.00000000000E+00 0. -1.
         25    1    1    2    0    0 -0.75331985354E+02  0.17426380706E+02 -0.38399841117E+03  0.41116707862E+03  0.12500000000E+03 0.  0.
         25    1    1    2    0    0  0.75331985354E+02 -0.17426380706E+02 -0.65480824639E+02  0.16090781571E+03  0.12500000000E+03 0.  0.
</event>
<event>
 4    0  0.2196599E-002  0.1910878E+03  0.7546771E-02  0.1157484E+00
         21   -1    0    0  502  501  0.00000000000E+00  0.00000000000E+00  0.11866933227E+04  0.11866933227E+04  0.00000000000E+00 0.  1.
         21   -1    0    0  501  502 -0.00000000000E+00 -0.00000000000E+00 -0.30769984652E+02  0.30769984652E+02  0.00000000000E+00 0.  1.
         25    1    1    2    0    0 -0.72524049571E+02  0.11205446368E+03  0.75457207856E+03  0.77641481331E+03  0.12500000000E+03 0.  0.
         25    1    1    2    0    0  0.72524049571E+02 -0.11205446368E+03  0.40135125949E+03  0.44104849403E+03  0.12500000000E+03 0.  0.
</event>
<event>
 4    0  0.2196599E-002  0.2056262E+03  0.7546771E-02  0.1145077E+00
         21   -1    0    0  502  501  0.00000000000E+00  0.00000000000E+00  0.28694519561E+03  0.28694519561E+03  0.00000000000E+00 0.  1.
         21   -1    0    0  501  502 -0.00000000000E+00 -0.00000000000E+00 -0.14735259409E+03  0.14735259409E+03  0.00000000000E+00 0.  1.
         25    1    1    2    0    0  0.15178997509E+03  0.47759858561E+02  0.10839469188E+03  0.22955524358E+03  0.12500000000E+03 0.  0.
         25    1    1    2    0    0 -0.15178997509E+03 -0.47759858561E+02  0.31197909641E+02  0.20474254613E+03  0.12500000000E+03 0.  0.
</event>
<event>
 4    0  0.2196599E-002  0.3730495E+03  0.7546771E-02  0.1053533E+00
         21   -1    0    0  502  501  0.00000000000E+00  0.00000000000E+00  0.28895247099E+03  0.28895247099E+03  0.00000000000E+00 0.  1.
         21   -1    0    0  501  502 -0.00000000000E+00 -0.00000000000E+00 -0.48162212914E+03  0.48162212914E+03  0.00000000000E+00 0.  1.
         25    1    1    2    0    0 -0.15048069931E+03 -0.17605078838E+03 -0.36939910333E+03  0.45356258498E+03  0.12500000000E+03 0.  0.
         25    1    1    2    0    0  0.15048069931E+03  0.17605078838E+03  0.17672944518E+03  0.31701201514E+03  0.12500000000E+03 0.  0.
</event>
<event>
 4    0  0.2196599E-002  0.1648602E+03  0.7546771E-02  0.1183316E+00
         21   -1    0    0  502  501  0.00000000000E+00  0.00000000000E+00  0.23031825406E+03  0.23031825406E+03  0.00000000000E+00 0.  1.
         21   -1    0    0  501  502 -0.00000000000E+00 -0.00000000000E+00 -0.11800576870E+03  0.11800576870E+03  0.00000000000E+00 0.  1.
         25    1    1    2    0    0  0.40154649877E+02  0.49996188001E+02  0.14728986043E+03  0.20354684401E+03  0.12500000000E+03 0.  0.
         25    1    1    2    0    0 -0.40154649877E+02 -0.49996188001E+02 -0.34977375057E+02  0.14477717875E+03  0.12500000000E+03 0.  0.
</event>
<event>
 4    0  0.2196599E-002  0.2370148E+03  0.7546771E-02  0.1121798E+00
         21   -1    0    0  502  501  0.00000000000E+00  0.00000000000E+00  0.70048901497E+03  0.70048901497E+03  0.00000000000E+00 0.  1.
         21   -1    0    0  501  502 -0.00000000000E+00 -0.00000000000E+00 -0.80195434069E+02  0.80195434069E+02  0.00000000000E+00 0.  1.
         25    1    1    2    0    0  0.35898786685E+02 -0.36700548956E+02  0.63083107808E+03  0.64514223412E+03  0.12500000000E+03 0.  0.
         25    1    1    2    0    0 -0.35898786685E+02  0.36700548956E+02 -0.10537497173E+02  0.13554221492E+03  0.12500000000E+03 0.  0.
</event>
<event>
 4    0  0.2196599E-002  0.1738012E+03  0.7546771E-02  0.1173941E+00
         21   -1    0    0  502  501  0.00000000000E+00  0.00000000000E+00  0.18786528429E+02  0.18786528429E+02  0.00000000000E+00 0. -1.
         21   -1    0    0  501  502 -0.00000000000E+00 -0.00000000000E+00 -0.16078990545E+04  0.16078990545E+04  0.00000000000E+00 0. -1.
         25    1    1    2    0    0  0.11321637072E+03  0.99667910471E+01 -0.60362792078E+03  0.62682449718E+03  0.12500000000E+03 0.  0.
         25    1    1    2    0    0 -0.11321637072E+03 -0.99667910471E+01 -0.98548460527E+03  0.99986108573E+03  0.12500000000E+03 0.  0.
</event>
<event>
 4    0  0.2196599E-002  0.2567345E+03  0.7546771E-02  0.1109121E+00
         21   -1    0    0  502  501  0.00000000000E+00  0.00000000000E+00  0.89005029231E+02  0.89005029231E+02  0.00000000000E+00 0. -1.
         21   -1    0    0  501  502 -0.00000000000E+00 -0.00000000000E+00 -0.74054945672E+03  0.74054945672E+03  0.00000000000E+00 0. -1.
         25    1    1    2    0    0 -0.80809671826E+02 -0.13424531415E+03 -0.58495008534E+03  0.61833939691E+03  0.12500000000E+03 0.  0.
         25    1    1    2    0    0  0.80809671826E+02  0.13424531415E+03 -0.66594342144E+02  0.21121508904E+03  0.12500000000E+03 0.  0.
</event>
<event>
 4    0  0.2196599E-002  0.3952693E+03  0.7546771E-02  0.1045430E+00
         21   -1    0    0  502  501  0.00000000000E+00  0.00000000000E+00  0.11275364589E+03  0.11275364589E+03  0.00000000000E+00 0.  1.
         21   -1    0    0  501  502 -0.00000000000E+00 -0.00000000000E+00 -0.13856567637E+04  0.13856567637E+04  0.00000000000E+00 0.  1.
         25    1    1    2    0    0 -0.34665553561E+03 -0.13425777832E+03 -0.72964890179E+03  0.82837656370E+03  0.12500000000E+03 0.  0.
         25    1    1    2    0    0  0.34665553561E+03  0.13425777832E+03 -0.54325421604E+03  0.67003384590E+03  0.12500000000E+03 0.  0.
</event>
<event>
 4    0  0.2196599E-002  0.1949465E+03  0.7546771E-02  0.1154074E+00
         21   -1    0    0  502  501  0.00000000000E+00  0.00000000000E+00  0.41361745187E+02  0.41361745187E+02  0.00000000000E+00 0. -1.
         21   -1    0    0  501  502 -0.00000000000E+00 -0.00000000000E+00 -0.91882359396E+03  0.91882359396E+03  0.00000000000E+00 0. -1.
         25    1    1    2    0    0  0.93880474921E+02  0.51306671424E+02 -0.69623482122E+03  0.71541166079E+03  0.12500000000E+03 0.  0.
         25    1    1    2    0    0 -0.93880474921E+02 -0.51306671424E+02 -0.18122702755E+03  0.24477367836E+03  0.12500000000E+03 0.  0.
</event>
<event>
 4    0  0.2196599E-002  0.2568194E+03  0.7546771E-02  0.1109069E+00
         21   -1    0    0  502  501  0.00000000000E+00  0.00000000000E+00  0.40299536536E+03  0.40299536536E+03  0.00000000000E+00 0. -1.
         21   -1    0    0  501  502 -0.00000000000E+00 -0.00000000000E+00 -0.16366489146E+03  0.16366489146E+03  0.00000000000E+00 0. -1.
         25    1    1    2    0    0 -0.19306084019E+03  0.11212068075E+03  0.95302700827E+02  0.27304054617E+03  0.12500000000E+03 0.  0.
         25    1    1    2    0    0  0.19306084019E+03 -0.11212068075E+03  0.14402777307E+03  0.29361971065E+03  0.12500000000E+03 0.  0.
</event>
<event>
 4    0  0.2196599E-002  0.2301989E+03  0.7546771E-02  0.1126500E+00
         21   -1    0    0  502  501  0.00000000000E+00  0.00000000000E+00  0.37022367115E+03  0.37022367115E+03  0.00000000000E+00 0.  1.
         21   -1    0    0  501  502 -0.00000000000E+00 -0.00000000000E+00 -0.14313387563E+03  0.14313387563E+03  0.00000000000E+00 0.  1.
         25    1    1    2    0    0  0.20701289028E+02  0.15648337050E+03 -0.10874493554E+02  0.20164038093E+03  0.12500000000E+03 0.  0.
         25    1    1    2    0    0 -0.20701289028E+02 -0.15648337050E+03  0.23796428907E+03  0.31171716585E+03  0.12500000000E+03 0.  0.
</event>
<event>
 4    0  0.2196599E-002  0.1531145E+03  0.7546771E-02  0.1196697E+00
         21   -1    0    0  502  501  0.00000000000E+00  0.00000000000E+00  0.10487500624E+03  0.10487500624E+03  0.00000000000E+00 0.  1.
         21   -1    0    0  501  502 -0.00000000000E+00 -0.00000000000E+00 -0.22354291466E+03  0.22354291466E+03  0.00000000000E+00 0.  1.
         25    1    1    2    0    0 -0.36609098475E+02  0.42468318171E+02 -0.13266438396E+03  0.19070559224E+03  0.12500000000E+03 0.  0.
         25    1    1    2    0    0  0.36609098475E+02 -0.42468318171E+02  0.13996475540E+02  0.13771232867E+03  0.12500000000E+03 0.  0.
</event>
<event>
 4    0  0.2196599E-002  0.2100639E+03  0.7546771E-02  0.1141515E+00
         21   -1    0    0  502  501  0.00000000000E+00  0.00000000000E+00  0.28531249538E+03  0.28531249538E+03  0.00000000000E+00 0. -1.
         21   -1    0    0  501  502 -0.00000000000E+00 -0.00000000000E+00 -0.15466151380E+03  0.15466151380E+03  0.00000000000E+00 0. -1.
         25    1    1    2    0    0 -0.36533627280E+02 -0.16481681654E+03  0.63645495618E+02  0.21948812736E+03  0.12500000000E+03 0.  0.
         25    1    1    2    0    0  0.36533627280E+02  0.16481681654E+03  0.67005485966E+02  0.22048588183E+03  0.12500000000E+03 0.  0.
</event>
<event>
 4    0  0.2196599E-002  0.1690992E+03  0.7546771E-02  0.1178791E+00
         21   -1    0    0  502  501  0.00000000000E+00  0.00000000000E+00  0.51212199872E+03  0.51212199872E+03  0.00000000000E+00 0.  1.
         21   -1    0    0  501  502 -0.00000000000E+00 -0.00000000000E+00 -0.55835373561E+02  0.55835373561E+02  0.00000000000E+00 0.  1.
         25    1    1    2    0    0 -0.79516382210E+02 -0.47585699077E+02  0.11697171458E+03  0.19466544585E+03  0.12500000000E+03 0.  0.
         25    1    1    2    0    0  0.79516382210E+02  0.47585699077E+02  0.33931491059E+03  0.37329192644E+03  0.12500000000E+03 0.  0.
</event>
<event>
 4    0  0.2196599E-002  0.1954692E+03  0.7546771E-02  0.1153619E+00
         21   -1    0    0  502  501  0.00000000000E+00  0.00000000000E+00  0.62327965603E+03  0.62327965603E+03  0.00000000000E+00 0.  1.
         21   -1    0    0  501  502 -0.00000000000E+00 -0.00000000000E+00 -0.61301883696E+02  0.61301883696E+02  0.00000000000E+00 0.  1.
         25    1    1    2    0    0  0.13995568937E+02  0.10253321411E+03  0.90170392035E+02  0.18564653389E+03  0.12500000000E+03 0.  0.
         25    1    1    2    0    0 -0.13995568937E+02 -0.10253321411E+03  0.47180738030E+03  0.49893500584E+03  0.12500000000E+03 0.  0.
</event>
<event>
 4    0  0.2196599E-002  0.2729055E+03  0.7546771E-02  0.1099628E+00
         21   -1    0    0  502  501  0.00000000000E+00  0.00000000000E+00  0.29302660429E+03  0.29302660429E+03  0.00000000000E+00 0.  1.
         21   -1    0    0  501  502 -0.00000000000E+00 -0.00000000000E+00 -0.25416596754E+03  0.25416596754E+03  0.00000000000E+00 0.  1.
         25    1    1    2    0    0 -0.23734595379E+03  0.40707453447E+02 -0.10007114053E+02  0.27150569217E+03  0.12500000000E+03 0.  0.
         25    1    1    2    0    0  0.23734595379E+03 -0.40707453447E+02  0.48867750805E+02  0.27568687966E+03  0.12500000000E+03 0.  0.
</event>
<event>
 4    0  0.2196599E-002  0.2321726E+03  0.7546771E-02  0.1125120E+00
         21   -1    0    0  502  501  0.00000000000E+00  0.00000000000E+00  0.32566543704E+03  0.32566543704E+03  0.00000000000E+00 0. -1.
         21   -1    0    0  501  502 -0.00000000000E+00 -0.00000000000E+00 -0.16551992489E+03  0.16551992489E+03  0.00000000000E+00 0. -1.
         25    1    1    2    0    0  0.73358924723E+02  0.87356258701E+02 -0.88069448834E+02  0.19077178929E+03  0.12500000000E+03 0.  0.
         25    1    1    2    0    0 -0.73358924723E+02 -0.87356258701E+02  0.24821496099E+03  0.30041357264E+03  0.12500000000E+03 0.  0.
</event>
<event>
 4    0  0.2196599E-002  0.1912689E+03  0.7546771E-02  0.1157322E+00
         21   -1    0    0  502  501  0.00000000000E+00  0.00000000000E+00  0.22315212626E+04  0.22315212626E+04  0.00000000000E+00 0. -1.
         21   -1    0    0  501  502 -0.00000000000E+00 -0.00000000000E+00 -0.16394097263E+02  0.16394097263E+02  0.00000000000E+00 0. -1.
         25    1    1    2    0    0  0.31321837550E+02 -0.13105236371E+03  0.79645140285E+03  0.81738339636E+03  0.12500000000E+03 0.  0.
         25    1    1    2    0    0 -0.31321837550E+02  0.13105236371E+03  0.14186757625E+04  0.14305319635E+04  0.12500000000E+03 0.  0.
</event>
<event>
 4    0  0.2196599E-002  0.2204946E+03  0.7546771E-02  0.1133515E+00
         21   -1    0    0  502  501  0.00000000000E+00  0.00000000000E+00  0.27563715909E+02  0.27563715909E+02  0.00000000000E+00 0.  1.
         21   -1    0    0  501  502 -0.00000000000E+00 -0.00000000000E+00 -0.17638359832E+04  0.17638359832E+04  0.00000000000E+00 0.  1.
         25    1    1    2    0    0 -0.89977080692E+02 -0.15275670170E+03 -0.10287041729E+04  0.10513266668E+04  0.12500000000E+03 0.  0.
         25    1    1    2    0    0  0.89977080692E+02  0.15275670170E+03 -0.70756809439E+03  0.74007303231E+03  0.12500000000E+03 0.  0.
</event>
<event>
 4    0  0.2196599E-002  0.2694391E+03  0.7546771E-02  0.1101601E+00
         21   -1    0    0  502  501  0.00000000000E+00  0.00000000000E+00  0.11559178232E+04  0.11559178232E+04  0.00000000000E+00 0.  1.
         21   -1    0    0  501  502 -0.00000000000E+00 -0.00000000000E+00 -0.62805027069E+02  0.62805027069E+02  0.00000000000E+00 0.  1.
         25    1    1    2    0    0 -0.14721438216E+03  0.95422413663E+02  0.91259169698E+03  0.93767058008E+03  0.12500000000E+03 0.  0.
         25    1    1    2    0    0  0.14721438216E+03 -0.95422413663E+02  0.18052109916E+03  0.28105227020E+03  0.12500000000E+03 0.  0.
</event>
<event>
 4    0  0.2196599E-002  0.2309283E+03  0.7546771E-02  0.1125988E+00
         21   -1    0    0  502  501  0.00000000000E+00  0.00000000000E+00  0.43193527624E+02  0.43193527624E+02  0.00000000000E+00 0. -1.
         21   -1    0    0  501  502 -0.00000000000E+00 -0.00000000000E+00 -0.12346269083E+04  0.12346269083E+04  0.00000000000E+00 0. -1.
         25    1    1    2    0    0 -0.13316194281E+03 -0.28708464437E+02 -0.97854901611E+03  0.99586116295E+03  0.12500000000E+03 0.  0.
         25    1    1    2    0    0  0.13316194281E+03  0.28708464437E+02 -0.21288436459E+03  0.28195927300E+03  0.12500000000E+03 0.  0.
</event>
<event>
 4    0  0.2196599E-002  0.2097045E+03  0.7546771E-02  0.1141800E+00
         21   -1    0    0  502  501  0.00000000000E+00  0.00000000000E+00  0.52236463963E+02  0.52236463963E+02  0.00000000000E+00 0. -1.
         21   -1    0    0  501  502 -0.00000000000E+00 -0.00000000000E+00 -0.84186323100E+03  0.84186323100E+03  0.00000000000E+00 0. -1.
         25    1    1    2    0    0  0.12506137431E+03  0.32993192652E+02 -0.16499230649E+03  0.24408268949E+03  0.12500000000E+03 0.  0.
         25    1    1    2    0    0 -0.12506137431E+03 -0.32993192652E+02 -0.62463446054E+03  0.65001700547E+03  0.12500000000E+03 0.  0.
</event>
<event>
 4    0  0.2196599E-002  0.1617731E+03  0.7546771E-02  0.1186709E+00
         21   -1    0    0  502  501  0.00000000000E+00  0.00000000000E+00  0.56766845281E+03  0.56766845281E+03  0.00000000000E+00 0. -1.
         21   -1    0    0  501  502 -0.00000000000E+00 -0.00000000000E+00 -0.46101823525E+02  0.46101823525E+02  0.00000000000E+00 0. -1.
         25    1    1    2    0    0  0.62828164464E+02 -0.48050965100E+02  0.38502332786E+03  0.41246119392E+03  0.12500000000E+03 0.  0.
         25    1    1    2    0    0 -0.62828164464E+02  0.48050965100E+02  0.13654330142E+03  0.20130908241E+03  0.12500000000E+03 0.  0.
</event>
<event>
 4    0  0.2196599E-002  0.1439568E+03  0.7546771E-02  0.1208102E+00
         21   -1    0    0  502  501  0.00000000000E+00  0.00000000000E+00  0.56434921908E+03  0.56434921908E+03  0.00000000000E+00 0. -1.
         21   -1    0    0  501  502 -0.00000000000E+00 -0.00000000000E+00 -0.36721174360E+02  0.36721174360E+02  0.00000000000E+00 0. -1.
         25    1    1    2    0    0 -0.64793576120E+02  0.34702085861E+01  0.32603644150E+03  0.35515491133E+03  0.12500000000E+03 0.  0.
         25    1    1    2    0    0  0.64793576120E+02 -0.34702085861E+01  0.20159160322E+03  0.24591548212E+03  0.12500000000E+03 0.  0.
</event>
<event>
 4    0  0.2196599E-002  0.2316873E+03  0.7546771E-02  0.1125458E+00
         21   -1    0    0  502  501  0.00000000000E+00  0.00000000000E+00  0.34824360444E+03  0.34824360444E+03  0.00000000000E+00 0. -1.
         21   -1    0    0  501  502 -0.00000000000E+00 -0.00000000000E+00 -0.15414215315E+03  0.15414215315E+03  0.00000000000E+00 0. -1.
         25    1    1    2    0    0 -0.10320491304E+02  0.18571623523E+03  0.33304588027E+02  0.22656396040E+03  0.12500000000E+03 0.  0.
         25    1    1    2    0    0  0.10320491304E+02 -0.18571623523E+03  0.16079686326E+03  0.27582179719E+03  0.12500000000E+03 0.  0.
</event>
<event>
 4    0  0.2196599E-002  0.1894156E+03  0.7546771E-02  0.1158989E+00
         21   -1    0    0  502  501  0.00000000000E+00  0.00000000000E+00  0.12911902607E+03  0.12911902607E+03  0.00000000000E+00 0.  1.
         21   -1    0    0  501  502 -0.00000000000E+00 -0.00000000000E+00 -0.27786980887E+03  0.27786980887E+03  0.00000000000E+00 0.  1.
         25    1    1    2    0    0 -0.97729484724E+02  0.32801963715E+02  0.31030636623E+02  0.16496945601E+03  0.12500000000E+03 0.  0.
         25    1    1    2    0    0  0.97729484724E+02 -0.32801963715E+02 -0.17978141942E+03  0.24201937893E+03  0.12500000000E+03 0.  0.
</event>
<event>
 4    0  0.2196599E-002  0.1861993E+03  0.7546771E-02  0.1161935E+00
         21   -1    0    0  502  501  0.00000000000E+00  0.00000000000E+00  0.26254151181E+03  0.26254151181E+03  0.00000000000E+00 0. -1.
         21   -1    0    0  501  502 -0.00000000000E+00 -0.00000000000E+00 -0.13205593956E+03  0.13205593956E+03  0.00000000000E+00 0. -1.
         25    1    1    2    0    0  0.61818917234E+01 -0.10028194880E+03  0.16548935257E+03  0.23044828239E+03  0.12500000000E+03 0.  0.
         25    1    1    2    0    0 -0.61818917234E+01  0.10028194880E+03 -0.35003780331E+02  0.16414916898E+03  0.12500000000E+03 0.  0.
</event>
<event>
 4    0  0.2196599E-002  0.3430941E+03  0.7546771E-02  0.1065486E+00
         21   -1    0    0  502  501  0.00000000000E+00  0.00000000000E+00  0.43670081878E+03  0.43670081878E+03  0.00000000000E+00 0. -1.
         21   -1    0    0  501  502 -0.00000000000E+00 -0.00000000000E+00 -0.26955199874E+03  0.26955199874E+03  0.00000000000E+00 0. -1.
         25    1    1    2    0    0  0.21189463625E+03 -0.23871356741E+03  0.98313567380E+02  0.35661472441E+03  0.12500000000E+03 0.  0.
         25    1    1    2    0    0 -0.21189463625E+03  0.23871356741E+03  0.68835252664E+02  0.34963809310E+03  0.12500000000E+03 0.  0.
</event>
<event>
 4    0  0.2196599E-002  0.1998825E+03  0.7546771E-02  0.1149838E+00
         21   -1    0    0  502  501  0.00000000000E+00  0.00000000000E+00  0.10552811862E+04  0.10552811862E+04  0.00000000000E+00 0. -1.
         21   -1    0    0  501  502 -0.00000000000E+00 -0.00000000000E+00 -0.37860068687E+02  0.37860068687E+02  0.00000000000E+00 0. -1.
         25    1    1    2    0    0  0.15476409965E+03  0.13107432663E+02  0.54779390230E+03  0.58294673061E+03  0.12500000000E+03 0.  0.
         25    1    1    2    0    0 -0.15476409965E+03 -0.13107432663E+02  0.46962721520E+03  0.51019452426E+03  0.12500000000E+03 0.  0.
</event>
<event>
 4    0  0.2196599E-002  0.1917800E+03  0.7546771E-02  0.1156866E+00
         21   -1    0    0  502  501  0.00000000000E+00  0.00000000000E+00  0.49692455022E+02  0.49692455022E+02  0.00000000000E+00 0. -1.
         21   -1    0    0  501  502 -0.00000000000E+00 -0.00000000000E+00 -0.74014383080E+03  0.74014383080E+03  0.00000000000E+00 0. -1.
         25    1    1    2    0    0 -0.12287325731E+03 -0.64243644552E+02 -0.25477246870E+03  0.31584663056E+03  0.12500000000E+03 0.  0.
         25    1    1    2    0    0  0.12287325731E+03  0.64243644552E+02 -0.43567890707E+03  0.47398965526E+03  0.12500000000E+03 0.  0.
</event>
<event>
 4    0  0.2196599E-002  0.3454034E+03  0.7546771E-02  0.1064518E+00
         21   -1    0    0  502  501  0.00000000000E+00  0.00000000000E+00  0.10208629378E+03  0.10208629378E+03  0.00000000000E+00 0. -1.
         21   -1    0    0  501  502 -0.00000000000E+00 -0.00000000000E+00 -0.11686535634E+04  0.11686535634E+04  0.00000000000E+00 0. -1.
         25    1    1    2    0    0 -0.25662497571E+03 -0.11565706569E+03 -0.24567615191E+03  0.39397297702E+03  0.12500000000E+03 0.  0.
         25    1    1    2    0    0  0.25662497571E+03  0.11565706569E+03 -0.82089111768E+03  0.87676688012E+03  0.12500000000E+03 0.  0.
</event>
<event>
 4    0  0.2196599E-002  0.1828840E+03  0.7546771E-02  0.1165041E+00
         21   -1    0    0  502  501  0.00000000000E+00  0.00000000000E+00  0.29149363793E+04  0.29149363793E+04  0.00000000000E+00 0.  1.
         21   -1    0    0  501  502 -0.00000000000E+00 -0.00000000000E+00 -0.11474198884E+02  0.11474198884E+02  0.00000000000E+00 0.  1.
         25    1    1    2    0    0  0.13854847736E+02 -0.97282337432E+02  0.72874894997E+03  0.74589264782E+03  0.12500000000E+03 0.  0.
         25    1    1    2    0    0 -0.13854847736E+02  0.97282337432E+02  0.21747132305E+04  0.21805179304E+04  0.12500000000E+03 0.  0.
</event>
<event>
 4    0  0.2196599E-002  0.4979178E+03  0.7546771E-02  0.1014324E+00
         21   -1    0    0  502  501  0.00000000000E+00  0.00000000000E+00  0.98888744358E+03  0.98888744358E+03  0.00000000000E+00 0.  1.
         21   -1    0    0  501  502 -0.00000000000E+00 -0.00000000000E+00 -0.25070813870E+03  0.25070813870E+03  0.00000000000E+00 0. -1.
         25    1    1    2    0    0 -0.41294214233E+03  0.14116313234E+03  0.62373417295E+03  0.77143863097E+03  0.12500000000E+03 0.  0.
         25    1    1    2    0    0  0.41294214233E+03 -0.14116313234E+03  0.11444513193E+03  0.46815695132E+03  0.12500000000E+03 0.  0.
</event>
<event>
 4    0  0.2196599E-002  0.2292778E+03  0.7546771E-02  0.1127149E+00
         21   -1    0    0  502  501  0.00000000000E+00  0.00000000000E+00  0.13801526610E+03  0.13801526610E+03  0.00000000000E+00 0. -1.
         21   -1    0    0  501  502 -0.00000000000E+00 -0.00000000000E+00 -0.38088774617E+03  0.38088774617E+03  0.00000000000E+00 0. -1.
         25    1    1    2    0    0 -0.25451977463E+02  0.51831615805E+02 -0.32889030733E+03  0.35655035242E+03  0.12500000000E+03 0.  0.
         25    1    1    2    0    0  0.25451977463E+02 -0.51831615805E+02  0.86017827257E+02  0.16235265985E+03  0.12500000000E+03 0.  0.
</event>
<event>
 4    0  0.2196599E-002  0.1771242E+03  0.7546771E-02  0.1170616E+00
         21   -1    0    0  502  501  0.00000000000E+00  0.00000000000E+00  0.24304681564E+03  0.24304681564E+03  0.00000000000E+00 0.  1.
         21   -1    0    0  501  502 -0.00000000000E+00 -0.00000000000E+00 -0.12908208572E+03  0.12908208572E+03  0.00000000000E+00 0.  1.
         25    1    1    2    0    0  0.88643011997E+02 -0.60597216866E+02 -0.11244982401E+02  0.16516977901E+03  0.12500000000E+03 0.  0.
         25    1    1    2    0    0 -0.88643011997E+02  0.60597216866E+02  0.12520971232E+03  0.20695912236E+03  0.12500000000E+03 0.  0.
</event>
<event>
 4    0  0.2196599E-002  0.2317039E+03  0.7546771E-02  0.1125446E+00
         21   -1    0    0  502  501  0.00000000000E+00  0.00000000000E+00  0.89951368015E+03  0.89951368015E+03  0.00000000000E+00 0.  1.
         21   -1    0    0  501  502 -0.00000000000E+00 -0.00000000000E+00 -0.59684137988E+02  0.59684137988E+02  0.00000000000E+00 0.  1.
         25    1    1    2    0    0 -0.19198307871E+03 -0.28555055202E+02  0.37910062503E+03  0.44386391787E+03  0.12500000000E+03 0.  0.
         25    1    1    2    0    0  0.19198307871E+03  0.28555055202E+02  0.46072891713E+03  0.51533390027E+03  0.12500000000E+03 0.  0.
</event>
<event>
 4    0  0.2196599E-002  0.1905561E+03  0.7546771E-02  0.1157961E+00
         21   -1    0    0  502  501  0.00000000000E+00  0.00000000000E+00  0.11945500621E+03  0.11945500621E+03  0.00000000000E+00 0.  1.
         21   -1    0    0  501  502 -0.00000000000E+00 -0.00000000000E+00 -0.30397754154E+03  0.30397754154E+03  0.00000000000E+00 0.  1.
         25    1    1    2    0    0  0.95447148695E+02  0.65379270205E+02  0.26795963127E+01  0.17034314604E+03  0.12500000000E+03 0.  0.
         25    1    1    2    0    0 -0.95447148695E+02 -0.65379270205E+02 -0.18720213165E+03  0.25308940171E+03  0.12500000000E+03 0.  0.
</event>
<event>
 4    0  0.2196599E-002  0.2709024E+03  0.7546771E-02  0.1100764E+00
         21   -1    0    0  502  501  0.00000000000E+00  0.00000000000E+00  0.32130140596E+03  0.32130140596E+03  0.00000000000E+00 0. -1.
         21   -1    0    0  501  502 -0.00000000000E+00 -0.00000000000E+00 -0.22840900445E+03  0.22840900445E+03  0.00000000000E+00 0. -1.
         25    1    1    2    0    0 -0.17650536926E+03  0.14582078503E+03  0.12062444995E+03  0.28739016102E+03  0.12500000000E+03 0.  0.
         25    1    1    2    0    0  0.17650536926E+03 -0.14582078503E+03 -0.27732048442E+02  0.26232024938E+03  0.12500000000E+03 0.  0.
</event>
<event>
 4    0  0.2196599E-002  0.1858633E+03  0.7546771E-02  0.1162246E+00
         21   -1    0    0  502  501  0.00000000000E+00  0.00000000000E+00  0.14002153437E+04  0.14002153437E+04  0.00000000000E+00 0.  1.
         21   -1    0    0  501  502 -0.00000000000E+00 -0.00000000000E+00 -0.24671328715E+02  0.24671328715E+02  0.00000000000E+00 0.  1.
         25    1    1    2    0    0 -0.89053792717E+02  0.10470930762E+03  0.70714971381E+03  0.73115000844E+03  0.12500000000E+03 0.  0.
         25    1    1    2    0    0  0.89053792717E+02 -0.10470930762E+03  0.66839430113E+03  0.69373666393E+03  0.12500000000E+03 0.  0.
</event>
<event>
 4    0  0.2196599E-002  0.3808257E+03  0.7546771E-02  0.1050629E+00
         21   -1    0    0  502  501  0.00000000000E+00  0.00000000000E+00  0.30095073644E+03  0.30095073644E+03  0.00000000000E+00 0.  1.
         21   -1    0    0  501  502 -0.00000000000E+00 -0.00000000000E+00 -0.48190030435E+03  0.48190030435E+03  0.00000000000E+00 0.  1.
         25    1    1    2    0    0  0.35859658941E+03 -0.23598424722E+01 -0.11965817781E+03  0.39817102143E+03  0.12500000000E+03 0.  0.
         25    1    1    2    0    0 -0.35859658941E+03  0.23598424722E+01 -0.61291390098E+02  0.38468001936E+03  0.12500000000E+03 0.  0.
</event>
<event>
 4    0  0.2196599E-002  0.2109844E+03  0.7546771E-02  0.1140789E+00
         21   -1    0    0  502  501  0.00000000000E+00  0.00000000000E+00  0.72069320936E+03  0.72069320936E+03  0.00000000000E+00 0. -1.
         21   -1    0    0  501  502 -0.00000000000E+00 -0.00000000000E+00 -0.61766101394E+02  0.61766101394E+02  0.00000000000E+00 0. -1.
         25    1    1    2    0    0  0.15519910718E+03 -0.68493393034E+02  0.34902644810E+03  0.40770402160E+03  0.12500000000E+03 0.  0.
         25    1    1    2    0    0 -0.15519910718E+03  0.68493393034E+02  0.30990065987E+03  0.37475528916E+03  0.12500000000E+03 0.  0.
</event>
<event>
 4    0  0.2196599E-002  0.1772033E+03  0.7546771E-02  0.1170538E+00
         21   -1    0    0  502  501  0.00000000000E+00  0.00000000000E+00  0.24705538933E+03  0.24705538933E+03  0.00000000000E+00 0.  1.
         21   -1    0    0  501  502 -0.00000000000E+00 -0.00000000000E+00 -0.12710104400E+03  0.12710104400E+03  0.00000000000E+00 0.  1.
         25    1    1    2    0    0 -0.50639644499E+02 -0.11346335631E+03  0.40576745332E+02  0.18085845040E+03  0.12500000000E+03 0.  0.
         25    1    1    2    0    0  0.50639644499E+02  0.11346335631E+03  0.79377600001E+02  0.19329798293E+03  0.12500000000E+03 0.  0.
</event>
<event>
 4    0  0.2196599E-002  0.1459406E+03  0.7546771E-02  0.1205552E+00
         21   -1    0    0  502  501  0.00000000000E+00  0.00000000000E+00  0.31077565738E+03  0.31077565738E+03  0.00000000000E+00 0. -1.
         21   -1    0    0  501  502 -0.00000000000E+00 -0.00000000000E+00 -0.68533907014E+02  0.68533907014E+02  0.00000000000E+00 0. -1.
         25    1    1    2    0    0 -0.33292879843E+02 -0.67534378474E+02  0.12383496653E+03  0.19138810585E+03  0.12500000000E+03 0.  0.
         25    1    1    2    0    0  0.33292879843E+02  0.67534378474E+02  0.11840678384E+03  0.18792145855E+03  0.12500000000E+03 0.  0.
</event>
<event>
 4    0  0.2196599E-002  0.1479328E+03  0.7546771E-02  0.1203036E+00
         21   -1    0    0  502  501  0.00000000000E+00  0.00000000000E+00  0.10560845078E+03  0.10560845078E+03  0.00000000000E+00 0. -1.
         21   -1    0    0  501  502 -0.00000000000E+00 -0.00000000000E+00 -0.20721944274E+03  0.20721944274E+03  0.00000000000E+00 0. -1.
         25    1    1    2    0    0  0.70454015890E+02  0.35394734559E+02 -0.43906971229E+02  0.15417320686E+03  0.12500000000E+03 0.  0.
         25    1    1    2    0    0 -0.70454015890E+02 -0.35394734559E+02 -0.57704020734E+02  0.15865468666E+03  0.12500000000E+03 0.  0.
</event>
<event>
 4    0  0.2196599E-002  0.1624228E+03  0.7546771E-02  0.1185988E+00
         21   -1    0    0  502  501  0.00000000000E+00  0.00000000000E+00  0.23374803142E+02  0.23374803142E+02  0.00000000000E+00 0. -1.
         21   -1    0    0  501  502 -0.00000000000E+00 -0.00000000000E+00 -0.11286152271E+04  0.11286152271E+04  0.00000000000E+00 0. -1.
         25    1    1    2    0    0 -0.40997715674E+02  0.61158703511E+02 -0.81164261986E+03  0.82450587753E+03  0.12500000000E+03 0.  0.
         25    1    1    2    0    0  0.40997715674E+02 -0.61158703511E+02 -0.29359780407E+03  0.32748415268E+03  0.12500000000E+03 0.  0.
</event>
<event>
 4    0  0.2196599E-002  0.2666239E+03  0.7546771E-02  0.1103228E+00
         21   -1    0    0  502  501  0.00000000000E+00  0.00000000000E+00  0.18588785912E+03  0.18588785912E+03  0.00000000000E+00 0. -1.
         21   -1    0    0  501  502 -0.00000000000E+00 -0.00000000000E+00 -0.38242567114E+03  0.38242567114E+03  0.00000000000E+00 0. -1.
         25    1    1    2    0    0 -0.19479786546E+03  0.13164147853E+03 -0.11286638058E+03  0.28920495695E+03  0.12500000000E+03 0.  0.
         25    1    1    2    0    0  0.19479786546E+03 -0.13164147853E+03 -0.83671431434E+02  0.27910857331E+03  0.12500000000E+03 0.  0.
</event>
<event>
 4    0  0.2196599E-002  0.2053789E+03  0.7546771E-02  0.1145279E+00
         21   -1    0    0  502  501  0.00000000000E+00  0.00000000000E+00  0.11034877644E+04  0.11034877644E+04  0.00000000000E+00 0. -1.
         21   -1    0    0  501  502 -0.00000000000E+00 -0.00000000000E+00 -0.38224686589E+02  0.38224686589E+02  0.00000000000E+00 0. -1.
         25    1    1    2    0    0 -0.10136112511E+03 -0.96071336863E+02  0.76604062520E+03  0.78863617652E+03  0.12500000000E+03 0.  0.
         25    1    1    2    0    0  0.10136112511E+03  0.96071336863E+02  0.29922245261E+03  0.35307627448E+03  0.12500000000E+03 0.  0.
</event>
<event>
 4    0  0.2196599E-002  0.2612870E+03  0.7546771E-02  0.1106372E+00
         21   -1    0    0  502  501  0.00000000000E+00  0.00000000000E+00  0.50623485090E+03  0.50623485090E+03  0.00000000000E+00 0.  1.
         21   -1    0    0  501  502 -0.00000000000E+00 -0.00000000000E+00 -0.13486015709E+03  0.13486015709E+03  0.00000000000E+00 0.  1.
         25    1    1    2    0    0  0.11442535495E+03 -0.19453536563E+03  0.23639957500E+03  0.34992417664E+03  0.12500000000E+03 0.  0.
         25    1    1    2    0    0 -0.11442535495E+03  0.19453536563E+03  0.13497511880E+03  0.29117083135E+03  0.12500000000E+03 0.  0.
</event>
<event>
 4    0  0.2196599E-002  0.2846225E+03  0.7546771E-02  0.1093191E+00
         21   -1    0    0  502  501  0.00000000000E+00  0.00000000000E+00  0.21840442962E+03  0.21840442962E+03  0.00000000000E+00 0.  1.
         21   -1    0    0  501  502 -0.00000000000E+00 -0.00000000000E+00 -0.37091712265E+03  0.37091712265E+03  0.00000000000E+00 0.  1.
         25    1    1    2    0    0  0.24936096390E+03 -0.24133760380E+02 -0.12926387214E+03  0.30837878874E+03  0.12500000000E+03 0.  0.
         25    1    1    2    0    0 -0.24936096390E+03  0.24133760380E+02 -0.23248820894E+02  0.28094276353E+03  0.12500000000E+03 0.  0.
</event>
<event>
 4    0  0.2196599E-002  0.1938366E+03  0.7546771E-02  0.1155046E+00
         21   -1    0    0  502  501  0.00000000000E+00  0.00000000000E+00  0.68023417208E+02  0.68023417208E+02  0.00000000000E+00 0. -1.
         21   -1    0    0  501  502 -0.00000000000E+00 -0.00000000000E+00 -0.55234846744E+03  0.55234846744E+03  0.00000000000E+00 0. -1.
         25    1    1    2    0    0  0.24883458885E+02  0.14521516299E+03 -0.26700500654E+03  0.32958049640E+03  0.12500000000E+03 0.  0.
         25    1    1    2    0    0 -0.24883458885E+02 -0.14521516299E+03 -0.21732004370E+03  0.29079138825E+03  0.12500000000E+03 0.  0.
</event>
<event>
 4    0  0.2196599E-002  0.2035263E+03  0.7546771E-02  0.1146798E+00
         21   -1    0    0  502  501  0.00000000000E+00  0.00000000000E+00  0.29210417153E+03  0.29210417153E+03  0.00000000000E+00 0. -1.
         21   -1    0    0  501  502 -0.00000000000E+00 -0.00000000000E+00 -0.14180877682E+03  0.14180877682E+03  0.00000000000E+00 0. -1.
         25    1    1    2    0    0  0.84334101829E+02  0.13573314788E+03  0.92409033306E+02  0.22293532157E+03  0.12500000000E+03 0.  0.
         25    1    1    2    0    0 -0.84334101829E+02 -0.13573314788E+03  0.57886361413E+02  0.21097762678E+03  0.12500000000E+03 0.  0.
</event>
<event>
 4    0  0.2196599E-002  0.1725079E+03  0.7546771E-02  0.1175257E+00
         21   -1    0    0  502  501  0.00000000000E+00  0.00000000000E+00  0.72205038453E+02  0.72205038453E+02  0.00000000000E+00 0.  1.
         21   -1    0    0  501  502 -0.00000000000E+00 -0.00000000000E+00 -0.41214562670E+03  0.41214562670E+03  0.00000000000E+00 0.  1.
         25    1    1    2    0    0 -0.10619076136E+03 -0.53342759591E+02 -0.17484612854E+03  0.24559742764E+03  0.12500000000E+03 0.  0.
         25    1    1    2    0    0  0.10619076136E+03  0.53342759591E+02 -0.16509445971E+03  0.23875323752E+03  0.12500000000E+03 0.  0.
</event>
<event>
 4    0  0.2196599E-002  0.1925941E+03  0.7546771E-02  0.1156142E+00
         21   -1    0    0  502  501  0.00000000000E+00  0.00000000000E+00  0.17002786514E+03  0.17002786514E+03  0.00000000000E+00 0. -1.
         21   -1    0    0  501  502 -0.00000000000E+00 -0.00000000000E+00 -0.21815542954E+03  0.21815542954E+03  0.00000000000E+00 0. -1.
         25    1    1    2    0    0  0.12434364248E+03 -0.50636288549E+02 -0.83189607401E+02  0.20142215847E+03  0.12500000000E+03 0.  0.
         25    1    1    2    0    0 -0.12434364248E+03  0.50636288549E+02  0.35062043002E+02  0.18676113622E+03  0.12500000000E+03 0.  0.
</event>
<event>
 4    0  0.2196599E-002  0.2464517E+03  0.7546771E-02  0.1115568E+00
         21   -1    0    0  502  501  0.00000000000E+00  0.00000000000E+00  0.11979161056E+03  0.11979161056E+03  0.00000000000E+00 0. -1.
         21   -1    0    0  501  502 -0.00000000000E+00 -0.00000000000E+00 -0.50703433128E+03  0.50703433128E+03  0.00000000000E+00 0. -1.
         25    1    1    2    0    0  0.22044805305E+02 -0.85473063783E+02 -0.43929955425E+03  0.46518890404E+03  0.12500000000E+03 0.  0.
         25    1    1    2    0    0 -0.22044805305E+02  0.85473063783E+02  0.52056833528E+02  0.16163703780E+03  0.12500000000E+03 0.  0.
</event>
<event>
 4    0  0.2196599E-002  0.2055224E+03  0.7546771E-02  0.1145162E+00
         21   -1    0    0  502  501  0.00000000000E+00  0.00000000000E+00  0.10708052597E+03  0.10708052597E+03  0.00000000000E+00 0.  1.
         21   -1    0    0  501  502 -0.00000000000E+00 -0.00000000000E+00 -0.39446456679E+03  0.39446456679E+03  0.00000000000E+00 0.  1.
         25    1    1    2    0    0 -0.99645739951E+01 -0.33279670481E+02  0.50800516592E+02  0.13932882576E+03  0.12500000000E+03 0.  0.
         25    1    1    2    0    0  0.99645739951E+01  0.33279670481E+02 -0.33818455742E+03  0.36221626700E+03  0.12500000000E+03 0.  0.
</event>
<event>
 4    0  0.2196599E-002  0.2220258E+03  0.7546771E-02  0.1132382E+00
         21   -1    0    0  502  501  0.00000000000E+00  0.00000000000E+00  0.14273308478E+04  0.14273308478E+04  0.00000000000E+00 0.  1.
         21   -1    0    0  501  502 -0.00000000000E+00 -0.00000000000E+00 -0.34536822817E+02  0.34536822817E+02  0.00000000000E+00 0.  1.
         25    1    1    2    0    0 -0.32550171571E+02  0.12500403005E+02  0.12894770967E+04  0.12959907240E+04  0.12500000000E+03 0.  0.
         25    1    1    2    0    0  0.32550171571E+02 -0.12500403005E+02  0.10331692821E+03  0.16587694656E+03  0.12500000000E+03 0.  0.
</event>
<event>
 4    0  0.2196599E-002  0.2716198E+03  0.7546771E-02  0.1100356E+00
         21   -1    0    0  502  501  0.00000000000E+00  0.00000000000E+00  0.40365782733E+02  0.40365782733E+02  0.00000000000E+00 0.  1.
         21   -1    0    0  501  502 -0.00000000000E+00 -0.00000000000E+00 -0.18277192061E+04  0.18277192061E+04  0.00000000000E+00 0.  1.
         25    1    1    2    0    0 -0.73281275593E+02 -0.19299774531E+03 -0.13222720431E+04  0.13441155572E+04  0.12500000000E+03 0.  0.
         25    1    1    2    0    0  0.73281275593E+02  0.19299774531E+03 -0.46508138021E+03  0.52396943161E+03  0.12500000000E+03 0.  0.
</event>
<event>
 4    0  0.2196599E-002  0.2295678E+03  0.7546771E-02  0.1126944E+00
         21   -1    0    0  502  501  0.00000000000E+00  0.00000000000E+00  0.35751704668E+02  0.35751704668E+02  0.00000000000E+00 0.  1.
         21   -1    0    0  501  502 -0.00000000000E+00 -0.00000000000E+00 -0.14740936630E+04  0.14740936630E+04  0.00000000000E+00 0.  1.
         25    1    1    2    0    0 -0.17983588241E+03  0.43183707731E+02 -0.54298282961E+03  0.58707847045E+03  0.12500000000E+03 0.  0.
         25    1    1    2    0    0  0.17983588241E+03 -0.43183707731E+02 -0.89535912868E+03  0.92276689718E+03  0.12500000000E+03 0.  0.
</event>
<event>
 4    0  0.2196599E-002  0.2128641E+03  0.7546771E-02  0.1139318E+00
         21   -1    0    0  502  501  0.00000000000E+00  0.00000000000E+00  0.21636484525E+03  0.21636484525E+03  0.00000000000E+00 0. -1.
         21   -1    0    0  501  502 -0.00000000000E+00 -0.00000000000E+00 -0.20942005544E+03  0.20942005544E+03  0.00000000000E+00 0. -1.
         25    1    1    2    0    0 -0.71920793874E+02  0.15642834509E+03  0.10084639456E+02  0.21300029975E+03  0.12500000000E+03 0.  0.
         25    1    1    2    0    0  0.71920793874E+02 -0.15642834509E+03 -0.31398496449E+01  0.21278460094E+03  0.12500000000E+03 0.  0.
</event>
<event>
 4    0  0.2196599E-002  0.1675367E+03  0.7546771E-02  0.1180441E+00
         21   -1    0    0  502  501  0.00000000000E+00  0.00000000000E+00  0.15148680264E+04  0.15148680264E+04  0.00000000000E+00 0.  1.
         21   -1    0    0  501  502 -0.00000000000E+00 -0.00000000000E+00 -0.18528708257E+02  0.18528708257E+02  0.00000000000E+00 0.  1.
         25    1    1    2    0    0  0.53296161322E+02  0.42007038880E+02  0.11533332132E+04  0.11620703820E+04  0.12500000000E+03 0.  0.
         25    1    1    2    0    0 -0.53296161322E+02 -0.42007038880E+02  0.34300610499E+03  0.37132635267E+03  0.12500000000E+03 0.  0.
</event>
<event>
 4    0  0.2196599E-002  0.2235754E+03  0.7546771E-02  0.1131245E+00
         21   -1    0    0  502  501  0.00000000000E+00  0.00000000000E+00  0.13295935642E+03  0.13295935642E+03  0.00000000000E+00 0.  1.
         21   -1    0    0  501  502 -0.00000000000E+00 -0.00000000000E+00 -0.37594922389E+03  0.37594922389E+03  0.00000000000E+00 0.  1.
         25    1    1    2    0    0  0.11121053563E+03 -0.22457435481E+02 -0.28833190154E+03  0.33411435930E+03  0.12500000000E+03 0.  0.
         25    1    1    2    0    0 -0.11121053563E+03  0.22457435481E+02  0.45342034072E+02  0.17479422100E+03  0.12500000000E+03 0.  0.
</event>
<event>
 4    0  0.2196599E-002  0.1530472E+03  0.7546771E-02  0.1196778E+00
         21   -1    0    0  502  501  0.00000000000E+00  0.00000000000E+00  0.12102441049E+03  0.12102441049E+03  0.00000000000E+00 0.  1.
         21   -1    0    0  501  502 -0.00000000000E+00 -0.00000000000E+00 -0.19354311052E+03  0.19354311052E+03  0.00000000000E+00 0.  1.
         25    1    1    2    0    0 -0.13215645593E+02 -0.65252629256E+02  0.23362847315E+02  0.14353878064E+03  0.12500000000E+03 0.  0.
         25    1    1    2    0    0  0.13215645593E+02  0.65252629256E+02 -0.95881547340E+02  0.17102874037E+03  0.12500000000E+03 0.  0.
</event>
<event>
 4    0  0.2196599E-002  0.2055148E+03  0.7546771E-02  0.1145168E+00
         21   -1    0    0  502  501  0.00000000000E+00  0.00000000000E+00  0.18630319551E+03  0.18630319551E+03  0.00000000000E+00 0. -1.
         21   -1    0    0  501  502 -0.00000000000E+00 -0.00000000000E+00 -0.22670757433E+03  0.22670757433E+03  0.00000000000E+00 0. -1.
         25    1    1    2    0    0 -0.75197171489E+01  0.15798156589E+03  0.19948182541E+02  0.20257751922E+03  0.12500000000E+03 0.  0.
         25    1    1    2    0    0  0.75197171489E+01 -0.15798156589E+03 -0.60352561356E+02  0.21043325062E+03  0.12500000000E+03 0.  0.
</event>
<event>
 4    0  0.2196599E-002  0.4479310E+03  0.7546771E-02  0.1028341E+00
         21   -1    0    0  502  501  0.00000000000E+00  0.00000000000E+00  0.53268913333E+03  0.53268913333E+03  0.00000000000E+00 0.  1.
         21   -1    0    0  501  502 -0.00000000000E+00 -0.00000000000E+00 -0.37665912233E+03  0.37665912233E+03  0.00000000000E+00 0.  1.
         25    1    1    2    0    0  0.91410958040E+02  0.15666653595E+03  0.47390793650E+03  0.52260319460E+03  0.12500000000E+03 0.  0.
         25    1    1    2    0    0 -0.91410958040E+02 -0.15666653595E+03 -0.31787792549E+03  0.38674506106E+03  0.12500000000E+03 0.  0.
</event>
<event>
 4    0  0.2196599E-002  0.1830565E+03  0.7546771E-02  0.1164877E+00
         21   -1    0    0  502  501  0.00000000000E+00  0.00000000000E+00  0.14828632395E+03  0.14828632395E+03  0.00000000000E+00 0. -1.
         21   -1    0    0  501  502 -0.00000000000E+00 -0.00000000000E+00 -0.22597962934E+03  0.22597962934E+03  0.00000000000E+00 0. -1.
         25    1    1    2    0    0  0.83758126358E+02 -0.98111433564E+02 -0.27993683841E+01  0.17964997520E+03  0.12500000000E+03 0.  0.
         25    1    1    2    0    0 -0.83758126358E+02  0.98111433564E+02 -0.74893937001E+02  0.19461597809E+03  0.12500000000E+03 0.  0.
</event>
<event>
 4    0  0.2196599E-002  0.2379446E+03  0.7546771E-02  0.1121170E+00
         21   -1    0    0  502  501  0.00000000000E+00  0.00000000000E+00  0.12628787929E+04  0.12628787929E+04  0.00000000000E+00 0. -1.
         21   -1    0    0  501  502 -0.00000000000E+00 -0.00000000000E+00 -0.44832204322E+02  0.44832204322E+02  0.00000000000E+00 0. -1.
         25    1    1    2    0    0 -0.13789052401E+03 -0.87131788951E+02  0.27942160192E+03  0.34685324977E+03  0.12500000000E+03 0.  0.
         25    1    1    2    0    0  0.13789052401E+03  0.87131788951E+02  0.93862498670E+03  0.96085774749E+03  0.12500000000E+03 0.  0.
</event>
<event>
 4    0  0.2196599E-002  0.1814616E+03  0.7546771E-02  0.1166396E+00
         21   -1    0    0  502  501  0.00000000000E+00  0.00000000000E+00  0.21596598686E+02  0.21596598686E+02  0.00000000000E+00 0.  1.
         21   -1    0    0  501  502 -0.00000000000E+00 -0.00000000000E+00 -0.15246989740E+04  0.15246989740E+04  0.00000000000E+00 0.  1.
         25    1    1    2    0    0 -0.93071669389E+02  0.28882267496E+02 -0.37509533310E+03  0.40720760054E+03  0.12500000000E+03 0.  0.
         25    1    1    2    0    0  0.93071669389E+02 -0.28882267496E+02 -0.11280070422E+04  0.11390879721E+04  0.12500000000E+03 0.  0.
</event>
<event>
 4    0  0.2196599E-002  0.3115839E+03  0.7546771E-02  0.1079589E+00
         21   -1    0    0  502  501  0.00000000000E+00  0.00000000000E+00  0.56865538666E+03  0.56865538666E+03  0.00000000000E+00 0.  1.
         21   -1    0    0  501  502 -0.00000000000E+00 -0.00000000000E+00 -0.17072647853E+03  0.17072647853E+03  0.00000000000E+00 0.  1.
         25    1    1    2    0    0  0.10673089031E+03  0.66866860239E+02  0.50284671090E+03  0.53323772804E+03  0.12500000000E+03 0.  0.
         25    1    1    2    0    0 -0.10673089031E+03 -0.66866860239E+02 -0.10491780277E+03  0.20614413715E+03  0.12500000000E+03 0.  0.
</event>
<event>
 4    0  0.2196599E-002  0.2083075E+03  0.7546771E-02  0.1142913E+00
         21   -1    0    0  502  501  0.00000000000E+00  0.00000000000E+00  0.48119438043E+03  0.48119438043E+03  0.00000000000E+00 0. -1.
         21   -1    0    0  501  502 -0.00000000000E+00 -0.00000000000E+00 -0.90175679016E+02  0.90175679016E+02  0.00000000000E+00 0. -1.
         25    1    1    2    0    0  0.77904341297E+02  0.13078910804E+03  0.10257191928E+03  0.22208303808E+03  0.12500000000E+03 0.  0.
         25    1    1    2    0    0 -0.77904341297E+02 -0.13078910804E+03  0.28844678213E+03  0.34928702137E+03  0.12500000000E+03 0.  0.
</event>
<event>
 4    0  0.2196599E-002  0.3664730E+03  0.7546771E-02  0.1056050E+00
         21   -1    0    0  502  501  0.00000000000E+00  0.00000000000E+00  0.66875281397E+03  0.66875281397E+03  0.00000000000E+00 0.  1.
         21   -1    0    0  501  502 -0.00000000000E+00 -0.00000000000E+00 -0.20082526083E+03  0.20082526083E+03  0.00000000000E+00 0.  1.
         25    1    1    2    0    0 -0.23239493545E+03  0.13565873126E+03 -0.21230630708E+02  0.29746669910E+03  0.12500000000E+03 0.  0.
         25    1    1    2    0    0  0.23239493545E+03 -0.13565873126E+03  0.48915818385E+03  0.57211137571E+03  0.12500000000E+03 0.  0.
</event>
<event>
 4    0  0.2196599E-002  0.2074858E+03  0.7546771E-02  0.1143573E+00
         21   -1    0    0  502  501  0.00000000000E+00  0.00000000000E+00  0.31182844013E+02  0.31182844013E+02  0.00000000000E+00 0. -1.
         21   -1    0    0  501  502 -0.00000000000E+00 -0.00000000000E+00 -0.13805783992E+04  0.13805783992E+04  0.00000000000E+00 0. -1.
         25    1    1    2    0    0 -0.14243799767E+03  0.80901896045E+02 -0.75744993003E+03  0.78497713118E+03  0.12500000000E+03 0.  0.
         25    1    1    2    0    0  0.14243799767E+03 -0.80901896045E+02 -0.59194562519E+03  0.62678411208E+03  0.12500000000E+03 0.  0.
</event>
<event>
 4    0  0.2196599E-002  0.3245810E+03  0.7546771E-02  0.1073560E+00
         21   -1    0    0  502  501  0.00000000000E+00  0.00000000000E+00  0.40860811825E+03  0.40860811825E+03  0.00000000000E+00 0.  1.
         21   -1    0    0  501  502 -0.00000000000E+00 -0.00000000000E+00 -0.25783339521E+03  0.25783339521E+03  0.00000000000E+00 0.  1.
         25    1    1    2    0    0 -0.19181347378E+03  0.22629812802E+03  0.32754056697E+02  0.32357546214E+03  0.12500000000E+03 0.  0.
         25    1    1    2    0    0  0.19181347378E+03 -0.22629812802E+03  0.11802066634E+03  0.34286605133E+03  0.12500000000E+03 0.  0.
</event>
<event>
 4    0  0.2196599E-002  0.2805036E+03  0.7546771E-02  0.1095414E+00
         21   -1    0    0  502  501  0.00000000000E+00  0.00000000000E+00  0.91184013756E+02  0.91184013756E+02  0.00000000000E+00 0.  1.
         21   -1    0    0  501  502 -0.00000000000E+00 -0.00000000000E+00 -0.86289525194E+03  0.86289525194E+03  0.00000000000E+00 0.  1.
         25    1    1    2    0    0 -0.64088497469E+02 -0.66324701967E+02  0.11351691093E+02  0.15575674139E+03  0.12500000000E+03 0.  0.
         25    1    1    2    0    0  0.64088497469E+02  0.66324701967E+02 -0.78306292927E+03  0.79832252430E+03  0.12500000000E+03 0.  0.
</event>
<event>
 4    0  0.2196599E-002  0.1577896E+03  0.7546771E-02  0.1191215E+00
         21   -1    0    0  502  501  0.00000000000E+00  0.00000000000E+00  0.15958712927E+03  0.15958712927E+03  0.00000000000E+00 0. -1.
         21   -1    0    0  501  502 -0.00000000000E+00 -0.00000000000E+00 -0.15601224633E+03  0.15601224633E+03  0.00000000000E+00 0. -1.
         25    1    1    2    0    0 -0.22554924584E+02 -0.91218096125E+02  0.22838277493E+02  0.15803813654E+03  0.12500000000E+03 0.  0.
         25    1    1    2    0    0  0.22554924584E+02  0.91218096125E+02 -0.19263394549E+02  0.15756123906E+03  0.12500000000E+03 0.  0.
</event>
<event>
 4    0  0.2196599E-002  0.1801866E+03  0.7546771E-02  0.1167623E+00
         21   -1    0    0  502  501  0.00000000000E+00  0.00000000000E+00  0.81193706809E+02  0.81193706809E+02  0.00000000000E+00 0.  1.
         21   -1    0    0  501  502 -0.00000000000E+00 -0.00000000000E+00 -0.39987357010E+03  0.39987357010E+03  0.00000000000E+00 0.  1.
         25    1    1    2    0    0 -0.77182733923E+02 -0.27976368439E+02 -0.29351283923E+03  0.32941560133E+03  0.12500000000E+03 0.  0.
         25    1    1    2    0    0  0.77182733923E+02  0.27976368439E+02 -0.25167024064E+02  0.15165167558E+03  0.12500000000E+03 0.  0.
</event>
<event>
 4    0  0.2196599E-002  0.1792149E+03  0.7546771E-02  0.1168565E+00
         21   -1    0    0  502  501  0.00000000000E+00  0.00000000000E+00  0.70277341608E+02  0.70277341608E+02  0.00000000000E+00 0. -1.
         21   -1    0    0  501  502 -0.00000000000E+00 -0.00000000000E+00 -0.45701768305E+03  0.45701768305E+03  0.00000000000E+00 0. -1.
         25    1    1    2    0    0 -0.10767326075E+03  0.69887178616E+02 -0.19911302749E+03  0.26785956494E+03  0.12500000000E+03 0.  0.
         25    1    1    2    0    0  0.10767326075E+03 -0.69887178616E+02 -0.18762731396E+03  0.25943545972E+03  0.12500000000E+03 0.  0.
</event>
<event>
 4    0  0.2196599E-002  0.1949710E+03  0.7546771E-02  0.1154053E+00
         21   -1    0    0  502  501  0.00000000000E+00  0.00000000000E+00  0.20338761908E+03  0.20338761908E+03  0.00000000000E+00 0.  1.
         21   -1    0    0  501  502 -0.00000000000E+00 -0.00000000000E+00 -0.18690277323E+03  0.18690277323E+03  0.00000000000E+00 0.  1.
         25    1    1    2    0    0  0.76216634471E+02 -0.12217051280E+03  0.48949383773E+02  0.19686455176E+03  0.12500000000E+03 0.  0.
         25    1    1    2    0    0 -0.76216634471E+02  0.12217051280E+03 -0.32464537924E+02  0.19342584055E+03  0.12500000000E+03 0.  0.
</event>
<event>
 4    0  0.2196599E-002  0.1949372E+03  0.7546771E-02  0.1154082E+00
         21   -1    0    0  502  501  0.00000000000E+00  0.00000000000E+00  0.27207968062E+03  0.27207968062E+03  0.00000000000E+00 0. -1.
         21   -1    0    0  501  502 -0.00000000000E+00 -0.00000000000E+00 -0.13966684198E+03  0.13966684198E+03  0.00000000000E+00 0. -1.
         25    1    1    2    0    0  0.57075297929E+02  0.12388864776E+03  0.13104723008E+03  0.22672530337E+03  0.12500000000E+03 0.  0.
         25    1    1    2    0    0 -0.57075297929E+02 -0.12388864776E+03  0.13656085574E+01  0.18502121923E+03  0.12500000000E+03 0.  0.
</event>
<event>
 4    0  0.2196599E-002  0.1760299E+03  0.7546771E-02  0.1171702E+00
         21   -1    0    0  502  501  0.00000000000E+00  0.00000000000E+00  0.16282443975E+02  0.16282443975E+02  0.00000000000E+00 0.  1.
         21   -1    0    0  501  502 -0.00000000000E+00 -0.00000000000E+00 -0.19030624972E+04  0.19030624972E+04  0.00000000000E+00 0.  1.
         25    1    1    2    0    0  0.94503524605E+02  0.11716565561E+01 -0.13805252912E+04  0.13893910064E+04  0.12500000000E+03 0.  0.
         25    1    1    2    0    0 -0.94503524605E+02 -0.11716565561E+01 -0.50625476203E+03  0.52995393481E+03  0.12500000000E+03 0.  0.
</event>
<event>
 4    0  0.2196599E-002  0.2279202E+03  0.7546771E-02  0.1128112E+00
         21   -1    0    0  502  501  0.00000000000E+00  0.00000000000E+00  0.67400224969E+02  0.67400224969E+02  0.00000000000E+00 0. -1.
         21   -1    0    0  501  502 -0.00000000000E+00 -0.00000000000E+00 -0.77073344952E+03  0.77073344952E+03  0.00000000000E+00 0. -1.
         25    1    1    2    0    0 -0.18286954005E+03  0.46170829687E+02 -0.30132658103E+03  0.37682319810E+03  0.12500000000E+03 0.  0.
         25    1    1    2    0    0  0.18286954005E+03 -0.46170829687E+02 -0.40200664352E+03  0.46131047639E+03  0.12500000000E+03 0.  0.
</event>
<event>
 4    0  0.2196599E-002  0.1874579E+03  0.7546771E-02  0.1160774E+00
         21   -1    0    0  502  501  0.00000000000E+00  0.00000000000E+00  0.69123400164E+03  0.69123400164E+03  0.00000000000E+00 0. -1.
         21   -1    0    0  501  502 -0.00000000000E+00 -0.00000000000E+00 -0.50837316562E+02  0.50837316562E+02  0.00000000000E+00 0. -1.
         25    1    1    2    0    0 -0.12717660748E+03  0.20531047939E+02  0.21324156675E+03  0.27873352725E+03  0.12500000000E+03 0.  0.
         25    1    1    2    0    0  0.12717660748E+03 -0.20531047939E+02  0.42715511832E+03  0.46333779095E+03  0.12500000000E+03 0.  0.
</event>
<event>
 4    0  0.2196599E-002  0.1789347E+03  0.7546771E-02  0.1168838E+00
         21   -1    0    0  502  501  0.00000000000E+00  0.00000000000E+00  0.76007815103E+03  0.76007815103E+03  0.00000000000E+00 0. -1.
         21   -1    0    0  501  502 -0.00000000000E+00 -0.00000000000E+00 -0.42124131023E+02  0.42124131023E+02  0.00000000000E+00 0. -1.
         25    1    1    2    0    0 -0.74573767441E+02 -0.33656231435E+02  0.13821985901E+03  0.20352817527E+03  0.12500000000E+03 0.  0.
         25    1    1    2    0    0  0.74573767441E+02  0.33656231435E+02  0.57973416099E+03  0.59867410678E+03  0.12500000000E+03 0.  0.
</event>
<event>
 4    0  0.2196599E-002  0.2020991E+03  0.7546771E-02  0.1147980E+00
         21   -1    0    0  502  501  0.00000000000E+00  0.00000000000E+00  0.76565288615E+02  0.76565288615E+02  0.00000000000E+00 0. -1.
         21   -1    0    0  501  502 -0.00000000000E+00 -0.00000000000E+00 -0.53345379865E+03  0.53345379865E+03  0.00000000000E+00 0. -1.
         25    1    1    2    0    0 -0.78555972443E+01 -0.15843413539E+03 -0.21715457411E+03  0.29655386479E+03  0.12500000000E+03 0.  0.
         25    1    1    2    0    0  0.78555972443E+01  0.15843413539E+03 -0.23973393593E+03  0.31346522248E+03  0.12500000000E+03 0.  0.
</event>
<event>
 4    0  0.2196599E-002  0.3342970E+03  0.7546771E-02  0.1069251E+00
         21   -1    0    0  502  501  0.00000000000E+00  0.00000000000E+00  0.18235233500E+04  0.18235233500E+04  0.00000000000E+00 0.  1.
         21   -1    0    0  501  502 -0.00000000000E+00 -0.00000000000E+00 -0.61284908917E+02  0.61284908917E+02  0.00000000000E+00 0.  1.
         25    1    1    2    0    0  0.98019142362E+02 -0.62047845354E+02  0.16916758734E+04  0.17002499664E+04  0.12500000000E+03 0.  0.
         25    1    1    2    0    0 -0.98019142362E+02  0.62047845354E+02  0.70562567596E+02  0.18455829249E+03  0.12500000000E+03 0.  0.
</event>
<event>
 4    0  0.2196599E-002  0.1972279E+03  0.7546771E-02  0.1152099E+00
         21   -1    0    0  502  501  0.00000000000E+00  0.00000000000E+00  0.24719899759E+03  0.24719899759E+03  0.00000000000E+00 0.  1.
         21   -1    0    0  501  502 -0.00000000000E+00 -0.00000000000E+00 -0.15735847036E+03  0.15735847036E+03  0.00000000000E+00 0.  1.
         25    1    1    2    0    0 -0.13003952541E+03  0.72850409982E+02  0.78254854584E+02  0.20968138370E+03  0.12500000000E+03 0.  0.
         25    1    1    2    0    0  0.13003952541E+03 -0.72850409982E+02  0.11585672643E+02  0.19487608425E+03  0.12500000000E+03 0.  0.
</event>
<event>
 4    0  0.2196599E-002  0.1769206E+03  0.7546771E-02  0.1170817E+00
         21   -1    0    0  502  501  0.00000000000E+00  0.00000000000E+00  0.41986347770E+03  0.41986347770E+03  0.00000000000E+00 0. -1.
         21   -1    0    0  501  502 -0.00000000000E+00 -0.00000000000E+00 -0.74550213312E+02  0.74550213312E+02  0.00000000000E+00 0. -1.
         25    1    1    2    0    0 -0.32049198255E+01 -0.33302252683E+02  0.34123893290E+03  0.36494975116E+03  0.12500000000E+03 0.  0.
         25    1    1    2    0    0  0.32049198255E+01  0.33302252683E+02  0.40743314874E+01  0.12946393985E+03  0.12500000000E+03 0.  0.
</event>
<event>
 4    0  0.2196599E-002  0.2629097E+03  0.7546771E-02  0.1105408E+00
         21   -1    0    0  502  501  0.00000000000E+00  0.00000000000E+00  0.29999914277E+03  0.29999914277E+03  0.00000000000E+00 0.  1.
         21   -1    0    0  501  502 -0.00000000000E+00 -0.00000000000E+00 -0.23040561381E+03  0.23040561381E+03  0.00000000000E+00 0.  1.
         25    1    1    2    0    0  0.94840795058E+02 -0.18011242281E+02 -0.17722014054E+03  0.23738399160E+03  0.12500000000E+03 0.  0.
         25    1    1    2    0    0 -0.94840795058E+02  0.18011242281E+02  0.24681366950E+03  0.29302076497E+03  0.12500000000E+03 0.  0.
</event>
<event>
 4    0  0.2196599E-002  0.4469381E+03  0.7546771E-02  0.1028639E+00
         21   -1    0    0  502  501  0.00000000000E+00  0.00000000000E+00  0.15171064228E+04  0.15171064228E+04  0.00000000000E+00 0.  1.
         21   -1    0    0  501  502 -0.00000000000E+00 -0.00000000000E+00 -0.13166756487E+03  0.13166756487E+03  0.00000000000E+00 0. -1.
         25    1    1    2    0    0  0.40999965420E+03  0.10006385443E+03  0.83578839865E+03  0.94460559956E+03  0.12500000000E+03 0.  0.
         25    1    1    2    0    0 -0.40999965420E+03 -0.10006385443E+03  0.54965045924E+03  0.70416838807E+03  0.12500000000E+03 0.  0.
</event>
<event>
 4    0  0.2196599E-002  0.1955804E+03  0.7546771E-02  0.1153522E+00
         21   -1    0    0  502  501  0.00000000000E+00  0.00000000000E+00  0.32938441363E+03  0.32938441363E+03  0.00000000000E+00 0. -1.
         21   -1    0    0  501  502 -0.00000000000E+00 -0.00000000000E+00 -0.11613091202E+03  0.11613091202E+03  0.00000000000E+00 0. -1.
         25    1    1    2    0    0 -0.25538815310E+02  0.13218015552E+03  0.30198701903E+02  0.18617407499E+03  0.12500000000E+03 0.  0.
         25    1    1    2    0    0  0.25538815310E+02 -0.13218015552E+03  0.18305479971E+03  0.25934125066E+03  0.12500000000E+03 0.  0.
</event>
<event>
 4    0  0.2196599E-002  0.2417493E+03  0.7546771E-02  0.1118633E+00
         21   -1    0    0  502  501  0.00000000000E+00  0.00000000000E+00  0.50545651155E+02  0.50545651155E+02  0.00000000000E+00 0. -1.
         21   -1    0    0  501  502 -0.00000000000E+00 -0.00000000000E+00 -0.11562367284E+04  0.11562367284E+04  0.00000000000E+00 0. -1.
         25    1    1    2    0    0 -0.70639661735E+02 -0.33538690928E+02 -0.74673617438E+02  0.16527539061E+03  0.12500000000E+03 0.  0.
         25    1    1    2    0    0  0.70639661735E+02  0.33538690928E+02 -0.10310174598E+04  0.10415069889E+04  0.12500000000E+03 0.  0.
</event>
<event>
 4    0  0.2196599E-002  0.2710170E+03  0.7546771E-02  0.1100699E+00
         21   -1    0    0  502  501  0.00000000000E+00  0.00000000000E+00  0.36393328845E+03  0.36393328845E+03  0.00000000000E+00 0.  1.
         21   -1    0    0  501  502 -0.00000000000E+00 -0.00000000000E+00 -0.20182322749E+03  0.20182322749E+03  0.00000000000E+00 0.  1.
         25    1    1    2    0    0  0.22515301853E+03  0.34501133301E+02  0.16150616689E+03  0.30593046905E+03  0.12500000000E+03 0.  0.
         25    1    1    2    0    0 -0.22515301853E+03 -0.34501133301E+02  0.60389407815E+00  0.25982604689E+03  0.12500000000E+03 0.  0.
</event>
<event>
 4    0  0.2196599E-002  0.1768868E+03  0.7546771E-02  0.1170850E+00
         21   -1    0    0  502  501  0.00000000000E+00  0.00000000000E+00  0.12711465385E+04  0.12711465385E+04  0.00000000000E+00 0. -1.
         21   -1    0    0  501  502 -0.00000000000E+00 -0.00000000000E+00 -0.24614736838E+02  0.24614736838E+02  0.00000000000E+00 0. -1.
         25    1    1    2    0    0  0.11284420178E+03 -0.31478534928E+01  0.42533801671E+03  0.45747256892E+03  0.12500000000E+03 0.  0.
         25    1    1    2    0    0 -0.11284420178E+03  0.31478534928E+01  0.82119378496E+03  0.83828870642E+03  0.12500000000E+03 0.  0.
</event>
<event>
 4    0  0.2196599E-002  0.2259371E+03  0.7546771E-02  0.1129533E+00
         21   -1    0    0  502  501  0.00000000000E+00  0.00000000000E+00  0.16818652015E+03  0.16818652015E+03  0.00000000000E+00 0.  1.
         21   -1    0    0  501  502 -0.00000000000E+00 -0.00000000000E+00 -0.30351764532E+03  0.30351764532E+03  0.00000000000E+00 0.  1.
         25    1    1    2    0    0 -0.16154707666E+01  0.18590614844E+03 -0.37072985042E+02  0.22707512412E+03  0.12500000000E+03 0.  0.
         25    1    1    2    0    0  0.16154707666E+01 -0.18590614844E+03 -0.98258140130E+02  0.24462904136E+03  0.12500000000E+03 0.  0.
</event>
<event>
 4    0  0.2196599E-002  0.1516443E+03  0.7546771E-02  0.1198467E+00
         21   -1    0    0  502  501  0.00000000000E+00  0.00000000000E+00  0.17548970025E+03  0.17548970025E+03  0.00000000000E+00 0.  1.
         21   -1    0    0  501  502 -0.00000000000E+00 -0.00000000000E+00 -0.13103895341E+03  0.13103895341E+03  0.00000000000E+00 0.  1.
         25    1    1    2    0    0 -0.62032786933E+02 -0.39060867293E+02  0.67392496353E+02  0.15981416262E+03  0.12500000000E+03 0.  0.
         25    1    1    2    0    0  0.62032786933E+02  0.39060867293E+02 -0.22941749513E+02  0.14671449103E+03  0.12500000000E+03 0.  0.
</event>
<event>
 4    0  0.2196599E-002  0.2115836E+03  0.7546771E-02  0.1140318E+00
         21   -1    0    0  502  501  0.00000000000E+00  0.00000000000E+00  0.14157507979E+04  0.14157507979E+04  0.00000000000E+00 0. -1.
         21   -1    0    0  501  502 -0.00000000000E+00 -0.00000000000E+00 -0.31621111233E+02  0.31621111233E+02  0.00000000000E+00 0. -1.
         25    1    1    2    0    0 -0.11846383635E+02  0.14621292553E+03  0.39341572194E+03  0.43808616352E+03  0.12500000000E+03 0.  0.
         25    1    1    2    0    0  0.11846383635E+02 -0.14621292553E+03  0.99071396475E+03  0.10092857456E+04  0.12500000000E+03 0.  0.
</event>
<event>
 4    0  0.2196599E-002  0.1932818E+03  0.7546771E-02  0.1155534E+00
         21   -1    0    0  502  501  0.00000000000E+00  0.00000000000E+00  0.26417436461E+02  0.26417436461E+02  0.00000000000E+00 0.  1.
         21   -1    0    0  501  502 -0.00000000000E+00 -0.00000000000E+00 -0.14141355256E+04  0.14141355256E+04  0.00000000000E+00 0.  1.
         25    1    1    2    0    0  0.46293191605E+01 -0.14032553219E+03 -0.86135339812E+03  0.88162767767E+03  0.12500000000E+03 0.  0.
         25    1    1    2    0    0 -0.46293191605E+01  0.14032553219E+03 -0.52636469104E+03  0.55892528441E+03  0.12500000000E+03 0.  0.
</event>
<event>
 4    0  0.2196599E-002  0.2129108E+03  0.7546771E-02  0.1139281E+00
         21   -1    0    0  502  501  0.00000000000E+00  0.00000000000E+00  0.26660701573E+03  0.26660701573E+03  0.00000000000E+00 0.  1.
         21   -1    0    0  501  502 -0.00000000000E+00 -0.00000000000E+00 -0.17002934317E+03  0.17002934317E+03  0.00000000000E+00 0.  1.
         25    1    1    2    0    0  0.11262205192E+03 -0.39479372973E+02  0.17580006727E+03  0.24652182687E+03  0.12500000000E+03 0.  0.
         25    1    1    2    0    0 -0.11262205192E+03  0.39479372973E+02 -0.79222394710E+02  0.19011453204E+03  0.12500000000E+03 0.  0.
</event>
<event>
 4    0  0.2196599E-002  0.1796909E+03  0.7546771E-02  0.1168103E+00
         21   -1    0    0  502  501  0.00000000000E+00  0.00000000000E+00  0.18894725419E+03  0.18894725419E+03  0.00000000000E+00 0. -1.
         21   -1    0    0  501  502 -0.00000000000E+00 -0.00000000000E+00 -0.17088800765E+03  0.17088800765E+03  0.00000000000E+00 0. -1.
         25    1    1    2    0    0  0.78198490177E+02 -0.52613740530E+02 -0.79289442984E+02  0.17548511426E+03  0.12500000000E+03 0.  0.
         25    1    1    2    0    0 -0.78198490177E+02  0.52613740530E+02  0.97348689529E+02  0.18435014758E+03  0.12500000000E+03 0.  0.
</event>
<event>
 4    0  0.2196599E-002  0.1806916E+03  0.7546771E-02  0.1167135E+00
         21   -1    0    0  502  501  0.00000000000E+00  0.00000000000E+00  0.37309507742E+02  0.37309507742E+02  0.00000000000E+00 0. -1.
         21   -1    0    0  501  502 -0.00000000000E+00 -0.00000000000E+00 -0.87509771428E+03  0.87509771428E+03  0.00000000000E+00 0. -1.
         25    1    1    2    0    0  0.10670917754E+03 -0.63711810737E+02 -0.31858688545E+03  0.36409977614E+03  0.12500000000E+03 0.  0.
         25    1    1    2    0    0 -0.10670917754E+03  0.63711810737E+02 -0.51920132108E+03  0.54830744588E+03  0.12500000000E+03 0.  0.
</event>
<event>
 4    0  0.2196599E-002  0.2007208E+03  0.7546771E-02  0.1149132E+00
         21   -1    0    0  502  501  0.00000000000E+00  0.00000000000E+00  0.10696929418E+04  0.10696929418E+04  0.00000000000E+00 0. -1.
         21   -1    0    0  501  502 -0.00000000000E+00 -0.00000000000E+00 -0.37663927279E+02  0.37663927279E+02  0.00000000000E+00 0. -1.
         25    1    1    2    0    0 -0.15817310800E+02  0.98490660198E+02  0.18141954556E+03  0.24184426596E+03  0.12500000000E+03 0.  0.
         25    1    1    2    0    0  0.15817310800E+02 -0.98490660198E+02  0.85060946893E+03  0.86551260309E+03  0.12500000000E+03 0.  0.
</event>
<event>
 4    0  0.2196599E-002  0.1978007E+03  0.7546771E-02  0.1151608E+00
         21   -1    0    0  502  501  0.00000000000E+00  0.00000000000E+00  0.11229658200E+03  0.11229658200E+03  0.00000000000E+00 0.  1.
         21   -1    0    0  501  502 -0.00000000000E+00 -0.00000000000E+00 -0.34840875338E+03  0.34840875338E+03  0.00000000000E+00 0.  1.
         25    1    1    2    0    0 -0.10546466703E+03  0.10561731059E+03 -0.77341096027E+02  0.20948617478E+03  0.12500000000E+03 0.  0.
         25    1    1    2    0    0  0.10546466703E+03 -0.10561731059E+03 -0.15877107536E+03  0.25121916061E+03  0.12500000000E+03 0.  0.
</event>
<event>
 4    0  0.2196599E-002  0.2237764E+03  0.7546771E-02  0.1131098E+00
         21   -1    0    0  502  501  0.00000000000E+00  0.00000000000E+00  0.47462023460E+03  0.47462023460E+03  0.00000000000E+00 0. -1.
         21   -1    0    0  501  502 -0.00000000000E+00 -0.00000000000E+00 -0.10550729487E+03  0.10550729487E+03  0.00000000000E+00 0. -1.
         25    1    1    2    0    0  0.15651468935E+03 -0.98207921667E+02  0.20735129160E+03  0.30456723722E+03  0.12500000000E+03 0.  0.
         25    1    1    2    0    0 -0.15651468935E+03  0.98207921667E+02  0.16176164813E+03  0.27556029225E+03  0.12500000000E+03 0.  0.
</event>
<event>
 4    0  0.2196599E-002  0.2329400E+03  0.7546771E-02  0.1124587E+00
         21   -1    0    0  502  501  0.00000000000E+00  0.00000000000E+00  0.53590174242E+03  0.53590174242E+03  0.00000000000E+00 0.  1.
         21   -1    0    0  501  502 -0.00000000000E+00 -0.00000000000E+00 -0.10125183226E+03  0.10125183226E+03  0.00000000000E+00 0.  1.
         25    1    1    2    0    0 -0.15480287907E+03 -0.11637706018E+03  0.17138216314E+03  0.28723578702E+03  0.12500000000E+03 0.  0.
         25    1    1    2    0    0  0.15480287907E+03  0.11637706018E+03  0.26326774701E+03  0.34991778766E+03  0.12500000000E+03 0.  0.
</event>
<event>
 4    0  0.2196599E-002  0.2604465E+03  0.7546771E-02  0.1106875E+00
         21   -1    0    0  502  501  0.00000000000E+00  0.00000000000E+00  0.12079341079E+04  0.12079341079E+04  0.00000000000E+00 0.  1.
         21   -1    0    0  501  502 -0.00000000000E+00 -0.00000000000E+00 -0.56155714252E+02  0.56155714252E+02  0.00000000000E+00 0.  1.
         25    1    1    2    0    0 -0.14279149504E+03 -0.17662485489E+03  0.63639584118E+03  0.68717568139E+03  0.12500000000E+03 0.  0.
         25    1    1    2    0    0  0.14279149504E+03  0.17662485489E+03  0.51538255247E+03  0.57691414077E+03  0.12500000000E+03 0.  0.
</event>
<event>
 4    0  0.2196599E-002  0.2446520E+03  0.7546771E-02  0.1116732E+00
         21   -1    0    0  502  501  0.00000000000E+00  0.00000000000E+00  0.76937847867E+03  0.76937847867E+03  0.00000000000E+00 0.  1.
         21   -1    0    0  501  502 -0.00000000000E+00 -0.00000000000E+00 -0.77796068331E+02  0.77796068331E+02  0.00000000000E+00 0.  1.
         25    1    1    2    0    0 -0.50981016186E+02 -0.15508151182E+03  0.57535689107E+03  0.61099090944E+03  0.12500000000E+03 0.  0.
         25    1    1    2    0    0  0.50981016186E+02  0.15508151182E+03  0.11622551926E+03  0.23618363755E+03  0.12500000000E+03 0.  0.
</event>
<event>
 4    0  0.2196599E-002  0.3528472E+03  0.7546771E-02  0.1061452E+00
         21   -1    0    0  502  501  0.00000000000E+00  0.00000000000E+00  0.29939097328E+03  0.29939097328E+03  0.00000000000E+00 0. -1.
         21   -1    0    0  501  502 -0.00000000000E+00 -0.00000000000E+00 -0.41584814430E+03  0.41584814430E+03  0.00000000000E+00 0.  1.
         25    1    1    2    0    0  0.25426556028E+03  0.19455201833E+03  0.22693116012E+02  0.34444366810E+03  0.12500000000E+03 0.  0.
         25    1    1    2    0    0 -0.25426556028E+03 -0.19455201833E+03 -0.13915028703E+03  0.37079544948E+03  0.12500000000E+03 0.  0.
</event>
<event>
 4    0  0.2196599E-002  0.2203128E+03  0.7546771E-02  0.1133650E+00
         21   -1    0    0  502  501  0.00000000000E+00  0.00000000000E+00  0.10129197065E+03  0.10129197065E+03  0.00000000000E+00 0. -1.
         21   -1    0    0  501  502 -0.00000000000E+00 -0.00000000000E+00 -0.47918639608E+03  0.47918639608E+03  0.00000000000E+00 0. -1.
         25    1    1    2    0    0 -0.17825648135E+03 -0.85005742494E+01 -0.14595282353E+03  0.26224961316E+03  0.12500000000E+03 0.  0.
         25    1    1    2    0    0  0.17825648135E+03  0.85005742494E+01 -0.23194160190E+03  0.31822875357E+03  0.12500000000E+03 0.  0.
</event>
<event>
 4    0  0.2196599E-002  0.2705190E+03  0.7546771E-02  0.1100983E+00
         21   -1    0    0  502  501  0.00000000000E+00  0.00000000000E+00  0.14935782398E+03  0.14935782398E+03  0.00000000000E+00 0.  1.
         21   -1    0    0  501  502 -0.00000000000E+00 -0.00000000000E+00 -0.48996799261E+03  0.48996799261E+03  0.00000000000E+00 0.  1.
         25    1    1    2    0    0  0.16684994258E+02 -0.58255847881E+00 -0.45310799136E+03  0.47033028846E+03  0.12500000000E+03 0.  0.
         25    1    1    2    0    0 -0.16684994258E+02  0.58255847881E+00  0.11249782274E+03  0.16899552813E+03  0.12500000000E+03 0.  0.
</event>
<event>
 4    0  0.2196599E-002  0.1773132E+03  0.7546771E-02  0.1170429E+00
         21   -1    0    0  502  501  0.00000000000E+00  0.00000000000E+00  0.41808024865E+03  0.41808024865E+03  0.00000000000E+00 0.  1.
         21   -1    0    0  501  502 -0.00000000000E+00 -0.00000000000E+00 -0.75200818552E+02  0.75200818552E+02  0.00000000000E+00 0.  1.
         25    1    1    2    0    0 -0.13941715095E+02 -0.12311856534E+03  0.14152783592E+03  0.22584880095E+03  0.12500000000E+03 0.  0.
         25    1    1    2    0    0  0.13941715095E+02  0.12311856534E+03  0.20135159417E+03  0.26743226624E+03  0.12500000000E+03 0.  0.
</event>
<event>
 4    0  0.2196599E-002  0.1765934E+03  0.7546771E-02  0.1171141E+00
         21   -1    0    0  502  501  0.00000000000E+00  0.00000000000E+00  0.48103085277E+02  0.48103085277E+02  0.00000000000E+00 0.  1.
         21   -1    0    0  501  502 -0.00000000000E+00 -0.00000000000E+00 -0.64829995153E+03  0.64829995153E+03  0.00000000000E+00 0.  1.
         25    1    1    2    0    0  0.16756874249E+02  0.11373635110E+03 -0.39555077542E+03  0.43046738126E+03  0.12500000000E+03 0.  0.
         25    1    1    2    0    0 -0.16756874249E+02 -0.11373635110E+03 -0.20464609084E+03  0.26593565555E+03  0.12500000000E+03 0.  0.
</event>
<event>
 4    0  0.2196599E-002  0.1994467E+03  0.7546771E-02  0.1150207E+00
         21   -1    0    0  502  501  0.00000000000E+00  0.00000000000E+00  0.35927678674E+02  0.35927678674E+02  0.00000000000E+00 0. -1.
         21   -1    0    0  501  502 -0.00000000000E+00 -0.00000000000E+00 -0.11071960798E+04  0.11071960798E+04  0.00000000000E+00 0. -1.
         25    1    1    2    0    0 -0.11122876300E+03 -0.93372319687E+02 -0.69425625772E+03  0.72021314844E+03  0.12500000000E+03 0.  0.
         25    1    1    2    0    0  0.11122876300E+03  0.93372319687E+02 -0.37701214339E+03  0.42291061002E+03  0.12500000000E+03 0.  0.
</event>
<event>
 4    0  0.2196599E-002  0.1883799E+03  0.7546771E-02  0.1159931E+00
         21   -1    0    0  502  501  0.00000000000E+00  0.00000000000E+00  0.27208777476E+03  0.27208777476E+03  0.00000000000E+00 0. -1.
         21   -1    0    0  501  502 -0.00000000000E+00 -0.00000000000E+00 -0.13042476475E+03  0.13042476475E+03  0.00000000000E+00 0. -1.
         25    1    1    2    0    0  0.13746240181E+03 -0.83929954891E+01  0.38858818897E+02  0.19000358441E+03  0.12500000000E+03 0.  0.
         25    1    1    2    0    0 -0.13746240181E+03  0.83929954891E+01  0.10280419112E+03  0.21250895509E+03  0.12500000000E+03 0.  0.
</event>
<event>
 4    0  0.2196599E-002  0.1520280E+03  0.7546771E-02  0.1198003E+00
         21   -1    0    0  502  501  0.00000000000E+00  0.00000000000E+00  0.80709562348E+03  0.80709562348E+03  0.00000000000E+00 0.  1.
         21   -1    0    0  501  502 -0.00000000000E+00 -0.00000000000E+00 -0.28636639093E+02  0.28636639093E+02  0.00000000000E+00 0.  1.
         25    1    1    2    0    0 -0.28096889715E+02  0.60949020325E+02  0.23910165479E+03  0.27802665271E+03  0.12500000000E+03 0.  0.
         25    1    1    2    0    0  0.28096889715E+02 -0.60949020325E+02  0.53935732959E+03  0.55770560987E+03  0.12500000000E+03 0.  0.
</event>
<event>
 4    0  0.2196599E-002  0.2181974E+03  0.7546771E-02  0.1135234E+00
         21   -1    0    0  502  501  0.00000000000E+00  0.00000000000E+00  0.45643795365E+03  0.45643795365E+03  0.00000000000E+00 0. -1.
         21   -1    0    0  501  502 -0.00000000000E+00 -0.00000000000E+00 -0.10430796236E+03  0.10430796236E+03  0.00000000000E+00 0. -1.
         25    1    1    2    0    0  0.70498061242E+02 -0.16389005054E+03  0.19207218215E+03  0.29042494463E+03  0.12500000000E+03 0.  0.
         25    1    1    2    0    0 -0.70498061242E+02  0.16389005054E+03  0.16005780914E+03  0.27032097139E+03  0.12500000000E+03 0.  0.
</event>
<event>
 4    0  0.2196599E-002  0.2305165E+03  0.7546771E-02  0.1126277E+00
         21   -1    0    0  502  501  0.00000000000E+00  0.00000000000E+00  0.53935155310E+02  0.53935155310E+02  0.00000000000E+00 0. -1.
         21   -1    0    0  501  502 -0.00000000000E+00 -0.00000000000E+00 -0.98521748328E+03  0.98521748328E+03  0.00000000000E+00 0. -1.
         25    1    1    2    0    0 -0.18704588844E+03 -0.88055890816E+01 -0.57718754377E+03  0.61954351217E+03  0.12500000000E+03 0.  0.
         25    1    1    2    0    0  0.18704588844E+03  0.88055890816E+01 -0.35409478420E+03  0.41960912642E+03  0.12500000000E+03 0.  0.
</event>
<event>
 4    0  0.2196599E-002  0.2988860E+03  0.7546771E-02  0.1085799E+00
         21   -1    0    0  502  501  0.00000000000E+00  0.00000000000E+00  0.13605230082E+03  0.13605230082E+03  0.00000000000E+00 0. -1.
         21   -1    0    0  501  502 -0.00000000000E+00 -0.00000000000E+00 -0.65660648174E+03  0.65660648174E+03  0.00000000000E+00 0. -1.
         25    1    1    2    0    0  0.10532201539E+03  0.22225475673E+03 -0.10782538355E+03  0.29621143994E+03  0.12500000000E+03 0.  0.
         25    1    1    2    0    0 -0.10532201539E+03 -0.22225475673E+03 -0.41272879737E+03  0.49644734262E+03  0.12500000000E+03 0.  0.
</event>
<event>
 4    0  0.2196599E-002  0.2029608E+03  0.7546771E-02  0.1147265E+00
         21   -1    0    0  502  501  0.00000000000E+00  0.00000000000E+00  0.32868051772E+02  0.32868051772E+02  0.00000000000E+00 0.  1.
         21   -1    0    0  501  502 -0.00000000000E+00 -0.00000000000E+00 -0.12532860111E+04  0.12532860111E+04  0.00000000000E+00 0.  1.
         25    1    1    2    0    0  0.46169881386E+02  0.11667779190E+03 -0.92423559556E+03  0.94105355914E+03  0.12500000000E+03 0.  0.
         25    1    1    2    0    0 -0.46169881386E+02 -0.11667779190E+03 -0.29618236378E+03  0.34510050374E+03  0.12500000000E+03 0.  0.
</event>
<event>
 4    0  0.2196599E-002  0.1695547E+03  0.7546771E-02  0.1178313E+00
         21   -1    0    0  502  501  0.00000000000E+00  0.00000000000E+00  0.44613241024E+03  0.44613241024E+03  0.00000000000E+00 0.  1.
         21   -1    0    0  501  502 -0.00000000000E+00 -0.00000000000E+00 -0.64440068776E+02  0.64440068776E+02  0.00000000000E+00 0.  1.
         25    1    1    2    0    0  0.73131133934E+02  0.54455460070E+02  0.29527034349E+03  0.33335136962E+03  0.12500000000E+03 0.  0.
         25    1    1    2    0    0 -0.73131133934E+02 -0.54455460070E+02  0.86421997973E+02  0.17722110940E+03  0.12500000000E+03 0.  0.
</event>
<event>
 4    0  0.2196599E-002  0.2801143E+03  0.7546771E-02  0.1095627E+00
         21   -1    0    0  502  501  0.00000000000E+00  0.00000000000E+00  0.59863912074E+03  0.59863912074E+03  0.00000000000E+00 0.  1.
         21   -1    0    0  501  502 -0.00000000000E+00 -0.00000000000E+00 -0.13107066762E+03  0.13107066762E+03  0.00000000000E+00 0.  1.
         25    1    1    2    0    0 -0.16108123603E+03 -0.11820598612E+03  0.36594315940E+02  0.23850359267E+03  0.12500000000E+03 0.  0.
         25    1    1    2    0    0  0.16108123603E+03  0.11820598612E+03  0.43097413719E+03  0.49120619569E+03  0.12500000000E+03 0.  0.
</event>
<event>
 4    0  0.2196599E-002  0.1771331E+03  0.7546771E-02  0.1170607E+00
         21   -1    0    0  502  501  0.00000000000E+00  0.00000000000E+00  0.58056285981E+02  0.58056285981E+02  0.00000000000E+00 0. -1.
         21   -1    0    0  501  502 -0.00000000000E+00 -0.00000000000E+00 -0.54044312061E+03  0.54044312061E+03  0.00000000000E+00 0. -1.
         25    1    1    2    0    0  0.58784122767E+02  0.51530401044E+02 -0.75320171913E+02  0.16555688937E+03  0.12500000000E+03 0.  0.
         25    1    1    2    0    0 -0.58784122767E+02 -0.51530401044E+02 -0.40706666272E+03  0.43294251722E+03  0.12500000000E+03 0.  0.
</event>
<event>
 4    0  0.2196599E-002  0.1831808E+03  0.7546771E-02  0.1164760E+00
         21   -1    0    0  502  501  0.00000000000E+00  0.00000000000E+00  0.28146658005E+03  0.28146658005E+03  0.00000000000E+00 0. -1.
         21   -1    0    0  501  502 -0.00000000000E+00 -0.00000000000E+00 -0.11921559915E+03  0.11921559915E+03  0.00000000000E+00 0. -1.
         25    1    1    2    0    0  0.91860194490E+02  0.93544591684E+02  0.51347648078E+02  0.18828294381E+03  0.12500000000E+03 0.  0.
         25    1    1    2    0    0 -0.91860194490E+02 -0.93544591684E+02  0.11090333283E+03  0.21239923540E+03  0.12500000000E+03 0.  0.
</event>
<event>
 4    0  0.2196599E-002  0.2011027E+03  0.7546771E-02  0.1148812E+00
         21   -1    0    0  502  501  0.00000000000E+00  0.00000000000E+00  0.34921913737E+03  0.34921913737E+03  0.00000000000E+00 0.  1.
         21   -1    0    0  501  502 -0.00000000000E+00 -0.00000000000E+00 -0.11580774119E+03  0.11580774119E+03  0.00000000000E+00 0.  1.
         25    1    1    2    0    0  0.74711432565E+02  0.12248089139E+03  0.41473943677E+02  0.19475229117E+03  0.12500000000E+03 0.  0.
         25    1    1    2    0    0 -0.74711432565E+02 -0.12248089139E+03  0.19193745251E+03  0.27027458739E+03  0.12500000000E+03 0.  0.
</event>
<event>
 4    0  0.2196599E-002  0.1781180E+03  0.7546771E-02  0.1169637E+00
         21   -1    0    0  502  501  0.00000000000E+00  0.00000000000E+00  0.26242160074E+03  0.26242160074E+03  0.00000000000E+00 0.  1.
         21   -1    0    0  501  502 -0.00000000000E+00 -0.00000000000E+00 -0.12089708782E+03  0.12089708782E+03  0.00000000000E+00 0.  1.
         25    1    1    2    0    0  0.13026149847E+01 -0.73366091264E+01 -0.65538638657E+02  0.14133589705E+03  0.12500000000E+03 0.  0.
         25    1    1    2    0    0 -0.13026149847E+01  0.73366091264E+01  0.20706315158E+03  0.24198279150E+03  0.12500000000E+03 0.  0.
</event>
<event>
 4    0  0.2196599E-002  0.2342859E+03  0.7546771E-02  0.1123659E+00
         21   -1    0    0  502  501  0.00000000000E+00  0.00000000000E+00  0.10875254253E+03  0.10875254253E+03  0.00000000000E+00 0.  1.
         21   -1    0    0  501  502 -0.00000000000E+00 -0.00000000000E+00 -0.50472260994E+03  0.50472260994E+03  0.00000000000E+00 0.  1.
         25    1    1    2    0    0 -0.19744623460E+03  0.41539578361E+01 -0.17676895627E+03  0.29304357155E+03  0.12500000000E+03 0.  0.
         25    1    1    2    0    0  0.19744623460E+03 -0.41539578361E+01 -0.21920111114E+03  0.32043158092E+03  0.12500000000E+03 0.  0.
</event>
<event>
 4    0  0.2196599E-002  0.3102408E+03  0.7546771E-02  0.1080231E+00
         21   -1    0    0  502  501  0.00000000000E+00  0.00000000000E+00  0.91835790477E+03  0.91835790477E+03  0.00000000000E+00 0. -1.
         21   -1    0    0  501  502 -0.00000000000E+00 -0.00000000000E+00 -0.10480591377E+03  0.10480591377E+03  0.00000000000E+00 0. -1.
         25    1    1    2    0    0  0.52716940893E+02 -0.23619994021E+03  0.16188750665E+03  0.31686282903E+03  0.12500000000E+03 0.  0.
         25    1    1    2    0    0 -0.52716940893E+02  0.23619994021E+03  0.65166448435E+03  0.70630098951E+03  0.12500000000E+03 0.  0.
</event>
<event>
 4    0  0.2196599E-002  0.1652260E+03  0.7546771E-02  0.1182920E+00
         21   -1    0    0  502  501  0.00000000000E+00  0.00000000000E+00  0.16868121776E+03  0.16868121776E+03  0.00000000000E+00 0.  1.
         21   -1    0    0  501  502 -0.00000000000E+00 -0.00000000000E+00 -0.16184153268E+03  0.16184153268E+03  0.00000000000E+00 0.  1.
         25    1    1    2    0    0 -0.14773250438E+01 -0.57870505893E+02 -0.87832635176E+02  0.16337303861E+03  0.12500000000E+03 0.  0.
         25    1    1    2    0    0  0.14773250438E+01  0.57870505893E+02  0.94672320263E+02  0.16714971183E+03  0.12500000000E+03 0.  0.
</event>
<event>
 4    0  0.2196599E-002  0.2589106E+03  0.7546771E-02  0.1107800E+00
         21   -1    0    0  502  501  0.00000000000E+00  0.00000000000E+00  0.16514159513E+03  0.16514159513E+03  0.00000000000E+00 0.  1.
         21   -1    0    0  501  502 -0.00000000000E+00 -0.00000000000E+00 -0.40592256962E+03  0.40592256962E+03  0.00000000000E+00 0.  1.
         25    1    1    2    0    0 -0.16661076888E+03  0.12344773671E+03 -0.22153312565E+03  0.32817741812E+03  0.12500000000E+03 0.  0.
         25    1    1    2    0    0  0.16661076888E+03 -0.12344773671E+03 -0.19247848833E+02  0.24288674663E+03  0.12500000000E+03 0.  0.
</event>
<event>
 4    0  0.2196599E-002  0.1858707E+03  0.7546771E-02  0.1162239E+00
         21   -1    0    0  502  501  0.00000000000E+00  0.00000000000E+00  0.35979293125E+03  0.35979293125E+03  0.00000000000E+00 0. -1.
         21   -1    0    0  501  502 -0.00000000000E+00 -0.00000000000E+00 -0.96021683348E+02  0.96021683348E+02  0.00000000000E+00 0. -1.
         25    1    1    2    0    0 -0.21835016462E+02 -0.51959098150E+01  0.29829667351E+03  0.32420621655E+03  0.12500000000E+03 0.  0.
         25    1    1    2    0    0  0.21835016462E+02  0.51959098150E+01 -0.34525425610E+02  0.13160839805E+03  0.12500000000E+03 0.  0.
</event>
<event>
 4    0  0.2196599E-002  0.2339015E+03  0.7546771E-02  0.1123923E+00
         21   -1    0    0  502  501  0.00000000000E+00  0.00000000000E+00  0.42144072792E+03  0.42144072792E+03  0.00000000000E+00 0. -1.
         21   -1    0    0  501  502 -0.00000000000E+00 -0.00000000000E+00 -0.12981633583E+03  0.12981633583E+03  0.00000000000E+00 0. -1.
         25    1    1    2    0    0 -0.18735144545E+03 -0.50890247749E+02  0.10180719787E+03  0.25234913704E+03  0.12500000000E+03 0.  0.
         25    1    1    2    0    0  0.18735144545E+03  0.50890247749E+02  0.18981719422E+03  0.29890792671E+03  0.12500000000E+03 0.  0.
</event>
<event>
 4    0  0.2196599E-002  0.1588887E+03  0.7546771E-02  0.1189957E+00
         21   -1    0    0  502  501  0.00000000000E+00  0.00000000000E+00  0.14267687739E+03  0.14267687739E+03  0.00000000000E+00 0. -1.
         21   -1    0    0  501  502 -0.00000000000E+00 -0.00000000000E+00 -0.17694264794E+03  0.17694264794E+03  0.00000000000E+00 0. -1.
         25    1    1    2    0    0 -0.22040217715E+02  0.94819912921E+02 -0.50617563993E+01  0.15851564106E+03  0.12500000000E+03 0.  0.
         25    1    1    2    0    0  0.22040217715E+02 -0.94819912921E+02 -0.29204014154E+02  0.16110388427E+03  0.12500000000E+03 0.  0.
</event>
<event>
 4    0  0.2196599E-002  0.2097971E+03  0.7546771E-02  0.1141727E+00
         21   -1    0    0  502  501  0.00000000000E+00  0.00000000000E+00  0.10186432310E+04  0.10186432310E+04  0.00000000000E+00 0. -1.
         21   -1    0    0  501  502 -0.00000000000E+00 -0.00000000000E+00 -0.43209260999E+02  0.43209260999E+02  0.00000000000E+00 0. -1.
         25    1    1    2    0    0 -0.71512013209E+02  0.80687224748E+02  0.16004296676E+03  0.22991987187E+03  0.12500000000E+03 0.  0.
         25    1    1    2    0    0  0.71512013209E+02 -0.80687224748E+02  0.81539100329E+03  0.83193262018E+03  0.12500000000E+03 0.  0.
</event>
<event>
 4    0  0.2196599E-002  0.1934737E+03  0.7546771E-02  0.1155365E+00
         21   -1    0    0  502  501  0.00000000000E+00  0.00000000000E+00  0.25643725836E+02  0.25643725836E+02  0.00000000000E+00 0. -1.
         21   -1    0    0  501  502 -0.00000000000E+00 -0.00000000000E+00 -0.14596978598E+04  0.14596978598E+04  0.00000000000E+00 0. -1.
         25    1    1    2    0    0  0.12708614284E+03 -0.43324609328E+02 -0.95300598974E+03  0.97050158473E+03  0.12500000000E+03 0.  0.
         25    1    1    2    0    0 -0.12708614284E+03  0.43324609328E+02 -0.48104814421E+03  0.51484000090E+03  0.12500000000E+03 0.  0.
</event>
<event>
 4    0  0.2196599E-002  0.2228944E+03  0.7546771E-02  0.1131743E+00
         21   -1    0    0  502  501  0.00000000000E+00  0.00000000000E+00  0.35109400391E+02  0.35109400391E+02  0.00000000000E+00 0.  1.
         21   -1    0    0  501  502 -0.00000000000E+00 -0.00000000000E+00 -0.14150599373E+04  0.14150599373E+04  0.00000000000E+00 0.  1.
         25    1    1    2    0    0 -0.79929946743E+02  0.13637677839E+03 -0.99977489098E+03  0.10198834515E+04  0.12500000000E+03 0.  0.
         25    1    1    2    0    0  0.79929946743E+02 -0.13637677839E+03 -0.38017564589E+03  0.43028588613E+03  0.12500000000E+03 0.  0.
</event>
<event>
 4    0  0.2196599E-002  0.2579246E+03  0.7546771E-02  0.1108397E+00
         21   -1    0    0  502  501  0.00000000000E+00  0.00000000000E+00  0.35783014441E+04  0.35783014441E+04  0.00000000000E+00 0.  1.
         21   -1    0    0  501  502 -0.00000000000E+00 -0.00000000000E+00 -0.18591253226E+02  0.18591253226E+02  0.00000000000E+00 0.  1.
         25    1    1    2    0    0 -0.28550552873E+02  0.88571465884E+02  0.32129237743E+04  0.32167008282E+04  0.12500000000E+03 0.  0.
         25    1    1    2    0    0  0.28550552873E+02 -0.88571465884E+02  0.34678641663E+03  0.38019186919E+03  0.12500000000E+03 0.  0.
</event>
<event>
 4    0  0.2196599E-002  0.2246410E+03  0.7546771E-02  0.1130470E+00
         21   -1    0    0  502  501  0.00000000000E+00  0.00000000000E+00  0.38382624498E+02  0.38382624498E+02  0.00000000000E+00 0. -1.
         21   -1    0    0  501  502 -0.00000000000E+00 -0.00000000000E+00 -0.13147505577E+04  0.13147505577E+04  0.00000000000E+00 0. -1.
         25    1    1    2    0    0 -0.16315746756E+03 -0.82701571797E+02 -0.75001216915E+03  0.78205061414E+03  0.12500000000E+03 0.  0.
         25    1    1    2    0    0  0.16315746756E+03  0.82701571797E+02 -0.52635576407E+03  0.57108256808E+03  0.12500000000E+03 0.  0.
</event>
<event>
 4    0  0.2196599E-002  0.2126408E+03  0.7546771E-02  0.1139492E+00
         21   -1    0    0  502  501  0.00000000000E+00  0.00000000000E+00  0.24109943073E+03  0.24109943073E+03  0.00000000000E+00 0. -1.
         21   -1    0    0  501  502 -0.00000000000E+00 -0.00000000000E+00 -0.18754130138E+03  0.18754130138E+03  0.00000000000E+00 0. -1.
         25    1    1    2    0    0 -0.71506392045E+02  0.90200960228E+02 -0.10206541574E+03  0.19822140757E+03  0.12500000000E+03 0.  0.
         25    1    1    2    0    0  0.71506392045E+02 -0.90200960228E+02  0.15562354509E+03  0.23041932453E+03  0.12500000000E+03 0.  0.
</event>
<event>
 4    0  0.2196599E-002  0.2904855E+03  0.7546771E-02  0.1090096E+00
         21   -1    0    0  502  501  0.00000000000E+00  0.00000000000E+00  0.29816352144E+03  0.29816352144E+03  0.00000000000E+00 0. -1.
         21   -1    0    0  501  502 -0.00000000000E+00 -0.00000000000E+00 -0.28300510680E+03  0.28300510680E+03  0.00000000000E+00 0. -1.
         25    1    1    2    0    0 -0.20866236218E+03  0.15790122668E+03  0.24437849137E+02  0.29102403208E+03  0.12500000000E+03 0.  0.
         25    1    1    2    0    0  0.20866236218E+03 -0.15790122668E+03 -0.92794344968E+01  0.29014459616E+03  0.12500000000E+03 0.  0.
</event>
<event>
 4    0  0.2196599E-002  0.1749103E+03  0.7546771E-02  0.1172822E+00
         21   -1    0    0  502  501  0.00000000000E+00  0.00000000000E+00  0.57246244185E+03  0.57246244185E+03  0.00000000000E+00 0.  1.
         21   -1    0    0  501  502 -0.00000000000E+00 -0.00000000000E+00 -0.53442160362E+02  0.53442160362E+02  0.00000000000E+00 0.  1.
         25    1    1    2    0    0  0.48738387950E+02  0.10702260094E+03  0.19911617876E+03  0.26287168013E+03  0.12500000000E+03 0.  0.
         25    1    1    2    0    0 -0.48738387950E+02 -0.10702260094E+03  0.31990410273E+03  0.36303292208E+03  0.12500000000E+03 0.  0.
</event>
<event>
 4    0  0.2196599E-002  0.1713159E+03  0.7546771E-02  0.1176482E+00
         21   -1    0    0  502  501  0.00000000000E+00  0.00000000000E+00  0.81125202197E+02  0.81125202197E+02  0.00000000000E+00 0. -1.
         21   -1    0    0  501  502 -0.00000000000E+00 -0.00000000000E+00 -0.36177601328E+03  0.36177601328E+03  0.00000000000E+00 0. -1.
         25    1    1    2    0    0 -0.86642010803E+02  0.43730246376E+02 -0.22513884043E+03  0.27519387703E+03  0.12500000000E+03 0.  0.
         25    1    1    2    0    0  0.86642010803E+02 -0.43730246376E+02 -0.55511970657E+02  0.16770733845E+03  0.12500000000E+03 0.  0.
</event>
<event>
 4    0  0.2196599E-002  0.1481853E+03  0.7546771E-02  0.1202721E+00
         21   -1    0    0  502  501  0.00000000000E+00  0.00000000000E+00  0.40975440257E+03  0.40975440257E+03  0.00000000000E+00 0. -1.
         21   -1    0    0  501  502 -0.00000000000E+00 -0.00000000000E+00 -0.53590378239E+02  0.53590378239E+02  0.00000000000E+00 0. -1.
         25    1    1    2    0    0 -0.72996674020E+02 -0.49215715147E+01  0.12911108376E+03  0.19402940044E+03  0.12500000000E+03 0.  0.
         25    1    1    2    0    0  0.72996674020E+02  0.49215715147E+01  0.22705294057E+03  0.26931538037E+03  0.12500000000E+03 0.  0.
</event>
<event>
 4    0  0.2196599E-002  0.2022366E+03  0.7546771E-02  0.1147866E+00
         21   -1    0    0  502  501  0.00000000000E+00  0.00000000000E+00  0.20050988447E+03  0.20050988447E+03  0.00000000000E+00 0. -1.
         21   -1    0    0  501  502 -0.00000000000E+00 -0.00000000000E+00 -0.20397822389E+03  0.20397822389E+03  0.00000000000E+00 0. -1.
         25    1    1    2    0    0  0.65212539779E+02  0.14498791648E+03 -0.10421630385E+01  0.20223812047E+03  0.12500000000E+03 0.  0.
         25    1    1    2    0    0 -0.65212539779E+02 -0.14498791648E+03 -0.24261763780E+01  0.20224998789E+03  0.12500000000E+03 0.  0.
</event>
<event>
 4    0  0.2196599E-002  0.5030670E+03  0.7546771E-02  0.1012981E+00
         21   -1    0    0  502  501  0.00000000000E+00  0.00000000000E+00  0.10343747999E+03  0.10343747999E+03  0.00000000000E+00 0.  1.
         21   -1    0    0  501  502 -0.00000000000E+00 -0.00000000000E+00 -0.24466606222E+04  0.24466606222E+04  0.00000000000E+00 0.  1.
         25    1    1    2    0    0 -0.13852493105E+03  0.39499748350E+03 -0.18039261617E+04  0.18560675541E+04  0.12500000000E+03 0.  0.
         25    1    1    2    0    0  0.13852493105E+03 -0.39499748350E+03 -0.53929698048E+03  0.69403054807E+03  0.12500000000E+03 0.  0.
</event>
<event>
 4    0  0.2196599E-002  0.2059322E+03  0.7546771E-02  0.1144828E+00
         21   -1    0    0  502  501  0.00000000000E+00  0.00000000000E+00  0.33344718942E+03  0.33344718942E+03  0.00000000000E+00 0.  1.
         21   -1    0    0  501  502 -0.00000000000E+00 -0.00000000000E+00 -0.12718074097E+03  0.12718074097E+03  0.00000000000E+00 0.  1.
         25    1    1    2    0    0 -0.14742827884E+03 -0.24640319917E+02  0.28603837650E+02  0.19694014902E+03  0.12500000000E+03 0.  0.
         25    1    1    2    0    0  0.14742827884E+03  0.24640319917E+02  0.17766261081E+03  0.26368778137E+03  0.12500000000E+03 0.  0.
</event>
<event>
 4    0  0.2196599E-002  0.3521598E+03  0.7546771E-02  0.1061732E+00
         21   -1    0    0  502  501  0.00000000000E+00  0.00000000000E+00  0.72810101636E+03  0.72810101636E+03  0.00000000000E+00 0.  1.
         21   -1    0    0  501  502 -0.00000000000E+00 -0.00000000000E+00 -0.17032869740E+03  0.17032869740E+03  0.00000000000E+00 0.  1.
         25    1    1    2    0    0 -0.21980459369E+03  0.21398192027E+02 -0.32578479345E+02  0.25584819590E+03  0.12500000000E+03 0.  0.
         25    1    1    2    0    0  0.21980459369E+03 -0.21398192027E+02  0.59035079831E+03  0.64258151786E+03  0.12500000000E+03 0.  0.
</event>
<event>
 4    0  0.2196599E-002  0.1897063E+03  0.7546771E-02  0.1158727E+00
         21   -1    0    0  502  501  0.00000000000E+00  0.00000000000E+00  0.22986320069E+02  0.22986320069E+02  0.00000000000E+00 0.  1.
         21   -1    0    0  501  502 -0.00000000000E+00 -0.00000000000E+00 -0.15656474814E+04  0.15656474814E+04  0.00000000000E+00 0.  1.
         25    1    1    2    0    0 -0.85295978358E+02 -0.10588941865E+03 -0.95266103996E+03  0.97039993300E+03  0.12500000000E+03 0.  0.
         25    1    1    2    0    0  0.85295978358E+02  0.10588941865E+03 -0.59000012139E+03  0.61823386849E+03  0.12500000000E+03 0.  0.
</event>
<event>
 4    0  0.2196599E-002  0.1970442E+03  0.7546771E-02  0.1152257E+00
         21   -1    0    0  502  501  0.00000000000E+00  0.00000000000E+00  0.62757608594E+02  0.62757608594E+02  0.00000000000E+00 0. -1.
         21   -1    0    0  501  502 -0.00000000000E+00 -0.00000000000E+00 -0.61867297341E+03  0.61867297341E+03  0.00000000000E+00 0. -1.
         25    1    1    2    0    0 -0.62602718289E+02  0.13579967744E+03 -0.22781934007E+03  0.29981211523E+03  0.12500000000E+03 0.  0.
         25    1    1    2    0    0  0.62602718289E+02 -0.13579967744E+03 -0.32809602475E+03  0.38161846678E+03  0.12500000000E+03 0.  0.
</event>
<event>
 4    0  0.2196599E-002  0.3147008E+03  0.7546771E-02  0.1078114E+00
         21   -1    0    0  502  501  0.00000000000E+00  0.00000000000E+00  0.40644131658E+03  0.40644131658E+03  0.00000000000E+00 0.  1.
         21   -1    0    0  501  502 -0.00000000000E+00 -0.00000000000E+00 -0.24366761445E+03  0.24366761445E+03  0.00000000000E+00 0.  1.
         25    1    1    2    0    0 -0.13178538494E+01 -0.38168059924E+02 -0.21430602582E+03  0.25101914317E+03  0.12500000000E+03 0.  0.
         25    1    1    2    0    0  0.13178538494E+01  0.38168059924E+02  0.37707972795E+03  0.39908978785E+03  0.12500000000E+03 0.  0.
</event>
<event>
 4    0  0.2196599E-002  0.2492655E+03  0.7546771E-02  0.1113770E+00
         21   -1    0    0  502  501  0.00000000000E+00  0.00000000000E+00  0.48865373202E+03  0.48865373202E+03  0.00000000000E+00 0.  1.
         21   -1    0    0  501  502 -0.00000000000E+00 -0.00000000000E+00 -0.12715202353E+03  0.12715202353E+03  0.00000000000E+00 0.  1.
         25    1    1    2    0    0 -0.79515884029E+02 -0.19785390289E+03  0.22057405821E+03  0.33128063308E+03  0.12500000000E+03 0.  0.
         25    1    1    2    0    0  0.79515884029E+02  0.19785390289E+03  0.14092765028E+03  0.28452512247E+03  0.12500000000E+03 0.  0.
</event>
<event>
 4    0  0.2196599E-002  0.1867495E+03  0.7546771E-02  0.1161426E+00
         21   -1    0    0  502  501  0.00000000000E+00  0.00000000000E+00  0.87395146696E+02  0.87395146696E+02  0.00000000000E+00 0. -1.
         21   -1    0    0  501  502 -0.00000000000E+00 -0.00000000000E+00 -0.39905390273E+03  0.39905390273E+03  0.00000000000E+00 0. -1.
         25    1    1    2    0    0 -0.34501633734E+02 -0.13379100615E+03 -0.13935615874E+03  0.23267044298E+03  0.12500000000E+03 0.  0.
         25    1    1    2    0    0  0.34501633734E+02  0.13379100615E+03 -0.17230259729E+03  0.25377860645E+03  0.12500000000E+03 0.  0.
</event>
<event>
 4    0  0.2196599E-002  0.1965137E+03  0.7546771E-02  0.1152714E+00
         21   -1    0    0  502  501  0.00000000000E+00  0.00000000000E+00  0.15511761050E+03  0.15511761050E+03  0.00000000000E+00 0. -1.
         21   -1    0    0  501  502 -0.00000000000E+00 -0.00000000000E+00 -0.24895706031E+03  0.24895706031E+03  0.00000000000E+00 0. -1.
         25    1    1    2    0    0  0.96928946137E+01 -0.16643538633E+02 -0.20155235270E+03  0.23794812557E+03  0.12500000000E+03 0.  0.
         25    1    1    2    0    0 -0.96928946137E+01  0.16643538633E+02  0.10771290289E+03  0.16612654524E+03  0.12500000000E+03 0.  0.
</event>
<event>
 4    0  0.2196599E-002  0.2559833E+03  0.7546771E-02  0.1109581E+00
         21   -1    0    0  502  501  0.00000000000E+00  0.00000000000E+00  0.29459681242E+03  0.29459681242E+03  0.00000000000E+00 0.  1.
         21   -1    0    0  501  502 -0.00000000000E+00 -0.00000000000E+00 -0.22243096781E+03  0.22243096781E+03  0.00000000000E+00 0.  1.
         25    1    1    2    0    0 -0.57823677270E+02  0.16275901225E+03  0.17914627468E+03  0.27848242576E+03  0.12500000000E+03 0.  0.
         25    1    1    2    0    0  0.57823677270E+02 -0.16275901225E+03 -0.10698043007E+03  0.23854535447E+03  0.12500000000E+03 0.  0.
</event>
<event>
 4    0  0.2196599E-002  0.2902558E+03  0.7546771E-02  0.1090216E+00
         21   -1    0    0  502  501  0.00000000000E+00  0.00000000000E+00  0.23788471053E+03  0.23788471053E+03  0.00000000000E+00 0. -1.
         21   -1    0    0  501  502 -0.00000000000E+00 -0.00000000000E+00 -0.35415662024E+03  0.35415662024E+03  0.00000000000E+00 0. -1.
         25    1    1    2    0    0  0.18842587941E+03 -0.15430771043E+02 -0.24306867295E+03  0.33233988701E+03  0.12500000000E+03 0.  0.
         25    1    1    2    0    0 -0.18842587941E+03  0.15430771043E+02  0.12679676324E+03  0.25970144377E+03  0.12500000000E+03 0.  0.
</event>
<event>
 4    0  0.2196599E-002  0.2943998E+03  0.7546771E-02  0.1088074E+00
         21   -1    0    0  502  501  0.00000000000E+00  0.00000000000E+00  0.74705395079E+02  0.74705395079E+02  0.00000000000E+00 0.  1.
         21   -1    0    0  501  502 -0.00000000000E+00 -0.00000000000E+00 -0.11601736422E+04  0.11601736422E+04  0.00000000000E+00 0.  1.
         25    1    1    2    0    0 -0.16269231629E+03 -0.20875337882E+03 -0.47642989175E+03  0.55915758486E+03  0.12500000000E+03 0.  0.
         25    1    1    2    0    0  0.16269231629E+03  0.20875337882E+03 -0.60903835536E+03  0.67572145241E+03  0.12500000000E+03 0.  0.
</event>
<event>
 4    0  0.2196599E-002  0.2416880E+03  0.7546771E-02  0.1118673E+00
         21   -1    0    0  502  501  0.00000000000E+00  0.00000000000E+00  0.21836316749E+04  0.21836316749E+04  0.00000000000E+00 0. -1.
         21   -1    0    0  501  502 -0.00000000000E+00 -0.00000000000E+00 -0.26750432572E+02  0.26750432572E+02  0.00000000000E+00 0. -1.
         25    1    1    2    0    0  0.16011356026E+03 -0.95857156208E+02  0.14865011459E+04  0.15033747381E+04  0.12500000000E+03 0.  0.
         25    1    1    2    0    0 -0.16011356026E+03  0.95857156208E+02  0.67038009642E+03  0.70700736931E+03  0.12500000000E+03 0.  0.
</event>
<event>
 4    0  0.2196599E-002  0.2037844E+03  0.7546771E-02  0.1146585E+00
         21   -1    0    0  502  501  0.00000000000E+00  0.00000000000E+00  0.10883943503E+04  0.10883943503E+04  0.00000000000E+00 0.  1.
         21   -1    0    0  501  502 -0.00000000000E+00 -0.00000000000E+00 -0.38155348157E+02  0.38155348157E+02  0.00000000000E+00 0.  1.
         25    1    1    2    0    0 -0.87033079198E+02  0.73379333159E+02  0.21064886109E+03  0.27010595344E+03  0.12500000000E+03 0.  0.
         25    1    1    2    0    0  0.87033079198E+02 -0.73379333159E+02  0.83959014101E+03  0.85644374496E+03  0.12500000000E+03 0.  0.
</event>
<event>
 4    0  0.2196599E-002  0.2100374E+03  0.7546771E-02  0.1141536E+00
         21   -1    0    0  502  501  0.00000000000E+00  0.00000000000E+00  0.24278056365E+03  0.24278056365E+03  0.00000000000E+00 0.  1.
         21   -1    0    0  501  502 -0.00000000000E+00 -0.00000000000E+00 -0.18171020378E+03  0.18171020378E+03  0.00000000000E+00 0.  1.
         25    1    1    2    0    0 -0.12132740699E+03  0.18543245825E+02 -0.86555754810E+02  0.19539982176E+03  0.12500000000E+03 0.  0.
         25    1    1    2    0    0  0.12132740699E+03 -0.18543245825E+02  0.14762611468E+03  0.22909094567E+03  0.12500000000E+03 0.  0.
</event>
<event>
 4    0  0.2196599E-002  0.3061211E+03  0.7546771E-02  0.1082220E+00
         21   -1    0    0  502  501  0.00000000000E+00  0.00000000000E+00  0.48300886625E+03  0.48300886625E+03  0.00000000000E+00 0. -1.
         21   -1    0    0  501  502 -0.00000000000E+00 -0.00000000000E+00 -0.19401324999E+03  0.19401324999E+03  0.00000000000E+00 0. -1.
         25    1    1    2    0    0 -0.25805153292E+03  0.73774128011E+02  0.23052299795E+03  0.37523201915E+03  0.12500000000E+03 0.  0.
         25    1    1    2    0    0  0.25805153292E+03 -0.73774128011E+02  0.58472618306E+02  0.30179009709E+03  0.12500000000E+03 0.  0.
</event>
<event>
 4    0  0.2196599E-002  0.1946525E+03  0.7546771E-02  0.1154331E+00
         21   -1    0    0  502  501  0.00000000000E+00  0.00000000000E+00  0.23488344449E+03  0.23488344449E+03  0.00000000000E+00 0. -1.
         21   -1    0    0  501  502 -0.00000000000E+00 -0.00000000000E+00 -0.16131240823E+03  0.16131240823E+03  0.00000000000E+00 0. -1.
         25    1    1    2    0    0  0.29553795497E+02  0.23752293117E+02 -0.11008457223E+03  0.17082508978E+03  0.12500000000E+03 0.  0.
         25    1    1    2    0    0 -0.29553795497E+02 -0.23752293117E+02  0.18365560849E+03  0.22537076294E+03  0.12500000000E+03 0.  0.
</event>
<event>
 4    0  0.2196599E-002  0.1692213E+03  0.7546771E-02  0.1178662E+00
         21   -1    0    0  502  501  0.00000000000E+00  0.00000000000E+00  0.55465119997E+03  0.55465119997E+03  0.00000000000E+00 0. -1.
         21   -1    0    0  501  502 -0.00000000000E+00 -0.00000000000E+00 -0.51628581282E+02  0.51628581282E+02  0.00000000000E+00 0. -1.
         25    1    1    2    0    0 -0.56480753960E+01  0.85120771441E+02  0.38715338984E+03  0.41568039857E+03  0.12500000000E+03 0.  0.
         25    1    1    2    0    0  0.56480753960E+01 -0.85120771441E+02  0.11586922884E+03  0.19059938268E+03  0.12500000000E+03 0.  0.
</event>
<event>
 4    0  0.2196599E-002  0.1714278E+03  0.7546771E-02  0.1176367E+00
         21   -1    0    0  502  501  0.00000000000E+00  0.00000000000E+00  0.10309476906E+04  0.10309476906E+04  0.00000000000E+00 0.  1.
         21   -1    0    0  501  502 -0.00000000000E+00 -0.00000000000E+00 -0.28505308215E+02  0.28505308215E+02  0.00000000000E+00 0.  1.
         25    1    1    2    0    0  0.11517216973E+03 -0.89101620352E+00  0.43232828262E+03  0.46454081257E+03  0.12500000000E+03 0.  0.
         25    1    1    2    0    0 -0.11517216973E+03  0.89101620352E+00  0.57011409974E+03  0.59491218622E+03  0.12500000000E+03 0.  0.
</event>
<event>
 4    0  0.2196599E-002  0.2261833E+03  0.7546771E-02  0.1129355E+00
         21   -1    0    0  502  501  0.00000000000E+00  0.00000000000E+00  0.11706960263E+03  0.11706960263E+03  0.00000000000E+00 0. -1.
         21   -1    0    0  501  502 -0.00000000000E+00 -0.00000000000E+00 -0.43699538318E+03  0.43699538318E+03  0.00000000000E+00 0. -1.
         25    1    1    2    0    0 -0.75681361708E+02 -0.15627493436E+03 -0.70088295489E+02  0.22513749750E+03  0.12500000000E+03 0.  0.
         25    1    1    2    0    0  0.75681361708E+02  0.15627493436E+03 -0.24983748506E+03  0.32892748830E+03  0.12500000000E+03 0.  0.
</event>
<event>
 4    0  0.2196599E-002  0.3702987E+03  0.7546771E-02  0.1054579E+00
         21   -1    0    0  502  501  0.00000000000E+00  0.00000000000E+00  0.99980170182E+02  0.99980170182E+02  0.00000000000E+00 0.  1.
         21   -1    0    0  501  502 -0.00000000000E+00 -0.00000000000E+00 -0.13714834454E+04  0.13714834454E+04  0.00000000000E+00 0.  1.
         25    1    1    2    0    0 -0.33057049303E+03 -0.35867316305E+01 -0.85526536955E+03  0.92541534883E+03  0.12500000000E+03 0.  0.
         25    1    1    2    0    0  0.33057049303E+03  0.35867316305E+01 -0.41623790568E+03  0.54604826676E+03  0.12500000000E+03 0.  0.
</event>
<event>
 4    0  0.2196599E-002  0.1599200E+03  0.7546771E-02  0.1188787E+00
         21   -1    0    0  502  501  0.00000000000E+00  0.00000000000E+00  0.35962260248E+03  0.35962260248E+03  0.00000000000E+00 0. -1.
         21   -1    0    0  501  502 -0.00000000000E+00 -0.00000000000E+00 -0.71114594626E+02  0.71114594626E+02  0.00000000000E+00 0. -1.
         25    1    1    2    0    0  0.12193592474E+02  0.90189357282E+02  0.89275016137E+02  0.17854364276E+03  0.12500000000E+03 0.  0.
         25    1    1    2    0    0 -0.12193592474E+02 -0.90189357282E+02  0.19923299172E+03  0.25219355434E+03  0.12500000000E+03 0.  0.
</event>
<event>
 4    0  0.2196599E-002  0.2315710E+03  0.7546771E-02  0.1125539E+00
         21   -1    0    0  502  501  0.00000000000E+00  0.00000000000E+00  0.43308742293E+02  0.43308742293E+02  0.00000000000E+00 0.  1.
         21   -1    0    0  501  502 -0.00000000000E+00 -0.00000000000E+00 -0.12382059602E+04  0.12382059602E+04  0.00000000000E+00 0.  1.
         25    1    1    2    0    0  0.63144028309E+02  0.65325940214E+02 -0.12022713867E+03  0.19579124508E+03  0.12500000000E+03 0.  0.
         25    1    1    2    0    0 -0.63144028309E+02 -0.65325940214E+02 -0.10746700792E+04  0.10857234574E+04  0.12500000000E+03 0.  0.
</event>
<event>
 4    0  0.2196599E-002  0.1839060E+03  0.7546771E-02  0.1164075E+00
         21   -1    0    0  502  501  0.00000000000E+00  0.00000000000E+00  0.30555205242E+03  0.30555205242E+03  0.00000000000E+00 0.  1.
         21   -1    0    0  501  502 -0.00000000000E+00 -0.00000000000E+00 -0.11068949600E+03  0.11068949600E+03  0.00000000000E+00 0.  1.
         25    1    1    2    0    0  0.12012550357E+03  0.44059201414E+02  0.14577692195E+03  0.23075367995E+03  0.12500000000E+03 0.  0.
         25    1    1    2    0    0 -0.12012550357E+03 -0.44059201414E+02  0.49085634461E+02  0.18548786847E+03  0.12500000000E+03 0.  0.
</event>
<event>
 4    0  0.2196599E-002  0.1930632E+03  0.7546771E-02  0.1155727E+00
         21   -1    0    0  502  501  0.00000000000E+00  0.00000000000E+00  0.13997576272E+03  0.13997576272E+03  0.00000000000E+00 0.  1.
         21   -1    0    0  501  502 -0.00000000000E+00 -0.00000000000E+00 -0.26628466953E+03  0.26628466953E+03  0.00000000000E+00 0.  1.
         25    1    1    2    0    0 -0.78730447699E+02 -0.11870681598E+03 -0.10193573323E+03  0.21518755834E+03  0.12500000000E+03 0.  0.
         25    1    1    2    0    0  0.78730447699E+02  0.11870681598E+03 -0.24373173584E+02  0.19107287391E+03  0.12500000000E+03 0.  0.
</event>
<event>
 4    0  0.2196599E-002  0.1925252E+03  0.7546771E-02  0.1156203E+00
         21   -1    0    0  502  501  0.00000000000E+00  0.00000000000E+00  0.19121977085E+04  0.19121977085E+04  0.00000000000E+00 0.  1.
         21   -1    0    0  501  502 -0.00000000000E+00 -0.00000000000E+00 -0.19383952555E+02  0.19383952555E+02  0.00000000000E+00 0.  1.
         25    1    1    2    0    0  0.10180511105E+03 -0.87792563847E+02  0.65523146318E+03  0.68045946627E+03  0.12500000000E+03 0.  0.
         25    1    1    2    0    0 -0.10180511105E+03  0.87792563847E+02  0.12375822927E+04  0.12511221948E+04  0.12500000000E+03 0.  0.
</event>
<event>
 4    0  0.2196599E-002  0.2270510E+03  0.7546771E-02  0.1128733E+00
         21   -1    0    0  502  501  0.00000000000E+00  0.00000000000E+00  0.12193817572E+04  0.12193817572E+04  0.00000000000E+00 0.  1.
         21   -1    0    0  501  502 -0.00000000000E+00 -0.00000000000E+00 -0.42277305151E+02  0.42277305151E+02  0.00000000000E+00 0.  1.
         25    1    1    2    0    0  0.11976860884E+03 -0.11854766074E+03  0.82963171306E+03  0.85575221113E+03  0.12500000000E+03 0.  0.
         25    1    1    2    0    0 -0.11976860884E+03  0.11854766074E+03  0.34747273899E+03  0.40590685122E+03  0.12500000000E+03 0.  0.
</event>
<event>
 4    0  0.2196599E-002  0.3077329E+03  0.7546771E-02  0.1081438E+00
         21   -1    0    0  502  501  0.00000000000E+00  0.00000000000E+00  0.20043730789E+03  0.20043730789E+03  0.00000000000E+00 0.  1.
         21   -1    0    0  501  502 -0.00000000000E+00 -0.00000000000E+00 -0.47246473007E+03  0.47246473007E+03  0.00000000000E+00 0.  1.
         25    1    1    2    0    0 -0.12562027416E+03 -0.24943202100E+03 -0.10012057905E+03  0.32194085906E+03  0.12500000000E+03 0.  0.
         25    1    1    2    0    0  0.12562027416E+03  0.24943202100E+03 -0.17190684312E+03  0.35096117890E+03  0.12500000000E+03 0.  0.
</event>
<event>
 4    0  0.2196599E-002  0.2118343E+03  0.7546771E-02  0.1140122E+00
         21   -1    0    0  502  501  0.00000000000E+00  0.00000000000E+00  0.86708660156E+03  0.86708660156E+03  0.00000000000E+00 0.  1.
         21   -1    0    0  501  502 -0.00000000000E+00 -0.00000000000E+00 -0.51752331027E+02  0.51752331027E+02  0.00000000000E+00 0.  1.
         25    1    1    2    0    0  0.12533412778E+03 -0.18191511667E+01  0.65999848013E+03  0.68332638371E+03  0.12500000000E+03 0.  0.
         25    1    1    2    0    0 -0.12533412778E+03  0.18191511667E+01  0.15533579040E+03  0.23551254887E+03  0.12500000000E+03 0.  0.
</event>
<event>
 4    0  0.2196599E-002  0.2207282E+03  0.7546771E-02  0.1133341E+00
         21   -1    0    0  502  501  0.00000000000E+00  0.00000000000E+00  0.19235110757E+02  0.19235110757E+02  0.00000000000E+00 0.  1.
         21   -1    0    0  501  502 -0.00000000000E+00 -0.00000000000E+00 -0.25329165759E+04  0.25329165759E+04  0.00000000000E+00 0.  1.
         25    1    1    2    0    0  0.15568280721E+03  0.74466140466E+02 -0.15896289758E+04  0.16038477557E+04  0.12500000000E+03 0.  0.
         25    1    1    2    0    0 -0.15568280721E+03 -0.74466140466E+02 -0.92405248931E+03  0.94830393099E+03  0.12500000000E+03 0.  0.
</event>
<event>
 4    0  0.2196599E-002  0.3698199E+03  0.7546771E-02  0.1054762E+00
         21   -1    0    0  502  501  0.00000000000E+00  0.00000000000E+00  0.19726975832E+03  0.19726975832E+03  0.00000000000E+00 0. -1.
         21   -1    0    0  501  502 -0.00000000000E+00 -0.00000000000E+00 -0.69329829367E+03  0.69329829367E+03  0.00000000000E+00 0. -1.
         25    1    1    2    0    0  0.24088507252E+02 -0.12929196101E+03 -0.63602151618E+03  0.66139627789E+03  0.12500000000E+03 0.  0.
         25    1    1    2    0    0 -0.24088507252E+02  0.12929196101E+03  0.13999298083E+03  0.22917177410E+03  0.12500000000E+03 0.  0.
</event>
<event>
 4    0  0.2196599E-002  0.2708585E+03  0.7546771E-02  0.1100789E+00
         21   -1    0    0  502  501  0.00000000000E+00  0.00000000000E+00  0.10577579579E+04  0.10577579579E+04  0.00000000000E+00 0.  1.
         21   -1    0    0  501  502 -0.00000000000E+00 -0.00000000000E+00 -0.69358320171E+02  0.69358320171E+02  0.00000000000E+00 0.  1.
         25    1    1    2    0    0  0.11714218226E+03  0.20760735393E+03  0.43122107355E+03  0.50833032424E+03  0.12500000000E+03 0.  0.
         25    1    1    2    0    0 -0.11714218226E+03 -0.20760735393E+03  0.55717856419E+03  0.61878595384E+03  0.12500000000E+03 0.  0.
</event>
<event>
 4    0  0.2196599E-002  0.2606646E+03  0.7546771E-02  0.1106745E+00
         21   -1    0    0  502  501  0.00000000000E+00  0.00000000000E+00  0.23284369717E+03  0.23284369717E+03  0.00000000000E+00 0.  1.
         21   -1    0    0  501  502 -0.00000000000E+00 -0.00000000000E+00 -0.29180952906E+03  0.29180952906E+03  0.00000000000E+00 0.  1.
         25    1    1    2    0    0  0.20244545015E+03 -0.97991081031E+02 -0.71396974459E+02  0.26703733861E+03  0.12500000000E+03 0.  0.
         25    1    1    2    0    0 -0.20244545015E+03  0.97991081031E+02  0.12431142573E+02  0.25761588762E+03  0.12500000000E+03 0.  0.
</event>
<event>
 4    0  0.2196599E-002  0.1822660E+03  0.7546771E-02  0.1165628E+00
         21   -1    0    0  502  501  0.00000000000E+00  0.00000000000E+00  0.14997472572E+02  0.14997472572E+02  0.00000000000E+00 0. -1.
         21   -1    0    0  501  502 -0.00000000000E+00 -0.00000000000E+00 -0.22151000726E+04  0.22151000726E+04  0.00000000000E+00 0. -1.
         25    1    1    2    0    0  0.35071325326E+01  0.52315628818E+02 -0.18454743001E+04  0.18504457888E+04  0.12500000000E+03 0.  0.
         25    1    1    2    0    0 -0.35071325326E+01 -0.52315628818E+02 -0.35462829991E+03  0.37965175634E+03  0.12500000000E+03 0.  0.
</event>
<event>
 4    0  0.2196599E-002  0.2887894E+03  0.7546771E-02  0.1090983E+00
         21   -1    0    0  502  501  0.00000000000E+00  0.00000000000E+00  0.21686836949E+03  0.21686836949E+03  0.00000000000E+00 0.  1.
         21   -1    0    0  501  502 -0.00000000000E+00 -0.00000000000E+00 -0.38456200980E+03  0.38456200980E+03  0.00000000000E+00 0.  1.
         25    1    1    2    0    0 -0.74631671242E+02  0.81554636444E+02  0.16158392435E+03  0.23228303788E+03  0.12500000000E+03 0.  0.
         25    1    1    2    0    0  0.74631671242E+02 -0.81554636444E+02 -0.32927756466E+03  0.36914734141E+03  0.12500000000E+03 0.  0.
</event>
<event>
 4    0  0.2196599E-002  0.1569638E+03  0.7546771E-02  0.1192168E+00
         21   -1    0    0  502  501  0.00000000000E+00  0.00000000000E+00  0.11393705819E+04  0.11393705819E+04  0.00000000000E+00 0. -1.
         21   -1    0    0  501  502 -0.00000000000E+00 -0.00000000000E+00 -0.21623895623E+02  0.21623895623E+02  0.00000000000E+00 0. -1.
         25    1    1    2    0    0  0.86207273372E+02 -0.38309396965E+02  0.59824346276E+03  0.61840079609E+03  0.12500000000E+03 0.  0.
         25    1    1    2    0    0 -0.86207273372E+02  0.38309396965E+02  0.51950322347E+03  0.54259368138E+03  0.12500000000E+03 0.  0.
</event>
<event>
 4    0  0.2196599E-002  0.4563244E+03  0.7546771E-02  0.1025853E+00
         21   -1    0    0  502  501  0.00000000000E+00  0.00000000000E+00  0.12811248211E+04  0.12811248211E+04  0.00000000000E+00 0.  1.
         21   -1    0    0  501  502 -0.00000000000E+00 -0.00000000000E+00 -0.16253835971E+03  0.16253835971E+03  0.00000000000E+00 0.  1.
         25    1    1    2    0    0 -0.31756147684E+03  0.20956095136E+03  0.90529978978E+03  0.98992615547E+03  0.12500000000E+03 0.  0.
         25    1    1    2    0    0  0.31756147684E+03 -0.20956095136E+03  0.21328667166E+03  0.45373702539E+03  0.12500000000E+03 0.  0.
</event>
<event>
 4    0  0.2196599E-002  0.2302485E+03  0.7546771E-02  0.1126465E+00
         21   -1    0    0  502  501  0.00000000000E+00  0.00000000000E+00  0.13164732213E+03  0.13164732213E+03  0.00000000000E+00 0.  1.
         21   -1    0    0  501  502 -0.00000000000E+00 -0.00000000000E+00 -0.40270008775E+03  0.40270008775E+03  0.00000000000E+00 0.  1.
         25    1    1    2    0    0  0.17200314960E+03  0.13856309726E+01 -0.33029533248E+02  0.21518121087E+03  0.12500000000E+03 0.  0.
         25    1    1    2    0    0 -0.17200314960E+03 -0.13856309726E+01 -0.23802323237E+03  0.31916619901E+03  0.12500000000E+03 0.  0.
</event>
<event>
 4    0  0.2196599E-002  0.2002323E+03  0.7546771E-02  0.1149543E+00
         21   -1    0    0  502  501  0.00000000000E+00  0.00000000000E+00  0.16567789812E+03  0.16567789812E+03  0.00000000000E+00 0. -1.
         21   -1    0    0  501  502 -0.00000000000E+00 -0.00000000000E+00 -0.24199349970E+03  0.24199349970E+03  0.00000000000E+00 0. -1.
         25    1    1    2    0    0  0.10525926067E+03 -0.70064209558E+02  0.55583383561E+02  0.18628746051E+03  0.12500000000E+03 0.  0.
         25    1    1    2    0    0 -0.10525926067E+03  0.70064209558E+02 -0.13189898514E+03  0.22138393731E+03  0.12500000000E+03 0.  0.
</event>
<event>
 4    0  0.2196599E-002  0.2565584E+03  0.7546771E-02  0.1109229E+00
         21   -1    0    0  502  501  0.00000000000E+00  0.00000000000E+00  0.72007227876E+02  0.72007227876E+02  0.00000000000E+00 0.  1.
         21   -1    0    0  501  502 -0.00000000000E+00 -0.00000000000E+00 -0.91410593437E+03  0.91410593437E+03  0.00000000000E+00 0.  1.
         25    1    1    2    0    0  0.85106302648E+02 -0.42330582322E+02 -0.81095553985E+03  0.82601988388E+03  0.12500000000E+03 0.  0.
         25    1    1    2    0    0 -0.85106302648E+02  0.42330582322E+02 -0.31143166647E+02  0.16009327837E+03  0.12500000000E+03 0.  0.
</event>
<event>
 4    0  0.2196599E-002  0.1839980E+03  0.7546771E-02  0.1163989E+00
         21   -1    0    0  502  501  0.00000000000E+00  0.00000000000E+00  0.17135493776E+03  0.17135493776E+03  0.00000000000E+00 0. -1.
         21   -1    0    0  501  502 -0.00000000000E+00 -0.00000000000E+00 -0.19757384562E+03  0.19757384562E+03  0.00000000000E+00 0. -1.
         25    1    1    2    0    0 -0.26975289938E+02  0.25641216505E+02 -0.14322719220E+03  0.19371155576E+03  0.12500000000E+03 0.  0.
         25    1    1    2    0    0  0.26975289938E+02 -0.25641216505E+02  0.11700828434E+03  0.17521722762E+03  0.12500000000E+03 0.  0.
</event>
<event>
 4    0  0.2196599E-002  0.1668836E+03  0.7546771E-02  0.1181137E+00
         21   -1    0    0  502  501  0.00000000000E+00  0.00000000000E+00  0.59601901668E+03  0.59601901668E+03  0.00000000000E+00 0.  1.
         21   -1    0    0  501  502 -0.00000000000E+00 -0.00000000000E+00 -0.46726931896E+02  0.46726931896E+02  0.00000000000E+00 0.  1.
         25    1    1    2    0    0  0.10388790897E+03 -0.31052093801E+02  0.23297676877E+03  0.28576232247E+03  0.12500000000E+03 0.  0.
         25    1    1    2    0    0 -0.10388790897E+03  0.31052093801E+02  0.31631531602E+03  0.35698362610E+03  0.12500000000E+03 0.  0.
</event>
<event>
 4    0  0.2196599E-002  0.1600737E+03  0.7546771E-02  0.1188614E+00
         21   -1    0    0  502  501  0.00000000000E+00  0.00000000000E+00  0.80068612771E+02  0.80068612771E+02  0.00000000000E+00 0. -1.
         21   -1    0    0  501  502 -0.00000000000E+00 -0.00000000000E+00 -0.32002034621E+03  0.32002034621E+03  0.00000000000E+00 0. -1.
         25    1    1    2    0    0 -0.49680843431E+02 -0.53934764924E+01 -0.11739012258E+02  0.13512986421E+03  0.12500000000E+03 0.  0.
         25    1    1    2    0    0  0.49680843431E+02  0.53934764924E+01 -0.22821272118E+03  0.26495909477E+03  0.12500000000E+03 0.  0.
</event>
<event>
 4    0  0.2196599E-002  0.1899926E+03  0.7546771E-02  0.1158468E+00
         21   -1    0    0  502  501  0.00000000000E+00  0.00000000000E+00  0.21341649437E+04  0.21341649437E+04  0.00000000000E+00 0.  1.
         21   -1    0    0  501  502 -0.00000000000E+00 -0.00000000000E+00 -0.16913962308E+02  0.16913962308E+02  0.00000000000E+00 0.  1.
         25    1    1    2    0    0  0.12845694083E+03 -0.61983789548E+02  0.11229239687E+04  0.11388267714E+04  0.12500000000E+03 0.  0.
         25    1    1    2    0    0 -0.12845694083E+03  0.61983789548E+02  0.99432701262E+03  0.10122521345E+04  0.12500000000E+03 0.  0.
</event>
<event>
 4    0  0.2196599E-002  0.1810618E+03  0.7546771E-02  0.1166779E+00
         21   -1    0    0  502  501  0.00000000000E+00  0.00000000000E+00  0.28531607799E+03  0.28531607799E+03  0.00000000000E+00 0. -1.
         21   -1    0    0  501  502 -0.00000000000E+00 -0.00000000000E+00 -0.11490193444E+03  0.11490193444E+03  0.00000000000E+00 0. -1.
         25    1    1    2    0    0  0.29407157120E+02  0.71772486513E+02  0.20186848637E+03  0.24978381953E+03  0.12500000000E+03 0.  0.
         25    1    1    2    0    0 -0.29407157120E+02 -0.71772486513E+02 -0.31454342815E+02  0.15043419290E+03  0.12500000000E+03 0.  0.
</event>
<event>
 4    0  0.2196599E-002  0.1871616E+03  0.7546771E-02  0.1161047E+00
         21   -1    0    0  502  501  0.00000000000E+00  0.00000000000E+00  0.16893652902E+03  0.16893652902E+03  0.00000000000E+00 0. -1.
         21   -1    0    0  501  502 -0.00000000000E+00 -0.00000000000E+00 -0.20735275342E+03  0.20735275342E+03  0.00000000000E+00 0. -1.
         25    1    1    2    0    0 -0.82665186985E+02  0.53605323298E+02 -0.11820068491E+03  0.19825101699E+03  0.12500000000E+03 0.  0.
         25    1    1    2    0    0  0.82665186985E+02 -0.53605323298E+02  0.79784460514E+02  0.17803826545E+03  0.12500000000E+03 0.  0.
</event>
<event>
 4    0  0.2196599E-002  0.1773331E+03  0.7546771E-02  0.1170409E+00
         21   -1    0    0  502  501  0.00000000000E+00  0.00000000000E+00  0.15840877563E+03  0.15840877563E+03  0.00000000000E+00 0.  1.
         21   -1    0    0  501  502 -0.00000000000E+00 -0.00000000000E+00 -0.19851820218E+03  0.19851820218E+03  0.00000000000E+00 0.  1.
         25    1    1    2    0    0  0.11034233741E+03 -0.38167872953E+02  0.27038958536E+02  0.17317136954E+03  0.12500000000E+03 0.  0.
         25    1    1    2    0    0 -0.11034233741E+03  0.38167872953E+02 -0.67148385081E+02  0.18375560827E+03  0.12500000000E+03 0.  0.
</event>
<event>
 4    0  0.2196599E-002  0.2025615E+03  0.7546771E-02  0.1147596E+00
         21   -1    0    0  502  501  0.00000000000E+00  0.00000000000E+00  0.13792877657E+04  0.13792877657E+04  0.00000000000E+00 0. -1.
         21   -1    0    0  501  502 -0.00000000000E+00 -0.00000000000E+00 -0.29748075805E+02  0.29748075805E+02  0.00000000000E+00 0. -1.
         25    1    1    2    0    0 -0.12862637490E+03 -0.83942884683E+02  0.82294454348E+03  0.84643598332E+03  0.12500000000E+03 0.  0.
         25    1    1    2    0    0  0.12862637490E+03  0.83942884683E+02  0.52659514643E+03  0.56259985820E+03  0.12500000000E+03 0.  0.
</event>
<event>
 4    0  0.2196599E-002  0.4610868E+03  0.7546771E-02  0.1024466E+00
         21   -1    0    0  502  501  0.00000000000E+00  0.00000000000E+00  0.14336771908E+04  0.14336771908E+04  0.00000000000E+00 0. -1.
         21   -1    0    0  501  502 -0.00000000000E+00 -0.00000000000E+00 -0.14829072210E+03  0.14829072210E+03  0.00000000000E+00 0. -1.
         25    1    1    2    0    0 -0.25701663447E+02  0.21478530836E+02  0.14018847679E+04  0.14078450928E+04  0.12500000000E+03 0.  0.
         25    1    1    2    0    0  0.25701663447E+02 -0.21478530836E+02 -0.11649829916E+03  0.17412282016E+03  0.12500000000E+03 0.  0.
</event>
<event>
 4    0  0.2196599E-002  0.2381073E+03  0.7546771E-02  0.1121060E+00
         21   -1    0    0  502  501  0.00000000000E+00  0.00000000000E+00  0.41051654537E+03  0.41051654537E+03  0.00000000000E+00 0.  1.
         21   -1    0    0  501  502 -0.00000000000E+00 -0.00000000000E+00 -0.13810672062E+03  0.13810672062E+03  0.00000000000E+00 0.  1.
         25    1    1    2    0    0  0.46112118026E+02  0.17761082318E+03  0.37114097039E+02  0.22510972467E+03  0.12500000000E+03 0.  0.
         25    1    1    2    0    0 -0.46112118026E+02 -0.17761082318E+03  0.23529572771E+03  0.32351354132E+03  0.12500000000E+03 0.  0.
</event>
<event>
 4    0  0.2196599E-002  0.1871382E+03  0.7546771E-02  0.1161068E+00
         21   -1    0    0  502  501  0.00000000000E+00  0.00000000000E+00  0.37996349098E+03  0.37996349098E+03  0.00000000000E+00 0.  1.
         21   -1    0    0  501  502 -0.00000000000E+00 -0.00000000000E+00 -0.92168650848E+02  0.92168650848E+02  0.00000000000E+00 0.  1.
         25    1    1    2    0    0 -0.32032146183E+02  0.40263564755E+01 -0.26997796502E+02  0.13189446900E+03  0.12500000000E+03 0.  0.
         25    1    1    2    0    0  0.32032146183E+02 -0.40263564755E+01  0.31479263663E+03  0.34023767283E+03  0.12500000000E+03 0.  0.
</event>
<event>
 4    0  0.2196599E-002  0.2367712E+03  0.7546771E-02  0.1121963E+00
         21   -1    0    0  502  501  0.00000000000E+00  0.00000000000E+00  0.16165241339E+03  0.16165241339E+03  0.00000000000E+00 0.  1.
         21   -1    0    0  501  502 -0.00000000000E+00 -0.00000000000E+00 -0.34679709485E+03  0.34679709485E+03  0.00000000000E+00 0.  1.
         25    1    1    2    0    0 -0.35275912117E+02  0.13968881412E+03 -0.24319213802E+03  0.30907081836E+03  0.12500000000E+03 0.  0.
         25    1    1    2    0    0  0.35275912117E+02 -0.13968881412E+03  0.58047456559E+02  0.19937868988E+03  0.12500000000E+03 0.  0.
</event>
<event>
 4    0  0.2196599E-002  0.2660303E+03  0.7546771E-02  0.1103573E+00
         21   -1    0    0  502  501  0.00000000000E+00  0.00000000000E+00  0.19506962599E+03  0.19506962599E+03  0.00000000000E+00 0.  1.
         21   -1    0    0  501  502 -0.00000000000E+00 -0.00000000000E+00 -0.36280431021E+03  0.36280431021E+03  0.00000000000E+00 0.  1.
         25    1    1    2    0    0  0.61974709946E+02 -0.15576714839E+03  0.88558007720E+02  0.22709423137E+03  0.12500000000E+03 0.  0.
         25    1    1    2    0    0 -0.61974709946E+02  0.15576714839E+03 -0.25629269194E+03  0.33077970484E+03  0.12500000000E+03 0.  0.
</event>
<event>
 4    0  0.2196599E-002  0.2077750E+03  0.7546771E-02  0.1143340E+00
         21   -1    0    0  502  501  0.00000000000E+00  0.00000000000E+00  0.84934583550E+02  0.84934583550E+02  0.00000000000E+00 0.  1.
         21   -1    0    0  501  502 -0.00000000000E+00 -0.00000000000E+00 -0.50827877633E+03  0.50827877633E+03  0.00000000000E+00 0.  1.
         25    1    1    2    0    0  0.14023965812E+03 -0.30581133652E+02 -0.33062189320E+03  0.38149469683E+03  0.12500000000E+03 0.  0.
         25    1    1    2    0    0 -0.14023965812E+03  0.30581133652E+02 -0.92722299580E+02  0.21171866305E+03  0.12500000000E+03 0.  0.
</event>
<event>
 4    0  0.2196599E-002  0.2124809E+03  0.7546771E-02  0.1139616E+00
         21   -1    0    0  502  501  0.00000000000E+00  0.00000000000E+00  0.33082638399E+02  0.33082638399E+02  0.00000000000E+00 0.  1.
         21   -1    0    0  501  502 -0.00000000000E+00 -0.00000000000E+00 -0.13647074295E+04  0.13647074295E+04  0.00000000000E+00 0.  1.
         25    1    1    2    0    0 -0.11749396994E+03 -0.12301320389E+03 -0.58618616658E+03  0.62303796288E+03  0.12500000000E+03 0.  0.
         25    1    1    2    0    0  0.11749396994E+03  0.12301320389E+03 -0.74543862453E+03  0.77475210503E+03  0.12500000000E+03 0.  0.
</event>
<event>
 4    0  0.2196599E-002  0.2564141E+03  0.7546771E-02  0.1109317E+00
         21   -1    0    0  502  501  0.00000000000E+00  0.00000000000E+00  0.22891582853E+03  0.22891582853E+03  0.00000000000E+00 0. -1.
         21   -1    0    0  501  502 -0.00000000000E+00 -0.00000000000E+00 -0.28721561204E+03  0.28721561204E+03  0.00000000000E+00 0. -1.
         25    1    1    2    0    0  0.13064247072E+03 -0.10542515851E+02 -0.21182547639E+03  0.27869989639E+03  0.12500000000E+03 0.  0.
         25    1    1    2    0    0 -0.13064247072E+03  0.10542515851E+02  0.15352569288E+03  0.23743154418E+03  0.12500000000E+03 0.  0.
</event>
<event>
 4    0  0.2196599E-002  0.1985273E+03  0.7546771E-02  0.1150988E+00
         21   -1    0    0  502  501  0.00000000000E+00  0.00000000000E+00  0.11075495941E+03  0.11075495941E+03  0.00000000000E+00 0. -1.
         21   -1    0    0  501  502 -0.00000000000E+00 -0.00000000000E+00 -0.35585842262E+03  0.35585842262E+03  0.00000000000E+00 0. -1.
         25    1    1    2    0    0  0.94020138127E+02 -0.84284669237E+02 -0.18467088195E+02  0.17863293422E+03  0.12500000000E+03 0.  0.
         25    1    1    2    0    0 -0.94020138127E+02  0.84284669237E+02 -0.22663637502E+03  0.28798044781E+03  0.12500000000E+03 0.  0.
</event>
<event>
 4    0  0.2196599E-002  0.2113347E+03  0.7546771E-02  0.1140513E+00
         21   -1    0    0  502  501  0.00000000000E+00  0.00000000000E+00  0.31836094220E+03  0.31836094220E+03  0.00000000000E+00 0.  1.
         21   -1    0    0  501  502 -0.00000000000E+00 -0.00000000000E+00 -0.14028846854E+03  0.14028846854E+03  0.00000000000E+00 0.  1.
         25    1    1    2    0    0  0.12127716498E+02  0.16584152711E+03  0.48625321301E+02  0.21363500531E+03  0.12500000000E+03 0.  0.
         25    1    1    2    0    0 -0.12127716498E+02 -0.16584152711E+03  0.12944715236E+03  0.24501440544E+03  0.12500000000E+03 0.  0.
</event>
<event>
 4    0  0.2196599E-002  0.1896580E+03  0.7546771E-02  0.1158770E+00
         21   -1    0    0  502  501  0.00000000000E+00  0.00000000000E+00  0.29676103549E+03  0.29676103549E+03  0.00000000000E+00 0. -1.
         21   -1    0    0  501  502 -0.00000000000E+00 -0.00000000000E+00 -0.12120920262E+03  0.12120920262E+03  0.00000000000E+00 0. -1.
         25    1    1    2    0    0 -0.25889053617E+02 -0.10351568950E+02  0.24191571919E+03  0.27372543409E+03  0.12500000000E+03 0.  0.
         25    1    1    2    0    0  0.25889053617E+02  0.10351568950E+02 -0.66363886325E+02  0.14424480401E+03  0.12500000000E+03 0.  0.
</event>
<event>
 4    0  0.2196599E-002  0.1964412E+03  0.7546771E-02  0.1152777E+00
         21   -1    0    0  502  501  0.00000000000E+00  0.00000000000E+00  0.59196462675E+03  0.59196462675E+03  0.00000000000E+00 0. -1.
         21   -1    0    0  501  502 -0.00000000000E+00 -0.00000000000E+00 -0.65188277548E+02  0.65188277548E+02  0.00000000000E+00 0. -1.
         25    1    1    2    0    0 -0.77552766351E+02 -0.10570279785E+03  0.39051626023E+03  0.43048282492E+03  0.12500000000E+03 0.  0.
         25    1    1    2    0    0  0.77552766351E+02  0.10570279785E+03  0.13626008897E+03  0.22667007938E+03  0.12500000000E+03 0.  0.
</event>
<event>
 4    0  0.2196599E-002  0.2141566E+03  0.7546771E-02  0.1138316E+00
         21   -1    0    0  502  501  0.00000000000E+00  0.00000000000E+00  0.74166322371E+02  0.74166322371E+02  0.00000000000E+00 0. -1.
         21   -1    0    0  501  502 -0.00000000000E+00 -0.00000000000E+00 -0.61838134945E+03  0.61838134945E+03  0.00000000000E+00 0. -1.
         25    1    1    2    0    0 -0.31936102419E+02 -0.14205342238E+03 -0.42583369967E+03  0.46707432944E+03  0.12500000000E+03 0.  0.
         25    1    1    2    0    0  0.31936102419E+02  0.14205342238E+03 -0.11838132742E+03  0.22547334239E+03  0.12500000000E+03 0.  0.
</event>
<event>
 4    0  0.2196599E-002  0.1615882E+03  0.7546771E-02  0.1186915E+00
         21   -1    0    0  502  501  0.00000000000E+00  0.00000000000E+00  0.31989143692E+02  0.31989143692E+02  0.00000000000E+00 0.  1.
         21   -1    0    0  501  502 -0.00000000000E+00 -0.00000000000E+00 -0.81623798314E+03  0.81623798314E+03  0.00000000000E+00 0.  1.
         25    1    1    2    0    0  0.77662646041E+02  0.23391148054E+02 -0.22806509286E+03  0.27242855757E+03  0.12500000000E+03 0.  0.
         25    1    1    2    0    0 -0.77662646041E+02 -0.23391148054E+02 -0.55618374658E+03  0.57579856926E+03  0.12500000000E+03 0.  0.
</event>
<event>
 4    0  0.2196599E-002  0.2487594E+03  0.7546771E-02  0.1114091E+00
         21   -1    0    0  502  501  0.00000000000E+00  0.00000000000E+00  0.23900803409E+03  0.23900803409E+03  0.00000000000E+00 0. -1.
         21   -1    0    0  501  502 -0.00000000000E+00 -0.00000000000E+00 -0.25890868125E+03  0.25890868125E+03  0.00000000000E+00 0. -1.
         25    1    1    2    0    0  0.19651447135E+03 -0.44427589254E+02  0.65372779724E+02  0.24594785721E+03  0.12500000000E+03 0.  0.
         25    1    1    2    0    0 -0.19651447135E+03  0.44427589254E+02 -0.85273426879E+02  0.25196885813E+03  0.12500000000E+03 0.  0.
</event>
<event>
 4    0  0.2196599E-002  0.1559274E+03  0.7546771E-02  0.1193373E+00
         21   -1    0    0  502  501  0.00000000000E+00  0.00000000000E+00  0.40357205369E+02  0.40357205369E+02  0.00000000000E+00 0.  1.
         21   -1    0    0  501  502 -0.00000000000E+00 -0.00000000000E+00 -0.60245367784E+03  0.60245367784E+03  0.00000000000E+00 0.  1.
         25    1    1    2    0    0 -0.38846291665E+02 -0.40793176654E+02 -0.12797028741E+03  0.18754869260E+03  0.12500000000E+03 0.  0.
         25    1    1    2    0    0  0.38846291665E+02  0.40793176654E+02 -0.43412618506E+03  0.45526219060E+03  0.12500000000E+03 0.  0.
</event>
<event>
 4    0  0.2196599E-002  0.1778914E+03  0.7546771E-02  0.1169859E+00
         21   -1    0    0  502  501  0.00000000000E+00  0.00000000000E+00  0.45639642398E+02  0.45639642398E+02  0.00000000000E+00 0. -1.
         21   -1    0    0  501  502 -0.00000000000E+00 -0.00000000000E+00 -0.69337421801E+03  0.69337421801E+03  0.00000000000E+00 0. -1.
         25    1    1    2    0    0 -0.67928504457E+01  0.30373943581E+02 -0.69032083101E+02  0.14614769161E+03  0.12500000000E+03 0.  0.
         25    1    1    2    0    0  0.67928504457E+01 -0.30373943581E+02 -0.57870249252E+03  0.59286616880E+03  0.12500000000E+03 0.  0.
</event>
<event>
 4    0  0.2196599E-002  0.2586623E+03  0.7546771E-02  0.1107950E+00
         21   -1    0    0  502  501  0.00000000000E+00  0.00000000000E+00  0.20973000119E+03  0.20973000119E+03  0.00000000000E+00 0.  1.
         21   -1    0    0  501  502 -0.00000000000E+00 -0.00000000000E+00 -0.31901096001E+03  0.31901096001E+03  0.00000000000E+00 0.  1.
         25    1    1    2    0    0  0.20193233483E+03  0.50347001150E+02 -0.14588364379E+03  0.28322875190E+03  0.12500000000E+03 0.  0.
         25    1    1    2    0    0 -0.20193233483E+03 -0.50347001150E+02  0.36602684976E+02  0.24551220931E+03  0.12500000000E+03 0.  0.
</event>
<event>
 4    0  0.2196599E-002  0.2248902E+03  0.7546771E-02  0.1130289E+00
         21   -1    0    0  502  501  0.00000000000E+00  0.00000000000E+00  0.86826103194E+02  0.86826103194E+02  0.00000000000E+00 0. -1.
         21   -1    0    0  501  502 -0.00000000000E+00 -0.00000000000E+00 -0.58249310859E+03  0.58249310859E+03  0.00000000000E+00 0. -1.
         25    1    1    2    0    0  0.49371600712E+02 -0.49592609128E+02 -0.50581061397E+03  0.52570558209E+03  0.12500000000E+03 0.  0.
         25    1    1    2    0    0 -0.49371600712E+02  0.49592609128E+02  0.10143608579E+02  0.14361362969E+03  0.12500000000E+03 0.  0.
</event>
<event>
 4    0  0.2196599E-002  0.1823461E+03  0.7546771E-02  0.1165552E+00
         21   -1    0    0  502  501  0.00000000000E+00  0.00000000000E+00  0.16677559348E+03  0.16677559348E+03  0.00000000000E+00 0. -1.
         21   -1    0    0  501  502 -0.00000000000E+00 -0.00000000000E+00 -0.19937032528E+03  0.19937032528E+03  0.00000000000E+00 0. -1.
         25    1    1    2    0    0 -0.46753616140E+02 -0.49825830148E+02 -0.13057811008E+03  0.19324636298E+03  0.12500000000E+03 0.  0.
         25    1    1    2    0    0  0.46753616140E+02  0.49825830148E+02  0.97983378273E+02  0.17289955578E+03  0.12500000000E+03 0.  0.
</event>
<event>
 4    0  0.2196599E-002  0.3831513E+03  0.7546771E-02  0.1049775E+00
         21   -1    0    0  502  501  0.00000000000E+00  0.00000000000E+00  0.26174573334E+03  0.26174573334E+03  0.00000000000E+00 0.  1.
         21   -1    0    0  501  502 -0.00000000000E+00 -0.00000000000E+00 -0.56086842040E+03  0.56086842040E+03  0.00000000000E+00 0.  1.
         25    1    1    2    0    0 -0.15161095300E+03  0.28802258021E+03  0.20974231222E+02  0.34929615823E+03  0.12500000000E+03 0.  0.
         25    1    1    2    0    0  0.15161095300E+03 -0.28802258021E+03 -0.32009691829E+03  0.47331799551E+03  0.12500000000E+03 0.  0.
</event>
<event>
 4    0  0.2196599E-002  0.2165493E+03  0.7546771E-02  0.1136482E+00
         21   -1    0    0  502  501  0.00000000000E+00  0.00000000000E+00  0.12027632183E+03  0.12027632183E+03  0.00000000000E+00 0.  1.
         21   -1    0    0  501  502 -0.00000000000E+00 -0.00000000000E+00 -0.38988224853E+03  0.38988224853E+03  0.00000000000E+00 0.  1.
         25    1    1    2    0    0 -0.10931688076E+03 -0.12023463196E+03 -0.52667945859E+02  0.21167300173E+03  0.12500000000E+03 0.  0.
         25    1    1    2    0    0  0.10931688076E+03  0.12023463196E+03 -0.21693798085E+03  0.29848556862E+03  0.12500000000E+03 0.  0.
</event>
<event>
 4    0  0.2196599E-002  0.4622325E+03  0.7546771E-02  0.1024136E+00
         21   -1    0    0  502  501  0.00000000000E+00  0.00000000000E+00  0.10447436669E+03  0.10447436669E+03  0.00000000000E+00 0.  1.
         21   -1    0    0  501  502 -0.00000000000E+00 -0.00000000000E+00 -0.20450840174E+04  0.20450840174E+04  0.00000000000E+00 0.  1.
         25    1    1    2    0    0  0.32565637875E+03 -0.81442807949E+02 -0.29101105057E+03  0.46151645641E+03  0.12500000000E+03 0.  0.
         25    1    1    2    0    0 -0.32565637875E+03  0.81442807949E+02 -0.16495986001E+04  0.16880419277E+04  0.12500000000E+03 0.  0.
</event>
<event>
 4    0  0.2196599E-002  0.1890170E+03  0.7546771E-02  0.1159351E+00
         21   -1    0    0  502  501  0.00000000000E+00  0.00000000000E+00  0.18795283993E+03  0.18795283993E+03  0.00000000000E+00 0.  1.
         21   -1    0    0  501  502 -0.00000000000E+00 -0.00000000000E+00 -0.19008720117E+03  0.19008720117E+03  0.00000000000E+00 0.  1.
         25    1    1    2    0    0 -0.85851982439E+02 -0.35270589664E+02  0.10611592488E+03  0.18841487971E+03  0.12500000000E+03 0.  0.
         25    1    1    2    0    0  0.85851982439E+02  0.35270589664E+02 -0.10825028613E+03  0.18962516138E+03  0.12500000000E+03 0.  0.
</event>
<event>
 4    0  0.2196599E-002  0.1882130E+03  0.7546771E-02  0.1160083E+00
         21   -1    0    0  502  501  0.00000000000E+00  0.00000000000E+00  0.34271814159E+02  0.34271814159E+02  0.00000000000E+00 0. -1.
         21   -1    0    0  501  502 -0.00000000000E+00 -0.00000000000E+00 -0.10336233689E+04  0.10336233689E+04  0.00000000000E+00 0. -1.
         25    1    1    2    0    0 -0.12025445772E+03 -0.13228550298E+02 -0.29583044056E+03  0.34318621579E+03  0.12500000000E+03 0.  0.
         25    1    1    2    0    0  0.12025445772E+03  0.13228550298E+02 -0.70352111415E+03  0.72470896724E+03  0.12500000000E+03 0.  0.
</event>
<event>
 4    0  0.2196599E-002  0.1931557E+03  0.7546771E-02  0.1155646E+00
         21   -1    0    0  502  501  0.00000000000E+00  0.00000000000E+00  0.14287025914E+04  0.14287025914E+04  0.00000000000E+00 0.  1.
         21   -1    0    0  501  502 -0.00000000000E+00 -0.00000000000E+00 -0.26113977800E+02  0.26113977800E+02  0.00000000000E+00 0.  1.
         25    1    1    2    0    0 -0.29283919543E+01 -0.14377803686E+03  0.58200275835E+03  0.61239930608E+03  0.12500000000E+03 0.  0.
         25    1    1    2    0    0  0.29283919543E+01  0.14377803686E+03  0.82058585526E+03  0.84241726313E+03  0.12500000000E+03 0.  0.
</event>
<event>
 4    0  0.2196599E-002  0.2695796E+03  0.7546771E-02  0.1101520E+00
         21   -1    0    0  502  501  0.00000000000E+00  0.00000000000E+00  0.74006650584E+03  0.74006650584E+03  0.00000000000E+00 0.  1.
         21   -1    0    0  501  502 -0.00000000000E+00 -0.00000000000E+00 -0.98198125887E+02  0.98198125887E+02  0.00000000000E+00 0.  1.
         25    1    1    2    0    0  0.88121389207E+00  0.17934198335E+03  0.75676461504E+02  0.23133579566E+03  0.12500000000E+03 0.  0.
         25    1    1    2    0    0 -0.88121389207E+00 -0.17934198335E+03  0.56619191845E+03  0.60692883607E+03  0.12500000000E+03 0.  0.
</event>
<event>
 4    0  0.2196599E-002  0.2007952E+03  0.7546771E-02  0.1149070E+00
         21   -1    0    0  502  501  0.00000000000E+00  0.00000000000E+00  0.56299641619E+02  0.56299641619E+02  0.00000000000E+00 0.  1.
         21   -1    0    0  501  502 -0.00000000000E+00 -0.00000000000E+00 -0.71614488421E+03  0.71614488421E+03  0.00000000000E+00 0.  1.
         25    1    1    2    0    0 -0.34098880661E+02 -0.65959933103E+02 -0.63536730957E+02  0.15866745923E+03  0.12500000000E+03 0.  0.
         25    1    1    2    0    0  0.34098880661E+02  0.65959933103E+02 -0.59630851163E+03  0.61377706660E+03  0.12500000000E+03 0.  0.
</event>
<event>
 4    0  0.2196599E-002  0.1695002E+03  0.7546771E-02  0.1178370E+00
         21   -1    0    0  502  501  0.00000000000E+00  0.00000000000E+00  0.20201761908E+03  0.20201761908E+03  0.00000000000E+00 0.  1.
         21   -1    0    0  501  502 -0.00000000000E+00 -0.00000000000E+00 -0.14221685587E+03  0.14221685587E+03  0.00000000000E+00 0.  1.
         25    1    1    2    0    0  0.77076320819E+02 -0.19877997241E+02 -0.53646419812E+02  0.15760340213E+03  0.12500000000E+03 0.  0.
         25    1    1    2    0    0 -0.77076320819E+02  0.19877997241E+02  0.11344718302E+03  0.18663107282E+03  0.12500000000E+03 0.  0.
</event>
<event>
 4    0  0.2196599E-002  0.1993756E+03  0.7546771E-02  0.1150267E+00
         21   -1    0    0  502  501  0.00000000000E+00  0.00000000000E+00  0.12175979338E+03  0.12175979338E+03  0.00000000000E+00 0.  1.
         21   -1    0    0  501  502 -0.00000000000E+00 -0.00000000000E+00 -0.32646769321E+03  0.32646769321E+03  0.00000000000E+00 0.  1.
         25    1    1    2    0    0 -0.41065459933E+02 -0.14957064416E+03 -0.93092115320E+02  0.21988381370E+03  0.12500000000E+03 0.  0.
         25    1    1    2    0    0  0.41065459933E+02  0.14957064416E+03 -0.11161578451E+03  0.22834367288E+03  0.12500000000E+03 0.  0.
</event>
<event>
 4    0  0.2196599E-002  0.2071791E+03  0.7546771E-02  0.1143819E+00
         21   -1    0    0  502  501  0.00000000000E+00  0.00000000000E+00  0.40575918666E+03  0.40575918666E+03  0.00000000000E+00 0. -1.
         21   -1    0    0  501  502 -0.00000000000E+00 -0.00000000000E+00 -0.10578487567E+03  0.10578487567E+03  0.00000000000E+00 0. -1.
         25    1    1    2    0    0 -0.88162208276E+02  0.13770228352E+03  0.12067635152E+03  0.23858389650E+03  0.12500000000E+03 0.  0.
         25    1    1    2    0    0  0.88162208276E+02 -0.13770228352E+03  0.17929795947E+03  0.27296016582E+03  0.12500000000E+03 0.  0.
</event>
<event>
 4    0  0.2196599E-002  0.2793186E+03  0.7546771E-02  0.1096062E+00
         21   -1    0    0  502  501  0.00000000000E+00  0.00000000000E+00  0.41196381663E+03  0.41196381663E+03  0.00000000000E+00 0.  1.
         21   -1    0    0  501  502 -0.00000000000E+00 -0.00000000000E+00 -0.18938282072E+03  0.18938282072E+03  0.00000000000E+00 0.  1.
         25    1    1    2    0    0 -0.92509948970E+02  0.94977116272E+02  0.33917110981E+03  0.38502049946E+03  0.12500000000E+03 0.  0.
         25    1    1    2    0    0  0.92509948970E+02 -0.94977116272E+02 -0.11659011390E+03  0.21632613789E+03  0.12500000000E+03 0.  0.
</event>
<event>
 4    0  0.2196599E-002  0.1661678E+03  0.7546771E-02  0.1181904E+00
         21   -1    0    0  502  501  0.00000000000E+00  0.00000000000E+00  0.15571497593E+03  0.15571497593E+03  0.00000000000E+00 0.  1.
         21   -1    0    0  501  502 -0.00000000000E+00 -0.00000000000E+00 -0.17732231789E+03  0.17732231789E+03  0.00000000000E+00 0.  1.
         25    1    1    2    0    0  0.53159365825E+02 -0.92946013128E+02  0.12088837009E+02  0.16503338908E+03  0.12500000000E+03 0.  0.
         25    1    1    2    0    0 -0.53159365825E+02  0.92946013128E+02 -0.33696178967E+02  0.16800390474E+03  0.12500000000E+03 0.  0.
</event>
<event>
 4    0  0.2196599E-002  0.1942434E+03  0.7546771E-02  0.1154689E+00
         21   -1    0    0  502  501  0.00000000000E+00  0.00000000000E+00  0.54008301707E+02  0.54008301707E+02  0.00000000000E+00 0.  1.
         21   -1    0    0  501  502 -0.00000000000E+00 -0.00000000000E+00 -0.69860569801E+03  0.69860569801E+03  0.00000000000E+00 0.  1.
         25    1    1    2    0    0 -0.73324364266E+02 -0.35052395123E+02 -0.56349301492E+03  0.58288464611E+03  0.12500000000E+03 0.  0.
         25    1    1    2    0    0  0.73324364266E+02  0.35052395123E+02 -0.81104381382E+02  0.16972935361E+03  0.12500000000E+03 0.  0.
</event>
<event>
 4    0  0.2196599E-002  0.1948857E+03  0.7546771E-02  0.1154127E+00
         21   -1    0    0  502  501  0.00000000000E+00  0.00000000000E+00  0.14652491229E+03  0.14652491229E+03  0.00000000000E+00 0.  1.
         21   -1    0    0  501  502 -0.00000000000E+00 -0.00000000000E+00 -0.25920791576E+03  0.25920791576E+03  0.00000000000E+00 0.  1.
         25    1    1    2    0    0  0.68035911934E+02 -0.11350733603E+03  0.16097144431E+02  0.18274823858E+03  0.12500000000E+03 0.  0.
         25    1    1    2    0    0 -0.68035911934E+02  0.11350733603E+03 -0.12878014791E+03  0.22298458947E+03  0.12500000000E+03 0.  0.
</event>
<event>
 4    0  0.2196599E-002  0.2236794E+03  0.7546771E-02  0.1131169E+00
         21   -1    0    0  502  501  0.00000000000E+00  0.00000000000E+00  0.13214706823E+04  0.13214706823E+04  0.00000000000E+00 0.  1.
         21   -1    0    0  501  502 -0.00000000000E+00 -0.00000000000E+00 -0.37861222045E+02  0.37861222045E+02  0.00000000000E+00 0.  1.
         25    1    1    2    0    0  0.49178416409E+02  0.60567662856E+02  0.13045247842E+03  0.19679890129E+03  0.12500000000E+03 0.  0.
         25    1    1    2    0    0 -0.49178416409E+02 -0.60567662856E+02  0.11531569818E+04  0.11625330030E+04  0.12500000000E+03 0.  0.
</event>
<event>
 4    0  0.2196599E-002  0.1375921E+03  0.7546771E-02  0.1216606E+00
         21   -1    0    0  502  501  0.00000000000E+00  0.00000000000E+00  0.33149919669E+03  0.33149919669E+03  0.00000000000E+00 0. -1.
         21   -1    0    0  501  502 -0.00000000000E+00 -0.00000000000E+00 -0.57109023424E+02  0.57109023424E+02  0.00000000000E+00 0. -1.
         25    1    1    2    0    0 -0.16996945465E+02  0.50835663433E+02  0.10779489595E+03  0.17354509623E+03  0.12500000000E+03 0.  0.
         25    1    1    2    0    0  0.16996945465E+02 -0.50835663433E+02  0.16659527731E+03  0.21506312388E+03  0.12500000000E+03 0.  0.
</event>
<event>
 4    0  0.2196599E-002  0.1528104E+03  0.7546771E-02  0.1197062E+00
         21   -1    0    0  502  501  0.00000000000E+00  0.00000000000E+00  0.38960598517E+03  0.38960598517E+03  0.00000000000E+00 0.  1.
         21   -1    0    0  501  502 -0.00000000000E+00 -0.00000000000E+00 -0.59934926116E+02  0.59934926116E+02  0.00000000000E+00 0.  1.
         25    1    1    2    0    0  0.47833892375E+01 -0.80357653097E+02  0.21675208083E+03  0.26284348531E+03  0.12500000000E+03 0.  0.
         25    1    1    2    0    0 -0.47833892375E+01  0.80357653097E+02  0.11291897822E+03  0.18669742598E+03  0.12500000000E+03 0.  0.
</event>
<event>
 4    0  0.2196599E-002  0.1981332E+03  0.7546771E-02  0.1151324E+00
         21   -1    0    0  502  501  0.00000000000E+00  0.00000000000E+00  0.63805536596E+02  0.63805536596E+02  0.00000000000E+00 0. -1.
         21   -1    0    0  501  502 -0.00000000000E+00 -0.00000000000E+00 -0.61525660511E+03  0.61525660511E+03  0.00000000000E+00 0. -1.
         25    1    1    2    0    0  0.15308513453E+03  0.13677024041E+02 -0.27039984834E+03  0.33520620129E+03  0.12500000000E+03 0.  0.
         25    1    1    2    0    0 -0.15308513453E+03 -0.13677024041E+02 -0.28105122018E+03  0.34385594042E+03  0.12500000000E+03 0.  0.
</event>
<event>
 4    0  0.2196599E-002  0.1648065E+03  0.7546771E-02  0.1183375E+00
         21   -1    0    0  502  501  0.00000000000E+00  0.00000000000E+00  0.16006712181E+04  0.16006712181E+04  0.00000000000E+00 0.  1.
         21   -1    0    0  501  502 -0.00000000000E+00 -0.00000000000E+00 -0.16968630599E+02  0.16968630599E+02  0.00000000000E+00 0.  1.
         25    1    1    2    0    0 -0.70628777075E+02  0.76503926925E+02  0.66247761915E+03  0.68216044363E+03  0.12500000000E+03 0.  0.
         25    1    1    2    0    0  0.70628777075E+02 -0.76503926925E+02  0.92122496834E+03  0.93547940506E+03  0.12500000000E+03 0.  0.
</event>
<event>
 4    0  0.2196599E-002  0.2900581E+03  0.7546771E-02  0.1090319E+00
         21   -1    0    0  502  501  0.00000000000E+00  0.00000000000E+00  0.15717104733E+03  0.15717104733E+03  0.00000000000E+00 0.  1.
         21   -1    0    0  501  502 -0.00000000000E+00 -0.00000000000E+00 -0.53530018188E+03  0.53530018188E+03  0.00000000000E+00 0.  1.
         25    1    1    2    0    0 -0.22295752157E+03  0.57158350516E+02 -0.40301794879E+02  0.26500258136E+03  0.12500000000E+03 0.  0.
         25    1    1    2    0    0  0.22295752157E+03 -0.57158350516E+02 -0.33782733968E+03  0.42746864785E+03  0.12500000000E+03 0.  0.
</event>
<event>
 4    0  0.2196599E-002  0.4741231E+03  0.7546771E-02  0.1020763E+00
         21   -1    0    0  502  501  0.00000000000E+00  0.00000000000E+00  0.29167676240E+03  0.29167676240E+03  0.00000000000E+00 0. -1.
         21   -1    0    0  501  502 -0.00000000000E+00 -0.00000000000E+00 -0.77069127866E+03  0.77069127866E+03  0.00000000000E+00 0. -1.
         25    1    1    2    0    0 -0.98213675933E+02  0.39048629154E+03  0.34881043571E+01  0.42161906609E+03  0.12500000000E+03 0.  0.
         25    1    1    2    0    0  0.98213675933E+02 -0.39048629154E+03 -0.48250262062E+03  0.64074897497E+03  0.12500000000E+03 0.  0.
</event>
<event>
 4    0  0.2196599E-002  0.2630380E+03  0.7546771E-02  0.1105332E+00
         21   -1    0    0  502  501  0.00000000000E+00  0.00000000000E+00  0.52709965228E+03  0.52709965228E+03  0.00000000000E+00 0.  1.
         21   -1    0    0  501  502 -0.00000000000E+00 -0.00000000000E+00 -0.13126355889E+03  0.13126355889E+03  0.00000000000E+00 0.  1.
         25    1    1    2    0    0  0.46332204724E+02  0.19152905091E+03  0.34982454225E+03  0.42051428144E+03  0.12500000000E+03 0.  0.
         25    1    1    2    0    0 -0.46332204724E+02 -0.19152905091E+03  0.46011551143E+02  0.23784892973E+03  0.12500000000E+03 0.  0.
</event>
<event>
 4    0  0.2196599E-002  0.4397034E+03  0.7546771E-02  0.1030838E+00
         21   -1    0    0  502  501  0.00000000000E+00  0.00000000000E+00  0.65498778615E+03  0.65498778615E+03  0.00000000000E+00 0.  1.
         21   -1    0    0  501  502 -0.00000000000E+00 -0.00000000000E+00 -0.29517973150E+03  0.29517973150E+03  0.00000000000E+00 0. -1.
         25    1    1    2    0    0  0.23299570394E+02 -0.35414006506E+03 -0.65901097695E+02  0.38200263132E+03  0.12500000000E+03 0.  0.
         25    1    1    2    0    0 -0.23299570394E+02  0.35414006506E+03  0.42570915234E+03  0.56816488632E+03  0.12500000000E+03 0.  0.
</event>
<event>
 4    0  0.2196599E-002  0.2819477E+03  0.7546771E-02  0.1094630E+00
         21   -1    0    0  502  501  0.00000000000E+00  0.00000000000E+00  0.13912382459E+03  0.13912382459E+03  0.00000000000E+00 0. -1.
         21   -1    0    0  501  502 -0.00000000000E+00 -0.00000000000E+00 -0.57139399235E+03  0.57139399235E+03  0.00000000000E+00 0. -1.
         25    1    1    2    0    0 -0.13772894983E+03 -0.20079223778E+03 -0.30143303113E+03  0.40715311448E+03  0.12500000000E+03 0.  0.
         25    1    1    2    0    0  0.13772894983E+03  0.20079223778E+03 -0.13083713663E+03  0.30336470246E+03  0.12500000000E+03 0.  0.
</event>
<event>
 4    0  0.2196599E-002  0.2450833E+03  0.7546771E-02  0.1116452E+00
         21   -1    0    0  502  501  0.00000000000E+00  0.00000000000E+00  0.63520200812E+03  0.63520200812E+03  0.00000000000E+00 0.  1.
         21   -1    0    0  501  502 -0.00000000000E+00 -0.00000000000E+00 -0.94561759705E+02  0.94561759705E+02  0.00000000000E+00 0.  1.
         25    1    1    2    0    0 -0.35233405280E+02 -0.76383456700E+02 -0.17466800335E+02  0.15167700689E+03  0.12500000000E+03 0.  0.
         25    1    1    2    0    0  0.35233405280E+02  0.76383456700E+02  0.55810704875E+03  0.57808676093E+03  0.12500000000E+03 0.  0.
</event>
<event>
 4    0  0.2196599E-002  0.2316013E+03  0.7546771E-02  0.1125518E+00
         21   -1    0    0  502  501  0.00000000000E+00  0.00000000000E+00  0.31859242663E+03  0.31859242663E+03  0.00000000000E+00 0.  1.
         21   -1    0    0  501  502 -0.00000000000E+00 -0.00000000000E+00 -0.16836290992E+03  0.16836290992E+03  0.00000000000E+00 0.  1.
         25    1    1    2    0    0  0.77549397954E+02 -0.17105990236E+03  0.20098089521E+02  0.22650459713E+03  0.12500000000E+03 0.  0.
         25    1    1    2    0    0 -0.77549397954E+02  0.17105990236E+03  0.13013142718E+03  0.26045073941E+03  0.12500000000E+03 0.  0.
</event>
<event>
 4    0  0.2196599E-002  0.1869698E+03  0.7546771E-02  0.1161223E+00
         21   -1    0    0  502  501  0.00000000000E+00  0.00000000000E+00  0.60357081381E+02  0.60357081381E+02  0.00000000000E+00 0.  1.
         21   -1    0    0  501  502 -0.00000000000E+00 -0.00000000000E+00 -0.57918136557E+03  0.57918136557E+03  0.00000000000E+00 0.  1.
         25    1    1    2    0    0  0.32092641971E+02 -0.65444178592E+02 -0.56906814026E+02  0.15548718167E+03  0.12500000000E+03 0.  0.
         25    1    1    2    0    0 -0.32092641971E+02  0.65444178592E+02 -0.46191747016E+03  0.48405126528E+03  0.12500000000E+03 0.  0.
</event>
<event>
 4    0  0.2196599E-002  0.1817575E+03  0.7546771E-02  0.1166113E+00
         21   -1    0    0  502  501  0.00000000000E+00  0.00000000000E+00  0.39558183985E+03  0.39558183985E+03  0.00000000000E+00 0. -1.
         21   -1    0    0  501  502 -0.00000000000E+00 -0.00000000000E+00 -0.83511920013E+02  0.83511920013E+02  0.00000000000E+00 0. -1.
         25    1    1    2    0    0  0.71214848744E+02  0.31480855905E+02  0.29643317995E+03  0.33099883556E+03  0.12500000000E+03 0.  0.
         25    1    1    2    0    0 -0.71214848744E+02 -0.31480855905E+02  0.15636739893E+02  0.14809492430E+03  0.12500000000E+03 0.  0.
</event>
<event>
 4    0  0.2196599E-002  0.2270360E+03  0.7546771E-02  0.1128744E+00
         21   -1    0    0  502  501  0.00000000000E+00  0.00000000000E+00  0.10131830635E+03  0.10131830635E+03  0.00000000000E+00 0. -1.
         21   -1    0    0  501  502 -0.00000000000E+00 -0.00000000000E+00 -0.50874664874E+03  0.50874664874E+03  0.00000000000E+00 0. -1.
         25    1    1    2    0    0 -0.32808922965E+02 -0.18083280154E+03 -0.14151206232E+03  0.26349115985E+03  0.12500000000E+03 0.  0.
         25    1    1    2    0    0  0.32808922965E+02  0.18083280154E+03 -0.26591628007E+03  0.34657379524E+03  0.12500000000E+03 0.  0.
</event>
<event>
 4    0  0.2196599E-002  0.2230890E+03  0.7546771E-02  0.1131601E+00
         21   -1    0    0  502  501  0.00000000000E+00  0.00000000000E+00  0.74457424184E+02  0.74457424184E+02  0.00000000000E+00 0. -1.
         21   -1    0    0  501  502 -0.00000000000E+00 -0.00000000000E+00 -0.66841806398E+03  0.66841806398E+03  0.00000000000E+00 0. -1.
         25    1    1    2    0    0 -0.16543895777E+03 -0.38897996287E+02 -0.41774082995E+03  0.46799092285E+03  0.12500000000E+03 0.  0.
         25    1    1    2    0    0  0.16543895777E+03  0.38897996287E+02 -0.17621980985E+03  0.27488456531E+03  0.12500000000E+03 0.  0.
</event>
<event>
 4    0  0.2196599E-002  0.3295264E+03  0.7546771E-02  0.1071347E+00
         21   -1    0    0  502  501  0.00000000000E+00  0.00000000000E+00  0.50411632715E+03  0.50411632715E+03  0.00000000000E+00 0. -1.
         21   -1    0    0  501  502 -0.00000000000E+00 -0.00000000000E+00 -0.21540191107E+03  0.21540191107E+03  0.00000000000E+00 0. -1.
         25    1    1    2    0    0 -0.17830929257E+03  0.23994256634E+03  0.78889013164E+02  0.33348930321E+03  0.12500000000E+03 0.  0.
         25    1    1    2    0    0  0.17830929257E+03 -0.23994256634E+03  0.20982540291E+03  0.38602893501E+03  0.12500000000E+03 0.  0.
</event>
<event>
 4    0  0.2196599E-002  0.3208818E+03  0.7546771E-02  0.1075244E+00
         21   -1    0    0  502  501  0.00000000000E+00  0.00000000000E+00  0.18508178842E+03  0.18508178842E+03  0.00000000000E+00 0. -1.
         21   -1    0    0  501  502 -0.00000000000E+00 -0.00000000000E+00 -0.55632247226E+03  0.55632247226E+03  0.00000000000E+00 0. -1.
         25    1    1    2    0    0  0.95231796750E+01 -0.41526867827E+02  0.15223161856E+03  0.20153073560E+03  0.12500000000E+03 0.  0.
         25    1    1    2    0    0 -0.95231796750E+01  0.41526867827E+02 -0.52347230240E+03  0.53987352508E+03  0.12500000000E+03 0.  0.
</event>
<event>
 4    0  0.2196599E-002  0.2707027E+03  0.7546771E-02  0.1100878E+00
         21   -1    0    0  502  501  0.00000000000E+00  0.00000000000E+00  0.68791162765E+02  0.68791162765E+02  0.00000000000E+00 0. -1.
         21   -1    0    0  501  502 -0.00000000000E+00 -0.00000000000E+00 -0.10652525273E+04  0.10652525273E+04  0.00000000000E+00 0. -1.
         25    1    1    2    0    0 -0.47311424977E+02  0.21452703748E+03 -0.29520567049E+03  0.38862785365E+03  0.12500000000E+03 0.  0.
         25    1    1    2    0    0  0.47311424977E+02 -0.21452703748E+03 -0.70125569400E+03  0.74541583637E+03  0.12500000000E+03 0.  0.
</event>
<event>
 4    0  0.2196599E-002  0.2259274E+03  0.7546771E-02  0.1129539E+00
         21   -1    0    0  502  501  0.00000000000E+00  0.00000000000E+00  0.32946429644E+03  0.32946429644E+03  0.00000000000E+00 0. -1.
         21   -1    0    0  501  502 -0.00000000000E+00 -0.00000000000E+00 -0.15492788138E+03  0.15492788138E+03  0.00000000000E+00 0. -1.
         25    1    1    2    0    0  0.18506224808E+03 -0.19606019673E+02  0.11731837650E+03  0.25302377979E+03  0.12500000000E+03 0.  0.
         25    1    1    2    0    0 -0.18506224808E+03  0.19606019673E+02  0.57218038550E+02  0.23136839803E+03  0.12500000000E+03 0.  0.
</event>
<event>
 4    0  0.2299699E-002  0.2030835E+03  0.7546771E-02  0.1147163E+00
         21   -1    0    0  502  501  0.00000000000E+00  0.00000000000E+00  0.15312922940E+03  0.15312922940E+03  0.00000000000E+00 0. -1.
         21   -1    0    0  501  502 -0.00000000000E+00 -0.00000000000E+00 -0.26933387081E+03  0.26933387081E+03  0.00000000000E+00 0. -1.
         25    1    1    2    0    0  0.82252933818E+01  0.16000323882E+02  0.10732030749E+03  0.16572964193E+03  0.12500000000E+03 0.  0.
         25    1    1    2    0    0 -0.82252933818E+01 -0.16000323882E+02 -0.22352494890E+03  0.25673345827E+03  0.12500000000E+03 0.  0.
</event>
<event>
 4    0  0.2196599E-002  0.2855561E+03  0.7546771E-02  0.1092692E+00
         21   -1    0    0  502  501  0.00000000000E+00  0.00000000000E+00  0.57998908529E+03  0.57998908529E+03  0.00000000000E+00 0. -1.
         21   -1    0    0  501  502 -0.00000000000E+00 -0.00000000000E+00 -0.14059283528E+03  0.14059283528E+03  0.00000000000E+00 0. -1.
         25    1    1    2    0    0  0.15439818113E+03 -0.64342451300E+02 -0.26056831326E+02  0.21043456901E+03  0.12500000000E+03 0.  0.
         25    1    1    2    0    0 -0.15439818113E+03  0.64342451300E+02  0.46545308134E+03  0.51014735156E+03  0.12500000000E+03 0.  0.
</event>
<event>
 4    0  0.2196599E-002  0.2672273E+03  0.7546771E-02  0.1102877E+00
         21   -1    0    0  502  501  0.00000000000E+00  0.00000000000E+00  0.80496950374E+02  0.80496950374E+02  0.00000000000E+00 0. -1.
         21   -1    0    0  501  502 -0.00000000000E+00 -0.00000000000E+00 -0.88711949302E+03  0.88711949302E+03  0.00000000000E+00 0. -1.
         25    1    1    2    0    0  0.15802836687E+03 -0.12894409481E+02 -0.72025390814E+03  0.74801732783E+03  0.12500000000E+03 0.  0.
         25    1    1    2    0    0 -0.15802836687E+03  0.12894409481E+02 -0.86368634503E+02  0.21959911557E+03  0.12500000000E+03 0.  0.
</event>
<event>
 4    0  0.2196599E-002  0.2275684E+03  0.7546771E-02  0.1128363E+00
         21   -1    0    0  502  501  0.00000000000E+00  0.00000000000E+00  0.55210036405E+02  0.55210036405E+02  0.00000000000E+00 0. -1.
         21   -1    0    0  501  502 -0.00000000000E+00 -0.00000000000E+00 -0.93800697532E+03  0.93800697532E+03  0.00000000000E+00 0. -1.
         25    1    1    2    0    0  0.14937031247E+03 -0.79274966694E+02 -0.25157652138E+03  0.32788985453E+03  0.12500000000E+03 0.  0.
         25    1    1    2    0    0 -0.14937031247E+03  0.79274966694E+02 -0.63122041753E+03  0.66532715719E+03  0.12500000000E+03 0.  0.
</event>
<event>
 4    0  0.2196599E-002  0.1766024E+03  0.7546771E-02  0.1171132E+00
         21   -1    0    0  502  501  0.00000000000E+00  0.00000000000E+00  0.38803906256E+03  0.38803906256E+03  0.00000000000E+00 0.  1.
         21   -1    0    0  501  502 -0.00000000000E+00 -0.00000000000E+00 -0.80374393607E+02  0.80374393607E+02  0.00000000000E+00 0.  1.
         25    1    1    2    0    0  0.34889043917E+01 -0.12418220666E+03  0.13871087953E+03  0.22427461070E+03  0.12500000000E+03 0.  0.
         25    1    1    2    0    0 -0.34889043917E+01  0.12418220666E+03  0.16895378942E+03  0.24413884546E+03  0.12500000000E+03 0.  0.
</event>
<event>
 4    0  0.2196599E-002  0.3265960E+03  0.7546771E-02  0.1072653E+00
         21   -1    0    0  502  501  0.00000000000E+00  0.00000000000E+00  0.16769652142E+03  0.16769652142E+03  0.00000000000E+00 0.  1.
         21   -1    0    0  501  502 -0.00000000000E+00 -0.00000000000E+00 -0.63605940899E+03  0.63605940899E+03  0.00000000000E+00 0.  1.
         25    1    1    2    0    0 -0.25909301807E+03  0.13468422157E+03 -0.14070421968E+03  0.34740712282E+03  0.12500000000E+03 0.  0.
         25    1    1    2    0    0  0.25909301807E+03 -0.13468422157E+03 -0.32765866788E+03  0.45634880759E+03  0.12500000000E+03 0.  0.
</event>
<event>
 4    0  0.2196599E-002  0.1844541E+03  0.7546771E-02  0.1163561E+00
         21   -1    0    0  502  501  0.00000000000E+00  0.00000000000E+00  0.43157447990E+03  0.43157447990E+03  0.00000000000E+00 0. -1.
         21   -1    0    0  501  502 -0.00000000000E+00 -0.00000000000E+00 -0.78835345906E+02  0.78835345906E+02  0.00000000000E+00 0. -1.
         25    1    1    2    0    0  0.15298680264E+02 -0.11293310336E+03  0.27813841717E+03  0.32553634906E+03  0.12500000000E+03 0.  0.
         25    1    1    2    0    0 -0.15298680264E+02  0.11293310336E+03  0.74600716819E+02  0.18487347674E+03  0.12500000000E+03 0.  0.
</event>
<event>
 4    0  0.2196599E-002  0.6102181E+03  0.7546771E-02  0.9884431E-01
         21   -1    0    0  502  501  0.00000000000E+00  0.00000000000E+00  0.11566704159E+04  0.11566704159E+04  0.00000000000E+00 0.  1.
         21   -1    0    0  501  502 -0.00000000000E+00 -0.00000000000E+00 -0.32192928578E+03  0.32192928578E+03  0.00000000000E+00 0. -1.
         25    1    1    2    0    0  0.54237841680E+03  0.22754021070E+03  0.54323130489E+03  0.81035433306E+03  0.12500000000E+03 0.  0.
         25    1    1    2    0    0 -0.54237841680E+03 -0.22754021070E+03  0.29150982527E+03  0.66824536865E+03  0.12500000000E+03 0.  0.
</event>
<event>
 4    0  0.2196599E-002  0.1440187E+03  0.7546771E-02  0.1208022E+00
         21   -1    0    0  502  501  0.00000000000E+00  0.00000000000E+00  0.14826564973E+03  0.14826564973E+03  0.00000000000E+00 0.  1.
         21   -1    0    0  501  502 -0.00000000000E+00 -0.00000000000E+00 -0.13989346543E+03  0.13989346543E+03  0.00000000000E+00 0.  1.
         25    1    1    2    0    0 -0.47237759072E+02  0.53228809147E+02  0.11378254832E+02  0.14428851891E+03  0.12500000000E+03 0.  0.
         25    1    1    2    0    0  0.47237759072E+02 -0.53228809147E+02 -0.30060705388E+01  0.14387059625E+03  0.12500000000E+03 0.  0.
</event>
<event>
 4    0  0.2196599E-002  0.2418793E+03  0.7546771E-02  0.1118547E+00
         21   -1    0    0  502  501  0.00000000000E+00  0.00000000000E+00  0.16676032122E+03  0.16676032122E+03  0.00000000000E+00 0.  1.
         21   -1    0    0  501  502 -0.00000000000E+00 -0.00000000000E+00 -0.35083632723E+03  0.35083632723E+03  0.00000000000E+00 0.  1.
         25    1    1    2    0    0 -0.46880679832E+02  0.10648199222E+03 -0.27532226892E+03  0.32398080895E+03  0.12500000000E+03 0.  0.
         25    1    1    2    0    0  0.46880679832E+02 -0.10648199222E+03  0.91246262909E+02  0.19361583949E+03  0.12500000000E+03 0.  0.
</event>
<event>
 4    0  0.2196599E-002  0.3604738E+03  0.7546771E-02  0.1058396E+00
         21   -1    0    0  502  501  0.00000000000E+00  0.00000000000E+00  0.31406843044E+03  0.31406843044E+03  0.00000000000E+00 0. -1.
         21   -1    0    0  501  502 -0.00000000000E+00 -0.00000000000E+00 -0.41373579292E+03  0.41373579292E+03  0.00000000000E+00 0. -1.
         25    1    1    2    0    0 -0.11925793576E+03  0.10389516655E+03  0.25183891635E+03  0.32259029847E+03  0.12500000000E+03 0.  0.
         25    1    1    2    0    0  0.11925793576E+03 -0.10389516655E+03 -0.35150627883E+03  0.40521392490E+03  0.12500000000E+03 0.  0.
</event>
<event>
 4    0  0.2196599E-002  0.2942766E+03  0.7546771E-02  0.1088137E+00
         21   -1    0    0  502  501  0.00000000000E+00  0.00000000000E+00  0.24512880213E+03  0.24512880213E+03  0.00000000000E+00 0.  1.
         21   -1    0    0  501  502 -0.00000000000E+00 -0.00000000000E+00 -0.35327842291E+03  0.35327842291E+03  0.00000000000E+00 0.  1.
         25    1    1    2    0    0 -0.13470200308E+03 -0.11776475692E+01 -0.28776579417E+03  0.34143838212E+03  0.12500000000E+03 0.  0.
         25    1    1    2    0    0  0.13470200308E+03  0.11776475692E+01  0.17961617339E+03  0.25696884292E+03  0.12500000000E+03 0.  0.
</event>
<event>
 4    0  0.2196599E-002  0.2629689E+03  0.7546771E-02  0.1105372E+00
         21   -1    0    0  502  501  0.00000000000E+00  0.00000000000E+00  0.13690978108E+04  0.13690978108E+04  0.00000000000E+00 0. -1.
         21   -1    0    0  501  502 -0.00000000000E+00 -0.00000000000E+00 -0.50509626682E+02  0.50509626682E+02  0.00000000000E+00 0.  1.
         25    1    1    2    0    0  0.43087448229E+02  0.22160042610E+03  0.79597943577E+03  0.83676253454E+03  0.12500000000E+03 0.  0.
         25    1    1    2    0    0 -0.43087448229E+02 -0.22160042610E+03  0.52260874839E+03  0.58284490299E+03  0.12500000000E+03 0.  0.
</event>
<event>
 4    0  0.2196599E-002  0.2718303E+03  0.7546771E-02  0.1100237E+00
         21   -1    0    0  502  501  0.00000000000E+00  0.00000000000E+00  0.47504647229E+02  0.47504647229E+02  0.00000000000E+00 0.  1.
         21   -1    0    0  501  502 -0.00000000000E+00 -0.00000000000E+00 -0.15554627602E+04  0.15554627602E+04  0.00000000000E+00 0.  1.
         25    1    1    2    0    0  0.21181215871E+03  0.60289753032E+02 -0.46258025161E+03  0.52735636346E+03  0.12500000000E+03 0.  0.
         25    1    1    2    0    0 -0.21181215871E+03 -0.60289753032E+02 -0.10453778614E+04  0.10756110440E+04  0.12500000000E+03 0.  0.
</event>
<event>
 4    0  0.2196599E-002  0.2229756E+03  0.7546771E-02  0.1131684E+00
         21   -1    0    0  502  501  0.00000000000E+00  0.00000000000E+00  0.12947222572E+03  0.12947222572E+03  0.00000000000E+00 0.  1.
         21   -1    0    0  501  502 -0.00000000000E+00 -0.00000000000E+00 -0.38400599595E+03  0.38400599595E+03  0.00000000000E+00 0.  1.
         25    1    1    2    0    0 -0.85332425816E+02  0.24048679951E+02  0.59224999036E+02  0.16429413384E+03  0.12500000000E+03 0.  0.
         25    1    1    2    0    0  0.85332425816E+02 -0.24048679951E+02 -0.31375876926E+03  0.34918408783E+03  0.12500000000E+03 0.  0.
</event>
<event>
 4    0  0.2196599E-002  0.2161362E+03  0.7546771E-02  0.1136797E+00
         21   -1    0    0  502  501  0.00000000000E+00  0.00000000000E+00  0.10393513514E+03  0.10393513514E+03  0.00000000000E+00 0.  1.
         21   -1    0    0  501  502 -0.00000000000E+00 -0.00000000000E+00 -0.44946158680E+03  0.44946158680E+03  0.00000000000E+00 0.  1.
         25    1    1    2    0    0 -0.53189814224E+02  0.78880804087E+02  0.17287813728E+02  0.15803545834E+03  0.12500000000E+03 0.  0.
         25    1    1    2    0    0  0.53189814224E+02 -0.78880804087E+02 -0.36281426538E+03  0.39536126360E+03  0.12500000000E+03 0.  0.
</event>
<event>
 4    0  0.2196599E-002  0.2376711E+03  0.7546771E-02  0.1121354E+00
         21   -1    0    0  502  501  0.00000000000E+00  0.00000000000E+00  0.28702272073E+04  0.28702272073E+04  0.00000000000E+00 0. -1.
         21   -1    0    0  501  502 -0.00000000000E+00 -0.00000000000E+00 -0.19680510031E+02  0.19680510031E+02  0.00000000000E+00 0. -1.
         25    1    1    2    0    0  0.83010025175E+02  0.34028427319E+01  0.30489844469E+03  0.33983864582E+03  0.12500000000E+03 0.  0.
         25    1    1    2    0    0 -0.83010025175E+02 -0.34028427319E+01  0.25456482526E+04  0.25500690715E+04  0.12500000000E+03 0.  0.
</event>
<event>
 4    0  0.2196599E-002  0.2670713E+03  0.7546771E-02  0.1102968E+00
         21   -1    0    0  502  501  0.00000000000E+00  0.00000000000E+00  0.14700014685E+03  0.14700014685E+03  0.00000000000E+00 0. -1.
         21   -1    0    0  501  502 -0.00000000000E+00 -0.00000000000E+00 -0.48521760449E+03  0.48521760449E+03  0.00000000000E+00 0. -1.
         25    1    1    2    0    0  0.52522007929E+02 -0.16160528332E+03 -0.36297285368E+03  0.41982034422E+03  0.12500000000E+03 0.  0.
         25    1    1    2    0    0 -0.52522007929E+02  0.16160528332E+03  0.24755396037E+02  0.21239740711E+03  0.12500000000E+03 0.  0.
</event>
<event>
 4    0  0.2196599E-002  0.1787373E+03  0.7546771E-02  0.1169031E+00
         21   -1    0    0  502  501  0.00000000000E+00  0.00000000000E+00  0.18791896661E+03  0.18791896661E+03  0.00000000000E+00 0.  1.
         21   -1    0    0  501  502 -0.00000000000E+00 -0.00000000000E+00 -0.17000425546E+03  0.17000425546E+03  0.00000000000E+00 0.  1.
         25    1    1    2    0    0  0.67980694212E+02 -0.12255161931E+02 -0.98650585317E+02  0.17357563701E+03  0.12500000000E+03 0.  0.
         25    1    1    2    0    0 -0.67980694212E+02  0.12255161931E+02  0.11656529646E+03  0.18434758506E+03  0.12500000000E+03 0.  0.
</event>
<event>
 4    0  0.2196599E-002  0.1817794E+03  0.7546771E-02  0.1166092E+00
         21   -1    0    0  502  501  0.00000000000E+00  0.00000000000E+00  0.70113619774E+03  0.70113619774E+03  0.00000000000E+00 0. -1.
         21   -1    0    0  501  502 -0.00000000000E+00 -0.00000000000E+00 -0.47128882513E+02  0.47128882513E+02  0.00000000000E+00 0. -1.
         25    1    1    2    0    0 -0.62762334506E+02 -0.62365023842E+02  0.52855972550E+03  0.55029890991E+03  0.12500000000E+03 0.  0.
         25    1    1    2    0    0  0.62762334506E+02  0.62365023842E+02  0.12544758973E+03  0.19796617035E+03  0.12500000000E+03 0.  0.
</event>
<event>
 4    0  0.2196599E-002  0.1972328E+03  0.7546771E-02  0.1152095E+00
         21   -1    0    0  502  501  0.00000000000E+00  0.00000000000E+00  0.20689795633E+03  0.20689795633E+03  0.00000000000E+00 0. -1.
         21   -1    0    0  501  502 -0.00000000000E+00 -0.00000000000E+00 -0.18801916293E+03  0.18801916293E+03  0.00000000000E+00 0. -1.
         25    1    1    2    0    0  0.41534668036E+01 -0.13017144951E+03  0.88990544056E+02  0.20126145802E+03  0.12500000000E+03 0.  0.
         25    1    1    2    0    0 -0.41534668036E+01  0.13017144951E+03 -0.70111750656E+02  0.19365566125E+03  0.12500000000E+03 0.  0.
</event>
<event>
 4    0  0.2196599E-002  0.2745859E+03  0.7546771E-02  0.1098683E+00
         21   -1    0    0  502  501  0.00000000000E+00  0.00000000000E+00  0.83665470309E+02  0.83665470309E+02  0.00000000000E+00 0.  1.
         21   -1    0    0  501  502 -0.00000000000E+00 -0.00000000000E+00 -0.90117729209E+03  0.90117729209E+03  0.00000000000E+00 0.  1.
         25    1    1    2    0    0  0.13850606768E+03  0.63801281319E+01 -0.76986816158E+03  0.79217840354E+03  0.12500000000E+03 0.  0.
         25    1    1    2    0    0 -0.13850606768E+03 -0.63801281319E+01 -0.47643660204E+02  0.19266435886E+03  0.12500000000E+03 0.  0.
</event>
<event>
 4    0  0.2196599E-002  0.2154514E+03  0.7546771E-02  0.1137320E+00
         21   -1    0    0  502  501  0.00000000000E+00  0.00000000000E+00  0.36882485417E+03  0.36882485417E+03  0.00000000000E+00 0.  1.
         21   -1    0    0  501  502 -0.00000000000E+00 -0.00000000000E+00 -0.12585728820E+03  0.12585728820E+03  0.00000000000E+00 0.  1.
         25    1    1    2    0    0  0.30868729521E+02  0.10431057587E+02 -0.76469853248E+02  0.15011436933E+03  0.12500000000E+03 0.  0.
         25    1    1    2    0    0 -0.30868729521E+02 -0.10431057587E+02  0.31943741921E+03  0.34456777304E+03  0.12500000000E+03 0.  0.
</event>
<event>
 4    0  0.2196599E-002  0.2986347E+03  0.7546771E-02  0.1085925E+00
         21   -1    0    0  502  501  0.00000000000E+00  0.00000000000E+00  0.54533731789E+03  0.54533731789E+03  0.00000000000E+00 0.  1.
         21   -1    0    0  501  502 -0.00000000000E+00 -0.00000000000E+00 -0.16353674864E+03  0.16353674864E+03  0.00000000000E+00 0.  1.
         25    1    1    2    0    0  0.27059500953E+03 -0.16980818628E+02  0.19909601027E+03  0.35885126263E+03  0.12500000000E+03 0.  0.
         25    1    1    2    0    0 -0.27059500953E+03  0.16980818628E+02  0.18270455898E+03  0.35002280391E+03  0.12500000000E+03 0.  0.
</event>
<event>
 4    0  0.2196599E-002  0.2006485E+03  0.7546771E-02  0.1149193E+00
         21   -1    0    0  502  501  0.00000000000E+00  0.00000000000E+00  0.86728306425E+02  0.86728306425E+02  0.00000000000E+00 0. -1.
         21   -1    0    0  501  502 -0.00000000000E+00 -0.00000000000E+00 -0.46420621808E+03  0.46420621808E+03  0.00000000000E+00 0. -1.
         25    1    1    2    0    0  0.11740665267E+03 -0.71346647792E+02 -0.29293496573E+03  0.34685812717E+03  0.12500000000E+03 0.  0.
         25    1    1    2    0    0 -0.11740665267E+03  0.71346647792E+02 -0.84542945928E+02  0.20407639733E+03  0.12500000000E+03 0.  0.
</event>
<event>
 4    0  0.2196599E-002  0.4430810E+03  0.7546771E-02  0.1029806E+00
         21   -1    0    0  502  501  0.00000000000E+00  0.00000000000E+00  0.30767352620E+03  0.30767352620E+03  0.00000000000E+00 0. -1.
         21   -1    0    0  501  502 -0.00000000000E+00 -0.00000000000E+00 -0.63808141781E+03  0.63808141781E+03  0.00000000000E+00 0.  1.
         25    1    1    2    0    0 -0.32201397997E+03 -0.27677805035E+03 -0.14394808240E+03  0.46545154729E+03  0.12500000000E+03 0.  0.
         25    1    1    2    0    0  0.32201397997E+03  0.27677805035E+03 -0.18645980921E+03  0.48030339672E+03  0.12500000000E+03 0.  0.
</event>
<event>
 4    0  0.2196599E-002  0.1704328E+03  0.7546771E-02  0.1177397E+00
         21   -1    0    0  502  501  0.00000000000E+00  0.00000000000E+00  0.11623468449E+03  0.11623468449E+03  0.00000000000E+00 0. -1.
         21   -1    0    0  501  502 -0.00000000000E+00 -0.00000000000E+00 -0.24990260019E+03  0.24990260019E+03  0.00000000000E+00 0. -1.
         25    1    1    2    0    0 -0.72835415520E+02 -0.37456102947E+02 -0.15485045178E+03  0.21520134715E+03  0.12500000000E+03 0.  0.
         25    1    1    2    0    0  0.72835415520E+02  0.37456102947E+02  0.21182536075E+02  0.15093593752E+03  0.12500000000E+03 0.  0.
</event>
<event>
 4    0  0.2196599E-002  0.3044176E+03  0.7546771E-02  0.1083053E+00
         21   -1    0    0  502  501  0.00000000000E+00  0.00000000000E+00  0.21402383458E+03  0.21402383458E+03  0.00000000000E+00 0. -1.
         21   -1    0    0  501  502 -0.00000000000E+00 -0.00000000000E+00 -0.43298959573E+03  0.43298959573E+03  0.00000000000E+00 0. -1.
         25    1    1    2    0    0  0.18897645737E+03 -0.15591362294E+03  0.29174651796E+02  0.27658148811E+03  0.12500000000E+03 0.  0.
         25    1    1    2    0    0 -0.18897645737E+03  0.15591362294E+03 -0.24814041295E+03  0.37043194220E+03  0.12500000000E+03 0.  0.
</event>
<event>
 4    0  0.2196599E-002  0.4096203E+03  0.7546771E-02  0.1040498E+00
         21   -1    0    0  502  501  0.00000000000E+00  0.00000000000E+00  0.43293481388E+03  0.43293481388E+03  0.00000000000E+00 0. -1.
         21   -1    0    0  501  502 -0.00000000000E+00 -0.00000000000E+00 -0.38756137372E+03  0.38756137372E+03  0.00000000000E+00 0. -1.
         25    1    1    2    0    0 -0.17640417427E+02 -0.23964357224E+03 -0.28506842080E+03  0.39322923414E+03  0.12500000000E+03 0.  0.
         25    1    1    2    0    0  0.17640417427E+02  0.23964357224E+03  0.33044186096E+03  0.42726695346E+03  0.12500000000E+03 0.  0.
</event>
<event>
 4    0  0.2196599E-002  0.1983749E+03  0.7546771E-02  0.1151117E+00
         21   -1    0    0  502  501  0.00000000000E+00  0.00000000000E+00  0.61198510887E+02  0.61198510887E+02  0.00000000000E+00 0. -1.
         21   -1    0    0  501  502 -0.00000000000E+00 -0.00000000000E+00 -0.64303209209E+03  0.64303209209E+03  0.00000000000E+00 0. -1.
         25    1    1    2    0    0 -0.12266051098E+03 -0.69857316058E+02 -0.40036331419E+03  0.44253974839E+03  0.12500000000E+03 0.  0.
         25    1    1    2    0    0  0.12266051098E+03  0.69857316058E+02 -0.18147026702E+03  0.26169085458E+03  0.12500000000E+03 0.  0.
</event>
<event>
 4    0  0.2196599E-002  0.3069765E+03  0.7546771E-02  0.1081804E+00
         21   -1    0    0  502  501  0.00000000000E+00  0.00000000000E+00  0.49961330699E+03  0.49961330699E+03  0.00000000000E+00 0. -1.
         21   -1    0    0  501  502 -0.00000000000E+00 -0.00000000000E+00 -0.18861504643E+03  0.18861504643E+03  0.00000000000E+00 0. -1.
         25    1    1    2    0    0 -0.14390049078E+03  0.11465829615E+03 -0.81650050766E+02  0.23695064235E+03  0.12500000000E+03 0.  0.
         25    1    1    2    0    0  0.14390049078E+03 -0.11465829615E+03  0.39264831132E+03  0.45127771107E+03  0.12500000000E+03 0.  0.
</event>
<event>
 4    0  0.2196599E-002  0.2023834E+03  0.7546771E-02  0.1147744E+00
         21   -1    0    0  502  501  0.00000000000E+00  0.00000000000E+00  0.80355706107E+02  0.80355706107E+02  0.00000000000E+00 0. -1.
         21   -1    0    0  501  502 -0.00000000000E+00 -0.00000000000E+00 -0.50972181929E+03  0.50972181929E+03  0.00000000000E+00 0. -1.
         25    1    1    2    0    0  0.84921352449E+02 -0.10520105772E+03 -0.33713268709E+03  0.38413844815E+03  0.12500000000E+03 0.  0.
         25    1    1    2    0    0 -0.84921352449E+02  0.10520105772E+03 -0.92233426095E+02  0.20593907724E+03  0.12500000000E+03 0.  0.
</event>
<event>
 4    0  0.2196599E-002  0.1645855E+03  0.7546771E-02  0.1183615E+00
         21   -1    0    0  502  501  0.00000000000E+00  0.00000000000E+00  0.49759731156E+02  0.49759731156E+02  0.00000000000E+00 0.  1.
         21   -1    0    0  501  502 -0.00000000000E+00 -0.00000000000E+00 -0.54438353271E+03  0.54438353271E+03  0.00000000000E+00 0.  1.
         25    1    1    2    0    0 -0.57641914189E+02  0.74902436561E+02 -0.15651617990E+03  0.22148426545E+03  0.12500000000E+03 0.  0.
         25    1    1    2    0    0  0.57641914189E+02 -0.74902436561E+02 -0.33810762165E+03  0.37265899841E+03  0.12500000000E+03 0.  0.
</event>
<event>
 4    0  0.2196599E-002  0.1855307E+03  0.7546771E-02  0.1162555E+00
         21   -1    0    0  502  501  0.00000000000E+00  0.00000000000E+00  0.76420927311E+03  0.76420927311E+03  0.00000000000E+00 0. -1.
         21   -1    0    0  501  502 -0.00000000000E+00 -0.00000000000E+00 -0.45042142698E+02  0.45042142698E+02  0.00000000000E+00 0. -1.
         25    1    1    2    0    0 -0.98952789632E+02  0.57874375530E+02  0.19557207640E+03  0.25887165736E+03  0.12500000000E+03 0.  0.
         25    1    1    2    0    0  0.98952789632E+02 -0.57874375530E+02  0.52359505401E+03  0.55037975844E+03  0.12500000000E+03 0.  0.
</event>
<event>
 4    0  0.2196599E-002  0.1491028E+03  0.7546771E-02  0.1201580E+00
         21   -1    0    0  502  501  0.00000000000E+00  0.00000000000E+00  0.13827167988E+03  0.13827167988E+03  0.00000000000E+00 0.  1.
         21   -1    0    0  501  502 -0.00000000000E+00 -0.00000000000E+00 -0.16078223799E+03  0.16078223799E+03  0.00000000000E+00 0.  1.
         25    1    1    2    0    0 -0.10887188809E+02 -0.58851599572E+02  0.43897448347E+02  0.14537547119E+03  0.12500000000E+03 0.  0.
         25    1    1    2    0    0  0.10887188809E+02  0.58851599572E+02 -0.66408006452E+02  0.15367844668E+03  0.12500000000E+03 0.  0.
</event>
<event>
 4    0  0.2196599E-002  0.1571544E+03  0.7546771E-02  0.1191947E+00
         21   -1    0    0  502  501  0.00000000000E+00  0.00000000000E+00  0.10558464005E+03  0.10558464005E+03  0.00000000000E+00 0.  1.
         21   -1    0    0  501  502 -0.00000000000E+00 -0.00000000000E+00 -0.23391201663E+03  0.23391201663E+03  0.00000000000E+00 0.  1.
         25    1    1    2    0    0  0.65153500908E+02  0.26222017462E+02 -0.13366228874E+03  0.19601831627E+03  0.12500000000E+03 0.  0.
         25    1    1    2    0    0 -0.65153500908E+02 -0.26222017462E+02  0.53349121628E+01  0.14347834041E+03  0.12500000000E+03 0.  0.
</event>
<event>
 4    0  0.2196599E-002  0.2114501E+03  0.7546771E-02  0.1140423E+00
         21   -1    0    0  502  501  0.00000000000E+00  0.00000000000E+00  0.56403121416E+03  0.56403121416E+03  0.00000000000E+00 0. -1.
         21   -1    0    0  501  502 -0.00000000000E+00 -0.00000000000E+00 -0.79270696438E+02  0.79270696438E+02  0.00000000000E+00 0. -1.
         25    1    1    2    0    0 -0.15450789688E+03 -0.40601548909E+02  0.15155535407E+03  0.25320979705E+03  0.12500000000E+03 0.  0.
         25    1    1    2    0    0  0.15450789688E+03  0.40601548909E+02  0.33320516366E+03  0.39009211356E+03  0.12500000000E+03 0.  0.
</event>
<event>
 4    0  0.2196599E-002  0.2441969E+03  0.7546771E-02  0.1117028E+00
         21   -1    0    0  502  501  0.00000000000E+00  0.00000000000E+00  0.66549271766E+03  0.66549271766E+03  0.00000000000E+00 0. -1.
         21   -1    0    0  501  502 -0.00000000000E+00 -0.00000000000E+00 -0.89606013863E+02  0.89606013863E+02  0.00000000000E+00 0. -1.
         25    1    1    2    0    0  0.10415523729E+03 -0.39328829882E+02  0.13052653861E+02  0.16790009556E+03  0.12500000000E+03 0.  0.
         25    1    1    2    0    0 -0.10415523729E+03  0.39328829882E+02  0.56283404994E+03  0.58719863597E+03  0.12500000000E+03 0.  0.
</event>
<event>
 4    0  0.2196599E-002  0.4643726E+03  0.7546771E-02  0.1023521E+00
         21   -1    0    0  502  501  0.00000000000E+00  0.00000000000E+00  0.59077345499E+03  0.59077345499E+03  0.00000000000E+00 0.  1.
         21   -1    0    0  501  502 -0.00000000000E+00 -0.00000000000E+00 -0.36501630603E+03  0.36501630603E+03  0.00000000000E+00 0.  1.
         25    1    1    2    0    0 -0.26286282178E+03  0.15602273633E+03 -0.22308908797E+03  0.39853945664E+03  0.12500000000E+03 0.  0.
         25    1    1    2    0    0  0.26286282178E+03 -0.15602273633E+03  0.44884623693E+03  0.55725030438E+03  0.12500000000E+03 0.  0.
</event>
<event>
 4    0  0.2196599E-002  0.2675757E+03  0.7546771E-02  0.1102675E+00
         21   -1    0    0  502  501  0.00000000000E+00  0.00000000000E+00  0.11047472033E+03  0.11047472033E+03  0.00000000000E+00 0. -1.
         21   -1    0    0  501  502 -0.00000000000E+00 -0.00000000000E+00 -0.64808278814E+03  0.64808278814E+03  0.00000000000E+00 0. -1.
         25    1    1    2    0    0 -0.19970214155E+03  0.93785887299E+01 -0.89491503176E+02  0.25219562329E+03  0.12500000000E+03 0.  0.
         25    1    1    2    0    0  0.19970214155E+03 -0.93785887299E+01 -0.44811656464E+03  0.50636188518E+03  0.12500000000E+03 0.  0.
</event>
<event>
 4    0  0.2196599E-002  0.2214836E+03  0.7546771E-02  0.1132782E+00
         21   -1    0    0  502  501  0.00000000000E+00  0.00000000000E+00  0.24158841407E+04  0.24158841407E+04  0.00000000000E+00 0. -1.
         21   -1    0    0  501  502 -0.00000000000E+00 -0.00000000000E+00 -0.20305191119E+02  0.20305191119E+02  0.00000000000E+00 0. -1.
         25    1    1    2    0    0 -0.85495073830E+02 -0.10636512986E+03  0.18670166751E+04  0.18761660943E+04  0.12500000000E+03 0.  0.
         25    1    1    2    0    0  0.85495073830E+02  0.10636512986E+03  0.52856227450E+03  0.56002323749E+03  0.12500000000E+03 0.  0.
</event>
<event>
 4    0  0.2196599E-002  0.2053844E+03  0.7546771E-02  0.1145274E+00
         21   -1    0    0  502  501  0.00000000000E+00  0.00000000000E+00  0.15451987426E+03  0.15451987426E+03  0.00000000000E+00 0.  1.
         21   -1    0    0  501  502 -0.00000000000E+00 -0.00000000000E+00 -0.27299236108E+03  0.27299236108E+03  0.00000000000E+00 0.  1.
         25    1    1    2    0    0 -0.14467479674E+03  0.55874425060E+01  0.18617494490E+02  0.19218123589E+03  0.12500000000E+03 0.  0.
         25    1    1    2    0    0  0.14467479674E+03 -0.55874425060E+01 -0.13708998131E+03  0.23533099945E+03  0.12500000000E+03 0.  0.
</event>
<event>
 4    0  0.2196599E-002  0.2014063E+03  0.7546771E-02  0.1148558E+00
         21   -1    0    0  502  501  0.00000000000E+00  0.00000000000E+00  0.95102278729E+02  0.95102278729E+02  0.00000000000E+00 0.  1.
         21   -1    0    0  501  502 -0.00000000000E+00 -0.00000000000E+00 -0.42653534154E+03  0.42653534154E+03  0.00000000000E+00 0.  1.
         25    1    1    2    0    0 -0.10044666107E+03 -0.49071977864E+02 -0.31016374020E+03  0.35259627971E+03  0.12500000000E+03 0.  0.
         25    1    1    2    0    0  0.10044666107E+03  0.49071977864E+02 -0.21269322609E+02  0.16904134055E+03  0.12500000000E+03 0.  0.
</event>
<event>
 4    0  0.2196599E-002  0.2387034E+03  0.7546771E-02  0.1120660E+00
         21   -1    0    0  502  501  0.00000000000E+00  0.00000000000E+00  0.30852540346E+02  0.30852540346E+02  0.00000000000E+00 0.  1.
         21   -1    0    0  501  502 -0.00000000000E+00 -0.00000000000E+00 -0.18468275250E+04  0.18468275250E+04  0.00000000000E+00 0.  1.
         25    1    1    2    0    0 -0.17466664995E+03 -0.68803385212E+02 -0.60050258960E+03  0.64145982301E+03  0.12500000000E+03 0.  0.
         25    1    1    2    0    0  0.17466664995E+03  0.68803385212E+02 -0.12154723951E+04  0.12362202423E+04  0.12500000000E+03 0.  0.
</event>
<event>
 4    0  0.2196599E-002  0.2060423E+03  0.7546771E-02  0.1144739E+00
         21   -1    0    0  502  501  0.00000000000E+00  0.00000000000E+00  0.10031412848E+03  0.10031412848E+03  0.00000000000E+00 0. -1.
         21   -1    0    0  501  502 -0.00000000000E+00 -0.00000000000E+00 -0.42320495909E+03  0.42320495909E+03  0.00000000000E+00 0. -1.
         25    1    1    2    0    0 -0.16061156818E+03 -0.57071740724E+01 -0.20161527086E+03  0.28653510276E+03  0.12500000000E+03 0.  0.
         25    1    1    2    0    0  0.16061156818E+03  0.57071740724E+01 -0.12127555975E+03  0.23698398482E+03  0.12500000000E+03 0.  0.
</event>
<event>
 4    0  0.2196599E-002  0.3043800E+03  0.7546771E-02  0.1083071E+00
         21   -1    0    0  502  501  0.00000000000E+00  0.00000000000E+00  0.19691034058E+03  0.19691034058E+03  0.00000000000E+00 0.  1.
         21   -1    0    0  501  502 -0.00000000000E+00 -0.00000000000E+00 -0.47050436083E+03  0.47050436083E+03  0.00000000000E+00 0.  1.
         25    1    1    2    0    0 -0.21171991003E+03  0.21214994360E+02 -0.33214075540E+03  0.41378482051E+03  0.12500000000E+03 0.  0.
         25    1    1    2    0    0  0.21171991003E+03 -0.21214994360E+02  0.58546735153E+02  0.25362988090E+03  0.12500000000E+03 0.  0.
</event>
<event>
 4    0  0.2196599E-002  0.1996727E+03  0.7546771E-02  0.1150015E+00
         21   -1    0    0  502  501  0.00000000000E+00  0.00000000000E+00  0.69674246649E+02  0.69674246649E+02  0.00000000000E+00 0. -1.
         21   -1    0    0  501  502 -0.00000000000E+00 -0.00000000000E+00 -0.57222268841E+03  0.57222268841E+03  0.00000000000E+00 0. -1.
         25    1    1    2    0    0  0.54150272707E+02 -0.14147747601E+03 -0.19340753741E+03  0.27564398013E+03  0.12500000000E+03 0.  0.
         25    1    1    2    0    0 -0.54150272707E+02  0.14147747601E+03 -0.30914090435E+03  0.36625295493E+03  0.12500000000E+03 0.  0.
</event>
<event>
 4    0  0.2196599E-002  0.1890982E+03  0.7546771E-02  0.1159277E+00
         21   -1    0    0  502  501  0.00000000000E+00  0.00000000000E+00  0.32153092619E+03  0.32153092619E+03  0.00000000000E+00 0.  1.
         21   -1    0    0  501  502 -0.00000000000E+00 -0.00000000000E+00 -0.11121209215E+03  0.11121209215E+03  0.00000000000E+00 0.  1.
         25    1    1    2    0    0 -0.11480010402E+03 -0.69394269808E+02  0.52245835200E+02  0.19065480812E+03  0.12500000000E+03 0.  0.
         25    1    1    2    0    0  0.11480010402E+03  0.69394269808E+02  0.15807299884E+03  0.24208821022E+03  0.12500000000E+03 0.  0.
</event>
<event>
 4    0  0.2196599E-002  0.2117325E+03  0.7546771E-02  0.1140201E+00
         21   -1    0    0  502  501  0.00000000000E+00  0.00000000000E+00  0.93088669493E+02  0.93088669493E+02  0.00000000000E+00 0. -1.
         21   -1    0    0  501  502 -0.00000000000E+00 -0.00000000000E+00 -0.48159078015E+03  0.48159078015E+03  0.00000000000E+00 0. -1.
         25    1    1    2    0    0 -0.21053518338E+01 -0.16105322178E+03 -0.27177243985E+03  0.33974671715E+03  0.12500000000E+03 0.  0.
         25    1    1    2    0    0  0.21053518338E+01  0.16105322178E+03 -0.11672967081E+03  0.23493273250E+03  0.12500000000E+03 0.  0.
</event>
<event>
 4    0  0.2196599E-002  0.1940063E+03  0.7546771E-02  0.1154897E+00
         21   -1    0    0  502  501  0.00000000000E+00  0.00000000000E+00  0.96399179254E+03  0.96399179254E+03  0.00000000000E+00 0.  1.
         21   -1    0    0  501  502 -0.00000000000E+00 -0.00000000000E+00 -0.39044365974E+02  0.39044365974E+02  0.00000000000E+00 0.  1.
         25    1    1    2    0    0  0.41266770752E+02  0.10115331757E+03  0.20295488765E+03  0.26220340663E+03  0.12500000000E+03 0.  0.
         25    1    1    2    0    0 -0.41266770752E+02 -0.10115331757E+03  0.72199253892E+03  0.74083275189E+03  0.12500000000E+03 0.  0.
</event>
<event>
 4    0  0.2196599E-002  0.1787674E+03  0.7546771E-02  0.1169001E+00
         21   -1    0    0  502  501  0.00000000000E+00  0.00000000000E+00  0.32417091687E+03  0.32417091687E+03  0.00000000000E+00 0.  1.
         21   -1    0    0  501  502 -0.00000000000E+00 -0.00000000000E+00 -0.98583166413E+02  0.98583166413E+02  0.00000000000E+00 0.  1.
         25    1    1    2    0    0 -0.19032946838E+02 -0.10786309931E+03  0.34933092979E+02  0.16982939158E+03  0.12500000000E+03 0.  0.
         25    1    1    2    0    0  0.19032946838E+02  0.10786309931E+03  0.19065465748E+03  0.25292469171E+03  0.12500000000E+03 0.  0.
</event>
<event>
 4    0  0.2196599E-002  0.1750894E+03  0.7546771E-02  0.1172642E+00
         21   -1    0    0  502  501  0.00000000000E+00  0.00000000000E+00  0.10417977462E+03  0.10417977462E+03  0.00000000000E+00 0.  1.
         21   -1    0    0  501  502 -0.00000000000E+00 -0.00000000000E+00 -0.29426352408E+03  0.29426352408E+03  0.00000000000E+00 0.  1.
         25    1    1    2    0    0  0.80319384993E+02  0.40050292315E+02 -0.71599544818E-02  0.15388381842E+03  0.12500000000E+03 0.  0.
         25    1    1    2    0    0 -0.80319384993E+02 -0.40050292315E+02 -0.19007658950E+03  0.24455948028E+03  0.12500000000E+03 0.  0.
</event>
<event>
 4    0  0.2196599E-002  0.2077545E+03  0.7546771E-02  0.1143357E+00
         21   -1    0    0  502  501  0.00000000000E+00  0.00000000000E+00  0.27994156418E+03  0.27994156418E+03  0.00000000000E+00 0.  1.
         21   -1    0    0  501  502 -0.00000000000E+00 -0.00000000000E+00 -0.15418187531E+03  0.15418187531E+03  0.00000000000E+00 0.  1.
         25    1    1    2    0    0  0.88662245918E+02  0.14027000242E+03  0.63400058975E+02  0.21721241886E+03  0.12500000000E+03 0.  0.
         25    1    1    2    0    0 -0.88662245918E+02 -0.14027000242E+03  0.62359629899E+02  0.21691102063E+03  0.12500000000E+03 0.  0.
</event>
<event>
 4    0  0.2196599E-002  0.3420951E+03  0.7546771E-02  0.1065907E+00
         21   -1    0    0  502  501  0.00000000000E+00  0.00000000000E+00  0.71962443958E+02  0.71962443958E+02  0.00000000000E+00 0. -1.
         21   -1    0    0  501  502 -0.00000000000E+00 -0.00000000000E+00 -0.16262517197E+04  0.16262517197E+04  0.00000000000E+00 0. -1.
         25    1    1    2    0    0  0.77139404117E+02 -0.23287314559E+03 -0.27319296278E+03  0.38786567845E+03  0.12500000000E+03 0.  0.
         25    1    1    2    0    0 -0.77139404117E+02  0.23287314559E+03 -0.12810963129E+04  0.13103484852E+04  0.12500000000E+03 0.  0.
</event>
<event>
 4    0  0.2196599E-002  0.2433582E+03  0.7546771E-02  0.1117576E+00
         21   -1    0    0  502  501  0.00000000000E+00  0.00000000000E+00  0.30756604170E+02  0.30756604170E+02  0.00000000000E+00 0. -1.
         21   -1    0    0  501  502 -0.00000000000E+00 -0.00000000000E+00 -0.19255452505E+04  0.19255452505E+04  0.00000000000E+00 0. -1.
         25    1    1    2    0    0  0.62706703947E+02 -0.19834737674E+03 -0.10197902214E+04  0.10482704366E+04  0.12500000000E+03 0.  0.
         25    1    1    2    0    0 -0.62706703947E+02  0.19834737674E+03 -0.87499842498E+03  0.90803141812E+03  0.12500000000E+03 0.  0.
</event>
<event>
 4    0  0.2196599E-002  0.1475304E+03  0.7546771E-02  0.1203541E+00
         21   -1    0    0  502  501  0.00000000000E+00  0.00000000000E+00  0.18113365003E+03  0.18113365003E+03  0.00000000000E+00 0. -1.
         21   -1    0    0  501  502 -0.00000000000E+00 -0.00000000000E+00 -0.12016115496E+03  0.12016115496E+03  0.00000000000E+00 0. -1.
         25    1    1    2    0    0 -0.18008551061E+02  0.45742638585E+02  0.92796219929E+02  0.16325696104E+03  0.12500000000E+03 0.  0.
         25    1    1    2    0    0  0.18008551061E+02 -0.45742638585E+02 -0.31823724861E+02  0.13803784394E+03  0.12500000000E+03 0.  0.
</event>
<event>
 4    0  0.2196599E-002  0.1874081E+03  0.7546771E-02  0.1160820E+00
         21   -1    0    0  502  501  0.00000000000E+00  0.00000000000E+00  0.56344871061E+03  0.56344871061E+03  0.00000000000E+00 0.  1.
         21   -1    0    0  501  502 -0.00000000000E+00 -0.00000000000E+00 -0.62333624267E+02  0.62333624267E+02  0.00000000000E+00 0.  1.
         25    1    1    2    0    0 -0.56386693636E+02 -0.67198916165E+02  0.43193204125E+03  0.45813255921E+03  0.12500000000E+03 0.  0.
         25    1    1    2    0    0  0.56386693636E+02  0.67198916165E+02  0.69183045098E+02  0.16764977567E+03  0.12500000000E+03 0.  0.
</event>
<event>
 4    0  0.2196599E-002  0.5224340E+03  0.7546771E-02  0.1008084E+00
         21   -1    0    0  502  501  0.00000000000E+00  0.00000000000E+00  0.16809995119E+03  0.16809995119E+03  0.00000000000E+00 0.  1.
         21   -1    0    0  501  502 -0.00000000000E+00 -0.00000000000E+00 -0.16236605699E+04  0.16236605699E+04  0.00000000000E+00 0. -1.
         25    1    1    2    0    0  0.47690711083E+03 -0.12833781365E+03 -0.52926608823E+03  0.73461457848E+03  0.12500000000E+03 0.  0.
         25    1    1    2    0    0 -0.47690711083E+03  0.12833781365E+03 -0.92629453050E+03  0.10571459426E+04  0.12500000000E+03 0.  0.
</event>
<event>
 4    0  0.2196599E-002  0.2595125E+03  0.7546771E-02  0.1107436E+00
         21   -1    0    0  502  501  0.00000000000E+00  0.00000000000E+00  0.11079785822E+03  0.11079785822E+03  0.00000000000E+00 0.  1.
         21   -1    0    0  501  502 -0.00000000000E+00 -0.00000000000E+00 -0.60783438641E+03  0.60783438641E+03  0.00000000000E+00 0.  1.
         25    1    1    2    0    0 -0.15563990671E+03 -0.15445072826E+03 -0.33208711047E+03  0.41711587954E+03  0.12500000000E+03 0.  0.
         25    1    1    2    0    0  0.15563990671E+03  0.15445072826E+03 -0.16494941772E+03  0.30151636510E+03  0.12500000000E+03 0.  0.
</event>
<event>
 4    0  0.2196599E-002  0.2863335E+03  0.7546771E-02  0.1092279E+00
         21   -1    0    0  502  501  0.00000000000E+00  0.00000000000E+00  0.39243892595E+03  0.39243892595E+03  0.00000000000E+00 0.  1.
         21   -1    0    0  501  502 -0.00000000000E+00 -0.00000000000E+00 -0.20891628271E+03  0.20891628271E+03  0.00000000000E+00 0.  1.
         25    1    1    2    0    0  0.29669182752E+02  0.21119307118E+03  0.24349600625E+03  0.34698426301E+03  0.12500000000E+03 0.  0.
         25    1    1    2    0    0 -0.29669182752E+02 -0.21119307118E+03 -0.59973363012E+02  0.25437094565E+03  0.12500000000E+03 0.  0.
</event>
<event>
 4    0  0.2196599E-002  0.4250237E+03  0.7546771E-02  0.1035444E+00
         21   -1    0    0  502  501  0.00000000000E+00  0.00000000000E+00  0.21432035227E+03  0.21432035227E+03  0.00000000000E+00 0.  1.
         21   -1    0    0  501  502 -0.00000000000E+00 -0.00000000000E+00 -0.84287443579E+03  0.84287443579E+03  0.00000000000E+00 0. -1.
         25    1    1    2    0    0 -0.10324754607E+03 -0.33994394366E+03 -0.55924974156E+03  0.67424566297E+03  0.12500000000E+03 0.  0.
         25    1    1    2    0    0  0.10324754607E+03  0.33994394366E+03 -0.69304341955E+02  0.38294912510E+03  0.12500000000E+03 0.  0.
</event>
<event>
 4    0  0.2196599E-002  0.2029836E+03  0.7546771E-02  0.1147246E+00
         21   -1    0    0  502  501  0.00000000000E+00  0.00000000000E+00  0.13747910224E+03  0.13747910224E+03  0.00000000000E+00 0. -1.
         21   -1    0    0  501  502 -0.00000000000E+00 -0.00000000000E+00 -0.29969908562E+03  0.29969908562E+03  0.00000000000E+00 0. -1.
         25    1    1    2    0    0  0.69097917500E+02  0.12219579211E+03  0.14034100005E+01  0.18797154937E+03  0.12500000000E+03 0.  0.
         25    1    1    2    0    0 -0.69097917500E+02 -0.12219579211E+03 -0.16362339338E+03  0.24920663850E+03  0.12500000000E+03 0.  0.
</event>
<event>
 4    0  0.2196599E-002  0.2328113E+03  0.7546771E-02  0.1124677E+00
         21   -1    0    0  502  501  0.00000000000E+00  0.00000000000E+00  0.83631798938E+02  0.83631798938E+02  0.00000000000E+00 0. -1.
         21   -1    0    0  501  502 -0.00000000000E+00 -0.00000000000E+00 -0.64809185790E+03  0.64809185790E+03  0.00000000000E+00 0. -1.
         25    1    1    2    0    0 -0.67751332923E+02  0.15046592620E+03 -0.44962084114E+03  0.49498902902E+03  0.12500000000E+03 0.  0.
         25    1    1    2    0    0  0.67751332923E+02 -0.15046592620E+03 -0.11483921782E+03  0.23673462782E+03  0.12500000000E+03 0.  0.
</event>
<event>
 4    0  0.2196599E-002  0.3721510E+03  0.7546771E-02  0.1053874E+00
         21   -1    0    0  502  501  0.00000000000E+00  0.00000000000E+00  0.63352747387E+02  0.63352747387E+02  0.00000000000E+00 0.  1.
         21   -1    0    0  501  502 -0.00000000000E+00 -0.00000000000E+00 -0.21861147123E+04  0.21861147123E+04  0.00000000000E+00 0.  1.
         25    1    1    2    0    0 -0.87210637636E+02  0.15586927799E+03 -0.19729313724E+04  0.19849393258E+04  0.12500000000E+03 0.  0.
         25    1    1    2    0    0  0.87210637636E+02 -0.15586927799E+03 -0.14983059253E+03  0.26452813385E+03  0.12500000000E+03 0.  0.
</event>
<event>
 4    0  0.2196599E-002  0.2316718E+03  0.7546771E-02  0.1125469E+00
         21   -1    0    0  502  501  0.00000000000E+00  0.00000000000E+00  0.14860133580E+03  0.14860133580E+03  0.00000000000E+00 0.  1.
         21   -1    0    0  501  502 -0.00000000000E+00 -0.00000000000E+00 -0.36117997485E+03  0.36117997485E+03  0.00000000000E+00 0.  1.
         25    1    1    2    0    0  0.18190566925E+03 -0.66931645878E+02 -0.82252304280E+02  0.24486722787E+03  0.12500000000E+03 0.  0.
         25    1    1    2    0    0 -0.18190566925E+03  0.66931645878E+02 -0.13032633477E+03  0.26491408279E+03  0.12500000000E+03 0.  0.
</event>
<event>
 4    0  0.2196599E-002  0.1977977E+03  0.7546771E-02  0.1151610E+00
         21   -1    0    0  502  501  0.00000000000E+00  0.00000000000E+00  0.20362088721E+03  0.20362088721E+03  0.00000000000E+00 0. -1.
         21   -1    0    0  501  502 -0.00000000000E+00 -0.00000000000E+00 -0.19214109584E+03  0.19214109584E+03  0.00000000000E+00 0. -1.
         25    1    1    2    0    0  0.11011286068E+03  0.84676042333E+02  0.70605961007E+02  0.19976254895E+03  0.12500000000E+03 0.  0.
         25    1    1    2    0    0 -0.11011286068E+03 -0.84676042333E+02 -0.59126169639E+02  0.19599943410E+03  0.12500000000E+03 0.  0.
</event>
<event>
 4    0  0.2196599E-002  0.2015445E+03  0.7546771E-02  0.1148442E+00
         21   -1    0    0  502  501  0.00000000000E+00  0.00000000000E+00  0.44346649200E+03  0.44346649200E+03  0.00000000000E+00 0. -1.
         21   -1    0    0  501  502 -0.00000000000E+00 -0.00000000000E+00 -0.91596950492E+02  0.91596950492E+02  0.00000000000E+00 0. -1.
         25    1    1    2    0    0  0.56234903295E+02 -0.86117586587E+02  0.16554183579E+02  0.16271952576E+03  0.12500000000E+03 0.  0.
         25    1    1    2    0    0 -0.56234903295E+02  0.86117586587E+02  0.33531535793E+03  0.37234391674E+03  0.12500000000E+03 0.  0.
</event>
<event>
 4    0  0.2196599E-002  0.2322550E+03  0.7546771E-02  0.1125063E+00
         21   -1    0    0  502  501  0.00000000000E+00  0.00000000000E+00  0.94178161268E+03  0.94178161268E+03  0.00000000000E+00 0.  1.
         21   -1    0    0  501  502 -0.00000000000E+00 -0.00000000000E+00 -0.57276964061E+02  0.57276964061E+02  0.00000000000E+00 0.  1.
         25    1    1    2    0    0 -0.77701368494E+02 -0.17876636252E+03  0.48087522849E+03  0.53372361800E+03  0.12500000000E+03 0.  0.
         25    1    1    2    0    0  0.77701368494E+02  0.17876636252E+03  0.40362942013E+03  0.46533495875E+03  0.12500000000E+03 0.  0.
</event>
<event>
 4    0  0.2196599E-002  0.3248719E+03  0.7546771E-02  0.1073429E+00
         21   -1    0    0  502  501  0.00000000000E+00  0.00000000000E+00  0.19444979800E+03  0.19444979800E+03  0.00000000000E+00 0. -1.
         21   -1    0    0  501  502 -0.00000000000E+00 -0.00000000000E+00 -0.54277104998E+03  0.54277104998E+03  0.00000000000E+00 0. -1.
         25    1    1    2    0    0  0.14763858548E+03 -0.13095124540E+02  0.12160257859E+03  0.22886856781E+03  0.12500000000E+03 0.  0.
         25    1    1    2    0    0 -0.14763858548E+03  0.13095124540E+02 -0.46992383057E+03  0.50835228017E+03  0.12500000000E+03 0.  0.
</event>
<event>
 4    0  0.2196599E-002  0.1856576E+03  0.7546771E-02  0.1162437E+00
         21   -1    0    0  502  501  0.00000000000E+00  0.00000000000E+00  0.28343290685E+02  0.28343290685E+02  0.00000000000E+00 0. -1.
         21   -1    0    0  501  502 -0.00000000000E+00 -0.00000000000E+00 -0.12161165202E+04  0.12161165202E+04  0.00000000000E+00 0. -1.
         25    1    1    2    0    0  0.11658325995E+03 -0.49758629942E+02 -0.41729873646E+03  0.45368580891E+03  0.12500000000E+03 0.  0.
         25    1    1    2    0    0 -0.11658325995E+03  0.49758629942E+02 -0.77047449310E+03  0.79077400202E+03  0.12500000000E+03 0.  0.
</event>
<event>
 4    0  0.2196599E-002  0.2707754E+03  0.7546771E-02  0.1100837E+00
         21   -1    0    0  502  501  0.00000000000E+00  0.00000000000E+00  0.13603767631E+03  0.13603767631E+03  0.00000000000E+00 0. -1.
         21   -1    0    0  501  502 -0.00000000000E+00 -0.00000000000E+00 -0.53896327042E+03  0.53896327042E+03  0.00000000000E+00 0. -1.
         25    1    1    2    0    0 -0.27171649151E+01 -0.14566546157E+03 -0.43948866455E+03  0.47958429493E+03  0.12500000000E+03 0.  0.
         25    1    1    2    0    0  0.27171649151E+01  0.14566546157E+03  0.36563070437E+02  0.19541665179E+03  0.12500000000E+03 0.  0.
</event>
<event>
 4    0  0.2196599E-002  0.2354924E+03  0.7546771E-02  0.1122833E+00
         21   -1    0    0  502  501  0.00000000000E+00  0.00000000000E+00  0.73826475739E+02  0.73826475739E+02  0.00000000000E+00 0. -1.
         21   -1    0    0  501  502 -0.00000000000E+00 -0.00000000000E+00 -0.75117593099E+03  0.75117593099E+03  0.00000000000E+00 0. -1.
         25    1    1    2    0    0  0.60274406482E+01 -0.20227080260E+02 -0.68630724869E+03  0.69791697531E+03  0.12500000000E+03 0.  0.
         25    1    1    2    0    0 -0.60274406482E+01  0.20227080260E+02  0.89577934386E+01  0.12708543142E+03  0.12500000000E+03 0.  0.
</event>
<event>
 4    0  0.2196599E-002  0.2400895E+03  0.7546771E-02  0.1119733E+00
         21   -1    0    0  502  501  0.00000000000E+00  0.00000000000E+00  0.26877984838E+03  0.26877984838E+03  0.00000000000E+00 0.  1.
         21   -1    0    0  501  502 -0.00000000000E+00 -0.00000000000E+00 -0.21446171736E+03  0.21446171736E+03  0.00000000000E+00 0.  1.
         25    1    1    2    0    0  0.17458204276E+03  0.10535635075E+03  0.60698052820E+01  0.23925027238E+03  0.12500000000E+03 0.  0.
         25    1    1    2    0    0 -0.17458204276E+03 -0.10535635075E+03  0.48248325745E+02  0.24399129336E+03  0.12500000000E+03 0.  0.
</event>
<event>
 4    0  0.2196599E-002  0.2033998E+03  0.7546771E-02  0.1146902E+00
         21   -1    0    0  502  501  0.00000000000E+00  0.00000000000E+00  0.50363643746E+03  0.50363643746E+03  0.00000000000E+00 0.  1.
         21   -1    0    0  501  502 -0.00000000000E+00 -0.00000000000E+00 -0.82145553836E+02  0.82145553836E+02  0.00000000000E+00 0.  1.
         25    1    1    2    0    0 -0.16001943715E+03 -0.25265340776E+00  0.19369463658E+03  0.28062233756E+03  0.12500000000E+03 0.  0.
         25    1    1    2    0    0  0.16001943715E+03  0.25265340776E+00  0.22779624704E+03  0.30515965373E+03  0.12500000000E+03 0.  0.
</event>
<event>
 4    0  0.2196599E-002  0.1733832E+03  0.7546771E-02  0.1174365E+00
         21   -1    0    0  502  501  0.00000000000E+00  0.00000000000E+00  0.65330222364E+02  0.65330222364E+02  0.00000000000E+00 0. -1.
         21   -1    0    0  501  502 -0.00000000000E+00 -0.00000000000E+00 -0.46015044992E+03  0.46015044992E+03  0.00000000000E+00 0. -1.
         25    1    1    2    0    0  0.21350423033E+02 -0.74957670886E+02 -0.33598388152E+03  0.36685782209E+03  0.12500000000E+03 0.  0.
         25    1    1    2    0    0 -0.21350423033E+02  0.74957670886E+02 -0.58836346036E+02  0.15862285019E+03  0.12500000000E+03 0.  0.
</event>
<event>
 4    0  0.2196599E-002  0.2159085E+03  0.7546771E-02  0.1136971E+00
         21   -1    0    0  502  501  0.00000000000E+00  0.00000000000E+00  0.24311710655E+03  0.24311710655E+03  0.00000000000E+00 0.  1.
         21   -1    0    0  501  502 -0.00000000000E+00 -0.00000000000E+00 -0.19174502537E+03  0.19174502537E+03  0.00000000000E+00 0.  1.
         25    1    1    2    0    0  0.14893426590E+03 -0.20813284882E+02  0.11785679060E+03  0.22831958190E+03  0.12500000000E+03 0.  0.
         25    1    1    2    0    0 -0.14893426590E+03  0.20813284882E+02 -0.66484709421E+02  0.20654255003E+03  0.12500000000E+03 0.  0.
</event>
<event>
 4    0  0.2196599E-002  0.1884010E+03  0.7546771E-02  0.1159912E+00
         21   -1    0    0  502  501  0.00000000000E+00  0.00000000000E+00  0.99228167481E+02  0.99228167481E+02  0.00000000000E+00 0. -1.
         21   -1    0    0  501  502 -0.00000000000E+00 -0.00000000000E+00 -0.35771013675E+03  0.35771013675E+03  0.00000000000E+00 0. -1.
         25    1    1    2    0    0 -0.83819945212E+02  0.46180027842E+02 -0.37332525220E+01  0.15747163351E+03  0.12500000000E+03 0.  0.
         25    1    1    2    0    0  0.83819945212E+02 -0.46180027842E+02 -0.25474871674E+03  0.29946667071E+03  0.12500000000E+03 0.  0.
</event>
<event>
 4    0  0.2196599E-002  0.1938793E+03  0.7546771E-02  0.1155008E+00
         21   -1    0    0  502  501  0.00000000000E+00  0.00000000000E+00  0.28349420131E+03  0.28349420131E+03  0.00000000000E+00 0.  1.
         21   -1    0    0  501  502 -0.00000000000E+00 -0.00000000000E+00 -0.13259236166E+03  0.13259236166E+03  0.00000000000E+00 0.  1.
         25    1    1    2    0    0 -0.90726097569E+01 -0.94828807330E+01 -0.82954553609E+02  0.15059447280E+03  0.12500000000E+03 0.  0.
         25    1    1    2    0    0  0.90726097569E+01  0.94828807330E+01  0.23385639326E+03  0.26549209017E+03  0.12500000000E+03 0.  0.
</event>
<event>
 4    0  0.2196599E-002  0.2416232E+03  0.7546771E-02  0.1118716E+00
         21   -1    0    0  502  501  0.00000000000E+00  0.00000000000E+00  0.34456118603E+03  0.34456118603E+03  0.00000000000E+00 0.  1.
         21   -1    0    0  501  502 -0.00000000000E+00 -0.00000000000E+00 -0.16943810043E+03  0.16943810043E+03  0.00000000000E+00 0.  1.
         25    1    1    2    0    0  0.18196220528E+03 -0.65609581638E+02  0.98218243127E+01  0.23051318745E+03  0.12500000000E+03 0.  0.
         25    1    1    2    0    0 -0.18196220528E+03  0.65609581638E+02  0.16530126129E+03  0.28348609902E+03  0.12500000000E+03 0.  0.
</event>
<event>
 4    0  0.2196599E-002  0.2993499E+03  0.7546771E-02  0.1085566E+00
         21   -1    0    0  502  501  0.00000000000E+00  0.00000000000E+00  0.50533814141E+03  0.50533814141E+03  0.00000000000E+00 0. -1.
         21   -1    0    0  501  502 -0.00000000000E+00 -0.00000000000E+00 -0.17732748222E+03  0.17732748222E+03  0.00000000000E+00 0. -1.
         25    1    1    2    0    0  0.94642416223E+02 -0.19560336610E+03  0.35055852408E+03  0.43096884178E+03  0.12500000000E+03 0.  0.
         25    1    1    2    0    0 -0.94642416223E+02  0.19560336610E+03 -0.22547864888E+02  0.25169678184E+03  0.12500000000E+03 0.  0.
</event>
<event>
 4    0  0.2196599E-002  0.1750032E+03  0.7546771E-02  0.1172728E+00
         21   -1    0    0  502  501  0.00000000000E+00  0.00000000000E+00  0.50770302141E+02  0.50770302141E+02  0.00000000000E+00 0.  1.
         21   -1    0    0  501  502 -0.00000000000E+00 -0.00000000000E+00 -0.60322921533E+03  0.60322921533E+03  0.00000000000E+00 0.  1.
         25    1    1    2    0    0  0.12170305778E+03 -0.91510075300E+01 -0.25701401296E+03  0.31076772366E+03  0.12500000000E+03 0.  0.
         25    1    1    2    0    0 -0.12170305778E+03  0.91510075300E+01 -0.29544490023E+03  0.34323179381E+03  0.12500000000E+03 0.  0.
</event>
<event>
 4    0  0.2196599E-002  0.1934575E+03  0.7546771E-02  0.1155379E+00
         21   -1    0    0  502  501  0.00000000000E+00  0.00000000000E+00  0.91081015950E+03  0.91081015950E+03  0.00000000000E+00 0. -1.
         21   -1    0    0  501  502 -0.00000000000E+00 -0.00000000000E+00 -0.41090682904E+02  0.41090682904E+02  0.00000000000E+00 0. -1.
         25    1    1    2    0    0  0.10567210388E+02 -0.14718951005E+03  0.42270866995E+03  0.46484840266E+03  0.12500000000E+03 0.  0.
         25    1    1    2    0    0 -0.10567210388E+02  0.14718951005E+03  0.44701080665E+03  0.48705243975E+03  0.12500000000E+03 0.  0.
</event>
<event>
 4    0  0.2196599E-002  0.2289970E+03  0.7546771E-02  0.1127348E+00
         21   -1    0    0  502  501  0.00000000000E+00  0.00000000000E+00  0.55568913465E+03  0.55568913465E+03  0.00000000000E+00 0. -1.
         21   -1    0    0  501  502 -0.00000000000E+00 -0.00000000000E+00 -0.94368633627E+02  0.94368633627E+02  0.00000000000E+00 0. -1.
         25    1    1    2    0    0 -0.12350907583E+03 -0.14990941576E+01  0.43905906733E+03  0.47292135044E+03  0.12500000000E+03 0.  0.
         25    1    1    2    0    0  0.12350907583E+03  0.14990941576E+01  0.22261433691E+02  0.17713641784E+03  0.12500000000E+03 0.  0.
</event>
<event>
 4    0  0.2196599E-002  0.2564749E+03  0.7546771E-02  0.1109280E+00
         21   -1    0    0  502  501  0.00000000000E+00  0.00000000000E+00  0.16263731465E+03  0.16263731465E+03  0.00000000000E+00 0.  1.
         21   -1    0    0  501  502 -0.00000000000E+00 -0.00000000000E+00 -0.40445450744E+03  0.40445450744E+03  0.00000000000E+00 0.  1.
         25    1    1    2    0    0 -0.27288394731E+02 -0.15916674782E+03 -0.29244953289E+03  0.35669376135E+03  0.12500000000E+03 0.  0.
         25    1    1    2    0    0  0.27288394731E+02  0.15916674782E+03  0.50632340101E+02  0.21039806074E+03  0.12500000000E+03 0.  0.
</event>
<event>
 4    0  0.2196599E-002  0.2350295E+03  0.7546771E-02  0.1123149E+00
         21   -1    0    0  502  501  0.00000000000E+00  0.00000000000E+00  0.17786094700E+03  0.17786094700E+03  0.00000000000E+00 0. -1.
         21   -1    0    0  501  502 -0.00000000000E+00 -0.00000000000E+00 -0.31057328982E+03  0.31057328982E+03  0.00000000000E+00 0. -1.
         25    1    1    2    0    0  0.52288364313E+01 -0.19621916663E+03 -0.10057617209E+03  0.25351502613E+03  0.12500000000E+03 0.  0.
         25    1    1    2    0    0 -0.52288364313E+01  0.19621916663E+03 -0.32136170732E+02  0.23491921069E+03  0.12500000000E+03 0.  0.
</event>
<event>
 4    0  0.2196599E-002  0.2357741E+03  0.7546771E-02  0.1122640E+00
         21   -1    0    0  502  501  0.00000000000E+00  0.00000000000E+00  0.25717070417E+03  0.25717070417E+03  0.00000000000E+00 0. -1.
         21   -1    0    0  501  502 -0.00000000000E+00 -0.00000000000E+00 -0.21615768227E+03  0.21615768227E+03  0.00000000000E+00 0. -1.
         25    1    1    2    0    0 -0.15146830509E+03  0.66784786694E+02  0.13300803361E+03  0.24641224033E+03  0.12500000000E+03 0.  0.
         25    1    1    2    0    0  0.15146830509E+03 -0.66784786694E+02 -0.91995011714E+02  0.22691614610E+03  0.12500000000E+03 0.  0.
</event>
<event>
 4    0  0.2196599E-002  0.2647707E+03  0.7546771E-02  0.1104310E+00
         21   -1    0    0  502  501  0.00000000000E+00  0.00000000000E+00  0.17946917401E+04  0.17946917401E+04  0.00000000000E+00 0.  1.
         21   -1    0    0  501  502 -0.00000000000E+00 -0.00000000000E+00 -0.39061605996E+02  0.39061605996E+02  0.00000000000E+00 0.  1.
         25    1    1    2    0    0  0.93344322573E+02  0.21120685454E+03  0.76002306037E+03  0.80410294755E+03  0.12500000000E+03 0.  0.
         25    1    1    2    0    0 -0.93344322573E+02 -0.21120685454E+03  0.99560707369E+03  0.10296503985E+04  0.12500000000E+03 0.  0.
</event>
<event>
 4    0  0.2196599E-002  0.2842547E+03  0.7546771E-02  0.1093388E+00
         21   -1    0    0  502  501  0.00000000000E+00  0.00000000000E+00  0.64035966941E+03  0.64035966941E+03  0.00000000000E+00 0.  1.
         21   -1    0    0  501  502 -0.00000000000E+00 -0.00000000000E+00 -0.12618020694E+03  0.12618020694E+03  0.00000000000E+00 0.  1.
         25    1    1    2    0    0 -0.86633971180E+02 -0.22436037469E+03  0.37254902637E+03  0.46071770070E+03  0.12500000000E+03 0.  0.
         25    1    1    2    0    0  0.86633971180E+02  0.22436037469E+03  0.14163043610E+03  0.30582217565E+03  0.12500000000E+03 0.  0.
</event>
<event>
 4    0  0.2196599E-002  0.1451839E+03  0.7546771E-02  0.1206519E+00
         21   -1    0    0  502  501  0.00000000000E+00  0.00000000000E+00  0.13984016586E+03  0.13984016586E+03  0.00000000000E+00 0.  1.
         21   -1    0    0  501  502 -0.00000000000E+00 -0.00000000000E+00 -0.15073188157E+03  0.15073188157E+03  0.00000000000E+00 0.  1.
         25    1    1    2    0    0  0.24786009590E+02 -0.69465205080E+02 -0.17540451729E+01  0.14514764091E+03  0.12500000000E+03 0.  0.
         25    1    1    2    0    0 -0.24786009590E+02  0.69465205080E+02 -0.91376705432E+01  0.14542440652E+03  0.12500000000E+03 0.  0.
</event>
<event>
 4    0  0.2196599E-002  0.2684144E+03  0.7546771E-02  0.1102191E+00
         21   -1    0    0  502  501  0.00000000000E+00  0.00000000000E+00  0.92799201065E+03  0.92799201065E+03  0.00000000000E+00 0. -1.
         21   -1    0    0  501  502 -0.00000000000E+00 -0.00000000000E+00 -0.77636739098E+02  0.77636739098E+02  0.00000000000E+00 0. -1.
         25    1    1    2    0    0  0.13532725644E+03 -0.18964263690E+03  0.51190604754E+03  0.57615154046E+03  0.12500000000E+03 0.  0.
         25    1    1    2    0    0 -0.13532725644E+03  0.18964263690E+03  0.33844922402E+03  0.42947720929E+03  0.12500000000E+03 0.  0.
</event>
<event>
 4    0  0.2196599E-002  0.3345579E+03  0.7546771E-02  0.1069138E+00
         21   -1    0    0  502  501  0.00000000000E+00  0.00000000000E+00  0.22873745086E+03  0.22873745086E+03  0.00000000000E+00 0.  1.
         21   -1    0    0  501  502 -0.00000000000E+00 -0.00000000000E+00 -0.48933392824E+03  0.48933392824E+03  0.00000000000E+00 0.  1.
         25    1    1    2    0    0 -0.86015556565E+02  0.70955904135E+01 -0.45019304241E+03  0.47512924432E+03  0.12500000000E+03 0.  0.
         25    1    1    2    0    0  0.86015556565E+02 -0.70955904135E+01  0.18959656504E+03  0.24294213478E+03  0.12500000000E+03 0.  0.
</event>
<event>
 4    0  0.2196599E-002  0.1984820E+03  0.7546771E-02  0.1151026E+00
         21   -1    0    0  502  501  0.00000000000E+00  0.00000000000E+00  0.10875137424E+03  0.10875137424E+03  0.00000000000E+00 0.  1.
         21   -1    0    0  501  502 -0.00000000000E+00 -0.00000000000E+00 -0.36224928239E+03  0.36224928239E+03  0.00000000000E+00 0.  1.
         25    1    1    2    0    0  0.48781437905E+02  0.30005444465E+01  0.46746942414E+02  0.14212286437E+03  0.12500000000E+03 0.  0.
         25    1    1    2    0    0 -0.48781437905E+02 -0.30005444465E+01 -0.30024485056E+03  0.32887779226E+03  0.12500000000E+03 0.  0.
</event>
<event>
 4    0  0.2196599E-002  0.2627293E+03  0.7546771E-02  0.1105514E+00
         21   -1    0    0  502  501  0.00000000000E+00  0.00000000000E+00  0.11958938501E+04  0.11958938501E+04  0.00000000000E+00 0. -1.
         21   -1    0    0  501  502 -0.00000000000E+00 -0.00000000000E+00 -0.57719741480E+02  0.57719741480E+02  0.00000000000E+00 0. -1.
         25    1    1    2    0    0 -0.27771402186E+02 -0.19358085598E+03  0.27536931741E+03  0.36013616807E+03  0.12500000000E+03 0.  0.
         25    1    1    2    0    0  0.27771402186E+02  0.19358085598E+03  0.86280479117E+03  0.89347742347E+03  0.12500000000E+03 0.  0.
</event>
<event>
 4    0  0.2196599E-002  0.3130851E+03  0.7546771E-02  0.1078876E+00
         21   -1    0    0  502  501  0.00000000000E+00  0.00000000000E+00  0.12908537036E+03  0.12908537036E+03  0.00000000000E+00 0.  1.
         21   -1    0    0  501  502 -0.00000000000E+00 -0.00000000000E+00 -0.75935992848E+03  0.75935992848E+03  0.00000000000E+00 0.  1.
         25    1    1    2    0    0 -0.25469481514E+03  0.99610187538E+02 -0.43887600460E+03  0.53200449785E+03  0.12500000000E+03 0.  0.
         25    1    1    2    0    0  0.25469481514E+03 -0.99610187538E+02 -0.19139855351E+03  0.35644080099E+03  0.12500000000E+03 0.  0.
</event>
<event>
 4    0  0.2196599E-002  0.2615760E+03  0.7546771E-02  0.1106200E+00
         21   -1    0    0  502  501  0.00000000000E+00  0.00000000000E+00  0.36159154697E+03  0.36159154697E+03  0.00000000000E+00 0.  1.
         21   -1    0    0  501  502 -0.00000000000E+00 -0.00000000000E+00 -0.18922460896E+03  0.18922460896E+03  0.00000000000E+00 0.  1.
         25    1    1    2    0    0 -0.20619715167E+03  0.75253641847E+02  0.14644630789E+02  0.25302142435E+03  0.12500000000E+03 0.  0.
         25    1    1    2    0    0  0.20619715167E+03 -0.75253641847E+02  0.15772230722E+03  0.29779473159E+03  0.12500000000E+03 0.  0.
</event>
<event>
 4    0  0.2196599E-002  0.1670504E+03  0.7546771E-02  0.1180959E+00
         21   -1    0    0  502  501  0.00000000000E+00  0.00000000000E+00  0.92097400014E+02  0.92097400014E+02  0.00000000000E+00 0.  1.
         21   -1    0    0  501  502 -0.00000000000E+00 -0.00000000000E+00 -0.30300367248E+03  0.30300367248E+03  0.00000000000E+00 0.  1.
         25    1    1    2    0    0 -0.31980992815E+02 -0.28546892489E+02  0.15396726713E+02  0.13304047567E+03  0.12500000000E+03 0.  0.
         25    1    1    2    0    0  0.31980992815E+02  0.28546892489E+02 -0.22630299918E+03  0.26206059683E+03  0.12500000000E+03 0.  0.
</event>
<event>
 4    0  0.2196599E-002  0.1726167E+03  0.7546771E-02  0.1175146E+00
         21   -1    0    0  502  501  0.00000000000E+00  0.00000000000E+00  0.85330991245E+02  0.85330991245E+02  0.00000000000E+00 0.  1.
         21   -1    0    0  501  502 -0.00000000000E+00 -0.00000000000E+00 -0.34918769183E+03  0.34918769183E+03  0.00000000000E+00 0.  1.
         25    1    1    2    0    0 -0.10217120462E+03 -0.61044610146E+02 -0.12881153828E+03  0.21536669166E+03  0.12500000000E+03 0.  0.
         25    1    1    2    0    0  0.10217120462E+03  0.61044610146E+02 -0.13504516230E+03  0.21915199142E+03  0.12500000000E+03 0.  0.
</event>
<event>
 4    0  0.2196599E-002  0.2137899E+03  0.7546771E-02  0.1138599E+00
         21   -1    0    0  502  501  0.00000000000E+00  0.00000000000E+00  0.23770277324E+03  0.23770277324E+03  0.00000000000E+00 0.  1.
         21   -1    0    0  501  502 -0.00000000000E+00 -0.00000000000E+00 -0.19228257770E+03  0.19228257770E+03  0.00000000000E+00 0.  1.
         25    1    1    2    0    0  0.71102264644E+02  0.88733202613E+02 -0.10899233978E+03  0.20108068881E+03  0.12500000000E+03 0.  0.
         25    1    1    2    0    0 -0.71102264644E+02 -0.88733202613E+02  0.15441253532E+03  0.22890466213E+03  0.12500000000E+03 0.  0.
</event>
<event>
 4    0  0.2196599E-002  0.2882672E+03  0.7546771E-02  0.1091257E+00
         21   -1    0    0  502  501  0.00000000000E+00  0.00000000000E+00  0.11383829221E+03  0.11383829221E+03  0.00000000000E+00 0.  1.
         21   -1    0    0  501  502 -0.00000000000E+00 -0.00000000000E+00 -0.72996503943E+03  0.72996503943E+03  0.00000000000E+00 0.  1.
         25    1    1    2    0    0  0.16362857981E+03 -0.14813828177E+03 -0.50849194510E+03  0.56825022735E+03  0.12500000000E+03 0.  0.
         25    1    1    2    0    0 -0.16362857981E+03  0.14813828177E+03 -0.10763480212E+03  0.27555310429E+03  0.12500000000E+03 0.  0.
</event>
<event>
 4    0  0.2196599E-002  0.4842237E+03  0.7546771E-02  0.1017981E+00
         21   -1    0    0  502  501  0.00000000000E+00  0.00000000000E+00  0.36759823321E+03  0.36759823321E+03  0.00000000000E+00 0. -1.
         21   -1    0    0  501  502 -0.00000000000E+00 -0.00000000000E+00 -0.63785010090E+03  0.63785010090E+03  0.00000000000E+00 0. -1.
         25    1    1    2    0    0 -0.26651119006E+03 -0.28779966204E+03 -0.39979877711E+03  0.57386489880E+03  0.12500000000E+03 0.  0.
         25    1    1    2    0    0  0.26651119006E+03  0.28779966204E+03  0.12954690942E+03  0.43158343532E+03  0.12500000000E+03 0.  0.
</event>
<event>
 4    0  0.2196599E-002  0.2107562E+03  0.7546771E-02  0.1140969E+00
         21   -1    0    0  502  501  0.00000000000E+00  0.00000000000E+00  0.12169028781E+03  0.12169028781E+03  0.00000000000E+00 0.  1.
         21   -1    0    0  501  502 -0.00000000000E+00 -0.00000000000E+00 -0.36500996239E+03  0.36500996239E+03  0.00000000000E+00 0.  1.
         25    1    1    2    0    0 -0.10900974872E+03  0.73877043878E+02 -0.24522503865E+03  0.30512499489E+03  0.12500000000E+03 0.  0.
         25    1    1    2    0    0  0.10900974872E+03 -0.73877043878E+02  0.19053640649E+01  0.18157525531E+03  0.12500000000E+03 0.  0.
</event>
<event>
 4    0  0.2196599E-002  0.4180715E+03  0.7546771E-02  0.1037696E+00
         21   -1    0    0  502  501  0.00000000000E+00  0.00000000000E+00  0.25173956860E+03  0.25173956860E+03  0.00000000000E+00 0.  1.
         21   -1    0    0  501  502 -0.00000000000E+00 -0.00000000000E+00 -0.69430384609E+03  0.69430384609E+03  0.00000000000E+00 0.  1.
         25    1    1    2    0    0 -0.93604251712E+02 -0.80925466783E+02  0.20784161383E+03  0.27227527165E+03  0.12500000000E+03 0.  0.
         25    1    1    2    0    0  0.93604251712E+02  0.80925466783E+02 -0.65040589132E+03  0.67376814304E+03  0.12500000000E+03 0.  0.
</event>
<event>
 4    0  0.2196599E-002  0.2776929E+03  0.7546771E-02  0.1096956E+00
         21   -1    0    0  502  501  0.00000000000E+00  0.00000000000E+00  0.30911067174E+03  0.30911067174E+03  0.00000000000E+00 0.  1.
         21   -1    0    0  501  502 -0.00000000000E+00 -0.00000000000E+00 -0.24946846241E+03  0.24946846241E+03  0.00000000000E+00 0.  1.
         25    1    1    2    0    0 -0.68036935767E+02 -0.56074070651E+02 -0.20327651130E+03  0.25440060156E+03  0.12500000000E+03 0.  0.
         25    1    1    2    0    0  0.68036935767E+02  0.56074070651E+02  0.26291872063E+03  0.30417853259E+03  0.12500000000E+03 0.  0.
</event>
<event>
 4    0  0.2196599E-002  0.1959927E+03  0.7546771E-02  0.1153165E+00
         21   -1    0    0  502  501  0.00000000000E+00  0.00000000000E+00  0.93323281209E+03  0.93323281209E+03  0.00000000000E+00 0.  1.
         21   -1    0    0  501  502 -0.00000000000E+00 -0.00000000000E+00 -0.41161368930E+02  0.41161368930E+02  0.00000000000E+00 0.  1.
         25    1    1    2    0    0 -0.75762646200E+02 -0.17475954975E+01  0.77057304679E+03  0.78431553159E+03  0.12500000000E+03 0.  0.
         25    1    1    2    0    0  0.75762646200E+02  0.17475954975E+01  0.12149839637E+03  0.19007864943E+03  0.12500000000E+03 0.  0.
</event>
<event>
 4    0  0.2196599E-002  0.2993253E+03  0.7546771E-02  0.1085578E+00
         21   -1    0    0  502  501  0.00000000000E+00  0.00000000000E+00  0.13995903419E+03  0.13995903419E+03  0.00000000000E+00 0.  1.
         21   -1    0    0  501  502 -0.00000000000E+00 -0.00000000000E+00 -0.64015624294E+03  0.64015624294E+03  0.00000000000E+00 0.  1.
         25    1    1    2    0    0  0.51807567334E+02  0.16841708929E+03 -0.52007566647E+03  0.56316253325E+03  0.12500000000E+03 0.  0.
         25    1    1    2    0    0 -0.51807567334E+02 -0.16841708929E+03  0.19878457726E+02  0.21695274389E+03  0.12500000000E+03 0.  0.
</event>
<event>
 4    0  0.2196599E-002  0.2768818E+03  0.7546771E-02  0.1097404E+00
         21   -1    0    0  502  501  0.00000000000E+00  0.00000000000E+00  0.10155783538E+04  0.10155783538E+04  0.00000000000E+00 0. -1.
         21   -1    0    0  501  502 -0.00000000000E+00 -0.00000000000E+00 -0.75487582866E+02  0.75487582866E+02  0.00000000000E+00 0. -1.
         25    1    1    2    0    0  0.17690265815E+03  0.12930733947E+02  0.13119957354E+03  0.25357460921E+03  0.12500000000E+03 0.  0.
         25    1    1    2    0    0 -0.17690265815E+03 -0.12930733947E+02  0.80889119743E+03  0.83749132749E+03  0.12500000000E+03 0.  0.
</event>
<event>
 4    0  0.2196599E-002  0.2070317E+03  0.7546771E-02  0.1143938E+00
         21   -1    0    0  502  501  0.00000000000E+00  0.00000000000E+00  0.55695365163E+03  0.55695365163E+03  0.00000000000E+00 0.  1.
         21   -1    0    0  501  502 -0.00000000000E+00 -0.00000000000E+00 -0.76958176725E+02  0.76958176725E+02  0.00000000000E+00 0.  1.
         25    1    1    2    0    0  0.16415806650E+03 -0.11905213338E+02  0.25859315843E+03  0.33103629180E+03  0.12500000000E+03 0.  0.
         25    1    1    2    0    0 -0.16415806650E+03  0.11905213338E+02  0.22140231648E+03  0.30287553656E+03  0.12500000000E+03 0.  0.
</event>
<event>
 4    0  0.2196599E-002  0.2140801E+03  0.7546771E-02  0.1138375E+00
         21   -1    0    0  502  501  0.00000000000E+00  0.00000000000E+00  0.98654965795E+02  0.98654965795E+02  0.00000000000E+00 0.  1.
         21   -1    0    0  501  502 -0.00000000000E+00 -0.00000000000E+00 -0.46455116107E+03  0.46455116107E+03  0.00000000000E+00 0.  1.
         25    1    1    2    0    0 -0.54652226940E+02  0.90107264906E+02 -0.36473705794E+03  0.39970527458E+03  0.12500000000E+03 0.  0.
         25    1    1    2    0    0  0.54652226940E+02 -0.90107264906E+02 -0.11591373418E+01  0.16350085228E+03  0.12500000000E+03 0.  0.
</event>
<event>
 4    0  0.2196599E-002  0.3747361E+03  0.7546771E-02  0.1052897E+00
         21   -1    0    0  502  501  0.00000000000E+00  0.00000000000E+00  0.11462106147E+03  0.11462106147E+03  0.00000000000E+00 0. -1.
         21   -1    0    0  501  502 -0.00000000000E+00 -0.00000000000E+00 -0.12251424551E+04  0.12251424551E+04  0.00000000000E+00 0. -1.
         25    1    1    2    0    0  0.31767496198E+03 -0.12988076834E+03 -0.40553057554E+03  0.54577142025E+03  0.12500000000E+03 0.  0.
         25    1    1    2    0    0 -0.31767496198E+03  0.12988076834E+03 -0.70499081810E+03  0.79399209635E+03  0.12500000000E+03 0.  0.
</event>
<event>
 4    0  0.2196599E-002  0.2882914E+03  0.7546771E-02  0.1091245E+00
         21   -1    0    0  502  501  0.00000000000E+00  0.00000000000E+00  0.74156751272E+02  0.74156751272E+02  0.00000000000E+00 0.  1.
         21   -1    0    0  501  502 -0.00000000000E+00 -0.00000000000E+00 -0.11207599266E+04  0.11207599266E+04  0.00000000000E+00 0.  1.
         25    1    1    2    0    0  0.15134531917E+03 -0.21053327438E+03 -0.49006215894E+03  0.56834460047E+03  0.12500000000E+03 0.  0.
         25    1    1    2    0    0 -0.15134531917E+03  0.21053327438E+03 -0.55654101635E+03  0.62657207737E+03  0.12500000000E+03 0.  0.
</event>
<event>
 4    0  0.2196599E-002  0.2239505E+03  0.7546771E-02  0.1130972E+00
         21   -1    0    0  502  501  0.00000000000E+00  0.00000000000E+00  0.13674152460E+03  0.13674152460E+03  0.00000000000E+00 0.  1.
         21   -1    0    0  501  502 -0.00000000000E+00 -0.00000000000E+00 -0.36677818574E+03  0.36677818574E+03  0.00000000000E+00 0.  1.
         25    1    1    2    0    0 -0.74416747513E+02  0.13516212813E+03 -0.23142438393E+03  0.30494081175E+03  0.12500000000E+03 0.  0.
         25    1    1    2    0    0  0.74416747513E+02 -0.13516212813E+03  0.13877227847E+01  0.19857889859E+03  0.12500000000E+03 0.  0.
</event>
<event>
 4    0  0.2196599E-002  0.2599981E+03  0.7546771E-02  0.1107144E+00
         21   -1    0    0  502  501  0.00000000000E+00  0.00000000000E+00  0.18538286096E+04  0.18538286096E+04  0.00000000000E+00 0. -1.
         21   -1    0    0  501  502 -0.00000000000E+00 -0.00000000000E+00 -0.36464549399E+02  0.36464549399E+02  0.00000000000E+00 0. -1.
         25    1    1    2    0    0  0.11869677322E+03  0.12424567795E+03  0.36403032721E+03  0.42150799706E+03  0.12500000000E+03 0.  0.
         25    1    1    2    0    0 -0.11869677322E+03 -0.12424567795E+03  0.14533337330E+04  0.14687851620E+04  0.12500000000E+03 0.  0.
</event>
<event>
 4    0  0.2196599E-002  0.2660714E+03  0.7546771E-02  0.1103549E+00
         21   -1    0    0  502  501  0.00000000000E+00  0.00000000000E+00  0.24538910038E+03  0.24538910038E+03  0.00000000000E+00 0. -1.
         21   -1    0    0  501  502 -0.00000000000E+00 -0.00000000000E+00 -0.28849679926E+03  0.28849679926E+03  0.00000000000E+00 0. -1.
         25    1    1    2    0    0 -0.13904599633E+03 -0.47903523449E+02 -0.20529424897E+03  0.28177875242E+03  0.12500000000E+03 0.  0.
         25    1    1    2    0    0  0.13904599633E+03  0.47903523449E+02  0.16218655009E+03  0.25210714723E+03  0.12500000000E+03 0.  0.
</event>
<event>
 4    0  0.2196599E-002  0.2087103E+03  0.7546771E-02  0.1142591E+00
         21   -1    0    0  502  501  0.00000000000E+00  0.00000000000E+00  0.18556394910E+03  0.18556394910E+03  0.00000000000E+00 0. -1.
         21   -1    0    0  501  502 -0.00000000000E+00 -0.00000000000E+00 -0.23474386652E+03  0.23474386652E+03  0.00000000000E+00 0. -1.
         25    1    1    2    0    0  0.13923659402E+03 -0.10442029383E+02  0.67910199705E+02  0.19933053032E+03  0.12500000000E+03 0.  0.
         25    1    1    2    0    0 -0.13923659402E+03  0.10442029383E+02 -0.11709011713E+03  0.22097728531E+03  0.12500000000E+03 0.  0.
</event>
<event>
 4    0  0.2196599E-002  0.2442034E+03  0.7546771E-02  0.1117024E+00
         21   -1    0    0  502  501  0.00000000000E+00  0.00000000000E+00  0.11244577674E+03  0.11244577674E+03  0.00000000000E+00 0. -1.
         21   -1    0    0  501  502 -0.00000000000E+00 -0.00000000000E+00 -0.53034733930E+03  0.53034733930E+03  0.00000000000E+00 0. -1.
         25    1    1    2    0    0  0.12293457884E+02  0.20843623173E+03 -0.18218738462E+03  0.30399676794E+03  0.12500000000E+03 0.  0.
         25    1    1    2    0    0 -0.12293457884E+02 -0.20843623173E+03 -0.23571417793E+03  0.33879634810E+03  0.12500000000E+03 0.  0.
</event>
<event>
 4    0  0.2196599E-002  0.1822026E+03  0.7546771E-02  0.1165688E+00
         21   -1    0    0  502  501  0.00000000000E+00  0.00000000000E+00  0.18004355450E+03  0.18004355450E+03  0.00000000000E+00 0. -1.
         21   -1    0    0  501  502 -0.00000000000E+00 -0.00000000000E+00 -0.18438754634E+03  0.18438754634E+03  0.00000000000E+00 0. -1.
         25    1    1    2    0    0  0.18924946498E+02 -0.12912944908E+03  0.21072310872E+02  0.18193848000E+03  0.12500000000E+03 0.  0.
         25    1    1    2    0    0 -0.18924946498E+02  0.12912944908E+03 -0.25416302711E+02  0.18249262085E+03  0.12500000000E+03 0.  0.
</event>
<event>
 4    0  0.2196599E-002  0.2265425E+03  0.7546771E-02  0.1129097E+00
         21   -1    0    0  502  501  0.00000000000E+00  0.00000000000E+00  0.35041474495E+03  0.35041474495E+03  0.00000000000E+00 0.  1.
         21   -1    0    0  501  502 -0.00000000000E+00 -0.00000000000E+00 -0.14645932708E+03  0.14645932708E+03  0.00000000000E+00 0.  1.
         25    1    1    2    0    0  0.14529859637E+03 -0.11872247407E+03  0.77707364983E+02  0.23847461611E+03  0.12500000000E+03 0.  0.
         25    1    1    2    0    0 -0.14529859637E+03  0.11872247407E+03  0.12624805289E+03  0.25839945591E+03  0.12500000000E+03 0.  0.
</event>
<event>
 4    0  0.2196599E-002  0.3241229E+03  0.7546771E-02  0.1073767E+00
         21   -1    0    0  502  501  0.00000000000E+00  0.00000000000E+00  0.96861816208E+03  0.96861816208E+03  0.00000000000E+00 0.  1.
         21   -1    0    0  501  502 -0.00000000000E+00 -0.00000000000E+00 -0.10845927450E+03  0.10845927450E+03  0.00000000000E+00 0.  1.
         25    1    1    2    0    0  0.15077992562E+02  0.12964834873E+02  0.92585844311E+03  0.93447005809E+03  0.12500000000E+03 0.  0.
         25    1    1    2    0    0 -0.15077992562E+02 -0.12964834873E+02 -0.65699555523E+02  0.14260737849E+03  0.12500000000E+03 0.  0.
</event>
<event>
 4    0  0.2196599E-002  0.2223915E+03  0.7546771E-02  0.1132113E+00
         21   -1    0    0  502  501  0.00000000000E+00  0.00000000000E+00  0.51448152144E+03  0.51448152144E+03  0.00000000000E+00 0. -1.
         21   -1    0    0  501  502 -0.00000000000E+00 -0.00000000000E+00 -0.96131658049E+02  0.96131658049E+02  0.00000000000E+00 0. -1.
         25    1    1    2    0    0  0.10851163770E+03  0.70476848005E+02  0.29699771210E+02  0.18234263909E+03  0.12500000000E+03 0.  0.
         25    1    1    2    0    0 -0.10851163770E+03 -0.70476848005E+02  0.38865009218E+03  0.42827054039E+03  0.12500000000E+03 0.  0.
</event>
<event>
 4    0  0.2196599E-002  0.2375059E+03  0.7546771E-02  0.1121466E+00
         21   -1    0    0  502  501  0.00000000000E+00  0.00000000000E+00  0.87909944423E+03  0.87909944423E+03  0.00000000000E+00 0.  1.
         21   -1    0    0  501  502 -0.00000000000E+00 -0.00000000000E+00 -0.64166883800E+02  0.64166883800E+02  0.00000000000E+00 0.  1.
         25    1    1    2    0    0  0.15357125196E+03  0.12151193034E+03  0.50545157484E+03  0.55628731169E+03  0.12500000000E+03 0.  0.
         25    1    1    2    0    0 -0.15357125196E+03 -0.12151193034E+03  0.30948098559E+03  0.38697901634E+03  0.12500000000E+03 0.  0.
</event>
<event>
 4    0  0.2196599E-002  0.2001673E+03  0.7546771E-02  0.1149598E+00
         21   -1    0    0  502  501  0.00000000000E+00  0.00000000000E+00  0.81300111659E+02  0.81300111659E+02  0.00000000000E+00 0.  1.
         21   -1    0    0  501  502 -0.00000000000E+00 -0.00000000000E+00 -0.49282789485E+03  0.49282789485E+03  0.00000000000E+00 0.  1.
         25    1    1    2    0    0 -0.96223001883E+01 -0.29622396011E+02 -0.42547880497E+03  0.44455290853E+03  0.12500000000E+03 0.  0.
         25    1    1    2    0    0  0.96223001883E+01  0.29622396011E+02  0.13951021781E+02  0.12957509797E+03  0.12500000000E+03 0.  0.
</event>
<event>
 4    0  0.2196599E-002  0.2555944E+03  0.7546771E-02  0.1109819E+00
         21   -1    0    0  502  501  0.00000000000E+00  0.00000000000E+00  0.49135598271E+03  0.49135598271E+03  0.00000000000E+00 0.  1.
         21   -1    0    0  501  502 -0.00000000000E+00 -0.00000000000E+00 -0.13295554768E+03  0.13295554768E+03  0.00000000000E+00 0.  1.
         25    1    1    2    0    0 -0.18579862926E+03  0.96205205125E+02  0.85177031312E+02  0.25817958632E+03  0.12500000000E+03 0.  0.
         25    1    1    2    0    0  0.18579862926E+03 -0.96205205125E+02  0.27322340371E+03  0.36613194407E+03  0.12500000000E+03 0.  0.
</event>
<event>
 4    0  0.2196599E-002  0.2337124E+03  0.7546771E-02  0.1124054E+00
         21   -1    0    0  502  501  0.00000000000E+00  0.00000000000E+00  0.80562897867E+02  0.80562897867E+02  0.00000000000E+00 0.  1.
         21   -1    0    0  501  502 -0.00000000000E+00 -0.00000000000E+00 -0.67799795068E+03  0.67799795068E+03  0.00000000000E+00 0.  1.
         25    1    1    2    0    0 -0.63504096576E+02  0.16901838880E+03 -0.16892500082E+03  0.27705710953E+03  0.12500000000E+03 0.  0.
         25    1    1    2    0    0  0.63504096576E+02 -0.16901838880E+03 -0.42851005199E+03  0.48150373902E+03  0.12500000000E+03 0.  0.
</event>
<event>
 4    0  0.2196599E-002  0.2859284E+03  0.7546771E-02  0.1092494E+00
         21   -1    0    0  502  501  0.00000000000E+00  0.00000000000E+00  0.25139300142E+03  0.25139300142E+03  0.00000000000E+00 0. -1.
         21   -1    0    0  501  502 -0.00000000000E+00 -0.00000000000E+00 -0.32520809379E+03  0.32520809379E+03  0.00000000000E+00 0. -1.
         25    1    1    2    0    0 -0.23297812578E+03  0.74435549779E+02 -0.11700576574E+03  0.29855452999E+03  0.12500000000E+03 0.  0.
         25    1    1    2    0    0  0.23297812578E+03 -0.74435549779E+02  0.43190673378E+02  0.27804656522E+03  0.12500000000E+03 0.  0.
</event>
<event>
 4    0  0.2196599E-002  0.2064561E+03  0.7546771E-02  0.1144403E+00
         21   -1    0    0  502  501  0.00000000000E+00  0.00000000000E+00  0.55935030257E+02  0.55935030257E+02  0.00000000000E+00 0. -1.
         21   -1    0    0  501  502 -0.00000000000E+00 -0.00000000000E+00 -0.76202917199E+03  0.76202917199E+03  0.00000000000E+00 0. -1.
         25    1    1    2    0    0 -0.16253748882E+03  0.18848157755E+02 -0.32330380501E+03  0.38330671617E+03  0.12500000000E+03 0.  0.
         25    1    1    2    0    0  0.16253748882E+03 -0.18848157755E+02 -0.38279033672E+03  0.43465748609E+03  0.12500000000E+03 0.  0.
</event>
<event>
 4    0  0.2196599E-002  0.2501299E+03  0.7546771E-02  0.1113223E+00
         21   -1    0    0  502  501  0.00000000000E+00  0.00000000000E+00  0.32232007001E+03  0.32232007001E+03  0.00000000000E+00 0. -1.
         21   -1    0    0  501  502 -0.00000000000E+00 -0.00000000000E+00 -0.19410827003E+03  0.19410827003E+03  0.00000000000E+00 0. -1.
         25    1    1    2    0    0  0.14066572946E+03 -0.16058253956E+03  0.25946460264E+02  0.24874046365E+03  0.12500000000E+03 0.  0.
         25    1    1    2    0    0 -0.14066572946E+03  0.16058253956E+03  0.10226533972E+03  0.26768787639E+03  0.12500000000E+03 0.  0.
</event>
<event>
 4    0  0.2196599E-002  0.1806613E+03  0.7546771E-02  0.1167165E+00
         21   -1    0    0  502  501  0.00000000000E+00  0.00000000000E+00  0.12660232686E+04  0.12660232686E+04  0.00000000000E+00 0. -1.
         21   -1    0    0  501  502 -0.00000000000E+00 -0.00000000000E+00 -0.25780326635E+02  0.25780326635E+02  0.00000000000E+00 0. -1.
         25    1    1    2    0    0 -0.47593595507E+02 -0.12052963162E+03  0.56697806463E+03  0.59487954092E+03  0.12500000000E+03 0.  0.
         25    1    1    2    0    0  0.47593595507E+02  0.12052963162E+03  0.67326487732E+03  0.69692405430E+03  0.12500000000E+03 0.  0.
</event>
<event>
 4    0  0.2196599E-002  0.2478399E+03  0.7546771E-02  0.1114678E+00
         21   -1    0    0  502  501  0.00000000000E+00  0.00000000000E+00  0.80527264980E+02  0.80527264980E+02  0.00000000000E+00 0. -1.
         21   -1    0    0  501  502 -0.00000000000E+00 -0.00000000000E+00 -0.76278009554E+03  0.76278009554E+03  0.00000000000E+00 0. -1.
         25    1    1    2    0    0 -0.85940572804E+02  0.55839922635E+02 -0.66075509597E+03  0.68023979291E+03  0.12500000000E+03 0.  0.
         25    1    1    2    0    0  0.85940572804E+02 -0.55839922635E+02 -0.21497734595E+02  0.16306756761E+03  0.12500000000E+03 0.  0.
</event>
<event>
 4    0  0.2196599E-002  0.2508335E+03  0.7546771E-02  0.1112779E+00
         21   -1    0    0  502  501  0.00000000000E+00  0.00000000000E+00  0.17297768330E+04  0.17297768330E+04  0.00000000000E+00 0.  1.
         21   -1    0    0  501  502 -0.00000000000E+00 -0.00000000000E+00 -0.36373151295E+02  0.36373151295E+02  0.00000000000E+00 0.  1.
         25    1    1    2    0    0  0.16585864176E+03 -0.14064984493E+03  0.85016297988E+03  0.88639356963E+03  0.12500000000E+03 0.  0.
         25    1    1    2    0    0 -0.16585864176E+03  0.14064984493E+03  0.84324070177E+03  0.87975641461E+03  0.12500000000E+03 0.  0.
</event>
<event>
 4    0  0.2196599E-002  0.1980023E+03  0.7546771E-02  0.1151435E+00
         21   -1    0    0  502  501  0.00000000000E+00  0.00000000000E+00  0.12533716128E+04  0.12533716128E+04  0.00000000000E+00 0. -1.
         21   -1    0    0  501  502 -0.00000000000E+00 -0.00000000000E+00 -0.31279556407E+02  0.31279556407E+02  0.00000000000E+00 0. -1.
         25    1    1    2    0    0 -0.75531104773E+02  0.12125134472E+03  0.42830967983E+03  0.46848801289E+03  0.12500000000E+03 0.  0.
         25    1    1    2    0    0  0.75531104773E+02 -0.12125134472E+03  0.79378237652E+03  0.81616315627E+03  0.12500000000E+03 0.  0.
</event>
<event>
 4    0  0.2196599E-002  0.2306370E+03  0.7546771E-02  0.1126192E+00
         21   -1    0    0  502  501  0.00000000000E+00  0.00000000000E+00  0.37328620029E+02  0.37328620029E+02  0.00000000000E+00 0.  1.
         21   -1    0    0  501  502 -0.00000000000E+00 -0.00000000000E+00 -0.14250039527E+04  0.14250039527E+04  0.00000000000E+00 0.  1.
         25    1    1    2    0    0 -0.16419897180E+03  0.95069951231E+02 -0.81940466995E+03  0.85032265117E+03  0.12500000000E+03 0.  0.
         25    1    1    2    0    0  0.16419897180E+03 -0.95069951231E+02 -0.56827066268E+03  0.61200992151E+03  0.12500000000E+03 0.  0.
</event>
<event>
 4    0  0.2196599E-002  0.2594010E+03  0.7546771E-02  0.1107504E+00
         21   -1    0    0  502  501  0.00000000000E+00  0.00000000000E+00  0.54520805681E+02  0.54520805681E+02  0.00000000000E+00 0.  1.
         21   -1    0    0  501  502 -0.00000000000E+00 -0.00000000000E+00 -0.12341871048E+04  0.12341871048E+04  0.00000000000E+00 0.  1.
         25    1    1    2    0    0  0.95966413236E+02 -0.73410590877E+02 -0.10680623438E+04  0.10821186800E+04  0.12500000000E+03 0.  0.
         25    1    1    2    0    0 -0.95966413236E+02  0.73410590877E+02 -0.11160395536E+03  0.20658923054E+03  0.12500000000E+03 0.  0.
</event>
<event>
 4    0  0.2196599E-002  0.3154322E+03  0.7546771E-02  0.1077771E+00
         21   -1    0    0  502  501  0.00000000000E+00  0.00000000000E+00  0.87332758743E+03  0.87332758743E+03  0.00000000000E+00 0. -1.
         21   -1    0    0  501  502 -0.00000000000E+00 -0.00000000000E+00 -0.11392918920E+03  0.11392918920E+03  0.00000000000E+00 0. -1.
         25    1    1    2    0    0  0.20331665066E+03  0.74859436728E+02  0.78960699273E+02  0.26230018630E+03  0.12500000000E+03 0.  0.
         25    1    1    2    0    0 -0.20331665066E+03 -0.74859436728E+02  0.68043769896E+03  0.72495659033E+03  0.12500000000E+03 0.  0.
</event>
<event>
 4    0  0.2196599E-002  0.2210902E+03  0.7546771E-02  0.1133073E+00
         21   -1    0    0  502  501  0.00000000000E+00  0.00000000000E+00  0.30786804343E+02  0.30786804343E+02  0.00000000000E+00 0.  1.
         21   -1    0    0  501  502 -0.00000000000E+00 -0.00000000000E+00 -0.15877215994E+04  0.15877215994E+04  0.00000000000E+00 0.  1.
         25    1    1    2    0    0 -0.14902183095E+03 -0.10469244105E+03 -0.81277681594E+03  0.84225837237E+03  0.12500000000E+03 0.  0.
         25    1    1    2    0    0  0.14902183095E+03  0.10469244105E+03 -0.74415797913E+03  0.77625003138E+03  0.12500000000E+03 0.  0.
</event>
<event>
 4    0  0.2196599E-002  0.1858128E+03  0.7546771E-02  0.1162293E+00
         21   -1    0    0  502  501  0.00000000000E+00  0.00000000000E+00  0.10389750412E+04  0.10389750412E+04  0.00000000000E+00 0. -1.
         21   -1    0    0  501  502 -0.00000000000E+00 -0.00000000000E+00 -0.33231193862E+02  0.33231193862E+02  0.00000000000E+00 0. -1.
         25    1    1    2    0    0  0.38616124272E+02 -0.10511986792E+03  0.27278020040E+03  0.32027399117E+03  0.12500000000E+03 0.  0.
         25    1    1    2    0    0 -0.38616124272E+02  0.10511986792E+03  0.73296364693E+03  0.75193224390E+03  0.12500000000E+03 0.  0.
</event>
<event>
 4    0  0.2196599E-002  0.3689946E+03  0.7546771E-02  0.1055078E+00
         21   -1    0    0  502  501  0.00000000000E+00  0.00000000000E+00  0.43832618014E+03  0.43832618014E+03  0.00000000000E+00 0.  1.
         21   -1    0    0  501  502 -0.00000000000E+00 -0.00000000000E+00 -0.31062940486E+03  0.31062940486E+03  0.00000000000E+00 0.  1.
         25    1    1    2    0    0  0.86934699818E+02 -0.22376734814E+03 -0.19068229672E+03  0.33108036246E+03  0.12500000000E+03 0.  0.
         25    1    1    2    0    0 -0.86934699818E+02  0.22376734814E+03  0.31837907200E+03  0.41787522254E+03  0.12500000000E+03 0.  0.
</event>
<event>
 4    0  0.2196599E-002  0.1817300E+03  0.7546771E-02  0.1166139E+00
         21   -1    0    0  502  501  0.00000000000E+00  0.00000000000E+00  0.30384148106E+02  0.30384148106E+02  0.00000000000E+00 0.  1.
         21   -1    0    0  501  502 -0.00000000000E+00 -0.00000000000E+00 -0.10869419165E+04  0.10869419165E+04  0.00000000000E+00 0.  1.
         25    1    1    2    0    0 -0.26901882347E+01 -0.10141525517E+03 -0.78746552733E+03  0.80375322571E+03  0.12500000000E+03 0.  0.
         25    1    1    2    0    0  0.26901882347E+01  0.10141525517E+03 -0.26909224103E+03  0.31357283887E+03  0.12500000000E+03 0.  0.
</event>
<event>
 4    0  0.2196599E-002  0.2195029E+03  0.7546771E-02  0.1134254E+00
         21   -1    0    0  502  501  0.00000000000E+00  0.00000000000E+00  0.12237690073E+03  0.12237690073E+03  0.00000000000E+00 0. -1.
         21   -1    0    0  501  502 -0.00000000000E+00 -0.00000000000E+00 -0.39371409957E+03  0.39371409957E+03  0.00000000000E+00 0. -1.
         25    1    1    2    0    0 -0.12835539595E+03  0.89373585924E+02 -0.29906175289E+02  0.20244042297E+03  0.12500000000E+03 0.  0.
         25    1    1    2    0    0  0.12835539595E+03 -0.89373585924E+02 -0.24143102354E+03  0.31365057733E+03  0.12500000000E+03 0.  0.
</event>
<event>
 4    0  0.2196599E-002  0.3189285E+03  0.7546771E-02  0.1076144E+00
         21   -1    0    0  502  501  0.00000000000E+00  0.00000000000E+00  0.12976178097E+03  0.12976178097E+03  0.00000000000E+00 0.  1.
         21   -1    0    0  501  502 -0.00000000000E+00 -0.00000000000E+00 -0.78386226511E+03  0.78386226511E+03  0.00000000000E+00 0.  1.
         25    1    1    2    0    0  0.18492459960E+03  0.38849773701E+02 -0.55432969920E+01  0.22663217025E+03  0.12500000000E+03 0.  0.
         25    1    1    2    0    0 -0.18492459960E+03 -0.38849773701E+02 -0.64855718715E+03  0.68699187583E+03  0.12500000000E+03 0.  0.
</event>
<event>
 4    0  0.2196599E-002  0.2248422E+03  0.7546771E-02  0.1130324E+00
         21   -1    0    0  502  501  0.00000000000E+00  0.00000000000E+00  0.31707873501E+03  0.31707873501E+03  0.00000000000E+00 0.  1.
         21   -1    0    0  501  502 -0.00000000000E+00 -0.00000000000E+00 -0.15943677489E+03  0.15943677489E+03  0.00000000000E+00 0.  1.
         25    1    1    2    0    0  0.16291953659E+02 -0.45172686997E+02 -0.11257431645E+03  0.17493992148E+03  0.12500000000E+03 0.  0.
         25    1    1    2    0    0 -0.16291953659E+02  0.45172686997E+02  0.27021627657E+03  0.30157558842E+03  0.12500000000E+03 0.  0.
</event>
<event>
 4    0  0.2196599E-002  0.2066789E+03  0.7546771E-02  0.1144223E+00
         21   -1    0    0  502  501  0.00000000000E+00  0.00000000000E+00  0.37370910593E+03  0.37370910593E+03  0.00000000000E+00 0.  1.
         21   -1    0    0  501  502 -0.00000000000E+00 -0.00000000000E+00 -0.11430331133E+03  0.11430331133E+03  0.00000000000E+00 0.  1.
         25    1    1    2    0    0  0.59360282104E+02 -0.14712703912E+03  0.18145030616E+03  0.27151284009E+03  0.12500000000E+03 0.  0.
         25    1    1    2    0    0 -0.59360282104E+02  0.14712703912E+03  0.77955488444E+02  0.21649957716E+03  0.12500000000E+03 0.  0.
</event>
<event>
 4    0  0.2196599E-002  0.2044581E+03  0.7546771E-02  0.1146031E+00
         21   -1    0    0  502  501  0.00000000000E+00  0.00000000000E+00  0.22045386935E+03  0.22045386935E+03  0.00000000000E+00 0.  1.
         21   -1    0    0  501  502 -0.00000000000E+00 -0.00000000000E+00 -0.18962290452E+03  0.18962290452E+03  0.00000000000E+00 0.  1.
         25    1    1    2    0    0 -0.12351265715E+03 -0.10290493280E+03  0.33723842752E+02  0.20641487166E+03  0.12500000000E+03 0.  0.
         25    1    1    2    0    0  0.12351265715E+03  0.10290493280E+03 -0.28928779270E+01  0.20366190221E+03  0.12500000000E+03 0.  0.
</event>
<event>
 4    0  0.2196599E-002  0.2435565E+03  0.7546771E-02  0.1117446E+00
         21   -1    0    0  502  501  0.00000000000E+00  0.00000000000E+00  0.48780118220E+03  0.48780118220E+03  0.00000000000E+00 0. -1.
         21   -1    0    0  501  502 -0.00000000000E+00 -0.00000000000E+00 -0.12160647986E+03  0.12160647986E+03  0.00000000000E+00 0. -1.
         25    1    1    2    0    0  0.18153627514E+03  0.95741408538E+02  0.13347979914E+03  0.27488851063E+03  0.12500000000E+03 0.  0.
         25    1    1    2    0    0 -0.18153627514E+03 -0.95741408538E+02  0.23271490320E+03  0.33451915143E+03  0.12500000000E+03 0.  0.
</event>
<event>
 4    0  0.2196599E-002  0.1782901E+03  0.7546771E-02  0.1169468E+00
         21   -1    0    0  502  501  0.00000000000E+00  0.00000000000E+00  0.23791714102E+02  0.23791714102E+02  0.00000000000E+00 0.  1.
         21   -1    0    0  501  502 -0.00000000000E+00 -0.00000000000E+00 -0.13360686817E+04  0.13360686817E+04  0.00000000000E+00 0.  1.
         25    1    1    2    0    0  0.14766456582E+02 -0.12527629151E+03 -0.71645715539E+03  0.73813823432E+03  0.12500000000E+03 0.  0.
         25    1    1    2    0    0 -0.14766456582E+02  0.12527629151E+03 -0.59581981217E+03  0.62172216144E+03  0.12500000000E+03 0.  0.
</event>
<event>
 4    0  0.2196599E-002  0.2060815E+03  0.7546771E-02  0.1144707E+00
         21   -1    0    0  502  501  0.00000000000E+00  0.00000000000E+00  0.62316663620E+03  0.62316663620E+03  0.00000000000E+00 0.  1.
         21   -1    0    0  501  502 -0.00000000000E+00 -0.00000000000E+00 -0.68151249131E+02  0.68151249131E+02  0.00000000000E+00 0.  1.
         25    1    1    2    0    0 -0.16167160818E+03 -0.25109022196E+02  0.29216964609E+03  0.35743009664E+03  0.12500000000E+03 0.  0.
         25    1    1    2    0    0  0.16167160818E+03  0.25109022196E+02  0.26284574098E+03  0.33388778869E+03  0.12500000000E+03 0.  0.
</event>
<event>
 4    0  0.2196599E-002  0.1683577E+03  0.7546771E-02  0.1179571E+00
         21   -1    0    0  502  501  0.00000000000E+00  0.00000000000E+00  0.26500372509E+03  0.26500372509E+03  0.00000000000E+00 0.  1.
         21   -1    0    0  501  502 -0.00000000000E+00 -0.00000000000E+00 -0.10695814762E+03  0.10695814762E+03  0.00000000000E+00 0.  1.
         25    1    1    2    0    0  0.57854629062E+02  0.11471496320E+02 -0.27167429622E+02  0.14086100441E+03  0.12500000000E+03 0.  0.
         25    1    1    2    0    0 -0.57854629062E+02 -0.11471496320E+02  0.18521300709E+03  0.23110086830E+03  0.12500000000E+03 0.  0.
</event>
<event>
 4    0  0.2196599E-002  0.1975058E+03  0.7546771E-02  0.1151861E+00
         21   -1    0    0  502  501  0.00000000000E+00  0.00000000000E+00  0.94548257732E+02  0.94548257732E+02  0.00000000000E+00 0. -1.
         21   -1    0    0  501  502 -0.00000000000E+00 -0.00000000000E+00 -0.41257815382E+03  0.41257815382E+03  0.00000000000E+00 0. -1.
         25    1    1    2    0    0 -0.74528542470E+02  0.40899708905E+02  0.41687289565E+01  0.15122720698E+03  0.12500000000E+03 0.  0.
         25    1    1    2    0    0  0.74528542470E+02 -0.40899708905E+02 -0.32219862505E+03  0.35589920457E+03  0.12500000000E+03 0.  0.
</event>
<event>
 4    0  0.2196599E-002  0.2731209E+03  0.7546771E-02  0.1099507E+00
         21   -1    0    0  502  501  0.00000000000E+00  0.00000000000E+00  0.24516435495E+03  0.24516435495E+03  0.00000000000E+00 0.  1.
         21   -1    0    0  501  502 -0.00000000000E+00 -0.00000000000E+00 -0.30426546504E+03  0.30426546504E+03  0.00000000000E+00 0.  1.
         25    1    1    2    0    0 -0.81084383017E+02  0.14879415519E+03  0.14540615948E+03  0.25589515237E+03  0.12500000000E+03 0.  0.
         25    1    1    2    0    0  0.81084383017E+02 -0.14879415519E+03 -0.20450726957E+03  0.29353466762E+03  0.12500000000E+03 0.  0.
</event>
<event>
 4    0  0.2196599E-002  0.1456095E+03  0.7546771E-02  0.1205974E+00
         21   -1    0    0  502  501  0.00000000000E+00  0.00000000000E+00  0.36977401931E+02  0.36977401931E+02  0.00000000000E+00 0.  1.
         21   -1    0    0  501  502 -0.00000000000E+00 -0.00000000000E+00 -0.57338100725E+03  0.57338100725E+03  0.00000000000E+00 0.  1.
         25    1    1    2    0    0 -0.62054984011E+02 -0.36508146531E+02 -0.22662767002E+03  0.26864245127E+03  0.12500000000E+03 0.  0.
         25    1    1    2    0    0  0.62054984011E+02  0.36508146531E+02 -0.30977593530E+03  0.34171595792E+03  0.12500000000E+03 0.  0.
</event>
<event>
 4    0  0.2196599E-002  0.2071594E+03  0.7546771E-02  0.1143835E+00
         21   -1    0    0  502  501  0.00000000000E+00  0.00000000000E+00  0.91421829841E+03  0.91421829841E+03  0.00000000000E+00 0. -1.
         21   -1    0    0  501  502 -0.00000000000E+00 -0.00000000000E+00 -0.46941748788E+02  0.46941748788E+02  0.00000000000E+00 0.  1.
         25    1    1    2    0    0  0.26744618508E+02 -0.15964323041E+03  0.51018545791E+03  0.54965028618E+03  0.12500000000E+03 0.  0.
         25    1    1    2    0    0 -0.26744618508E+02  0.15964323041E+03  0.35709109171E+03  0.41150976102E+03  0.12500000000E+03 0.  0.
</event>
<event>
 4    0  0.2196599E-002  0.2050484E+03  0.7546771E-02  0.1145548E+00
         21   -1    0    0  502  501  0.00000000000E+00  0.00000000000E+00  0.12594579996E+04  0.12594579996E+04  0.00000000000E+00 0. -1.
         21   -1    0    0  501  502 -0.00000000000E+00 -0.00000000000E+00 -0.33383289264E+02  0.33383289264E+02  0.00000000000E+00 0. -1.
         25    1    1    2    0    0 -0.45590160582E+02  0.51213903140E+02  0.10776317490E+04  0.10870218549E+04  0.12500000000E+03 0.  0.
         25    1    1    2    0    0  0.45590160582E+02 -0.51213903140E+02  0.14844296131E+03  0.20581943392E+03  0.12500000000E+03 0.  0.
</event>
<event>
 4    0  0.2196599E-002  0.1806649E+03  0.7546771E-02  0.1167161E+00
         21   -1    0    0  502  501  0.00000000000E+00  0.00000000000E+00  0.70998912543E+02  0.70998912543E+02  0.00000000000E+00 0.  1.
         21   -1    0    0  501  502 -0.00000000000E+00 -0.00000000000E+00 -0.45972252664E+03  0.45972252664E+03  0.00000000000E+00 0.  1.
         25    1    1    2    0    0  0.13365704967E+02 -0.10833003796E+03 -0.29926298176E+03  0.34219493194E+03  0.12500000000E+03 0.  0.
         25    1    1    2    0    0 -0.13365704967E+02  0.10833003796E+03 -0.89460632337E+02  0.18852650724E+03  0.12500000000E+03 0.  0.
</event>
<event>
 4    0  0.2196599E-002  0.2768778E+03  0.7546771E-02  0.1097407E+00
         21   -1    0    0  502  501  0.00000000000E+00  0.00000000000E+00  0.10214807242E+03  0.10214807242E+03  0.00000000000E+00 0. -1.
         21   -1    0    0  501  502 -0.00000000000E+00 -0.00000000000E+00 -0.75049208338E+03  0.75049208338E+03  0.00000000000E+00 0. -1.
         25    1    1    2    0    0  0.20300887488E+03  0.70881473820E+01 -0.54068757709E+03  0.59095761365E+03  0.12500000000E+03 0.  0.
         25    1    1    2    0    0 -0.20300887488E+03 -0.70881473820E+01 -0.10765643387E+03  0.26168254215E+03  0.12500000000E+03 0.  0.
</event>
<event>
 4    0  0.2196599E-002  0.4005202E+03  0.7546771E-02  0.1043600E+00
         21   -1    0    0  502  501  0.00000000000E+00  0.00000000000E+00  0.13032950983E+04  0.13032950983E+04  0.00000000000E+00 0.  1.
         21   -1    0    0  501  502 -0.00000000000E+00 -0.00000000000E+00 -0.12308525488E+03  0.12308525488E+03  0.00000000000E+00 0. -1.
         25    1    1    2    0    0  0.22775430331E+03  0.23951250417E+03  0.25435186017E+03  0.43538274093E+03  0.12500000000E+03 0.  0.
         25    1    1    2    0    0 -0.22775430331E+03 -0.23951250417E+03  0.92585798323E+03  0.99099761223E+03  0.12500000000E+03 0.  0.
</event>
<event>
 4    0  0.2196599E-002  0.1925472E+03  0.7546771E-02  0.1156184E+00
         21   -1    0    0  502  501  0.00000000000E+00  0.00000000000E+00  0.11874118907E+04  0.11874118907E+04  0.00000000000E+00 0. -1.
         21   -1    0    0  501  502 -0.00000000000E+00 -0.00000000000E+00 -0.31222875727E+02  0.31222875727E+02  0.00000000000E+00 0. -1.
         25    1    1    2    0    0  0.55247489458E+01  0.11649334627E+03  0.85843847296E+03  0.87529585537E+03  0.12500000000E+03 0.  0.
         25    1    1    2    0    0 -0.55247489458E+01 -0.11649334627E+03  0.29775054204E+03  0.34333891108E+03  0.12500000000E+03 0.  0.
</event>
<event>
 4    0  0.2196599E-002  0.1878489E+03  0.7546771E-02  0.1160416E+00
         21   -1    0    0  502  501  0.00000000000E+00  0.00000000000E+00  0.49792521993E+03  0.49792521993E+03  0.00000000000E+00 0.  1.
         21   -1    0    0  501  502 -0.00000000000E+00 -0.00000000000E+00 -0.70868473094E+02  0.70868473094E+02  0.00000000000E+00 0.  1.
         25    1    1    2    0    0  0.36277509103E+02  0.72141187849E+02  0.39970843189E+02  0.15408788712E+03  0.12500000000E+03 0.  0.
         25    1    1    2    0    0 -0.36277509103E+02 -0.72141187849E+02  0.38708590365E+03  0.41470580591E+03  0.12500000000E+03 0.  0.
</event>
<event>
 4    0  0.2196599E-002  0.2156901E+03  0.7546771E-02  0.1137138E+00
         21   -1    0    0  502  501  0.00000000000E+00  0.00000000000E+00  0.23756690754E+03  0.23756690754E+03  0.00000000000E+00 0.  1.
         21   -1    0    0  501  502 -0.00000000000E+00 -0.00000000000E+00 -0.19582790122E+03  0.19582790122E+03  0.00000000000E+00 0.  1.
         25    1    1    2    0    0 -0.16349125411E+03 -0.64456353305E+02  0.17216971234E+02  0.21634563954E+03  0.12500000000E+03 0.  0.
         25    1    1    2    0    0  0.16349125411E+03  0.64456353305E+02  0.24522035083E+02  0.21704916921E+03  0.12500000000E+03 0.  0.
</event>
<event>
 4    0  0.2196599E-002  0.1935291E+03  0.7546771E-02  0.1155316E+00
         21   -1    0    0  502  501  0.00000000000E+00  0.00000000000E+00  0.33290321932E+02  0.33290321932E+02  0.00000000000E+00 0.  1.
         21   -1    0    0  501  502 -0.00000000000E+00 -0.00000000000E+00 -0.11250568448E+04  0.11250568448E+04  0.00000000000E+00 0.  1.
         25    1    1    2    0    0 -0.50279921741E+02 -0.13498483760E+03 -0.44755476497E+03  0.48649691115E+03  0.12500000000E+03 0.  0.
         25    1    1    2    0    0  0.50279921741E+02  0.13498483760E+03 -0.64421175793E+03  0.67185025562E+03  0.12500000000E+03 0.  0.
</event>
<event>
 4    0  0.2196599E-002  0.1727717E+03  0.7546771E-02  0.1174988E+00
         21   -1    0    0  502  501  0.00000000000E+00  0.00000000000E+00  0.13790429333E+04  0.13790429333E+04  0.00000000000E+00 0. -1.
         21   -1    0    0  501  502 -0.00000000000E+00 -0.00000000000E+00 -0.21645491815E+02  0.21645491815E+02  0.00000000000E+00 0. -1.
         25    1    1    2    0    0 -0.43600917995E+02 -0.10904028686E+03  0.59422862373E+03  0.61848482720E+03  0.12500000000E+03 0.  0.
         25    1    1    2    0    0  0.43600917995E+02  0.10904028686E+03  0.76316881777E+03  0.78220359794E+03  0.12500000000E+03 0.  0.
</event>
<event>
 4    0  0.2196599E-002  0.4586795E+03  0.7546771E-02  0.1025165E+00
         21   -1    0    0  502  501  0.00000000000E+00  0.00000000000E+00  0.14076167220E+03  0.14076167220E+03  0.00000000000E+00 0. -1.
         21   -1    0    0  501  502 -0.00000000000E+00 -0.00000000000E+00 -0.14946318878E+04  0.14946318878E+04  0.00000000000E+00 0. -1.
         25    1    1    2    0    0 -0.97847627158E+01 -0.29435911499E+03 -0.12628475750E+04  0.13027478757E+04  0.12500000000E+03 0.  0.
         25    1    1    2    0    0  0.97847627158E+01  0.29435911499E+03 -0.91022640656E+02  0.33264568428E+03  0.12500000000E+03 0.  0.
</event>
<event>
 4    0  0.2196599E-002  0.2383490E+03  0.7546771E-02  0.1120898E+00
         21   -1    0    0  502  501  0.00000000000E+00  0.00000000000E+00  0.44527695569E+02  0.44527695569E+02  0.00000000000E+00 0.  1.
         21   -1    0    0  501  502 -0.00000000000E+00 -0.00000000000E+00 -0.12758408498E+04  0.12758408498E+04  0.00000000000E+00 0.  1.
         25    1    1    2    0    0  0.78540919197E+02 -0.11452073259E+03 -0.10255675307E+04  0.10424478088E+04  0.12500000000E+03 0.  0.
         25    1    1    2    0    0 -0.78540919197E+02  0.11452073259E+03 -0.20574562357E+03  0.27792073654E+03  0.12500000000E+03 0.  0.
</event>
<event>
 4    0  0.2196599E-002  0.1986159E+03  0.7546771E-02  0.1150912E+00
         21   -1    0    0  502  501  0.00000000000E+00  0.00000000000E+00  0.49913113443E+03  0.49913113443E+03  0.00000000000E+00 0. -1.
         21   -1    0    0  501  502 -0.00000000000E+00 -0.00000000000E+00 -0.79033893690E+02  0.79033893690E+02  0.00000000000E+00 0. -1.
         25    1    1    2    0    0 -0.60203745545E+02  0.13061832915E+03  0.12852016200E+03  0.22984357926E+03  0.12500000000E+03 0.  0.
         25    1    1    2    0    0  0.60203745545E+02 -0.13061832915E+03  0.29157707874E+03  0.34832144886E+03  0.12500000000E+03 0.  0.
</event>
<event>
 4    0  0.2196599E-002  0.3668838E+03  0.7546771E-02  0.1055891E+00
         21   -1    0    0  502  501  0.00000000000E+00  0.00000000000E+00  0.52302262014E+03  0.52302262014E+03  0.00000000000E+00 0.  1.
         21   -1    0    0  501  502 -0.00000000000E+00 -0.00000000000E+00 -0.25735734303E+03  0.25735734303E+03  0.00000000000E+00 0.  1.
         25    1    1    2    0    0 -0.92444615955E+02  0.50468654218E+02  0.48215740445E+03  0.50911084720E+03  0.12500000000E+03 0.  0.
         25    1    1    2    0    0  0.92444615955E+02 -0.50468654218E+02 -0.21649212733E+03  0.27126911596E+03  0.12500000000E+03 0.  0.
</event>
<event>
 4    0  0.2196599E-002  0.2071180E+03  0.7546771E-02  0.1143869E+00
         21   -1    0    0  502  501  0.00000000000E+00  0.00000000000E+00  0.30391022158E+02  0.30391022158E+02  0.00000000000E+00 0. -1.
         21   -1    0    0  501  502 -0.00000000000E+00 -0.00000000000E+00 -0.14115304091E+04  0.14115304091E+04  0.00000000000E+00 0.  1.
         25    1    1    2    0    0  0.79706478759E+02  0.14293018118E+03 -0.76767753285E+03  0.79481818920E+03  0.12500000000E+03 0.  0.
         25    1    1    2    0    0 -0.79706478759E+02 -0.14293018118E+03 -0.61346185407E+03  0.64710324203E+03  0.12500000000E+03 0.  0.
</event>
<event>
 4    0  0.2196599E-002  0.2856562E+03  0.7546771E-02  0.1092639E+00
         21   -1    0    0  502  501  0.00000000000E+00  0.00000000000E+00  0.71142708077E+03  0.71142708077E+03  0.00000000000E+00 0.  1.
         21   -1    0    0  501  502 -0.00000000000E+00 -0.00000000000E+00 -0.11469828012E+03  0.11469828012E+03  0.00000000000E+00 0.  1.
         25    1    1    2    0    0 -0.63059692851E+02  0.53603785549E+02 -0.53241629440E+02  0.15908979161E+03  0.12500000000E+03 0.  0.
         25    1    1    2    0    0  0.63059692851E+02 -0.53603785549E+02  0.64997043010E+03  0.66703556928E+03  0.12500000000E+03 0.  0.
</event>
<event>
 4    0  0.2196599E-002  0.3152400E+03  0.7546771E-02  0.1077861E+00
         21   -1    0    0  502  501  0.00000000000E+00  0.00000000000E+00  0.32455471001E+03  0.32455471001E+03  0.00000000000E+00 0. -1.
         21   -1    0    0  501  502 -0.00000000000E+00 -0.00000000000E+00 -0.30619255099E+03  0.30619255099E+03  0.00000000000E+00 0. -1.
         25    1    1    2    0    0  0.65373233585E+02  0.28127861787E+03  0.28160524556E+02  0.31592615543E+03  0.12500000000E+03 0.  0.
         25    1    1    2    0    0 -0.65373233585E+02 -0.28127861787E+03 -0.97983655361E+01  0.31482110556E+03  0.12500000000E+03 0.  0.
</event>
<event>
 4    0  0.2196599E-002  0.2269392E+03  0.7546771E-02  0.1128813E+00
         21   -1    0    0  502  501  0.00000000000E+00  0.00000000000E+00  0.10613001495E+03  0.10613001495E+03  0.00000000000E+00 0. -1.
         21   -1    0    0  501  502 -0.00000000000E+00 -0.00000000000E+00 -0.48526715809E+03  0.48526715809E+03  0.00000000000E+00 0. -1.
         25    1    1    2    0    0  0.69664326576E+02  0.17611741271E+03 -0.18639043897E+03  0.29366112646E+03  0.12500000000E+03 0.  0.
         25    1    1    2    0    0 -0.69664326576E+02 -0.17611741271E+03 -0.19274670418E+03  0.29773604657E+03  0.12500000000E+03 0.  0.
</event>
<event>
 4    0  0.2196599E-002  0.2073338E+03  0.7546771E-02  0.1143695E+00
         21   -1    0    0  502  501  0.00000000000E+00  0.00000000000E+00  0.41667976472E+02  0.41667976472E+02  0.00000000000E+00 0. -1.
         21   -1    0    0  501  502 -0.00000000000E+00 -0.00000000000E+00 -0.10316631555E+04  0.10316631555E+04  0.00000000000E+00 0. -1.
         25    1    1    2    0    0  0.13264461910E+03 -0.36491396584E+02 -0.25725641642E+03  0.31738317660E+03  0.12500000000E+03 0.  0.
         25    1    1    2    0    0 -0.13264461910E+03  0.36491396584E+02 -0.73273876262E+03  0.75594795538E+03  0.12500000000E+03 0.  0.
</event>
<event>
 4    0  0.2196599E-002  0.2013446E+03  0.7546771E-02  0.1148610E+00
         21   -1    0    0  502  501  0.00000000000E+00  0.00000000000E+00  0.30068648861E+03  0.30068648861E+03  0.00000000000E+00 0. -1.
         21   -1    0    0  501  502 -0.00000000000E+00 -0.00000000000E+00 -0.13482365239E+03  0.13482365239E+03  0.00000000000E+00 0. -1.
         25    1    1    2    0    0  0.13333529805E+03 -0.99959423816E+01  0.17365171504E+03  0.25230564541E+03  0.12500000000E+03 0.  0.
         25    1    1    2    0    0 -0.13333529805E+03  0.99959423816E+01 -0.77888788135E+01  0.18320449559E+03  0.12500000000E+03 0.  0.
</event>
<event>
 4    0  0.2196599E-002  0.1624694E+03  0.7546771E-02  0.1185937E+00
         21   -1    0    0  502  501  0.00000000000E+00  0.00000000000E+00  0.51948166949E+03  0.51948166949E+03  0.00000000000E+00 0.  1.
         21   -1    0    0  501  502 -0.00000000000E+00 -0.00000000000E+00 -0.50812778916E+02  0.50812778916E+02  0.00000000000E+00 0.  1.
         25    1    1    2    0    0 -0.84509159497E+02 -0.60027175091E+02  0.24332612835E+03  0.29253660373E+03  0.12500000000E+03 0.  0.
         25    1    1    2    0    0  0.84509159497E+02  0.60027175091E+02  0.22534276223E+03  0.27775784467E+03  0.12500000000E+03 0.  0.
</event>
<event>
 4    0  0.2196599E-002  0.2102899E+03  0.7546771E-02  0.1141337E+00
         21   -1    0    0  502  501  0.00000000000E+00  0.00000000000E+00  0.18689626177E+03  0.18689626177E+03  0.00000000000E+00 0.  1.
         21   -1    0    0  501  502 -0.00000000000E+00 -0.00000000000E+00 -0.23661173477E+03  0.23661173477E+03  0.00000000000E+00 0.  1.
         25    1    1    2    0    0 -0.12223431047E+02  0.81013726800E+02 -0.17382081325E+03  0.22924072787E+03  0.12500000000E+03 0.  0.
         25    1    1    2    0    0  0.12223431047E+02 -0.81013726800E+02  0.12410534025E+03  0.19426726866E+03  0.12500000000E+03 0.  0.
</event>
<event>
 4    0  0.2196599E-002  0.1842340E+03  0.7546771E-02  0.1163767E+00
         21   -1    0    0  502  501  0.00000000000E+00  0.00000000000E+00  0.60173354845E+03  0.60173354845E+03  0.00000000000E+00 0. -1.
         21   -1    0    0  501  502 -0.00000000000E+00 -0.00000000000E+00 -0.56407301136E+02  0.56407301136E+02  0.00000000000E+00 0. -1.
         25    1    1    2    0    0 -0.11808924139E+03  0.31919041365E+02  0.37609476749E+03  0.41477242950E+03  0.12500000000E+03 0.  0.
         25    1    1    2    0    0  0.11808924139E+03 -0.31919041365E+02  0.16923147982E+03  0.24336842009E+03  0.12500000000E+03 0.  0.
</event>
<event>
 4    0  0.2196599E-002  0.2575900E+03  0.7546771E-02  0.1108600E+00
         21   -1    0    0  502  501  0.00000000000E+00  0.00000000000E+00  0.25390205039E+04  0.25390205039E+04  0.00000000000E+00 0.  1.
         21   -1    0    0  501  502 -0.00000000000E+00 -0.00000000000E+00 -0.26133144089E+02  0.26133144089E+02  0.00000000000E+00 0.  1.
         25    1    1    2    0    0  0.37927816497E+02 -0.15253851680E+03  0.45325601425E+03  0.49575450863E+03  0.12500000000E+03 0.  0.
         25    1    1    2    0    0 -0.37927816497E+02  0.15253851680E+03  0.20596313455E+04  0.20693991393E+04  0.12500000000E+03 0.  0.
</event>
<event>
 4    0  0.2196599E-002  0.3691875E+03  0.7546771E-02  0.1055004E+00
         21   -1    0    0  502  501  0.00000000000E+00  0.00000000000E+00  0.64882632225E+02  0.64882632225E+02  0.00000000000E+00 0.  1.
         21   -1    0    0  501  502 -0.00000000000E+00 -0.00000000000E+00 -0.21007071265E+04  0.21007071265E+04  0.00000000000E+00 0.  1.
         25    1    1    2    0    0  0.33118189063E+03 -0.94426447987E+02 -0.88425990007E+03  0.95715117387E+03  0.12500000000E+03 0.  0.
         25    1    1    2    0    0 -0.33118189063E+03  0.94426447987E+02 -0.11515645942E+04  0.12084385849E+04  0.12500000000E+03 0.  0.
</event>
<event>
 4    0  0.2196599E-002  0.2655632E+03  0.7546771E-02  0.1103846E+00
         21   -1    0    0  502  501  0.00000000000E+00  0.00000000000E+00  0.18134493980E+03  0.18134493980E+03  0.00000000000E+00 0.  1.
         21   -1    0    0  501  502 -0.00000000000E+00 -0.00000000000E+00 -0.38889316661E+03  0.38889316661E+03  0.00000000000E+00 0.  1.
         25    1    1    2    0    0  0.11607307664E+02 -0.23373943673E+03 -0.11601331866E+03  0.28957372805E+03  0.12500000000E+03 0.  0.
         25    1    1    2    0    0 -0.11607307664E+02  0.23373943673E+03 -0.91534908144E+02  0.28066437836E+03  0.12500000000E+03 0.  0.
</event>
<event>
 4    0  0.2196599E-002  0.2010652E+03  0.7546771E-02  0.1148843E+00
         21   -1    0    0  502  501  0.00000000000E+00  0.00000000000E+00  0.51890055113E+02  0.51890055113E+02  0.00000000000E+00 0. -1.
         21   -1    0    0  501  502 -0.00000000000E+00 -0.00000000000E+00 -0.77909385640E+03  0.77909385640E+03  0.00000000000E+00 0. -1.
         25    1    1    2    0    0 -0.28162252153E+02 -0.13126329984E+03 -0.19346038356E+03  0.26659911166E+03  0.12500000000E+03 0.  0.
         25    1    1    2    0    0  0.28162252153E+02  0.13126329984E+03 -0.53374341773E+03  0.56438479985E+03  0.12500000000E+03 0.  0.
</event>
<event>
 4    0  0.2196599E-002  0.2272082E+03  0.7546771E-02  0.1128620E+00
         21   -1    0    0  502  501  0.00000000000E+00  0.00000000000E+00  0.29126434899E+02  0.29126434899E+02  0.00000000000E+00 0.  1.
         21   -1    0    0  501  502 -0.00000000000E+00 -0.00000000000E+00 -0.17723955335E+04  0.17723955335E+04  0.00000000000E+00 0.  1.
         25    1    1    2    0    0  0.16205080903E+03  0.12099964868E+02 -0.48336518131E+03  0.52504644781E+03  0.12500000000E+03 0.  0.
         25    1    1    2    0    0 -0.16205080903E+03 -0.12099964868E+02 -0.12599039173E+04  0.12764755206E+04  0.12500000000E+03 0.  0.
</event>
<event>
 4    0  0.2196599E-002  0.2467615E+03  0.7546771E-02  0.1115369E+00
         21   -1    0    0  502  501  0.00000000000E+00  0.00000000000E+00  0.38725499177E+03  0.38725499177E+03  0.00000000000E+00 0. -1.
         21   -1    0    0  501  502 -0.00000000000E+00 -0.00000000000E+00 -0.15723806312E+03  0.15723806312E+03  0.00000000000E+00 0. -1.
         25    1    1    2    0    0  0.90492573626E+02 -0.14971962093E+02 -0.96789780210E+02  0.18277397814E+03  0.12500000000E+03 0.  0.
         25    1    1    2    0    0 -0.90492573626E+02  0.14971962093E+02  0.32680670886E+03  0.36171907675E+03  0.12500000000E+03 0.  0.
</event>
<event>
 4    0  0.2196599E-002  0.2226896E+03  0.7546771E-02  0.1131894E+00
         21   -1    0    0  502  501  0.00000000000E+00  0.00000000000E+00  0.13829595784E+03  0.13829595784E+03  0.00000000000E+00 0. -1.
         21   -1    0    0  501  502 -0.00000000000E+00 -0.00000000000E+00 -0.35858358194E+03  0.35858358194E+03  0.00000000000E+00 0. -1.
         25    1    1    2    0    0 -0.63047854395E+02 -0.13863709677E+03  0.56370438926E+01  0.19710924080E+03  0.12500000000E+03 0.  0.
         25    1    1    2    0    0  0.63047854395E+02  0.13863709677E+03 -0.22592466800E+03  0.29977029898E+03  0.12500000000E+03 0.  0.
</event>
<event>
 4    0  0.2196599E-002  0.2173350E+03  0.7546771E-02  0.1135886E+00
         21   -1    0    0  502  501  0.00000000000E+00  0.00000000000E+00  0.33922322422E+03  0.33922322422E+03  0.00000000000E+00 0. -1.
         21   -1    0    0  501  502 -0.00000000000E+00 -0.00000000000E+00 -0.13924308236E+03  0.13924308236E+03  0.00000000000E+00 0. -1.
         25    1    1    2    0    0 -0.15527628040E+03  0.17298822374E+02  0.65908234542E+01  0.20019593269E+03  0.12500000000E+03 0.  0.
         25    1    1    2    0    0  0.15527628040E+03 -0.17298822374E+02  0.19338931841E+03  0.27827037389E+03  0.12500000000E+03 0.  0.
</event>
<event>
 4    0  0.2196599E-002  0.3120915E+03  0.7546771E-02  0.1079348E+00
         21   -1    0    0  502  501  0.00000000000E+00  0.00000000000E+00  0.81529528175E+03  0.81529528175E+03  0.00000000000E+00 0.  1.
         21   -1    0    0  501  502 -0.00000000000E+00 -0.00000000000E+00 -0.11946726567E+03  0.11946726567E+03  0.00000000000E+00 0.  1.
         25    1    1    2    0    0  0.33150488952E+02 -0.22126300671E+03  0.61463351058E+03  0.66592463941E+03  0.12500000000E+03 0.  0.
         25    1    1    2    0    0 -0.33150488952E+02  0.22126300671E+03  0.81194505502E+02  0.26883790800E+03  0.12500000000E+03 0.  0.
</event>
<event>
 4    0  0.2196599E-002  0.2032078E+03  0.7546771E-02  0.1147060E+00
         21   -1    0    0  502  501  0.00000000000E+00  0.00000000000E+00  0.50798928102E+03  0.50798928102E+03  0.00000000000E+00 0. -1.
         21   -1    0    0  501  502 -0.00000000000E+00 -0.00000000000E+00 -0.81287978279E+02  0.81287978279E+02  0.00000000000E+00 0. -1.
         25    1    1    2    0    0 -0.30386541617E+02  0.10635768499E+03  0.38140035055E+03  0.41632502503E+03  0.12500000000E+03 0.  0.
         25    1    1    2    0    0  0.30386541617E+02 -0.10635768499E+03  0.45300952192E+02  0.17295223427E+03  0.12500000000E+03 0.  0.
</event>
<event>
 4    0  0.2196599E-002  0.2068710E+03  0.7546771E-02  0.1144068E+00
         21   -1    0    0  502  501  0.00000000000E+00  0.00000000000E+00  0.11672421585E+04  0.11672421585E+04  0.00000000000E+00 0.  1.
         21   -1    0    0  501  502 -0.00000000000E+00 -0.00000000000E+00 -0.36663877429E+02  0.36663877429E+02  0.00000000000E+00 0.  1.
         25    1    1    2    0    0 -0.94925805911E+02  0.12266416929E+03  0.40293342934E+03  0.44948610161E+03  0.12500000000E+03 0.  0.
         25    1    1    2    0    0  0.94925805911E+02 -0.12266416929E+03  0.72764485176E+03  0.75441993435E+03  0.12500000000E+03 0.  0.
</event>
<event>
 4    0  0.2196599E-002  0.2102792E+03  0.7546771E-02  0.1141345E+00
         21   -1    0    0  502  501  0.00000000000E+00  0.00000000000E+00  0.15849061725E+04  0.15849061725E+04  0.00000000000E+00 0.  1.
         21   -1    0    0  501  502 -0.00000000000E+00 -0.00000000000E+00 -0.27899029756E+02  0.27899029756E+02  0.00000000000E+00 0.  1.
         25    1    1    2    0    0 -0.41977480012E+02  0.14532556034E+03  0.10683052634E+04  0.10861780531E+04  0.12500000000E+03 0.  0.
         25    1    1    2    0    0  0.41977480012E+02 -0.14532556034E+03  0.48870187943E+03  0.52662714920E+03  0.12500000000E+03 0.  0.
</event>
<event>
 4    0  0.2196599E-002  0.1519004E+03  0.7546771E-02  0.1198157E+00
         21   -1    0    0  502  501  0.00000000000E+00  0.00000000000E+00  0.63600499626E+03  0.63600499626E+03  0.00000000000E+00 0. -1.
         21   -1    0    0  501  502 -0.00000000000E+00 -0.00000000000E+00 -0.36279160870E+02  0.36279160870E+02  0.00000000000E+00 0. -1.
         25    1    1    2    0    0 -0.33749320040E+02 -0.11886130525E+02  0.12606228548E+03  0.18109941061E+03  0.12500000000E+03 0.  0.
         25    1    1    2    0    0  0.33749320040E+02  0.11886130525E+02  0.47366354991E+03  0.49118474652E+03  0.12500000000E+03 0.  0.
</event>
<event>
 4    0  0.2196599E-002  0.1785916E+03  0.7546771E-02  0.1169173E+00
         21   -1    0    0  502  501  0.00000000000E+00  0.00000000000E+00  0.40352114749E+03  0.40352114749E+03  0.00000000000E+00 0. -1.
         21   -1    0    0  501  502 -0.00000000000E+00 -0.00000000000E+00 -0.79041576598E+02  0.79041576598E+02  0.00000000000E+00 0. -1.
         25    1    1    2    0    0  0.87922907636E+02  0.59480829430E+02  0.66693294358E+02  0.17703503119E+03  0.12500000000E+03 0.  0.
         25    1    1    2    0    0 -0.87922907636E+02 -0.59480829430E+02  0.25778627653E+03  0.30552769290E+03  0.12500000000E+03 0.  0.
</event>
<event>
 4    0  0.2196599E-002  0.2022534E+03  0.7546771E-02  0.1147852E+00
         21   -1    0    0  502  501  0.00000000000E+00  0.00000000000E+00  0.84670201313E+02  0.84670201313E+02  0.00000000000E+00 0.  1.
         21   -1    0    0  501  502 -0.00000000000E+00 -0.00000000000E+00 -0.48312675647E+03  0.48312675647E+03  0.00000000000E+00 0.  1.
         25    1    1    2    0    0 -0.18785577220E+02  0.15771000098E+03 -0.18871498802E+03  0.27652068462E+03  0.12500000000E+03 0.  0.
         25    1    1    2    0    0  0.18785577220E+02 -0.15771000098E+03 -0.20974156714E+03  0.29127627316E+03  0.12500000000E+03 0.  0.
</event>
<event>
 4    0  0.2196599E-002  0.3601905E+03  0.7546771E-02  0.1058508E+00
         21   -1    0    0  502  501  0.00000000000E+00  0.00000000000E+00  0.26287895923E+03  0.26287895923E+03  0.00000000000E+00 0.  1.
         21   -1    0    0  501  502 -0.00000000000E+00 -0.00000000000E+00 -0.49352440939E+03  0.49352440939E+03  0.00000000000E+00 0.  1.
         25    1    1    2    0    0  0.21672905896E+03 -0.24690563777E+03 -0.19785538994E+03  0.40336786472E+03  0.12500000000E+03 0.  0.
         25    1    1    2    0    0 -0.21672905896E+03  0.24690563777E+03 -0.32790060228E+02  0.35303550390E+03  0.12500000000E+03 0.  0.
</event>
<event>
 4    0  0.2196599E-002  0.2226511E+03  0.7546771E-02  0.1131922E+00
         21   -1    0    0  502  501  0.00000000000E+00  0.00000000000E+00  0.13903985698E+04  0.13903985698E+04  0.00000000000E+00 0.  1.
         21   -1    0    0  501  502 -0.00000000000E+00 -0.00000000000E+00 -0.35654158458E+02  0.35654158458E+02  0.00000000000E+00 0.  1.
         25    1    1    2    0    0  0.12542404182E+03  0.64802462372E+01  0.11091116372E+04  0.11231771043E+04  0.12500000000E+03 0.  0.
         25    1    1    2    0    0 -0.12542404182E+03 -0.64802462372E+01  0.24563277420E+03  0.30287562401E+03  0.12500000000E+03 0.  0.
</event>
<event>
 4    0  0.2196599E-002  0.3618799E+03  0.7546771E-02  0.1057842E+00
         21   -1    0    0  502  501  0.00000000000E+00  0.00000000000E+00  0.27510829746E+03  0.27510829746E+03  0.00000000000E+00 0. -1.
         21   -1    0    0  501  502 -0.00000000000E+00 -0.00000000000E+00 -0.47602010411E+03  0.47602010411E+03  0.00000000000E+00 0. -1.
         25    1    1    2    0    0  0.28317972692E+03  0.16332639013E+03 -0.49667527091E+01  0.35002276509E+03  0.12500000000E+03 0.  0.
         25    1    1    2    0    0 -0.28317972692E+03 -0.16332639013E+03 -0.19594505395E+03  0.40110563648E+03  0.12500000000E+03 0.  0.
</event>
<event>
 4    0  0.2196599E-002  0.2416994E+03  0.7546771E-02  0.1118666E+00
         21   -1    0    0  502  501  0.00000000000E+00  0.00000000000E+00  0.95798685901E+02  0.95798685901E+02  0.00000000000E+00 0. -1.
         21   -1    0    0  501  502 -0.00000000000E+00 -0.00000000000E+00 -0.60980569804E+03  0.60980569804E+03  0.00000000000E+00 0. -1.
         25    1    1    2    0    0 -0.12989441149E+03  0.11184309234E+03 -0.42604952442E+03  0.47594603969E+03  0.12500000000E+03 0.  0.
         25    1    1    2    0    0  0.12989441149E+03 -0.11184309234E+03 -0.87957487724E+02  0.22965834425E+03  0.12500000000E+03 0.  0.
</event>
<event>
 4    0  0.2196599E-002  0.3191104E+03  0.7546771E-02  0.1076059E+00
         21   -1    0    0  502  501  0.00000000000E+00  0.00000000000E+00  0.28725711760E+03  0.28725711760E+03  0.00000000000E+00 0.  1.
         21   -1    0    0  501  502 -0.00000000000E+00 -0.00000000000E+00 -0.35449589478E+03  0.35449589478E+03  0.00000000000E+00 0.  1.
         25    1    1    2    0    0  0.26311358342E+03  0.71457008695E+02 -0.14317930007E+03  0.33235549317E+03  0.12500000000E+03 0.  0.
         25    1    1    2    0    0 -0.26311358342E+03 -0.71457008695E+02  0.75940522893E+02  0.30939751921E+03  0.12500000000E+03 0.  0.
</event>
<event>
 4    0  0.2196599E-002  0.1591971E+03  0.7546771E-02  0.1189606E+00
         21   -1    0    0  502  501  0.00000000000E+00  0.00000000000E+00  0.23468627116E+03  0.23468627116E+03  0.00000000000E+00 0. -1.
         21   -1    0    0  501  502 -0.00000000000E+00 -0.00000000000E+00 -0.10798978036E+03  0.10798978036E+03  0.00000000000E+00 0. -1.
         25    1    1    2    0    0 -0.27604613115E+02  0.69407796175E+02 -0.58954197607E+01  0.14573679292E+03  0.12500000000E+03 0.  0.
         25    1    1    2    0    0  0.27604613115E+02 -0.69407796175E+02  0.13259191056E+03  0.19693925861E+03  0.12500000000E+03 0.  0.
</event>
<event>
 4    0  0.2196599E-002  0.1954072E+03  0.7546771E-02  0.1153673E+00
         21   -1    0    0  502  501  0.00000000000E+00  0.00000000000E+00  0.23982568782E+04  0.23982568782E+04  0.00000000000E+00 0.  1.
         21   -1    0    0  501  502 -0.00000000000E+00 -0.00000000000E+00 -0.15921545343E+02  0.15921545343E+02  0.00000000000E+00 0.  1.
         25    1    1    2    0    0  0.13781212940E+03 -0.56569852432E+02  0.13094472000E+04  0.13238086345E+04  0.12500000000E+03 0.  0.
         25    1    1    2    0    0 -0.13781212940E+03  0.56569852432E+02  0.10728881328E+04  0.10903697890E+04  0.12500000000E+03 0.  0.
</event>
<event>
 4    0  0.2196599E-002  0.1806051E+03  0.7546771E-02  0.1167219E+00
         21   -1    0    0  502  501  0.00000000000E+00  0.00000000000E+00  0.28928177716E+03  0.28928177716E+03  0.00000000000E+00 0.  1.
         21   -1    0    0  501  502 -0.00000000000E+00 -0.00000000000E+00 -0.11275575778E+03  0.11275575778E+03  0.00000000000E+00 0.  1.
         25    1    1    2    0    0 -0.60202446086E+02  0.74703979550E+02  0.18648852795E+03  0.24414747619E+03  0.12500000000E+03 0.  0.
         25    1    1    2    0    0  0.60202446086E+02 -0.74703979550E+02 -0.99625085563E+01  0.15789005875E+03  0.12500000000E+03 0.  0.
</event>
<event>
 4    0  0.2196599E-002  0.2536009E+03  0.7546771E-02  0.1111050E+00
         21   -1    0    0  502  501  0.00000000000E+00  0.00000000000E+00  0.38680801885E+02  0.38680801885E+02  0.00000000000E+00 0. -1.
         21   -1    0    0  501  502 -0.00000000000E+00 -0.00000000000E+00 -0.16626699142E+04  0.16626699142E+04  0.00000000000E+00 0. -1.
         25    1    1    2    0    0 -0.10764431991E+03 -0.18838856868E+03 -0.67736479598E+03  0.72216730697E+03  0.12500000000E+03 0.  0.
         25    1    1    2    0    0  0.10764431991E+03  0.18838856868E+03 -0.94662431636E+03  0.97918340914E+03  0.12500000000E+03 0.  0.
</event>
<event>
 4    0  0.2196599E-002  0.3344384E+03  0.7546771E-02  0.1069190E+00
         21   -1    0    0  502  501  0.00000000000E+00  0.00000000000E+00  0.71131997148E+03  0.71131997148E+03  0.00000000000E+00 0. -1.
         21   -1    0    0  501  502 -0.00000000000E+00 -0.00000000000E+00 -0.15724152672E+03  0.15724152672E+03  0.00000000000E+00 0. -1.
         25    1    1    2    0    0 -0.25784915822E+03  0.17122647687E+03  0.25044793128E+03  0.41731745837E+03  0.12500000000E+03 0.  0.
         25    1    1    2    0    0  0.25784915822E+03 -0.17122647687E+03  0.30363051347E+03  0.45124403983E+03  0.12500000000E+03 0.  0.
</event>
<event>
 4    0  0.2196599E-002  0.2143831E+03  0.7546771E-02  0.1138141E+00
         21   -1    0    0  502  501  0.00000000000E+00  0.00000000000E+00  0.18788053418E+03  0.18788053418E+03  0.00000000000E+00 0. -1.
         21   -1    0    0  501  502 -0.00000000000E+00 -0.00000000000E+00 -0.24462414222E+03  0.24462414222E+03  0.00000000000E+00 0. -1.
         25    1    1    2    0    0  0.15748390376E+03 -0.13689361508E+02 -0.10212935814E+03  0.22592915783E+03  0.12500000000E+03 0.  0.
         25    1    1    2    0    0 -0.15748390376E+03  0.13689361508E+02  0.45385750096E+02  0.20657551858E+03  0.12500000000E+03 0.  0.
</event>
<event>
 4    0  0.2196599E-002  0.2079395E+03  0.7546771E-02  0.1143208E+00
         21   -1    0    0  502  501  0.00000000000E+00  0.00000000000E+00  0.17281251575E+03  0.17281251575E+03  0.00000000000E+00 0.  1.
         21   -1    0    0  501  502 -0.00000000000E+00 -0.00000000000E+00 -0.25020671249E+03  0.25020671249E+03  0.00000000000E+00 0.  1.
         25    1    1    2    0    0 -0.13639645438E+03 -0.50940222611E+02 -0.12016560532E+03  0.22641482229E+03  0.12500000000E+03 0.  0.
         25    1    1    2    0    0  0.13639645438E+03  0.50940222611E+02  0.42771408586E+02  0.19660440596E+03  0.12500000000E+03 0.  0.
</event>
<event>
 4    0  0.2196599E-002  0.2849356E+03  0.7546771E-02  0.1093023E+00
         21   -1    0    0  502  501  0.00000000000E+00  0.00000000000E+00  0.31398384544E+02  0.31398384544E+02  0.00000000000E+00 0. -1.
         21   -1    0    0  501  502 -0.00000000000E+00 -0.00000000000E+00 -0.25857481345E+04  0.25857481345E+04  0.00000000000E+00 0. -1.
         25    1    1    2    0    0  0.13861779895E+03 -0.20908465198E+03 -0.15127864180E+04  0.15385314532E+04  0.12500000000E+03 0.  0.
         25    1    1    2    0    0 -0.13861779895E+03  0.20908465198E+03 -0.10415633320E+04  0.10786150659E+04  0.12500000000E+03 0.  0.
</event>
<event>
 4    0  0.2196599E-002  0.1596740E+03  0.7546771E-02  0.1189065E+00
         21   -1    0    0  502  501  0.00000000000E+00  0.00000000000E+00  0.67012267862E+01  0.67012267862E+01  0.00000000000E+00 0. -1.
         21   -1    0    0  501  502 -0.00000000000E+00 -0.00000000000E+00 -0.38046447430E+04  0.38046447430E+04  0.00000000000E+00 0. -1.
         25    1    1    2    0    0  0.71768313782E+02 -0.48594956419E+02 -0.13193512262E+04  0.13280906666E+04  0.12500000000E+03 0.  0.
         25    1    1    2    0    0 -0.71768313782E+02  0.48594956419E+02 -0.24785922900E+04  0.24832553032E+04  0.12500000000E+03 0.  0.
</event>
<event>
 4    0  0.2196599E-002  0.2717696E+03  0.7546771E-02  0.1100271E+00
         21   -1    0    0  502  501  0.00000000000E+00  0.00000000000E+00  0.97071981858E+02  0.97071981858E+02  0.00000000000E+00 0. -1.
         21   -1    0    0  501  502 -0.00000000000E+00 -0.00000000000E+00 -0.76086554644E+03  0.76086554644E+03  0.00000000000E+00 0. -1.
         25    1    1    2    0    0  0.17490728319E+03 -0.16306041650E+03 -0.28068976297E+03  0.38934945765E+03  0.12500000000E+03 0.  0.
         25    1    1    2    0    0 -0.17490728319E+03  0.16306041650E+03 -0.38310380162E+03  0.46858807065E+03  0.12500000000E+03 0.  0.
</event>
<event>
 4    0  0.2196599E-002  0.2926097E+03  0.7546771E-02  0.1088994E+00
         21   -1    0    0  502  501  0.00000000000E+00  0.00000000000E+00  0.12494487124E+03  0.12494487124E+03  0.00000000000E+00 0.  1.
         21   -1    0    0  501  502 -0.00000000000E+00 -0.00000000000E+00 -0.68526576686E+03  0.68526576686E+03  0.00000000000E+00 0.  1.
         25    1    1    2    0    0 -0.13450864086E+02 -0.12808924028E+02  0.85216521898E+02  0.15241997862E+03  0.12500000000E+03 0.  0.
         25    1    1    2    0    0  0.13450864086E+02  0.12808924028E+02 -0.64553741751E+03  0.65779065947E+03  0.12500000000E+03 0.  0.
</event>
<event>
 4    0  0.2196599E-002  0.1709059E+03  0.7546771E-02  0.1176906E+00
         21   -1    0    0  502  501  0.00000000000E+00  0.00000000000E+00  0.50710352051E+03  0.50710352051E+03  0.00000000000E+00 0. -1.
         21   -1    0    0  501  502 -0.00000000000E+00 -0.00000000000E+00 -0.57599357069E+02  0.57599357069E+02  0.00000000000E+00 0. -1.
         25    1    1    2    0    0 -0.31982303065E+01  0.97919260307E+02  0.32904871230E+03  0.36537168101E+03  0.12500000000E+03 0.  0.
         25    1    1    2    0    0  0.31982303065E+01 -0.97919260307E+02  0.12045545113E+03  0.19933119657E+03  0.12500000000E+03 0.  0.
</event>
<event>
 4    0  0.2196599E-002  0.1664584E+03  0.7546771E-02  0.1181592E+00
         21   -1    0    0  502  501  0.00000000000E+00  0.00000000000E+00  0.10918370140E+03  0.10918370140E+03  0.00000000000E+00 0.  1.
         21   -1    0    0  501  502 -0.00000000000E+00 -0.00000000000E+00 -0.25377773457E+03  0.25377773457E+03  0.00000000000E+00 0.  1.
         25    1    1    2    0    0  0.94604910142E+02  0.51084599036E+02 -0.47348055008E+02  0.17154172552E+03  0.12500000000E+03 0.  0.
         25    1    1    2    0    0 -0.94604910142E+02 -0.51084599036E+02 -0.97245978157E+02  0.19141971045E+03  0.12500000000E+03 0.  0.
</event>
<event>
 4    0  0.2196599E-002  0.2767429E+03  0.7546771E-02  0.1097481E+00
         21   -1    0    0  502  501  0.00000000000E+00  0.00000000000E+00  0.62096603367E+02  0.62096603367E+02  0.00000000000E+00 0. -1.
         21   -1    0    0  501  502 -0.00000000000E+00 -0.00000000000E+00 -0.12333469587E+04  0.12333469587E+04  0.00000000000E+00 0. -1.
         25    1    1    2    0    0  0.92015546276E+02 -0.20371867371E+03 -0.83102819527E+03  0.86959819463E+03  0.12500000000E+03 0.  0.
         25    1    1    2    0    0 -0.92015546276E+02  0.20371867371E+03 -0.34022216011E+03  0.42584536748E+03  0.12500000000E+03 0.  0.
</event>
<event>
 4    0  0.2196599E-002  0.2652498E+03  0.7546771E-02  0.1104029E+00
         21   -1    0    0  502  501  0.00000000000E+00  0.00000000000E+00  0.20853215926E+04  0.20853215926E+04  0.00000000000E+00 0.  1.
         21   -1    0    0  501  502 -0.00000000000E+00 -0.00000000000E+00 -0.33739381229E+02  0.33739381229E+02  0.00000000000E+00 0.  1.
         25    1    1    2    0    0 -0.80344737561E+02 -0.35376765536E+02  0.18920064380E+04  0.18981623096E+04  0.12500000000E+03 0.  0.
         25    1    1    2    0    0  0.80344737561E+02  0.35376765536E+02  0.15957577345E+03  0.22089866425E+03  0.12500000000E+03 0.  0.
</event>
<event>
 4    0  0.2196599E-002  0.2388964E+03  0.7546771E-02  0.1120530E+00
         21   -1    0    0  502  501  0.00000000000E+00  0.00000000000E+00  0.72586577043E+02  0.72586577043E+02  0.00000000000E+00 0.  1.
         21   -1    0    0  501  502 -0.00000000000E+00 -0.00000000000E+00 -0.78625390441E+03  0.78625390441E+03  0.00000000000E+00 0.  1.
         25    1    1    2    0    0  0.61795168970E+02 -0.62988183833E+02 -0.68661957631E+03  0.70346115513E+03  0.12500000000E+03 0.  0.
         25    1    1    2    0    0 -0.61795168970E+02  0.62988183833E+02 -0.27047751058E+02  0.15537932632E+03  0.12500000000E+03 0.  0.
</event>
<event>
 4    0  0.2196599E-002  0.1701948E+03  0.7546771E-02  0.1177645E+00
         21   -1    0    0  502  501  0.00000000000E+00  0.00000000000E+00  0.35349964449E+03  0.35349964449E+03  0.00000000000E+00 0. -1.
         21   -1    0    0  501  502 -0.00000000000E+00 -0.00000000000E+00 -0.81941427028E+02  0.81941427028E+02  0.00000000000E+00 0. -1.
         25    1    1    2    0    0 -0.45355581005E+02 -0.28056820925E+02  0.47147112720E+01  0.13598361089E+03  0.12500000000E+03 0.  0.
         25    1    1    2    0    0  0.45355581005E+02  0.28056820925E+02  0.26684350619E+03  0.29945746063E+03  0.12500000000E+03 0.  0.
</event>
<event>
 4    0  0.2196599E-002  0.3755528E+03  0.7546771E-02  0.1052590E+00
         21   -1    0    0  502  501  0.00000000000E+00  0.00000000000E+00  0.44223845646E+03  0.44223845646E+03  0.00000000000E+00 0. -1.
         21   -1    0    0  501  502 -0.00000000000E+00 -0.00000000000E+00 -0.31892279496E+03  0.31892279496E+03  0.00000000000E+00 0. -1.
         25    1    1    2    0    0 -0.23851743940E+03  0.49244356966E+02 -0.19888206398E+03  0.33837058229E+03  0.12500000000E+03 0.  0.
         25    1    1    2    0    0  0.23851743940E+03 -0.49244356966E+02  0.32219772548E+03  0.42279066912E+03  0.12500000000E+03 0.  0.
</event>
<event>
 4    0  0.2196599E-002  0.1793984E+03  0.7546771E-02  0.1168387E+00
         21   -1    0    0  502  501  0.00000000000E+00  0.00000000000E+00  0.40574791073E+03  0.40574791073E+03  0.00000000000E+00 0. -1.
         21   -1    0    0  501  502 -0.00000000000E+00 -0.00000000000E+00 -0.79319664862E+02  0.79319664862E+02  0.00000000000E+00 0. -1.
         25    1    1    2    0    0  0.51069423447E+02 -0.10923317183E+03  0.10247030485E+03  0.20165598235E+03  0.12500000000E+03 0.  0.
         25    1    1    2    0    0 -0.51069423447E+02  0.10923317183E+03  0.22395794102E+03  0.28341159325E+03  0.12500000000E+03 0.  0.
</event>
<event>
 4    0  0.2196599E-002  0.1529322E+03  0.7546771E-02  0.1196916E+00
         21   -1    0    0  502  501  0.00000000000E+00  0.00000000000E+00  0.43229411254E+02  0.43229411254E+02  0.00000000000E+00 0.  1.
         21   -1    0    0  501  502 -0.00000000000E+00 -0.00000000000E+00 -0.54102651593E+03  0.54102651593E+03  0.00000000000E+00 0.  1.
         25    1    1    2    0    0  0.15887532369E+02 -0.24526500163E+02 -0.90120284759E+02  0.15684587537E+03  0.12500000000E+03 0.  0.
         25    1    1    2    0    0 -0.15887532369E+02  0.24526500163E+02 -0.40767681992E+03  0.42741005182E+03  0.12500000000E+03 0.  0.
</event>
<event>
 4    0  0.2196599E-002  0.1973577E+03  0.7546771E-02  0.1151988E+00
         21   -1    0    0  502  501  0.00000000000E+00  0.00000000000E+00  0.46293475927E+03  0.46293475927E+03  0.00000000000E+00 0.  1.
         21   -1    0    0  501  502 -0.00000000000E+00 -0.00000000000E+00 -0.84137299380E+02  0.84137299380E+02  0.00000000000E+00 0.  1.
         25    1    1    2    0    0  0.89102920881E+02 -0.31695212803E+02  0.35560881414E+03  0.38862133976E+03  0.12500000000E+03 0.  0.
         25    1    1    2    0    0 -0.89102920881E+02  0.31695212803E+02  0.23188645748E+02  0.15845071889E+03  0.12500000000E+03 0.  0.
</event>
<event>
 4    0  0.2196599E-002  0.2981055E+03  0.7546771E-02  0.1086192E+00
         21   -1    0    0  502  501  0.00000000000E+00  0.00000000000E+00  0.22457111916E+03  0.22457111916E+03  0.00000000000E+00 0.  1.
         21   -1    0    0  501  502 -0.00000000000E+00 -0.00000000000E+00 -0.39571812069E+03  0.39571812069E+03  0.00000000000E+00 0.  1.
         25    1    1    2    0    0  0.12608026364E+03 -0.12060529106E+03 -0.30081012690E+03  0.36953159751E+03  0.12500000000E+03 0.  0.
         25    1    1    2    0    0 -0.12608026364E+03  0.12060529106E+03  0.12966312537E+03  0.25075764234E+03  0.12500000000E+03 0.  0.
</event>
<event>
 4    0  0.2196599E-002  0.1944926E+03  0.7546771E-02  0.1154471E+00
         21   -1    0    0  502  501  0.00000000000E+00  0.00000000000E+00  0.24697221829E+03  0.24697221829E+03  0.00000000000E+00 0.  1.
         21   -1    0    0  501  502 -0.00000000000E+00 -0.00000000000E+00 -0.15316440603E+03  0.15316440603E+03  0.00000000000E+00 0.  1.
         25    1    1    2    0    0 -0.92621617536E+02 -0.29950308252E+02  0.16295012241E+03  0.22727412390E+03  0.12500000000E+03 0.  0.
         25    1    1    2    0    0  0.92621617536E+02  0.29950308252E+02 -0.69142310156E+02  0.17286250042E+03  0.12500000000E+03 0.  0.
</event>
<event>
 4    0  0.2196599E-002  0.2186024E+03  0.7546771E-02  0.1134929E+00
         21   -1    0    0  502  501  0.00000000000E+00  0.00000000000E+00  0.18722992299E+03  0.18722992299E+03  0.00000000000E+00 0. -1.
         21   -1    0    0  501  502 -0.00000000000E+00 -0.00000000000E+00 -0.25523177825E+03  0.25523177825E+03  0.00000000000E+00 0. -1.
         25    1    1    2    0    0  0.11269600468E+03 -0.97518399075E+02  0.66957243577E+02  0.20571460837E+03  0.12500000000E+03 0.  0.
         25    1    1    2    0    0 -0.11269600468E+03  0.97518399075E+02 -0.13495909883E+03  0.23674709288E+03  0.12500000000E+03 0.  0.
</event>
<event>
 4    0  0.2196599E-002  0.1983448E+03  0.7546771E-02  0.1151143E+00
         21   -1    0    0  502  501  0.00000000000E+00  0.00000000000E+00  0.53316826744E+03  0.53316826744E+03  0.00000000000E+00 0.  1.
         21   -1    0    0  501  502 -0.00000000000E+00 -0.00000000000E+00 -0.73786597003E+02  0.73786597003E+02  0.00000000000E+00 0.  1.
         25    1    1    2    0    0 -0.13237192508E+03 -0.26038560253E+02  0.34332047127E+03  0.38947949775E+03  0.12500000000E+03 0.  0.
         25    1    1    2    0    0  0.13237192508E+03  0.26038560253E+02  0.11606119917E+03  0.21747536670E+03  0.12500000000E+03 0.  0.
</event>
<event>
 4    0  0.2196599E-002  0.3314747E+03  0.7546771E-02  0.1070486E+00
         21   -1    0    0  502  501  0.00000000000E+00  0.00000000000E+00  0.33711298260E+03  0.33711298260E+03  0.00000000000E+00 0. -1.
         21   -1    0    0  501  502 -0.00000000000E+00 -0.00000000000E+00 -0.32593071322E+03  0.32593071322E+03  0.00000000000E+00 0.  1.
         25    1    1    2    0    0 -0.21186705370E+03  0.14643029112E+03  0.17271067300E+03  0.33434032836E+03  0.12500000000E+03 0.  0.
         25    1    1    2    0    0  0.21186705370E+03 -0.14643029112E+03 -0.16152840363E+03  0.32870336746E+03  0.12500000000E+03 0.  0.
</event>
<event>
 4    0  0.2196599E-002  0.1744819E+03  0.7546771E-02  0.1173253E+00
         21   -1    0    0  502  501  0.00000000000E+00  0.00000000000E+00  0.35472756366E+02  0.35472756366E+02  0.00000000000E+00 0.  1.
         21   -1    0    0  501  502 -0.00000000000E+00 -0.00000000000E+00 -0.85823465903E+03  0.85823465903E+03  0.00000000000E+00 0.  1.
         25    1    1    2    0    0 -0.89775222538E+02 -0.23301508440E+02 -0.20945865235E+03  0.26096068272E+03  0.12500000000E+03 0.  0.
         25    1    1    2    0    0  0.89775222538E+02  0.23301508440E+02 -0.61330325031E+03  0.63274673268E+03  0.12500000000E+03 0.  0.
</event>
<event>
 4    0  0.2196599E-002  0.1861898E+03  0.7546771E-02  0.1161943E+00
         21   -1    0    0  502  501  0.00000000000E+00  0.00000000000E+00  0.28766654478E+02  0.28766654478E+02  0.00000000000E+00 0.  1.
         21   -1    0    0  501  502 -0.00000000000E+00 -0.00000000000E+00 -0.12050978913E+04  0.12050978913E+04  0.00000000000E+00 0.  1.
         25    1    1    2    0    0 -0.30620142006E+02 -0.12491400187E+03 -0.75385626896E+03  0.77489700942E+03  0.12500000000E+03 0.  0.
         25    1    1    2    0    0  0.30620142006E+02  0.12491400187E+03 -0.42247496789E+03  0.45896753638E+03  0.12500000000E+03 0.  0.
</event>
<event>
 4    0  0.2196599E-002  0.1393560E+03  0.7546771E-02  0.1214198E+00
         21   -1    0    0  502  501  0.00000000000E+00  0.00000000000E+00  0.37122067506E+02  0.37122067506E+02  0.00000000000E+00 0.  1.
         21   -1    0    0  501  502 -0.00000000000E+00 -0.00000000000E+00 -0.52314166532E+03  0.52314166532E+03  0.00000000000E+00 0.  1.
         25    1    1    2    0    0 -0.16379795220E+02  0.48900259840E+01 -0.36198324515E+03  0.38333937942E+03  0.12500000000E+03 0.  0.
         25    1    1    2    0    0  0.16379795220E+02 -0.48900259840E+01 -0.12403635266E+03  0.17692435340E+03  0.12500000000E+03 0.  0.
</event>
<event>
 4    0  0.2196599E-002  0.2459950E+03  0.7546771E-02  0.1115862E+00
         21   -1    0    0  502  501  0.00000000000E+00  0.00000000000E+00  0.84653342617E+02  0.84653342617E+02  0.00000000000E+00 0.  1.
         21   -1    0    0  501  502 -0.00000000000E+00 -0.00000000000E+00 -0.71483951664E+03  0.71483951664E+03  0.00000000000E+00 0.  1.
         25    1    1    2    0    0  0.17580857171E+03  0.10281565321E+03 -0.22021592114E+03  0.32496117361E+03  0.12500000000E+03 0.  0.
         25    1    1    2    0    0 -0.17580857171E+03 -0.10281565321E+03 -0.40997025289E+03  0.47453168565E+03  0.12500000000E+03 0.  0.
</event>
<event>
 4    0  0.2196599E-002  0.1724110E+03  0.7546771E-02  0.1175357E+00
         21   -1    0    0  502  501  0.00000000000E+00  0.00000000000E+00  0.44867987274E+03  0.44867987274E+03  0.00000000000E+00 0.  1.
         21   -1    0    0  501  502 -0.00000000000E+00 -0.00000000000E+00 -0.66251128205E+02  0.66251128205E+02  0.00000000000E+00 0.  1.
         25    1    1    2    0    0 -0.11356027597E+03 -0.33370455661E+02  0.17696707434E+03  0.24688432309E+03  0.12500000000E+03 0.  0.
         25    1    1    2    0    0  0.11356027597E+03  0.33370455661E+02  0.20546167020E+03  0.26804667786E+03  0.12500000000E+03 0.  0.
</event>
<event>
 4    0  0.2196599E-002  0.1869048E+03  0.7546771E-02  0.1161283E+00
         21   -1    0    0  502  501  0.00000000000E+00  0.00000000000E+00  0.73698088759E+02  0.73698088759E+02  0.00000000000E+00 0. -1.
         21   -1    0    0  501  502 -0.00000000000E+00 -0.00000000000E+00 -0.47400714261E+03  0.47400714261E+03  0.00000000000E+00 0. -1.
         25    1    1    2    0    0 -0.11111691687E+03 -0.31008266617E+02 -0.86661352663E+02  0.19090225734E+03  0.12500000000E+03 0.  0.
         25    1    1    2    0    0  0.11111691687E+03  0.31008266617E+02 -0.31364770119E+03  0.35680297403E+03  0.12500000000E+03 0.  0.
</event>
<event>
 4    0  0.2196599E-002  0.5251617E+03  0.7546771E-02  0.1007412E+00
         21   -1    0    0  502  501  0.00000000000E+00  0.00000000000E+00  0.26519479367E+03  0.26519479367E+03  0.00000000000E+00 0. -1.
         21   -1    0    0  501  502 -0.00000000000E+00 -0.00000000000E+00 -0.10399706412E+04  0.10399706412E+04  0.00000000000E+00 0.  1.
         25    1    1    2    0    0  0.17185851327E+03 -0.37453904121E+03 -0.76091193508E+03  0.87431505473E+03  0.12500000000E+03 0.  0.
         25    1    1    2    0    0 -0.17185851327E+03  0.37453904121E+03 -0.13863912430E+02  0.43085038011E+03  0.12500000000E+03 0.  0.
</event>
<event>
 4    0  0.2196599E-002  0.2471046E+03  0.7546771E-02  0.1115148E+00
         21   -1    0    0  502  501  0.00000000000E+00  0.00000000000E+00  0.34994833338E+03  0.34994833338E+03  0.00000000000E+00 0.  1.
         21   -1    0    0  501  502 -0.00000000000E+00 -0.00000000000E+00 -0.17448490790E+03  0.17448490790E+03  0.00000000000E+00 0.  1.
         25    1    1    2    0    0  0.33928631333E+02  0.87228767564E+02  0.29095266413E+03  0.33020972530E+03  0.12500000000E+03 0.  0.
         25    1    1    2    0    0 -0.33928631333E+02 -0.87228767564E+02 -0.11548923866E+03  0.19422351598E+03  0.12500000000E+03 0.  0.
</event>
<event>
 4    0  0.2196599E-002  0.2012473E+03  0.7546771E-02  0.1148691E+00
         21   -1    0    0  502  501  0.00000000000E+00  0.00000000000E+00  0.26066651004E+02  0.26066651004E+02  0.00000000000E+00 0.  1.
         21   -1    0    0  501  502 -0.00000000000E+00 -0.00000000000E+00 -0.15537282651E+04  0.15537282651E+04  0.00000000000E+00 0.  1.
         25    1    1    2    0    0 -0.13024052683E+03  0.33889102280E+02 -0.44101406447E+03  0.47773368223E+03  0.12500000000E+03 0.  0.
         25    1    1    2    0    0  0.13024052683E+03 -0.33889102280E+02 -0.10866475496E+04  0.11020612339E+04  0.12500000000E+03 0.  0.
</event>
<event>
 4    0  0.2196599E-002  0.1935133E+03  0.7546771E-02  0.1155330E+00
         21   -1    0    0  502  501  0.00000000000E+00  0.00000000000E+00  0.10628699221E+03  0.10628699221E+03  0.00000000000E+00 0. -1.
         21   -1    0    0  501  502 -0.00000000000E+00 -0.00000000000E+00 -0.35232332172E+03  0.35232332172E+03  0.00000000000E+00 0. -1.
         25    1    1    2    0    0 -0.24073581549E+02 -0.34228344340E+02 -0.29089488889E+03  0.31936805298E+03  0.12500000000E+03 0.  0.
         25    1    1    2    0    0  0.24073581549E+02  0.34228344340E+02  0.44858559372E+02  0.13924226095E+03  0.12500000000E+03 0.  0.
</event>
<event>
 4    0  0.2196599E-002  0.1596631E+03  0.7546771E-02  0.1189078E+00
         21   -1    0    0  502  501  0.00000000000E+00  0.00000000000E+00  0.17150781464E+03  0.17150781464E+03  0.00000000000E+00 0.  1.
         21   -1    0    0  501  502 -0.00000000000E+00 -0.00000000000E+00 -0.14863640504E+03  0.14863640504E+03  0.00000000000E+00 0.  1.
         25    1    1    2    0    0 -0.93974629402E+02  0.23364708350E+02  0.33632077864E+02  0.16165783999E+03  0.12500000000E+03 0.  0.
         25    1    1    2    0    0  0.93974629402E+02 -0.23364708350E+02 -0.10760668266E+02  0.15848637970E+03  0.12500000000E+03 0.  0.
</event>
<event>
 4    0  0.2196599E-002  0.2850491E+03  0.7546771E-02  0.1092963E+00
         21   -1    0    0  502  501  0.00000000000E+00  0.00000000000E+00  0.24859068166E+03  0.24859068166E+03  0.00000000000E+00 0. -1.
         21   -1    0    0  501  502 -0.00000000000E+00 -0.00000000000E+00 -0.32685457358E+03  0.32685457358E+03  0.00000000000E+00 0. -1.
         25    1    1    2    0    0 -0.17589410177E+03  0.14935024456E+03 -0.15145806718E+03  0.30299963152E+03  0.12500000000E+03 0.  0.
         25    1    1    2    0    0  0.17589410177E+03 -0.14935024456E+03  0.73194175259E+02  0.27244562371E+03  0.12500000000E+03 0.  0.
</event>
<event>
 4    0  0.2196599E-002  0.1809847E+03  0.7546771E-02  0.1166853E+00
         21   -1    0    0  502  501  0.00000000000E+00  0.00000000000E+00  0.13577911730E+03  0.13577911730E+03  0.00000000000E+00 0.  1.
         21   -1    0    0  501  502 -0.00000000000E+00 -0.00000000000E+00 -0.24124071238E+03  0.24124071238E+03  0.00000000000E+00 0.  1.
         25    1    1    2    0    0 -0.40881689953E+02 -0.82907607791E+02  0.43779658266E+02  0.16151359844E+03  0.12500000000E+03 0.  0.
         25    1    1    2    0    0  0.40881689953E+02  0.82907607791E+02 -0.14924125334E+03  0.21550623124E+03  0.12500000000E+03 0.  0.
</event>
<event>
 4    0  0.2196599E-002  0.3189427E+03  0.7546771E-02  0.1076137E+00
         21   -1    0    0  502  501  0.00000000000E+00  0.00000000000E+00  0.16141795332E+03  0.16141795332E+03  0.00000000000E+00 0. -1.
         21   -1    0    0  501  502 -0.00000000000E+00 -0.00000000000E+00 -0.63019286514E+03  0.63019286514E+03  0.00000000000E+00 0. -1.
         25    1    1    2    0    0  0.85532717167E+02 -0.22180307897E+02 -0.58162504762E+03  0.60143204752E+03  0.12500000000E+03 0.  0.
         25    1    1    2    0    0 -0.85532717167E+02  0.22180307897E+02  0.11285013580E+03  0.19017877094E+03  0.12500000000E+03 0.  0.
</event>
<event>
 4    0  0.2196599E-002  0.1876796E+03  0.7546771E-02  0.1160571E+00
         21   -1    0    0  502  501  0.00000000000E+00  0.00000000000E+00  0.19989457331E+03  0.19989457331E+03  0.00000000000E+00 0. -1.
         21   -1    0    0  501  502 -0.00000000000E+00 -0.00000000000E+00 -0.17621105633E+03  0.17621105633E+03  0.00000000000E+00 0. -1.
         25    1    1    2    0    0 -0.74693500161E+02  0.58342664551E+02  0.11507891232E+03  0.19455369833E+03  0.12500000000E+03 0.  0.
         25    1    1    2    0    0  0.74693500161E+02 -0.58342664551E+02 -0.91395395346E+02  0.18155193131E+03  0.12500000000E+03 0.  0.
</event>
<event>
 4    0  0.2196599E-002  0.2037249E+03  0.7546771E-02  0.1146634E+00
         21   -1    0    0  502  501  0.00000000000E+00  0.00000000000E+00  0.47333376126E+03  0.47333376126E+03  0.00000000000E+00 0.  1.
         21   -1    0    0  501  502 -0.00000000000E+00 -0.00000000000E+00 -0.87684083984E+02  0.87684083984E+02  0.00000000000E+00 0.  1.
         25    1    1    2    0    0 -0.92119483664E+02 -0.13149216087E+03  0.17887461215E+03  0.27091938748E+03  0.12500000000E+03 0.  0.
         25    1    1    2    0    0  0.92119483664E+02  0.13149216087E+03  0.20677506513E+03  0.29009845777E+03  0.12500000000E+03 0.  0.
</event>
<event>
 4    0  0.2196599E-002  0.4800488E+03  0.7546771E-02  0.1019122E+00
         21   -1    0    0  502  501  0.00000000000E+00  0.00000000000E+00  0.91818922971E+03  0.91818922971E+03  0.00000000000E+00 0. -1.
         21   -1    0    0  501  502 -0.00000000000E+00 -0.00000000000E+00 -0.25097965513E+03  0.25097965513E+03  0.00000000000E+00 0. -1.
         25    1    1    2    0    0  0.90152594786E+02  0.34067476758E+03 -0.33009963716E+02  0.37536841279E+03  0.12500000000E+03 0.  0.
         25    1    1    2    0    0 -0.90152594786E+02 -0.34067476758E+03  0.70021953830E+03  0.79380047205E+03  0.12500000000E+03 0.  0.
</event>
<event>
 4    0  0.2196599E-002  0.3297162E+03  0.7546771E-02  0.1071263E+00
         21   -1    0    0  502  501  0.00000000000E+00  0.00000000000E+00  0.23759308412E+03  0.23759308412E+03  0.00000000000E+00 0.  1.
         21   -1    0    0  501  502 -0.00000000000E+00 -0.00000000000E+00 -0.45755858910E+03  0.45755858910E+03  0.00000000000E+00 0. -1.
         25    1    1    2    0    0  0.25956890609E+03 -0.15831103450E+03 -0.13684551367E+03  0.35607596839E+03  0.12500000000E+03 0.  0.
         25    1    1    2    0    0 -0.25956890609E+03  0.15831103450E+03 -0.83119991307E+02  0.33907570483E+03  0.12500000000E+03 0.  0.
</event>
<event>
 4    0  0.2196599E-002  0.1851622E+03  0.7546771E-02  0.1162898E+00
         21   -1    0    0  502  501  0.00000000000E+00  0.00000000000E+00  0.13421298020E+03  0.13421298020E+03  0.00000000000E+00 0.  1.
         21   -1    0    0  501  502 -0.00000000000E+00 -0.00000000000E+00 -0.25545261202E+03  0.25545261202E+03  0.00000000000E+00 0.  1.
         25    1    1    2    0    0  0.44614928681E+02  0.75660259126E+02  0.49462939549E+02  0.16058190764E+03  0.12500000000E+03 0.  0.
         25    1    1    2    0    0 -0.44614928681E+02 -0.75660259126E+02 -0.17070257136E+03  0.22908368458E+03  0.12500000000E+03 0.  0.
</event>
<event>
 4    0  0.2196599E-002  0.1774511E+03  0.7546771E-02  0.1170293E+00
         21   -1    0    0  502  501  0.00000000000E+00  0.00000000000E+00  0.14699031836E+04  0.14699031836E+04  0.00000000000E+00 0. -1.
         21   -1    0    0  501  502 -0.00000000000E+00 -0.00000000000E+00 -0.21422414467E+02  0.21422414467E+02  0.00000000000E+00 0. -1.
         25    1    1    2    0    0 -0.24540277276E+02 -0.67728507623E+01  0.12425759295E+04  0.12491068958E+04  0.12500000000E+03 0.  0.
         25    1    1    2    0    0  0.24540277276E+02  0.67728507623E+01  0.20590483967E+03  0.24221870225E+03  0.12500000000E+03 0.  0.
</event>
<event>
 4    0  0.2196599E-002  0.2218763E+03  0.7546771E-02  0.1132492E+00
         21   -1    0    0  502  501  0.00000000000E+00  0.00000000000E+00  0.12511170572E+04  0.12511170572E+04  0.00000000000E+00 0.  1.
         21   -1    0    0  501  502 -0.00000000000E+00 -0.00000000000E+00 -0.39348107614E+02  0.39348107614E+02  0.00000000000E+00 0.  1.
         25    1    1    2    0    0 -0.81443296089E+02 -0.22845132562E+02  0.13293855599E+03  0.20112824324E+03  0.12500000000E+03 0.  0.
         25    1    1    2    0    0  0.81443296089E+02  0.22845132562E+02  0.10788303935E+04  0.10893369215E+04  0.12500000000E+03 0.  0.
</event>
<event>
 4    0  0.2196599E-002  0.2039275E+03  0.7546771E-02  0.1146467E+00
         21   -1    0    0  502  501  0.00000000000E+00  0.00000000000E+00  0.32819241808E+02  0.32819241808E+02  0.00000000000E+00 0. -1.
         21   -1    0    0  501  502 -0.00000000000E+00 -0.00000000000E+00 -0.12671355713E+04  0.12671355713E+04  0.00000000000E+00 0. -1.
         25    1    1    2    0    0  0.40955196436E+02  0.15535789326E+03 -0.65593665241E+03  0.68679785606E+03  0.12500000000E+03 0.  0.
         25    1    1    2    0    0 -0.40955196436E+02 -0.15535789326E+03 -0.57837967704E+03  0.61315695700E+03  0.12500000000E+03 0.  0.
</event>
<event>
 4    0  0.2196599E-002  0.1637867E+03  0.7546771E-02  0.1184487E+00
         21   -1    0    0  502  501  0.00000000000E+00  0.00000000000E+00  0.22150033271E+02  0.22150033271E+02  0.00000000000E+00 0.  1.
         21   -1    0    0  501  502 -0.00000000000E+00 -0.00000000000E+00 -0.12111080924E+04  0.12111080924E+04  0.00000000000E+00 0.  1.
         25    1    1    2    0    0  0.35387483776E+02 -0.76493923147E+02 -0.35348609496E+03  0.38429287479E+03  0.12500000000E+03 0.  0.
         25    1    1    2    0    0 -0.35387483776E+02  0.76493923147E+02 -0.83547196421E+03  0.84896525092E+03  0.12500000000E+03 0.  0.
</event>
<event>
 4    0  0.2196599E-002  0.1749745E+03  0.7546771E-02  0.1172757E+00
         21   -1    0    0  502  501  0.00000000000E+00  0.00000000000E+00  0.24770242332E+03  0.24770242332E+03  0.00000000000E+00 0. -1.
         21   -1    0    0  501  502 -0.00000000000E+00 -0.00000000000E+00 -0.12360021972E+03  0.12360021972E+03  0.00000000000E+00 0. -1.
         25    1    1    2    0    0  0.19048810147E+02 -0.56407943368E+02 -0.51464879988E+02  0.14771034871E+03  0.12500000000E+03 0.  0.
         25    1    1    2    0    0 -0.19048810147E+02  0.56407943368E+02  0.17556708359E+03  0.22359229433E+03  0.12500000000E+03 0.  0.
</event>
<event>
 4    0  0.2196599E-002  0.2024523E+03  0.7546771E-02  0.1147686E+00
         21   -1    0    0  502  501  0.00000000000E+00  0.00000000000E+00  0.25089367249E+02  0.25089367249E+02  0.00000000000E+00 0. -1.
         21   -1    0    0  501  502 -0.00000000000E+00 -0.00000000000E+00 -0.16336372971E+04  0.16336372971E+04  0.00000000000E+00 0. -1.
         25    1    1    2    0    0  0.10877603766E+03  0.98832962962E+02 -0.10555301964E+04  0.10730187214E+04  0.12500000000E+03 0.  0.
         25    1    1    2    0    0 -0.10877603766E+03 -0.98832962962E+02 -0.55301773348E+03  0.58570794299E+03  0.12500000000E+03 0.  0.
</event>
<event>
 4    0  0.2196599E-002  0.1703456E+03  0.7546771E-02  0.1177488E+00
         21   -1    0    0  502  501  0.00000000000E+00  0.00000000000E+00  0.72796843052E+02  0.72796843052E+02  0.00000000000E+00 0. -1.
         21   -1    0    0  501  502 -0.00000000000E+00 -0.00000000000E+00 -0.39861089414E+03  0.39861089414E+03  0.00000000000E+00 0. -1.
         25    1    1    2    0    0  0.69550126094E+02 -0.91919990520E+02 -0.14865377172E+03  0.22585271427E+03  0.12500000000E+03 0.  0.
         25    1    1    2    0    0 -0.69550126094E+02  0.91919990520E+02 -0.17716027937E+03  0.24555502292E+03  0.12500000000E+03 0.  0.
</event>
<event>
 4    0  0.2196599E-002  0.2577519E+03  0.7546771E-02  0.1108502E+00
         21   -1    0    0  502  501  0.00000000000E+00  0.00000000000E+00  0.69509370115E+03  0.69509370115E+03  0.00000000000E+00 0. -1.
         21   -1    0    0  501  502 -0.00000000000E+00 -0.00000000000E+00 -0.95578528740E+02  0.95578528740E+02  0.00000000000E+00 0. -1.
         25    1    1    2    0    0  0.21223411074E+03 -0.59982627708E+02  0.37120302138E+03  0.44950852770E+03  0.12500000000E+03 0.  0.
         25    1    1    2    0    0 -0.21223411074E+03  0.59982627708E+02  0.22831215102E+03  0.34116370219E+03  0.12500000000E+03 0.  0.
</event>
<event>
 4    0  0.2196599E-002  0.2052248E+03  0.7546771E-02  0.1145404E+00
         21   -1    0    0  502  501  0.00000000000E+00  0.00000000000E+00  0.67559948648E+02  0.67559948648E+02  0.00000000000E+00 0.  1.
         21   -1    0    0  501  502 -0.00000000000E+00 -0.00000000000E+00 -0.62340505172E+03  0.62340505172E+03  0.00000000000E+00 0.  1.
         25    1    1    2    0    0  0.93535711499E+02  0.12863382618E+03 -0.33615631544E+03  0.39232850900E+03  0.12500000000E+03 0.  0.
         25    1    1    2    0    0 -0.93535711499E+02 -0.12863382618E+03 -0.21968878763E+03  0.29863649136E+03  0.12500000000E+03 0.  0.
</event>
<event>
 4    0  0.2196599E-002  0.2788042E+03  0.7546771E-02  0.1096344E+00
         21   -1    0    0  502  501  0.00000000000E+00  0.00000000000E+00  0.40038712470E+03  0.40038712470E+03  0.00000000000E+00 0.  1.
         21   -1    0    0  501  502 -0.00000000000E+00 -0.00000000000E+00 -0.19414158060E+03  0.19414158060E+03  0.00000000000E+00 0.  1.
         25    1    1    2    0    0  0.20630807221E+03  0.11511009233E+02  0.25167200801E+03  0.34879696617E+03  0.12500000000E+03 0.  0.
         25    1    1    2    0    0 -0.20630807221E+03 -0.11511009233E+02 -0.45426463912E+02  0.24573173913E+03  0.12500000000E+03 0.  0.
</event>
<event>
 4    0  0.2196599E-002  0.1918692E+03  0.7546771E-02  0.1156786E+00
         21   -1    0    0  502  501  0.00000000000E+00  0.00000000000E+00  0.32926955722E+02  0.32926955722E+02  0.00000000000E+00 0. -1.
         21   -1    0    0  501  502 -0.00000000000E+00 -0.00000000000E+00 -0.11180444603E+04  0.11180444603E+04  0.00000000000E+00 0. -1.
         25    1    1    2    0    0  0.12689714440E+03 -0.22207590169E+02 -0.74582490018E+03  0.76712179219E+03  0.12500000000E+03 0.  0.
         25    1    1    2    0    0 -0.12689714440E+03  0.22207590169E+02 -0.33929260440E+03  0.38384962384E+03  0.12500000000E+03 0.  0.
</event>
<event>
 4    0  0.2196599E-002  0.2556994E+03  0.7546771E-02  0.1109755E+00
         21   -1    0    0  502  501  0.00000000000E+00  0.00000000000E+00  0.60620586481E+02  0.60620586481E+02  0.00000000000E+00 0.  1.
         21   -1    0    0  501  502 -0.00000000000E+00 -0.00000000000E+00 -0.10785474479E+04  0.10785474479E+04  0.00000000000E+00 0.  1.
         25    1    1    2    0    0  0.11147573186E+02 -0.20323391347E+03 -0.30567082562E+03  0.38792775824E+03  0.12500000000E+03 0.  0.
         25    1    1    2    0    0 -0.11147573186E+02  0.20323391347E+03 -0.71225603577E+03  0.75124027612E+03  0.12500000000E+03 0.  0.
</event>
<event>
 4    0  0.2196599E-002  0.1811211E+03  0.7546771E-02  0.1166722E+00
         21   -1    0    0  502  501  0.00000000000E+00  0.00000000000E+00  0.31487582167E+03  0.31487582167E+03  0.00000000000E+00 0. -1.
         21   -1    0    0  501  502 -0.00000000000E+00 -0.00000000000E+00 -0.10418351663E+03  0.10418351663E+03  0.00000000000E+00 0.  1.
         25    1    1    2    0    0 -0.62384323319E+02  0.10771338756E+03  0.57846401272E+02  0.18564801048E+03  0.12500000000E+03 0.  0.
         25    1    1    2    0    0  0.62384323319E+02 -0.10771338756E+03  0.15284590376E+03  0.23341132782E+03  0.12500000000E+03 0.  0.
</event>
<event>
 4    0  0.2196599E-002  0.3317286E+03  0.7546771E-02  0.1070375E+00
         21   -1    0    0  502  501  0.00000000000E+00  0.00000000000E+00  0.80585857764E+02  0.80585857764E+02  0.00000000000E+00 0. -1.
         21   -1    0    0  501  502 -0.00000000000E+00 -0.00000000000E+00 -0.13655482142E+04  0.13655482142E+04  0.00000000000E+00 0. -1.
         25    1    1    2    0    0 -0.18701499939E+03  0.22568661401E+03 -0.84355508804E+03  0.90173124838E+03  0.12500000000E+03 0.  0.
         25    1    1    2    0    0  0.18701499939E+03 -0.22568661401E+03 -0.44140726843E+03  0.54440282362E+03  0.12500000000E+03 0.  0.
</event>
<event>
 4    0  0.2196599E-002  0.2809572E+03  0.7546771E-02  0.1095167E+00
         21   -1    0    0  502  501  0.00000000000E+00  0.00000000000E+00  0.18776447545E+03  0.18776447545E+03  0.00000000000E+00 0. -1.
         21   -1    0    0  501  502 -0.00000000000E+00 -0.00000000000E+00 -0.42040395060E+03  0.42040395060E+03  0.00000000000E+00 0. -1.
         25    1    1    2    0    0  0.28249454857E+02 -0.17872872022E+03  0.72915085883E+02  0.23169720948E+03  0.12500000000E+03 0.  0.
         25    1    1    2    0    0 -0.28249454857E+02  0.17872872022E+03 -0.30555456104E+03  0.37647121657E+03  0.12500000000E+03 0.  0.
</event>
<event>
 4    0  0.2196599E-002  0.1683553E+03  0.7546771E-02  0.1179574E+00
         21   -1    0    0  502  501  0.00000000000E+00  0.00000000000E+00  0.28419701752E+03  0.28419701752E+03  0.00000000000E+00 0. -1.
         21   -1    0    0  501  502 -0.00000000000E+00 -0.00000000000E+00 -0.99731894228E+02  0.99731894228E+02  0.00000000000E+00 0. -1.
         25    1    1    2    0    0 -0.10840040726E+03  0.20632723369E+02  0.11878188707E+03  0.20472052721E+03  0.12500000000E+03 0.  0.
         25    1    1    2    0    0  0.10840040726E+03 -0.20632723369E+02  0.65683236225E+02  0.17920838454E+03  0.12500000000E+03 0.  0.
</event>
<event>
 4    0  0.2196599E-002  0.2655675E+03  0.7546771E-02  0.1103844E+00
         21   -1    0    0  502  501  0.00000000000E+00  0.00000000000E+00  0.40413529152E+02  0.40413529152E+02  0.00000000000E+00 0.  1.
         21   -1    0    0  501  502 -0.00000000000E+00 -0.00000000000E+00 -0.17451106828E+04  0.17451106828E+04  0.00000000000E+00 0.  1.
         25    1    1    2    0    0 -0.10072784231E+03  0.12904113859E+03 -0.14159084391E+04  0.14308107567E+04  0.12500000000E+03 0.  0.
         25    1    1    2    0    0  0.10072784231E+03 -0.12904113859E+03 -0.28878871457E+03  0.35471345524E+03  0.12500000000E+03 0.  0.
</event>
<event>
 4    0  0.2196599E-002  0.1614743E+03  0.7546771E-02  0.1187042E+00
         21   -1    0    0  502  501  0.00000000000E+00  0.00000000000E+00  0.13429495275E+03  0.13429495275E+03  0.00000000000E+00 0.  1.
         21   -1    0    0  501  502 -0.00000000000E+00 -0.00000000000E+00 -0.19415444022E+03  0.19415444022E+03  0.00000000000E+00 0.  1.
         25    1    1    2    0    0 -0.66593797748E+02 -0.75427590950E+02 -0.48261911587E+02  0.16756571095E+03  0.12500000000E+03 0.  0.
         25    1    1    2    0    0  0.66593797748E+02  0.75427590950E+02 -0.11597575876E+02  0.16088368202E+03  0.12500000000E+03 0.  0.
</event>
<event>
 4    0  0.2196599E-002  0.2580734E+03  0.7546771E-02  0.1108306E+00
         21   -1    0    0  502  501  0.00000000000E+00  0.00000000000E+00  0.32470088473E+03  0.32470088473E+03  0.00000000000E+00 0.  1.
         21   -1    0    0  501  502 -0.00000000000E+00 -0.00000000000E+00 -0.20511767830E+03  0.20511767830E+03  0.00000000000E+00 0.  1.
         25    1    1    2    0    0  0.11499047063E+03 -0.23692539997E+02 -0.13817093777E+03  0.22022795652E+03  0.12500000000E+03 0.  0.
         25    1    1    2    0    0 -0.11499047063E+03  0.23692539997E+02  0.25775414420E+03  0.30959060651E+03  0.12500000000E+03 0.  0.
</event>
<event>
 4    0  0.2196599E-002  0.2581645E+03  0.7546771E-02  0.1108251E+00
         21   -1    0    0  502  501  0.00000000000E+00  0.00000000000E+00  0.20318008385E+03  0.20318008385E+03  0.00000000000E+00 0.  1.
         21   -1    0    0  501  502 -0.00000000000E+00 -0.00000000000E+00 -0.32802883442E+03  0.32802883442E+03  0.00000000000E+00 0.  1.
         25    1    1    2    0    0  0.16018400030E+03  0.12627364043E+03 -0.16227798544E+03  0.28907281224E+03  0.12500000000E+03 0.  0.
         25    1    1    2    0    0 -0.16018400030E+03 -0.12627364043E+03  0.37429234865E+02  0.24213610603E+03  0.12500000000E+03 0.  0.
</event>
<event>
 4    0  0.2196599E-002  0.1902898E+03  0.7546771E-02  0.1158200E+00
         21   -1    0    0  502  501  0.00000000000E+00  0.00000000000E+00  0.11723991687E+04  0.11723991687E+04  0.00000000000E+00 0. -1.
         21   -1    0    0  501  502 -0.00000000000E+00 -0.00000000000E+00 -0.30885563899E+02  0.30885563899E+02  0.00000000000E+00 0. -1.
         25    1    1    2    0    0 -0.11874212565E+03 -0.71339597470E+02  0.68889583828E+03  0.71371668509E+03  0.12500000000E+03 0.  0.
         25    1    1    2    0    0  0.11874212565E+03  0.71339597470E+02  0.45261776648E+03  0.48956804747E+03  0.12500000000E+03 0.  0.
</event>
<event>
 4    0  0.2196599E-002  0.2245021E+03  0.7546771E-02  0.1130570E+00
         21   -1    0    0  502  501  0.00000000000E+00  0.00000000000E+00  0.10913759765E+03  0.10913759765E+03  0.00000000000E+00 0. -1.
         21   -1    0    0  501  502 -0.00000000000E+00 -0.00000000000E+00 -0.46181349119E+03  0.46181349119E+03  0.00000000000E+00 0. -1.
         25    1    1    2    0    0  0.10677718252E+03  0.93940560304E+02 -0.32972199413E+03  0.38022071089E+03  0.12500000000E+03 0.  0.
         25    1    1    2    0    0 -0.10677718252E+03 -0.93940560304E+02 -0.22953899407E+02  0.19073037796E+03  0.12500000000E+03 0.  0.
</event>
<event>
 4    0  0.2196599E-002  0.2064973E+03  0.7546771E-02  0.1144370E+00
         21   -1    0    0  502  501  0.00000000000E+00  0.00000000000E+00  0.16283834080E+03  0.16283834080E+03  0.00000000000E+00 0. -1.
         21   -1    0    0  501  502 -0.00000000000E+00 -0.00000000000E+00 -0.26186174021E+03  0.26186174021E+03  0.00000000000E+00 0. -1.
         25    1    1    2    0    0 -0.11495744854E+03 -0.10257571871E+03  0.93750864634E+01  0.19861995189E+03  0.12500000000E+03 0.  0.
         25    1    1    2    0    0  0.11495744854E+03  0.10257571871E+03 -0.10839848587E+03  0.22608012912E+03  0.12500000000E+03 0.  0.
</event>
<event>
 4    0  0.2196599E-002  0.2002497E+03  0.7546771E-02  0.1149529E+00
         21   -1    0    0  502  501  0.00000000000E+00  0.00000000000E+00  0.41080749864E+03  0.41080749864E+03  0.00000000000E+00 0.  1.
         21   -1    0    0  501  502 -0.00000000000E+00 -0.00000000000E+00 -0.97612477618E+02  0.97612477618E+02  0.00000000000E+00 0.  1.
         25    1    1    2    0    0 -0.15629426517E+03  0.65550862863E+01  0.15403605680E+03  0.25263209075E+03  0.12500000000E+03 0.  0.
         25    1    1    2    0    0  0.15629426517E+03 -0.65550862863E+01  0.15915896423E+03  0.25578788551E+03  0.12500000000E+03 0.  0.
</event>
<event>
 4    0  0.2196599E-002  0.2382886E+03  0.7546771E-02  0.1120938E+00
         21   -1    0    0  502  501  0.00000000000E+00  0.00000000000E+00  0.20127596067E+03  0.20127596067E+03  0.00000000000E+00 0. -1.
         21   -1    0    0  501  502 -0.00000000000E+00 -0.00000000000E+00 -0.28210757696E+03  0.28210757696E+03  0.00000000000E+00 0. -1.
         25    1    1    2    0    0  0.13654196887E+02  0.38638863323E+02 -0.24194177453E+03  0.27539103311E+03  0.12500000000E+03 0.  0.
         25    1    1    2    0    0 -0.13654196887E+02 -0.38638863323E+02  0.16111015824E+03  0.20799250453E+03  0.12500000000E+03 0.  0.
</event>
<event>
 4    0  0.2196599E-002  0.1860849E+03  0.7546771E-02  0.1162041E+00
         21   -1    0    0  502  501  0.00000000000E+00  0.00000000000E+00  0.39878492773E+02  0.39878492773E+02  0.00000000000E+00 0.  1.
         21   -1    0    0  501  502 -0.00000000000E+00 -0.00000000000E+00 -0.86832753589E+03  0.86832753589E+03  0.00000000000E+00 0.  1.
         25    1    1    2    0    0 -0.42075321038E+00  0.50574674128E+02 -0.10128880486E+03  0.16864873758E+03  0.12500000000E+03 0.  0.
         25    1    1    2    0    0  0.42075321038E+00 -0.50574674128E+02 -0.72716023826E+03  0.73955729109E+03  0.12500000000E+03 0.  0.
</event>
<event>
 4    0  0.2196599E-002  0.2237572E+03  0.7546771E-02  0.1131112E+00
         21   -1    0    0  502  501  0.00000000000E+00  0.00000000000E+00  0.37793372064E+03  0.37793372064E+03  0.00000000000E+00 0. -1.
         21   -1    0    0  501  502 -0.00000000000E+00 -0.00000000000E+00 -0.13247640984E+03  0.13247640984E+03  0.00000000000E+00 0. -1.
         25    1    1    2    0    0 -0.88253402840E+02 -0.11044407705E+03 -0.14401331873E+02  0.18925896446E+03  0.12500000000E+03 0.  0.
         25    1    1    2    0    0  0.88253402840E+02  0.11044407705E+03  0.25985864267E+03  0.32115116603E+03  0.12500000000E+03 0.  0.
</event>
<event>
 4    0  0.2196599E-002  0.1760837E+03  0.7546771E-02  0.1171648E+00
         21   -1    0    0  502  501  0.00000000000E+00  0.00000000000E+00  0.30463860017E+03  0.30463860017E+03  0.00000000000E+00 0. -1.
         21   -1    0    0  501  502 -0.00000000000E+00 -0.00000000000E+00 -0.10177788251E+03  0.10177788251E+03  0.00000000000E+00 0. -1.
         25    1    1    2    0    0 -0.24526620572E+02 -0.12008754192E+03  0.12326279888E+03  0.21410579261E+03  0.12500000000E+03 0.  0.
         25    1    1    2    0    0  0.24526620572E+02  0.12008754192E+03  0.79597918778E+02  0.19231069007E+03  0.12500000000E+03 0.  0.
</event>
<event>
 4    0  0.2196599E-002  0.2117869E+03  0.7546771E-02  0.1140159E+00
         21   -1    0    0  502  501  0.00000000000E+00  0.00000000000E+00  0.10555881268E+03  0.10555881268E+03  0.00000000000E+00 0.  1.
         21   -1    0    0  501  502 -0.00000000000E+00 -0.00000000000E+00 -0.42491667799E+03  0.42491667799E+03  0.00000000000E+00 0.  1.
         25    1    1    2    0    0 -0.14726979028E+03  0.35963084234E+02 -0.25866424156E+03  0.32482906954E+03  0.12500000000E+03 0.  0.
         25    1    1    2    0    0  0.14726979028E+03 -0.35963084234E+02 -0.60693623743E+02  0.20564642112E+03  0.12500000000E+03 0.  0.
</event>
<event>
 4    0  0.2196599E-002  0.2113557E+03  0.7546771E-02  0.1140497E+00
         21   -1    0    0  502  501  0.00000000000E+00  0.00000000000E+00  0.51825144340E+03  0.51825144340E+03  0.00000000000E+00 0. -1.
         21   -1    0    0  501  502 -0.00000000000E+00 -0.00000000000E+00 -0.86196038337E+02  0.86196038337E+02  0.00000000000E+00 0. -1.
         25    1    1    2    0    0 -0.82646684463E+02  0.13290357122E+03  0.31250703261E+03  0.37118658263E+03  0.12500000000E+03 0.  0.
         25    1    1    2    0    0  0.82646684463E+02 -0.13290357122E+03  0.11954837246E+03  0.23326089911E+03  0.12500000000E+03 0.  0.
</event>
<event>
 4    0  0.2196599E-002  0.1900589E+03  0.7546771E-02  0.1158408E+00
         21   -1    0    0  502  501  0.00000000000E+00  0.00000000000E+00  0.29644982095E+02  0.29644982095E+02  0.00000000000E+00 0. -1.
         21   -1    0    0  501  502 -0.00000000000E+00 -0.00000000000E+00 -0.12184988897E+04  0.12184988897E+04  0.00000000000E+00 0. -1.
         25    1    1    2    0    0  0.37890438755E+01  0.14299179674E+03 -0.57462536192E+03  0.60521096930E+03  0.12500000000E+03 0.  0.
         25    1    1    2    0    0 -0.37890438755E+01 -0.14299179674E+03 -0.61422854569E+03  0.64293290251E+03  0.12500000000E+03 0.  0.
</event>
<event>
 4    0  0.2196599E-002  0.1959265E+03  0.7546771E-02  0.1153222E+00
         21   -1    0    0  502  501  0.00000000000E+00  0.00000000000E+00  0.37662237139E+03  0.37662237139E+03  0.00000000000E+00 0.  1.
         21   -1    0    0  501  502 -0.00000000000E+00 -0.00000000000E+00 -0.10192490083E+03  0.10192490083E+03  0.00000000000E+00 0.  1.
         25    1    1    2    0    0 -0.69470139690E+02  0.13354312813E+03  0.14970263701E+03  0.24636506836E+03  0.12500000000E+03 0.  0.
         25    1    1    2    0    0  0.69470139690E+02 -0.13354312813E+03  0.12499483355E+03  0.23218220387E+03  0.12500000000E+03 0.  0.
</event>
<event>
 4    0  0.2196599E-002  0.1564298E+03  0.7546771E-02  0.1192787E+00
         21   -1    0    0  502  501  0.00000000000E+00  0.00000000000E+00  0.10562102547E+03  0.10562102547E+03  0.00000000000E+00 0.  1.
         21   -1    0    0  501  502 -0.00000000000E+00 -0.00000000000E+00 -0.23168014317E+03  0.23168014317E+03  0.00000000000E+00 0.  1.
         25    1    1    2    0    0  0.62978620140E+01 -0.85667886149E+02 -0.21740908599E+02  0.15321983191E+03  0.12500000000E+03 0.  0.
         25    1    1    2    0    0 -0.62978620140E+01  0.85667886149E+02 -0.10431820910E+03  0.18408133673E+03  0.12500000000E+03 0.  0.
</event>
<event>
 4    0  0.2196599E-002  0.2638337E+03  0.7546771E-02  0.1104862E+00
         21   -1    0    0  502  501  0.00000000000E+00  0.00000000000E+00  0.89201841123E+02  0.89201841123E+02  0.00000000000E+00 0. -1.
         21   -1    0    0  501  502 -0.00000000000E+00 -0.00000000000E+00 -0.78034509811E+03  0.78034509811E+03  0.00000000000E+00 0. -1.
         25    1    1    2    0    0  0.15765577353E+03 -0.12100293006E+03 -0.54391126966E+03  0.59242005475E+03  0.12500000000E+03 0.  0.
         25    1    1    2    0    0 -0.15765577353E+03  0.12100293006E+03 -0.14723198733E+03  0.27712688448E+03  0.12500000000E+03 0.  0.
</event>
<event>
 4    0  0.2196599E-002  0.1900673E+03  0.7546771E-02  0.1158401E+00
         21   -1    0    0  502  501  0.00000000000E+00  0.00000000000E+00  0.12805087629E+03  0.12805087629E+03  0.00000000000E+00 0. -1.
         21   -1    0    0  501  502 -0.00000000000E+00 -0.00000000000E+00 -0.28211882561E+03  0.28211882561E+03  0.00000000000E+00 0. -1.
         25    1    1    2    0    0  0.10828248961E+03  0.83811306026E+02 -0.31881090398E+02  0.18812452391E+03  0.12500000000E+03 0.  0.
         25    1    1    2    0    0 -0.10828248961E+03 -0.83811306026E+02 -0.12218685892E+03  0.22204517799E+03  0.12500000000E+03 0.  0.
</event>
<event>
 4    0  0.2196599E-002  0.2036094E+03  0.7546771E-02  0.1146729E+00
         21   -1    0    0  502  501  0.00000000000E+00  0.00000000000E+00  0.53305730022E+02  0.53305730022E+02  0.00000000000E+00 0.  1.
         21   -1    0    0  501  502 -0.00000000000E+00 -0.00000000000E+00 -0.77771719850E+03  0.77771719850E+03  0.00000000000E+00 0.  1.
         25    1    1    2    0    0  0.14899587490E+03 -0.39826791643E+02 -0.45450982158E+03  0.49597391261E+03  0.12500000000E+03 0.  0.
         25    1    1    2    0    0 -0.14899587490E+03  0.39826791643E+02 -0.26990164689E+03  0.33504901591E+03  0.12500000000E+03 0.  0.
</event>
<event>
 4    0  0.2196599E-002  0.2561332E+03  0.7546771E-02  0.1109489E+00
         21   -1    0    0  502  501  0.00000000000E+00  0.00000000000E+00  0.15869332806E+03  0.15869332806E+03  0.00000000000E+00 0. -1.
         21   -1    0    0  501  502 -0.00000000000E+00 -0.00000000000E+00 -0.41340241038E+03  0.41340241038E+03  0.00000000000E+00 0. -1.
         25    1    1    2    0    0  0.90133151877E+02 -0.16757556016E+03  0.37136833669E+01  0.22769353279E+03  0.12500000000E+03 0.  0.
         25    1    1    2    0    0 -0.90133151877E+02  0.16757556016E+03 -0.25842276569E+03  0.34440220565E+03  0.12500000000E+03 0.  0.
</event>
<event>
 4    0  0.2196599E-002  0.2741034E+03  0.7546771E-02  0.1098954E+00
         21   -1    0    0  502  501  0.00000000000E+00  0.00000000000E+00  0.74716732999E+02  0.74716732999E+02  0.00000000000E+00 0. -1.
         21   -1    0    0  501  502 -0.00000000000E+00 -0.00000000000E+00 -0.10055671726E+04  0.10055671726E+04  0.00000000000E+00 0. -1.
         25    1    1    2    0    0 -0.10048462364E+03 -0.12811895074E+03 -0.10747343680E+03  0.23170490877E+03  0.12500000000E+03 0.  0.
         25    1    1    2    0    0  0.10048462364E+03  0.12811895074E+03 -0.82337700284E+03  0.84857899687E+03  0.12500000000E+03 0.  0.
</event>
<event>
 4    0  0.2196599E-002  0.2372203E+03  0.7546771E-02  0.1121659E+00
         21   -1    0    0  502  501  0.00000000000E+00  0.00000000000E+00  0.13821687114E+03  0.13821687114E+03  0.00000000000E+00 0. -1.
         21   -1    0    0  501  502 -0.00000000000E+00 -0.00000000000E+00 -0.40713911299E+03  0.40713911299E+03  0.00000000000E+00 0. -1.
         25    1    1    2    0    0 -0.96433587943E+02  0.85096328859E+02 -0.31293546097E+03  0.36068604742E+03  0.12500000000E+03 0.  0.
         25    1    1    2    0    0  0.96433587943E+02 -0.85096328859E+02  0.44013219123E+02  0.18466993672E+03  0.12500000000E+03 0.  0.
</event>
<event>
 4    0  0.2196599E-002  0.2764761E+03  0.7546771E-02  0.1097629E+00
         21   -1    0    0  502  501  0.00000000000E+00  0.00000000000E+00  0.35733307118E+03  0.35733307118E+03  0.00000000000E+00 0. -1.
         21   -1    0    0  501  502 -0.00000000000E+00 -0.00000000000E+00 -0.21391534525E+03  0.21391534525E+03  0.00000000000E+00 0. -1.
         25    1    1    2    0    0 -0.24520942488E+03  0.24617167733E+02  0.80969869469E+02  0.28794927810E+03  0.12500000000E+03 0.  0.
         25    1    1    2    0    0  0.24520942488E+03 -0.24617167733E+02  0.62447856455E+02  0.28329913832E+03  0.12500000000E+03 0.  0.
</event>
<event>
 4    0  0.2196599E-002  0.2163559E+03  0.7546771E-02  0.1136629E+00
         21   -1    0    0  502  501  0.00000000000E+00  0.00000000000E+00  0.22694109469E+03  0.22694109469E+03  0.00000000000E+00 0. -1.
         21   -1    0    0  501  502 -0.00000000000E+00 -0.00000000000E+00 -0.20626439309E+03  0.20626439309E+03  0.00000000000E+00 0. -1.
         25    1    1    2    0    0  0.11714179489E+03 -0.19768110388E+02  0.14114687233E+03  0.22284617534E+03  0.12500000000E+03 0.  0.
         25    1    1    2    0    0 -0.11714179489E+03  0.19768110388E+02 -0.12047017073E+03  0.21035931244E+03  0.12500000000E+03 0.  0.
</event>
<event>
 4    0  0.2196599E-002  0.2990744E+03  0.7546771E-02  0.1085704E+00
         21   -1    0    0  502  501  0.00000000000E+00  0.00000000000E+00  0.36408132923E+03  0.36408132923E+03  0.00000000000E+00 0.  1.
         21   -1    0    0  501  502 -0.00000000000E+00 -0.00000000000E+00 -0.24567442537E+03  0.24567442537E+03  0.00000000000E+00 0.  1.
         25    1    1    2    0    0 -0.23502203497E+03  0.85033009045E+02 -0.49421794635E+02  0.28378421967E+03  0.12500000000E+03 0.  0.
         25    1    1    2    0    0  0.23502203497E+03 -0.85033009045E+02  0.16782869850E+03  0.32597153493E+03  0.12500000000E+03 0.  0.
</event>
<event>
 4    0  0.2196599E-002  0.2121378E+03  0.7546771E-02  0.1139884E+00
         21   -1    0    0  502  501  0.00000000000E+00  0.00000000000E+00  0.43730344388E+03  0.43730344388E+03  0.00000000000E+00 0. -1.
         21   -1    0    0  501  502 -0.00000000000E+00 -0.00000000000E+00 -0.10290895419E+03  0.10290895419E+03  0.00000000000E+00 0. -1.
         25    1    1    2    0    0  0.47963844697E+02 -0.13432940616E+03  0.46187319243E+02  0.19520037965E+03  0.12500000000E+03 0.  0.
         25    1    1    2    0    0 -0.47963844697E+02  0.13432940616E+03  0.28820717044E+03  0.34501201842E+03  0.12500000000E+03 0.  0.
</event>
<event>
 4    0  0.2196599E-002  0.1669361E+03  0.7546771E-02  0.1181081E+00
         21   -1    0    0  502  501  0.00000000000E+00  0.00000000000E+00  0.15450222796E+03  0.15450222796E+03  0.00000000000E+00 0.  1.
         21   -1    0    0  501  502 -0.00000000000E+00 -0.00000000000E+00 -0.18037063193E+03  0.18037063193E+03  0.00000000000E+00 0.  1.
         25    1    1    2    0    0  0.35513019272E+02 -0.33176178963E+01 -0.11798819167E+03  0.17555168612E+03  0.12500000000E+03 0.  0.
         25    1    1    2    0    0 -0.35513019272E+02  0.33176178963E+01  0.92119787702E+02  0.15932117377E+03  0.12500000000E+03 0.  0.
</event>
<event>
 4    0  0.2196599E-002  0.3953225E+03  0.7546771E-02  0.1045411E+00
         21   -1    0    0  502  501  0.00000000000E+00  0.00000000000E+00  0.56970624726E+03  0.56970624726E+03  0.00000000000E+00 0.  1.
         21   -1    0    0  501  502 -0.00000000000E+00 -0.00000000000E+00 -0.27431657150E+03  0.27431657150E+03  0.00000000000E+00 0. -1.
         25    1    1    2    0    0  0.28648908187E+03  0.21735382317E+03  0.26135444793E+03  0.46178980709E+03  0.12500000000E+03 0.  0.
         25    1    1    2    0    0 -0.28648908187E+03 -0.21735382317E+03  0.34035227831E+02  0.38223301167E+03  0.12500000000E+03 0.  0.
</event>
<event>
 4    0  0.2196599E-002  0.2999986E+03  0.7546771E-02  0.1085241E+00
         21   -1    0    0  502  501  0.00000000000E+00  0.00000000000E+00  0.52438976225E+03  0.52438976225E+03  0.00000000000E+00 0. -1.
         21   -1    0    0  501  502 -0.00000000000E+00 -0.00000000000E+00 -0.17162648515E+03  0.17162648515E+03  0.00000000000E+00 0. -1.
         25    1    1    2    0    0 -0.13175485020E+03  0.15101154761E+02  0.45281711112E+03  0.48811445538E+03  0.12500000000E+03 0.  0.
         25    1    1    2    0    0  0.13175485020E+03 -0.15101154761E+02 -0.10005383402E+03  0.20790179203E+03  0.12500000000E+03 0.  0.
</event>
<event>
 4    0  0.2196599E-002  0.2147268E+03  0.7546771E-02  0.1137877E+00
         21   -1    0    0  502  501  0.00000000000E+00  0.00000000000E+00  0.22782639022E+02  0.22782639022E+02  0.00000000000E+00 0.  1.
         21   -1    0    0  501  502 -0.00000000000E+00 -0.00000000000E+00 -0.20238045090E+04  0.20238045090E+04  0.00000000000E+00 0.  1.
         25    1    1    2    0    0  0.38546977415E+02  0.16775126779E+03 -0.86106228535E+03  0.88694961331E+03  0.12500000000E+03 0.  0.
         25    1    1    2    0    0 -0.38546977415E+02 -0.16775126779E+03 -0.11399595846E+04  0.11596375347E+04  0.12500000000E+03 0.  0.
</event>
<event>
 4    0  0.2196599E-002  0.2348372E+03  0.7546771E-02  0.1123281E+00
         21   -1    0    0  502  501  0.00000000000E+00  0.00000000000E+00  0.78432271668E+03  0.78432271668E+03  0.00000000000E+00 0.  1.
         21   -1    0    0  501  502 -0.00000000000E+00 -0.00000000000E+00 -0.70313562324E+02  0.70313562324E+02  0.00000000000E+00 0.  1.
         25    1    1    2    0    0 -0.15446263141E+03  0.12377528999E+03  0.39077817262E+03  0.45553441924E+03  0.12500000000E+03 0.  0.
         25    1    1    2    0    0  0.15446263141E+03 -0.12377528999E+03  0.32323098174E+03  0.39910185977E+03  0.12500000000E+03 0.  0.
</event>
<event>
 4    0  0.2196599E-002  0.2603313E+03  0.7546771E-02  0.1106944E+00
         21   -1    0    0  502  501  0.00000000000E+00  0.00000000000E+00  0.75879303181E+02  0.75879303181E+02  0.00000000000E+00 0. -1.
         21   -1    0    0  501  502 -0.00000000000E+00 -0.00000000000E+00 -0.89316015976E+03  0.89316015976E+03  0.00000000000E+00 0. -1.
         25    1    1    2    0    0 -0.53145737217E+02  0.11667450674E+03 -0.76034645904E+03  0.78114604760E+03  0.12500000000E+03 0.  0.
         25    1    1    2    0    0  0.53145737217E+02 -0.11667450674E+03 -0.56934397546E+02  0.18789341535E+03  0.12500000000E+03 0.  0.
</event>
<event>
 4    0  0.2196599E-002  0.3804752E+03  0.7546771E-02  0.1050758E+00
         21   -1    0    0  502  501  0.00000000000E+00  0.00000000000E+00  0.17270715007E+03  0.17270715007E+03  0.00000000000E+00 0. -1.
         21   -1    0    0  501  502 -0.00000000000E+00 -0.00000000000E+00 -0.83818983315E+03  0.83818983315E+03  0.00000000000E+00 0.  1.
         25    1    1    2    0    0  0.27201221010E+03 -0.10170742857E+03 -0.61392885004E+03  0.69055678722E+03  0.12500000000E+03 0.  0.
         25    1    1    2    0    0 -0.27201221010E+03  0.10170742857E+03 -0.51553833044E+02  0.32034019600E+03  0.12500000000E+03 0.  0.
</event>
<event>
 4    0  0.2196599E-002  0.1813097E+03  0.7546771E-02  0.1166541E+00
         21   -1    0    0  502  501  0.00000000000E+00  0.00000000000E+00  0.99847897660E+02  0.99847897660E+02  0.00000000000E+00 0. -1.
         21   -1    0    0  501  502 -0.00000000000E+00 -0.00000000000E+00 -0.32923296864E+03  0.32923296864E+03  0.00000000000E+00 0. -1.
         25    1    1    2    0    0  0.11794144615E+03  0.10539969986E+02 -0.18191025139E+03  0.25047477967E+03  0.12500000000E+03 0.  0.
         25    1    1    2    0    0 -0.11794144615E+03 -0.10539969986E+02 -0.47474819583E+02  0.17860608663E+03  0.12500000000E+03 0.  0.
</event>
<event>
 4    0  0.2196599E-002  0.2209060E+03  0.7546771E-02  0.1133209E+00
         21   -1    0    0  502  501  0.00000000000E+00  0.00000000000E+00  0.13400565361E+04  0.13400565361E+04  0.00000000000E+00 0.  1.
         21   -1    0    0  501  502 -0.00000000000E+00 -0.00000000000E+00 -0.36415964173E+02  0.36415964173E+02  0.00000000000E+00 0.  1.
         25    1    1    2    0    0  0.63927659299E+02 -0.16357467887E+03  0.80223972749E+03  0.83069669649E+03  0.12500000000E+03 0.  0.
         25    1    1    2    0    0 -0.63927659299E+02  0.16357467887E+03  0.50140084440E+03  0.54577580375E+03  0.12500000000E+03 0.  0.
</event>
<event>
 4    0  0.2196599E-002  0.3433723E+03  0.7546771E-02  0.1065369E+00
         21   -1    0    0  502  501  0.00000000000E+00  0.00000000000E+00  0.41254649773E+03  0.41254649773E+03  0.00000000000E+00 0. -1.
         21   -1    0    0  501  502 -0.00000000000E+00 -0.00000000000E+00 -0.28579690160E+03  0.28579690160E+03  0.00000000000E+00 0. -1.
         25    1    1    2    0    0 -0.17171827793E+03 -0.31158988447E+02 -0.20914681136E+03  0.29970892252E+03  0.12500000000E+03 0.  0.
         25    1    1    2    0    0  0.17171827793E+03  0.31158988447E+02  0.33589640749E+03  0.39863447681E+03  0.12500000000E+03 0.  0.
</event>
<event>
 4    0  0.2196599E-002  0.2198910E+03  0.7546771E-02  0.1133964E+00
         21   -1    0    0  502  501  0.00000000000E+00  0.00000000000E+00  0.22775070151E+03  0.22775070151E+03  0.00000000000E+00 0. -1.
         21   -1    0    0  501  502 -0.00000000000E+00 -0.00000000000E+00 -0.21230257726E+03  0.21230257726E+03  0.00000000000E+00 0. -1.
         25    1    1    2    0    0  0.17289691333E+02 -0.14136711737E+03  0.11934314416E+03  0.22394504093E+03  0.12500000000E+03 0.  0.
         25    1    1    2    0    0 -0.17289691333E+02  0.14136711737E+03 -0.10389501991E+03  0.21610823784E+03  0.12500000000E+03 0.  0.
</event>
<event>
 4    0  0.2196599E-002  0.1526896E+03  0.7546771E-02  0.1197206E+00
         21   -1    0    0  502  501  0.00000000000E+00  0.00000000000E+00  0.99454972098E+03  0.99454972098E+03  0.00000000000E+00 0. -1.
         21   -1    0    0  501  502 -0.00000000000E+00 -0.00000000000E+00 -0.23441874664E+02  0.23441874664E+02  0.00000000000E+00 0. -1.
         25    1    1    2    0    0 -0.10400142709E+02 -0.61463937926E+02  0.69113135446E+03  0.70510533097E+03  0.12500000000E+03 0.  0.
         25    1    1    2    0    0  0.10400142709E+02  0.61463937926E+02  0.27997649185E+03  0.31288626468E+03  0.12500000000E+03 0.  0.
</event>
<event>
 4    0  0.2196599E-002  0.2408835E+03  0.7546771E-02  0.1119206E+00
         21   -1    0    0  502  501  0.00000000000E+00  0.00000000000E+00  0.48268060672E+04  0.48268060672E+04  0.00000000000E+00 0. -1.
         21   -1    0    0  501  502 -0.00000000000E+00 -0.00000000000E+00 -0.12021378867E+02  0.12021378867E+02  0.00000000000E+00 0. -1.
         25    1    1    2    0    0  0.19813300421E+03  0.14285959706E+02  0.29519067833E+04  0.29612226247E+04  0.12500000000E+03 0.  0.
         25    1    1    2    0    0 -0.19813300421E+03 -0.14285959706E+02  0.18628779051E+04  0.18776048214E+04  0.12500000000E+03 0.  0.
</event>
<event>
 4    0  0.2196599E-002  0.2372760E+03  0.7546771E-02  0.1121621E+00
         21   -1    0    0  502  501  0.00000000000E+00  0.00000000000E+00  0.37636061876E+03  0.37636061876E+03  0.00000000000E+00 0.  1.
         21   -1    0    0  501  502 -0.00000000000E+00 -0.00000000000E+00 -0.14959027844E+03  0.14959027844E+03  0.00000000000E+00 0.  1.
         25    1    1    2    0    0  0.68518408206E+01 -0.13322781561E+03 -0.54253120544E+02  0.19069609242E+03  0.12500000000E+03 0.  0.
         25    1    1    2    0    0 -0.68518408206E+01  0.13322781561E+03  0.28102346086E+03  0.33525480478E+03  0.12500000000E+03 0.  0.
</event>
<event>
 4    0  0.2196599E-002  0.5935274E+03  0.7546771E-02  0.9918926E-01
         21   -1    0    0  502  501  0.00000000000E+00  0.00000000000E+00  0.16377021187E+04  0.16377021187E+04  0.00000000000E+00 0.  1.
         21   -1    0    0  501  502 -0.00000000000E+00 -0.00000000000E+00 -0.21510310144E+03  0.21510310144E+03  0.00000000000E+00 0.  1.
         25    1    1    2    0    0 -0.56615859997E+03 -0.11490071988E+02  0.51397657210E+03  0.77489644389E+03  0.12500000000E+03 0.  0.
         25    1    1    2    0    0  0.56615859997E+03  0.11490071988E+02  0.90862244519E+03  0.10779087763E+04  0.12500000000E+03 0.  0.
</event>
<event>
 4    0  0.2196599E-002  0.1919621E+03  0.7546771E-02  0.1156703E+00
         21   -1    0    0  502  501  0.00000000000E+00  0.00000000000E+00  0.29431087048E+03  0.29431087048E+03  0.00000000000E+00 0.  1.
         21   -1    0    0  501  502 -0.00000000000E+00 -0.00000000000E+00 -0.12520587658E+03  0.12520587658E+03  0.00000000000E+00 0.  1.
         25    1    1    2    0    0 -0.82531362620E+02 -0.95549651503E+02  0.51277253613E+01  0.17774266591E+03  0.12500000000E+03 0.  0.
         25    1    1    2    0    0  0.82531362620E+02  0.95549651503E+02  0.16397726853E+03  0.24177408115E+03  0.12500000000E+03 0.  0.
</event>
<event>
 4    0  0.2196599E-002  0.1961420E+03  0.7546771E-02  0.1153035E+00
         21   -1    0    0  502  501  0.00000000000E+00  0.00000000000E+00  0.17075895275E+03  0.17075895275E+03  0.00000000000E+00 0. -1.
         21   -1    0    0  501  502 -0.00000000000E+00 -0.00000000000E+00 -0.22529816794E+03  0.22529816794E+03  0.00000000000E+00 0. -1.
         25    1    1    2    0    0  0.97384947941E+01  0.12743694588E+03 -0.10874065672E+03  0.20924756601E+03  0.12500000000E+03 0.  0.
         25    1    1    2    0    0 -0.97384947941E+01 -0.12743694588E+03  0.54201441533E+02  0.18680955468E+03  0.12500000000E+03 0.  0.
</event>
<event>
 4    0  0.2196599E-002  0.1757329E+03  0.7546771E-02  0.1171998E+00
         21   -1    0    0  502  501  0.00000000000E+00  0.00000000000E+00  0.29079417014E+03  0.29079417014E+03  0.00000000000E+00 0. -1.
         21   -1    0    0  501  502 -0.00000000000E+00 -0.00000000000E+00 -0.10619902900E+03  0.10619902900E+03  0.00000000000E+00 0. -1.
         25    1    1    2    0    0 -0.84534749243E+02 -0.83949064954E+02  0.55462077569E+02  0.18136871666E+03  0.12500000000E+03 0.  0.
         25    1    1    2    0    0  0.84534749243E+02  0.83949064954E+02  0.12913306357E+03  0.21562448248E+03  0.12500000000E+03 0.  0.
</event>
<event>
 4    0  0.2196599E-002  0.2599362E+03  0.7546771E-02  0.1107182E+00
         21   -1    0    0  502  501  0.00000000000E+00  0.00000000000E+00  0.44806651134E+03  0.44806651134E+03  0.00000000000E+00 0. -1.
         21   -1    0    0  501  502 -0.00000000000E+00 -0.00000000000E+00 -0.15079637124E+03  0.15079637124E+03  0.00000000000E+00 0. -1.
         25    1    1    2    0    0  0.13338632276E+03 -0.16513640565E+03  0.24418283356E+03  0.34686049036E+03  0.12500000000E+03 0.  0.
         25    1    1    2    0    0 -0.13338632276E+03  0.16513640565E+03  0.53087306534E+02  0.25200239222E+03  0.12500000000E+03 0.  0.
</event>
<event>
 4    0  0.2196599E-002  0.1842944E+03  0.7546771E-02  0.1163710E+00
         21   -1    0    0  502  501  0.00000000000E+00  0.00000000000E+00  0.60271396348E+03  0.60271396348E+03  0.00000000000E+00 0.  1.
         21   -1    0    0  501  502 -0.00000000000E+00 -0.00000000000E+00 -0.56352454556E+02  0.56352454556E+02  0.00000000000E+00 0.  1.
         25    1    1    2    0    0  0.42160245496E+02  0.11471695431E+03  0.37747270917E+03  0.41599051921E+03  0.12500000000E+03 0.  0.
         25    1    1    2    0    0 -0.42160245496E+02 -0.11471695431E+03  0.16888879975E+03  0.24307589882E+03  0.12500000000E+03 0.  0.
</event>
<event>
 4    0  0.2196599E-002  0.1857723E+03  0.7546771E-02  0.1162331E+00
         21   -1    0    0  502  501  0.00000000000E+00  0.00000000000E+00  0.76302073649E+03  0.76302073649E+03  0.00000000000E+00 0. -1.
         21   -1    0    0  501  502 -0.00000000000E+00 -0.00000000000E+00 -0.45229881364E+02  0.45229881364E+02  0.00000000000E+00 0. -1.
         25    1    1    2    0    0 -0.31937826659E+02 -0.38075631555E+02  0.80170238022E+02  0.15659516453E+03  0.12500000000E+03 0.  0.
         25    1    1    2    0    0  0.31937826659E+02  0.38075631555E+02  0.63762061711E+03  0.65165545333E+03  0.12500000000E+03 0.  0.
</event>
<event>
 4    0  0.2196599E-002  0.2523261E+03  0.7546771E-02  0.1111844E+00
         21   -1    0    0  502  501  0.00000000000E+00  0.00000000000E+00  0.72337738799E+03  0.72337738799E+03  0.00000000000E+00 0. -1.
         21   -1    0    0  501  502 -0.00000000000E+00 -0.00000000000E+00 -0.88015547683E+02  0.88015547683E+02  0.00000000000E+00 0. -1.
         25    1    1    2    0    0  0.17442638552E+03 -0.10995034403E+03  0.43724324744E+03  0.49931983693E+03  0.12500000000E+03 0.  0.
         25    1    1    2    0    0 -0.17442638552E+03  0.10995034403E+03  0.19811859287E+03  0.31207309874E+03  0.12500000000E+03 0.  0.
</event>
<event>
 4    0  0.2196599E-002  0.1911884E+03  0.7546771E-02  0.1157394E+00
         21   -1    0    0  502  501  0.00000000000E+00  0.00000000000E+00  0.17712394379E+03  0.17712394379E+03  0.00000000000E+00 0. -1.
         21   -1    0    0  501  502 -0.00000000000E+00 -0.00000000000E+00 -0.20636966844E+03  0.20636966844E+03  0.00000000000E+00 0. -1.
         25    1    1    2    0    0  0.66097258047E+02  0.11837953727E+03  0.35976915995E+02  0.18788800081E+03  0.12500000000E+03 0.  0.
         25    1    1    2    0    0 -0.66097258047E+02 -0.11837953727E+03 -0.65222640641E+02  0.19560561142E+03  0.12500000000E+03 0.  0.
</event>
<event>
 4    0  0.2196599E-002  0.1583750E+03  0.7546771E-02  0.1190544E+00
         21   -1    0    0  502  501  0.00000000000E+00  0.00000000000E+00  0.14458791490E+03  0.14458791490E+03  0.00000000000E+00 0. -1.
         21   -1    0    0  501  502 -0.00000000000E+00 -0.00000000000E+00 -0.17347678883E+03  0.17347678883E+03  0.00000000000E+00 0. -1.
         25    1    1    2    0    0  0.50990755581E+02  0.75302809947E+02  0.20152544815E+02  0.15589001059E+03  0.12500000000E+03 0.  0.
         25    1    1    2    0    0 -0.50990755581E+02 -0.75302809947E+02 -0.49041418745E+02  0.16217469313E+03  0.12500000000E+03 0.  0.
</event>
<event>
 4    0  0.2196599E-002  0.1771012E+03  0.7546771E-02  0.1170638E+00
         21   -1    0    0  502  501  0.00000000000E+00  0.00000000000E+00  0.43601420596E+03  0.43601420596E+03  0.00000000000E+00 0. -1.
         21   -1    0    0  501  502 -0.00000000000E+00 -0.00000000000E+00 -0.71935373104E+02  0.71935373104E+02  0.00000000000E+00 0. -1.
         25    1    1    2    0    0  0.11538555262E+03 -0.47155317563E+02  0.16163760288E+03  0.23935154980E+03  0.12500000000E+03 0.  0.
         25    1    1    2    0    0 -0.11538555262E+03  0.47155317563E+02  0.20244122997E+03  0.26859802926E+03  0.12500000000E+03 0.  0.
</event>
<event>
 4    0  0.2196599E-002  0.1805511E+03  0.7546771E-02  0.1167271E+00
         21   -1    0    0  502  501  0.00000000000E+00  0.00000000000E+00  0.25982455481E+03  0.25982455481E+03  0.00000000000E+00 0. -1.
         21   -1    0    0  501  502 -0.00000000000E+00 -0.00000000000E+00 -0.12546431470E+03  0.12546431470E+03  0.00000000000E+00 0. -1.
         25    1    1    2    0    0 -0.69656851812E+02 -0.57781829429E+02  0.16717437650E+03  0.22751503022E+03  0.12500000000E+03 0.  0.
         25    1    1    2    0    0  0.69656851812E+02  0.57781829429E+02 -0.32814136396E+02  0.15777383929E+03  0.12500000000E+03 0.  0.
</event>
<event>
 4    0  0.2196599E-002  0.1860314E+03  0.7546771E-02  0.1162090E+00
         21   -1    0    0  502  501  0.00000000000E+00  0.00000000000E+00  0.10751875791E+04  0.10751875791E+04  0.00000000000E+00 0.  1.
         21   -1    0    0  501  502 -0.00000000000E+00 -0.00000000000E+00 -0.32187588691E+02  0.32187588691E+02  0.00000000000E+00 0.  1.
         25    1    1    2    0    0 -0.55930976753E+02  0.11237043651E+03  0.35241754070E+03  0.39443442060E+03  0.12500000000E+03 0.  0.
         25    1    1    2    0    0  0.55930976753E+02 -0.11237043651E+03  0.69058244975E+03  0.71294074723E+03  0.12500000000E+03 0.  0.
</event>
<event>
 4    0  0.2196599E-002  0.2380916E+03  0.7546771E-02  0.1121071E+00
         21   -1    0    0  502  501  0.00000000000E+00  0.00000000000E+00  0.21897340640E+04  0.21897340640E+04  0.00000000000E+00 0.  1.
         21   -1    0    0  501  502 -0.00000000000E+00 -0.00000000000E+00 -0.25887904381E+02  0.25887904381E+02  0.00000000000E+00 0.  1.
         25    1    1    2    0    0  0.16267558679E+03  0.39700895421E+02  0.55094202377E+03  0.58923817017E+03  0.12500000000E+03 0.  0.
         25    1    1    2    0    0 -0.16267558679E+03 -0.39700895421E+02  0.16129041359E+04  0.16263837982E+04  0.12500000000E+03 0.  0.
</event>
<event>
 4    0  0.2196599E-002  0.2104742E+03  0.7546771E-02  0.1141191E+00
         21   -1    0    0  502  501  0.00000000000E+00  0.00000000000E+00  0.57063586520E+02  0.57063586520E+02  0.00000000000E+00 0. -1.
         21   -1    0    0  501  502 -0.00000000000E+00 -0.00000000000E+00 -0.77631625352E+03  0.77631625352E+03  0.00000000000E+00 0. -1.
         25    1    1    2    0    0 -0.12569993060E+03 -0.10691832848E+03 -0.43481548791E+03  0.48158229831E+03  0.12500000000E+03 0.  0.
         25    1    1    2    0    0  0.12569993060E+03  0.10691832848E+03 -0.28443717909E+03  0.35179754173E+03  0.12500000000E+03 0.  0.
</event>
<event>
 4    0  0.2196599E-002  0.2909798E+03  0.7546771E-02  0.1089839E+00
         21   -1    0    0  502  501  0.00000000000E+00  0.00000000000E+00  0.11183321984E+03  0.11183321984E+03  0.00000000000E+00 0. -1.
         21   -1    0    0  501  502 -0.00000000000E+00 -0.00000000000E+00 -0.75710275720E+03  0.75710275720E+03  0.00000000000E+00 0. -1.
         25    1    1    2    0    0  0.12737117197E+03 -0.13686068535E+03 -0.46952835580E+02  0.22974732080E+03  0.12500000000E+03 0.  0.
         25    1    1    2    0    0 -0.12737117197E+03  0.13686068535E+03 -0.59831670178E+03  0.63918865625E+03  0.12500000000E+03 0.  0.
</event>
<event>
 4    0  0.2196599E-002  0.3629188E+03  0.7546771E-02  0.1057434E+00
         21   -1    0    0  502  501  0.00000000000E+00  0.00000000000E+00  0.12397831369E+03  0.12397831369E+03  0.00000000000E+00 0.  1.
         21   -1    0    0  501  502 -0.00000000000E+00 -0.00000000000E+00 -0.10623638221E+04  0.10623638221E+04  0.00000000000E+00 0.  1.
         25    1    1    2    0    0 -0.12564184570E+03 -0.25909072997E+03 -0.17151181808E+03  0.35770823793E+03  0.12500000000E+03 0.  0.
         25    1    1    2    0    0  0.12564184570E+03  0.25909072997E+03 -0.76687369028E+03  0.82863389781E+03  0.12500000000E+03 0.  0.
</event>
<event>
 4    0  0.2196599E-002  0.3009167E+03  0.7546771E-02  0.1084783E+00
         21   -1    0    0  502  501  0.00000000000E+00  0.00000000000E+00  0.26556466244E+03  0.26556466244E+03  0.00000000000E+00 0. -1.
         21   -1    0    0  501  502 -0.00000000000E+00 -0.00000000000E+00 -0.34097472427E+03  0.34097472427E+03  0.00000000000E+00 0. -1.
         25    1    1    2    0    0 -0.25815314329E+03 -0.39058644146E+02 -0.12055009311E+03  0.31356968607E+03  0.12500000000E+03 0.  0.
         25    1    1    2    0    0  0.25815314329E+03  0.39058644146E+02  0.45140031280E+02  0.29296970064E+03  0.12500000000E+03 0.  0.
</event>
<event>
 4    0  0.2196599E-002  0.1986690E+03  0.7546771E-02  0.1150867E+00
         21   -1    0    0  502  501  0.00000000000E+00  0.00000000000E+00  0.40632225041E+03  0.40632225041E+03  0.00000000000E+00 0.  1.
         21   -1    0    0  501  502 -0.00000000000E+00 -0.00000000000E+00 -0.97138133660E+02  0.97138133660E+02  0.00000000000E+00 0.  1.
         25    1    1    2    0    0  0.66239198799E+02  0.13313819211E+03  0.10187507185E+03  0.21935573829E+03  0.12500000000E+03 0.  0.
         25    1    1    2    0    0 -0.66239198799E+02 -0.13313819211E+03  0.20730904490E+03  0.28410464578E+03  0.12500000000E+03 0.  0.
</event>
<event>
 4    0  0.2196599E-002  0.2057694E+03  0.7546771E-02  0.1144961E+00
         21   -1    0    0  502  501  0.00000000000E+00  0.00000000000E+00  0.62356909466E+03  0.62356909466E+03  0.00000000000E+00 0.  1.
         21   -1    0    0  501  502 -0.00000000000E+00 -0.00000000000E+00 -0.67901140136E+02  0.67901140136E+02  0.00000000000E+00 0.  1.
         25    1    1    2    0    0  0.67306988270E+02 -0.94446662002E+02  0.47135445822E+03  0.50124886825E+03  0.12500000000E+03 0.  0.
         25    1    1    2    0    0 -0.67306988270E+02  0.94446662002E+02  0.84313496303E+02  0.19022136655E+03  0.12500000000E+03 0.  0.
</event>
<event>
 4    0  0.2196599E-002  0.2360940E+03  0.7546771E-02  0.1122423E+00
         21   -1    0    0  502  501  0.00000000000E+00  0.00000000000E+00  0.24612431499E+02  0.24612431499E+02  0.00000000000E+00 0. -1.
         21   -1    0    0  501  502 -0.00000000000E+00 -0.00000000000E+00 -0.22647250928E+04  0.22647250928E+04  0.00000000000E+00 0. -1.
         25    1    1    2    0    0  0.80978130406E+02  0.42013787822E+02 -0.19845444812E+04  0.19905688669E+04  0.12500000000E+03 0.  0.
         25    1    1    2    0    0 -0.80978130406E+02 -0.42013787822E+02 -0.25556818012E+03  0.29876865743E+03  0.12500000000E+03 0.  0.
</event>
<event>
 4    0  0.2196599E-002  0.2525093E+03  0.7546771E-02  0.1111729E+00
         21   -1    0    0  502  501  0.00000000000E+00  0.00000000000E+00  0.48033724572E+03  0.48033724572E+03  0.00000000000E+00 0.  1.
         21   -1    0    0  501  502 -0.00000000000E+00 -0.00000000000E+00 -0.13274203143E+03  0.13274203143E+03  0.00000000000E+00 0.  1.
         25    1    1    2    0    0  0.10761569632E+02 -0.17275927102E+03  0.33745623225E+03  0.39932854367E+03  0.12500000000E+03 0.  0.
         25    1    1    2    0    0 -0.10761569632E+02  0.17275927102E+03  0.10138982040E+02  0.21375073348E+03  0.12500000000E+03 0.  0.
</event>
<event>
 4    0  0.2196599E-002  0.1701772E+03  0.7546771E-02  0.1177663E+00
         21   -1    0    0  502  501  0.00000000000E+00  0.00000000000E+00  0.21752201256E+03  0.21752201256E+03  0.00000000000E+00 0.  1.
         21   -1    0    0  501  502 -0.00000000000E+00 -0.00000000000E+00 -0.13313726064E+03  0.13313726064E+03  0.00000000000E+00 0.  1.
         25    1    1    2    0    0 -0.25732064103E+02  0.86372284808E+02 -0.32194565888E+02  0.15742871650E+03  0.12500000000E+03 0.  0.
         25    1    1    2    0    0  0.25732064103E+02 -0.86372284808E+02  0.11657931781E+03  0.19323055671E+03  0.12500000000E+03 0.  0.
</event>
<event>
 4    0  0.2196599E-002  0.1434147E+03  0.7546771E-02  0.1208807E+00
         21   -1    0    0  502  501  0.00000000000E+00  0.00000000000E+00  0.56646429690E+02  0.56646429690E+02  0.00000000000E+00 0.  1.
         21   -1    0    0  501  502 -0.00000000000E+00 -0.00000000000E+00 -0.36309060512E+03  0.36309060512E+03  0.00000000000E+00 0.  1.
         25    1    1    2    0    0 -0.17389318774E+02  0.70555254382E+01 -0.54072919415E+02  0.13748108765E+03  0.12500000000E+03 0.  0.
         25    1    1    2    0    0  0.17389318774E+02 -0.70555254382E+01 -0.25237125602E+03  0.28225594716E+03  0.12500000000E+03 0.  0.
</event>
<event>
 4    0  0.2196599E-002  0.1938720E+03  0.7546771E-02  0.1155015E+00
         21   -1    0    0  502  501  0.00000000000E+00  0.00000000000E+00  0.33112097948E+03  0.33112097948E+03  0.00000000000E+00 0.  1.
         21   -1    0    0  501  502 -0.00000000000E+00 -0.00000000000E+00 -0.11351249444E+03  0.11351249444E+03  0.00000000000E+00 0.  1.
         25    1    1    2    0    0  0.57090282411E+02  0.13537263984E+03  0.13104930025E+03  0.23320371150E+03  0.12500000000E+03 0.  0.
         25    1    1    2    0    0 -0.57090282411E+02 -0.13537263984E+03  0.86559184791E+02  0.21142976242E+03  0.12500000000E+03 0.  0.
</event>
<event>
 4    0  0.2196599E-002  0.2392657E+03  0.7546771E-02  0.1120283E+00
         21   -1    0    0  502  501  0.00000000000E+00  0.00000000000E+00  0.74845508193E+03  0.74845508193E+03  0.00000000000E+00 0.  1.
         21   -1    0    0  501  502 -0.00000000000E+00 -0.00000000000E+00 -0.76488327612E+02  0.76488327612E+02  0.00000000000E+00 0.  1.
         25    1    1    2    0    0 -0.96835994362E+02  0.11667602442E+03  0.57129865479E+03  0.60415035997E+03  0.12500000000E+03 0.  0.
         25    1    1    2    0    0  0.96835994362E+02 -0.11667602442E+03  0.10066809952E+03  0.22079304957E+03  0.12500000000E+03 0.  0.
</event>
<event>
 4    0  0.2196599E-002  0.2758457E+03  0.7546771E-02  0.1097980E+00
         21   -1    0    0  502  501  0.00000000000E+00  0.00000000000E+00  0.13338785863E+03  0.13338785863E+03  0.00000000000E+00 0.  1.
         21   -1    0    0  501  502 -0.00000000000E+00 -0.00000000000E+00 -0.57044789184E+03  0.57044789184E+03  0.00000000000E+00 0.  1.
         25    1    1    2    0    0  0.11124165055E+03  0.24832427616E+02  0.59444665566E+02  0.17930427363E+03  0.12500000000E+03 0.  0.
         25    1    1    2    0    0 -0.11124165055E+03 -0.24832427616E+02 -0.49650469878E+03  0.52453147684E+03  0.12500000000E+03 0.  0.
</event>
<event>
 4    0  0.2196599E-002  0.1964327E+03  0.7546771E-02  0.1152784E+00
         21   -1    0    0  502  501  0.00000000000E+00  0.00000000000E+00  0.33798974720E+03  0.33798974720E+03  0.00000000000E+00 0. -1.
         21   -1    0    0  501  502 -0.00000000000E+00 -0.00000000000E+00 -0.11416268603E+03  0.11416268603E+03  0.00000000000E+00 0. -1.
         25    1    1    2    0    0  0.29372911192E+02  0.18360736031E+02  0.28169089162E+03  0.31012036850E+03  0.12500000000E+03 0.  0.
         25    1    1    2    0    0 -0.29372911192E+02 -0.18360736031E+02 -0.57863830440E+02  0.14203206473E+03  0.12500000000E+03 0.  0.
</event>
<event>
 4    0  0.2196599E-002  0.2102503E+03  0.7546771E-02  0.1141368E+00
         21   -1    0    0  502  501  0.00000000000E+00  0.00000000000E+00  0.14064973442E+04  0.14064973442E+04  0.00000000000E+00 0.  1.
         21   -1    0    0  501  502 -0.00000000000E+00 -0.00000000000E+00 -0.31429282553E+02  0.31429282553E+02  0.00000000000E+00 0.  1.
         25    1    1    2    0    0  0.10353050770E+02  0.74941511193E+02  0.17054940780E+03  0.22457853028E+03  0.12500000000E+03 0.  0.
         25    1    1    2    0    0 -0.10353050770E+02 -0.74941511193E+02  0.12045186539E+04  0.12133480965E+04  0.12500000000E+03 0.  0.
</event>
<event>
 4    0  0.2196599E-002  0.2531260E+03  0.7546771E-02  0.1111345E+00
         21   -1    0    0  502  501  0.00000000000E+00  0.00000000000E+00  0.16977782869E+03  0.16977782869E+03  0.00000000000E+00 0.  1.
         21   -1    0    0  501  502 -0.00000000000E+00 -0.00000000000E+00 -0.37739196699E+03  0.37739196699E+03  0.00000000000E+00 0.  1.
         25    1    1    2    0    0  0.35412149132E+02 -0.21541722689E+03 -0.73444032376E+02  0.26206416741E+03  0.12500000000E+03 0.  0.
         25    1    1    2    0    0 -0.35412149132E+02  0.21541722689E+03 -0.13417010592E+03  0.28510562827E+03  0.12500000000E+03 0.  0.
</event>
<event>
 4    0  0.2196599E-002  0.2287946E+03  0.7546771E-02  0.1127491E+00
         21   -1    0    0  502  501  0.00000000000E+00  0.00000000000E+00  0.41706081489E+02  0.41706081489E+02  0.00000000000E+00 0.  1.
         21   -1    0    0  501  502 -0.00000000000E+00 -0.00000000000E+00 -0.12551404511E+04  0.12551404511E+04  0.00000000000E+00 0.  1.
         25    1    1    2    0    0  0.45347301168E+02 -0.61230604079E+02 -0.11050360965E+04  0.11146906922E+04  0.12500000000E+03 0.  0.
         25    1    1    2    0    0 -0.45347301168E+02  0.61230604079E+02 -0.10839827315E+03  0.18215584048E+03  0.12500000000E+03 0.  0.
</event>
<event>
 4    0  0.2196599E-002  0.1908530E+03  0.7546771E-02  0.1157694E+00
         21   -1    0    0  502  501  0.00000000000E+00  0.00000000000E+00  0.13348026269E+04  0.13348026269E+04  0.00000000000E+00 0.  1.
         21   -1    0    0  501  502 -0.00000000000E+00 -0.00000000000E+00 -0.27288590638E+02  0.27288590638E+02  0.00000000000E+00 0.  1.
         25    1    1    2    0    0  0.87417730909E+02 -0.30000812749E+02  0.10488383106E+04  0.10602965199E+04  0.12500000000E+03 0.  0.
         25    1    1    2    0    0 -0.87417730909E+02  0.30000812749E+02  0.25867572566E+03  0.30179469758E+03  0.12500000000E+03 0.  0.
</event>
<event>
 4    0  0.2196599E-002  0.2256962E+03  0.7546771E-02  0.1129706E+00
         21   -1    0    0  502  501  0.00000000000E+00  0.00000000000E+00  0.37481982628E+04  0.37481982628E+04  0.00000000000E+00 0.  1.
         21   -1    0    0  501  502 -0.00000000000E+00 -0.00000000000E+00 -0.13590200030E+02  0.13590200030E+02  0.00000000000E+00 0.  1.
         25    1    1    2    0    0 -0.29845299079E+02 -0.16701767119E+03  0.11939643182E+04  0.12124196623E+04  0.12500000000E+03 0.  0.
         25    1    1    2    0    0  0.29845299079E+02  0.16701767119E+03  0.25406437446E+04  0.25493688006E+04  0.12500000000E+03 0.  0.
</event>
<event>
 4    0  0.2196599E-002  0.2164015E+03  0.7546771E-02  0.1136595E+00
         21   -1    0    0  502  501  0.00000000000E+00  0.00000000000E+00  0.30722089970E+03  0.30722089970E+03  0.00000000000E+00 0. -1.
         21   -1    0    0  501  502 -0.00000000000E+00 -0.00000000000E+00 -0.15242976720E+03  0.15242976720E+03  0.00000000000E+00 0. -1.
         25    1    1    2    0    0  0.90212417890E+02 -0.13148115100E+03 -0.33400859061E+01  0.20263694033E+03  0.12500000000E+03 0.  0.
         25    1    1    2    0    0 -0.90212417890E+02  0.13148115100E+03  0.15813121841E+03  0.25701372657E+03  0.12500000000E+03 0.  0.
</event>
<event>
 4    0  0.2196599E-002  0.1852290E+03  0.7546771E-02  0.1162836E+00
         21   -1    0    0  502  501  0.00000000000E+00  0.00000000000E+00  0.54824107225E+03  0.54824107225E+03  0.00000000000E+00 0. -1.
         21   -1    0    0  501  502 -0.00000000000E+00 -0.00000000000E+00 -0.62581546691E+02  0.62581546691E+02  0.00000000000E+00 0. -1.
         25    1    1    2    0    0 -0.13654975875E+03 -0.53585005316E+01  0.23755759652E+03  0.30121945788E+03  0.12500000000E+03 0.  0.
         25    1    1    2    0    0  0.13654975875E+03  0.53585005316E+01  0.24810192904E+03  0.30960316106E+03  0.12500000000E+03 0.  0.
</event>
