<event>
 4    0  0.2205135E-002  0.1930270E+03  0.7546771E-02  0.1155759E+00
         21   -1    0    0  502  501  0.00000000000E+00  0.00000000000E+00  0.16956197753E+03  0.16956197753E+03  0.00000000000E+00 0. -1.
         21   -1    0    0  501  502 -0.00000000000E+00 -0.00000000000E+00 -0.21973935103E+03  0.21973935103E+03  0.00000000000E+00 0. -1.
         25    1    1    2    0    0  0.10182919708E+03 -0.66672604458E+02 -0.10836672273E+03  0.20538443991E+03  0.12500000000E+03 0.  0.
         25    1    1    2    0    0 -0.10182919708E+03  0.66672604458E+02  0.58189349239E+02  0.18391688864E+03  0.12500000000E+03 0.  0.
</event>
<event>
 4    0  0.2205135E-002  0.1876183E+03  0.7546771E-02  0.1160627E+00
         21   -1    0    0  502  501  0.00000000000E+00  0.00000000000E+00  0.38622983931E+03  0.38622983931E+03  0.00000000000E+00 0. -1.
         21   -1    0    0  501  502 -0.00000000000E+00 -0.00000000000E+00 -0.91139037717E+02  0.91139037717E+02  0.00000000000E+00 0. -1.
         25    1    1    2    0    0 -0.35006069183E+02 -0.10449887719E+03  0.25720546991E+03  0.30647201172E+03  0.12500000000E+03 0.  0.
         25    1    1    2    0    0  0.35006069183E+02  0.10449887719E+03  0.37885331679E+02  0.17089686530E+03  0.12500000000E+03 0.  0.
</event>
<event>
 4    0  0.2205135E-002  0.2219737E+03  0.7546771E-02  0.1132420E+00
         21   -1    0    0  502  501  0.00000000000E+00  0.00000000000E+00  0.12002019131E+04  0.12002019131E+04  0.00000000000E+00 0.  1.
         21   -1    0    0  501  502 -0.00000000000E+00 -0.00000000000E+00 -0.41053347526E+02  0.41053347526E+02  0.00000000000E+00 0.  1.
         25    1    1    2    0    0  0.72905338701E+01  0.28129947210E+02  0.10859647474E+04  0.10935213206E+04  0.12500000000E+03 0.  0.
         25    1    1    2    0    0 -0.72905338701E+01 -0.28129947210E+02  0.73183818135E+02  0.14773394008E+03  0.12500000000E+03 0.  0.
</event>
<event>
 4    0  0.2205135E-002  0.3060732E+03  0.7546771E-02  0.1082243E+00
         21   -1    0    0  502  501  0.00000000000E+00  0.00000000000E+00  0.55923071104E+03  0.55923071104E+03  0.00000000000E+00 0. -1.
         21   -1    0    0  501  502 -0.00000000000E+00 -0.00000000000E+00 -0.16751731715E+03  0.16751731715E+03  0.00000000000E+00 0. -1.
         25    1    1    2    0    0 -0.11699752878E+02 -0.27652040490E+03  0.24114866147E+03  0.38778614657E+03  0.12500000000E+03 0.  0.
         25    1    1    2    0    0  0.11699752878E+02  0.27652040490E+03  0.15056473242E+03  0.33896188162E+03  0.12500000000E+03 0.  0.
</event>
<event>
 4    0  0.2205135E-002  0.2440231E+03  0.7546771E-02  0.1117141E+00
         21   -1    0    0  502  501  0.00000000000E+00  0.00000000000E+00  0.11837473606E+03  0.11837473606E+03  0.00000000000E+00 0.  1.
         21   -1    0    0  501  502 -0.00000000000E+00 -0.00000000000E+00 -0.50304047943E+03  0.50304047943E+03  0.00000000000E+00 0.  1.
         25    1    1    2    0    0 -0.90622564731E+02  0.11146938507E+02 -0.43252453840E+03  0.45939000838E+03  0.12500000000E+03 0.  0.
         25    1    1    2    0    0  0.90622564731E+02 -0.11146938507E+02  0.47858795036E+02  0.16202520711E+03  0.12500000000E+03 0.  0.
</event>
<event>
 4    0  0.2205135E-002  0.1812770E+03  0.7546771E-02  0.1166573E+00
         21   -1    0    0  502  501  0.00000000000E+00  0.00000000000E+00  0.32332846488E+03  0.32332846488E+03  0.00000000000E+00 0.  1.
         21   -1    0    0  501  502 -0.00000000000E+00 -0.00000000000E+00 -0.10163453585E+03  0.10163453585E+03  0.00000000000E+00 0.  1.
         25    1    1    2    0    0  0.98011573668E+02  0.86821003764E+02  0.99593030656E+02  0.20661056852E+03  0.12500000000E+03 0.  0.
         25    1    1    2    0    0 -0.98011573668E+02 -0.86821003764E+02  0.12210089838E+03  0.21835243221E+03  0.12500000000E+03 0.  0.
</event>
<event>
 4    0  0.2205135E-002  0.2717937E+03  0.7546771E-02  0.1100257E+00
         21   -1    0    0  502  501  0.00000000000E+00  0.00000000000E+00  0.13936599210E+03  0.13936599210E+03  0.00000000000E+00 0.  1.
         21   -1    0    0  501  502 -0.00000000000E+00 -0.00000000000E+00 -0.53005627410E+03  0.53005627410E+03  0.00000000000E+00 0.  1.
         25    1    1    2    0    0 -0.20680153726E+02  0.13988322369E+03  0.45510538237E+02  0.19414220077E+03  0.12500000000E+03 0.  0.
         25    1    1    2    0    0  0.20680153726E+02 -0.13988322369E+03 -0.43620082024E+03  0.47528006544E+03  0.12500000000E+03 0.  0.
</event>
<event>
 4    0  0.2205135E-002  0.2646473E+03  0.7546771E-02  0.1104383E+00
         21   -1    0    0  502  501  0.00000000000E+00  0.00000000000E+00  0.33329796130E+03  0.33329796130E+03  0.00000000000E+00 0. -1.
         21   -1    0    0  501  502 -0.00000000000E+00 -0.00000000000E+00 -0.21013681441E+03  0.21013681441E+03  0.00000000000E+00 0. -1.
         25    1    1    2    0    0 -0.11743700080E+03 -0.37983491022E+02 -0.14164416657E+03  0.22565962126E+03  0.12500000000E+03 0.  0.
         25    1    1    2    0    0  0.11743700080E+03  0.37983491022E+02  0.26480531345E+03  0.31777515444E+03  0.12500000000E+03 0.  0.
</event>
<event>
 4    0  0.2205135E-002  0.1771148E+03  0.7546771E-02  0.1170625E+00
         21   -1    0    0  502  501  0.00000000000E+00  0.00000000000E+00  0.44738497309E+03  0.44738497309E+03  0.00000000000E+00 0. -1.
         21   -1    0    0  501  502 -0.00000000000E+00 -0.00000000000E+00 -0.70117841962E+02  0.70117841962E+02  0.00000000000E+00 0. -1.
         25    1    1    2    0    0  0.10040760816E+01  0.12514511643E+03  0.17537528350E+03  0.24908592573E+03  0.12500000000E+03 0.  0.
         25    1    1    2    0    0 -0.10040760816E+01 -0.12514511643E+03  0.20189184764E+03  0.26841688933E+03  0.12500000000E+03 0.  0.
</event>
<event>
 4    0  0.2205135E-002  0.2173532E+03  0.7546771E-02  0.1135872E+00
         21   -1    0    0  502  501  0.00000000000E+00  0.00000000000E+00  0.86498437164E+03  0.86498437164E+03  0.00000000000E+00 0.  1.
         21   -1    0    0  501  502 -0.00000000000E+00 -0.00000000000E+00 -0.54616513024E+02  0.54616513024E+02  0.00000000000E+00 0.  1.
         25    1    1    2    0    0  0.17360240567E+03 -0.21034828355E+02  0.47331236858E+03  0.51983637571E+03  0.12500000000E+03 0.  0.
         25    1    1    2    0    0 -0.17360240567E+03  0.21034828355E+02  0.33705549004E+03  0.39976450896E+03  0.12500000000E+03 0.  0.
</event>
<event>
 4    0  0.2205135E-002  0.1898535E+03  0.7546771E-02  0.1158594E+00
         21   -1    0    0  502  501  0.00000000000E+00  0.00000000000E+00  0.20606035237E+04  0.20606035237E+04  0.00000000000E+00 0. -1.
         21   -1    0    0  501  502 -0.00000000000E+00 -0.00000000000E+00 -0.17492131712E+02  0.17492131712E+02  0.00000000000E+00 0. -1.
         25    1    1    2    0    0 -0.13845593240E+03  0.16311983141E+01  0.12147916188E+04  0.12290306681E+04  0.12500000000E+03 0.  0.
         25    1    1    2    0    0  0.13845593240E+03 -0.16311983141E+01  0.82831977319E+03  0.84906498731E+03  0.12500000000E+03 0.  0.
</event>
<event>
 4    0  0.2205135E-002  0.2611638E+03  0.7546771E-02  0.1106446E+00
         21   -1    0    0  502  501  0.00000000000E+00  0.00000000000E+00  0.27116493084E+03  0.27116493084E+03  0.00000000000E+00 0. -1.
         21   -1    0    0  501  502 -0.00000000000E+00 -0.00000000000E+00 -0.25153161517E+03  0.25153161517E+03  0.00000000000E+00 0. -1.
         25    1    1    2    0    0  0.13721385709E+03  0.18206982535E+03 -0.14787065768E+02  0.26042411792E+03  0.12500000000E+03 0.  0.
         25    1    1    2    0    0 -0.13721385709E+03 -0.18206982535E+03  0.34420381434E+02  0.26227242810E+03  0.12500000000E+03 0.  0.
</event>
<event>
 4    0  0.2205135E-002  0.2785874E+03  0.7546771E-02  0.1096463E+00
         21   -1    0    0  502  501  0.00000000000E+00  0.00000000000E+00  0.24906525904E+03  0.24906525904E+03  0.00000000000E+00 0. -1.
         21   -1    0    0  501  502 -0.00000000000E+00 -0.00000000000E+00 -0.31160894180E+03  0.31160894180E+03  0.00000000000E+00 0. -1.
         25    1    1    2    0    0  0.15993989210E+03 -0.12015029486E+03 -0.18042249842E+03  0.29697498274E+03  0.12500000000E+03 0.  0.
         25    1    1    2    0    0 -0.15993989210E+03  0.12015029486E+03  0.11787881567E+03  0.26369921809E+03  0.12500000000E+03 0.  0.
</event>
<event>
 4    0  0.2205135E-002  0.1701327E+03  0.7546771E-02  0.1177710E+00
         21   -1    0    0  502  501  0.00000000000E+00  0.00000000000E+00  0.59678856349E+03  0.59678856349E+03  0.00000000000E+00 0.  1.
         21   -1    0    0  501  502 -0.00000000000E+00 -0.00000000000E+00 -0.48501480417E+02  0.48501480417E+02  0.00000000000E+00 0.  1.
         25    1    1    2    0    0 -0.66016848517E+02  0.81111206246E+02  0.18156975754E+03  0.24398735402E+03  0.12500000000E+03 0.  0.
         25    1    1    2    0    0  0.66016848517E+02 -0.81111206246E+02  0.36671732554E+03  0.40130268989E+03  0.12500000000E+03 0.  0.
</event>
<event>
 4    0  0.2205135E-002  0.1961206E+03  0.7546771E-02  0.1153054E+00
         21   -1    0    0  502  501  0.00000000000E+00  0.00000000000E+00  0.28796925777E+03  0.28796925777E+03  0.00000000000E+00 0. -1.
         21   -1    0    0  501  502 -0.00000000000E+00 -0.00000000000E+00 -0.13356732458E+03  0.13356732458E+03  0.00000000000E+00 0. -1.
         25    1    1    2    0    0 -0.14388599223E+03 -0.41448379909E+02  0.99150289306E+02  0.21880796792E+03  0.12500000000E+03 0.  0.
         25    1    1    2    0    0  0.14388599223E+03  0.41448379909E+02  0.55251643881E+02  0.20272861443E+03  0.12500000000E+03 0.  0.
</event>
<event>
 4    0  0.2205135E-002  0.2240418E+03  0.7546771E-02  0.1130905E+00
         21   -1    0    0  502  501  0.00000000000E+00  0.00000000000E+00  0.39342874057E+02  0.39342874057E+02  0.00000000000E+00 0. -1.
         21   -1    0    0  501  502 -0.00000000000E+00 -0.00000000000E+00 -0.12758276639E+04  0.12758276639E+04  0.00000000000E+00 0. -1.
         25    1    1    2    0    0  0.93694199677E+02  0.12322783933E+03 -0.92051537161E+03  0.94177346151E+03  0.12500000000E+03 0.  0.
         25    1    1    2    0    0 -0.93694199677E+02 -0.12322783933E+03 -0.31596941823E+03  0.37339707644E+03  0.12500000000E+03 0.  0.
</event>
<event>
 4    0  0.2205135E-002  0.3132364E+03  0.7546771E-02  0.1078805E+00
         21   -1    0    0  502  501  0.00000000000E+00  0.00000000000E+00  0.48419453729E+03  0.48419453729E+03  0.00000000000E+00 0.  1.
         21   -1    0    0  501  502 -0.00000000000E+00 -0.00000000000E+00 -0.20263974927E+03  0.20263974927E+03  0.00000000000E+00 0.  1.
         25    1    1    2    0    0  0.70746964365E+02 -0.52570148520E+01 -0.16435369992E+03  0.21833439457E+03  0.12500000000E+03 0.  0.
         25    1    1    2    0    0 -0.70746964365E+02  0.52570148520E+01  0.44590848794E+03  0.46849989199E+03  0.12500000000E+03 0.  0.
</event>
<event>
 4    0  0.2205135E-002  0.2407699E+03  0.7546771E-02  0.1119281E+00
         21   -1    0    0  502  501  0.00000000000E+00  0.00000000000E+00  0.76337459749E+02  0.76337459749E+02  0.00000000000E+00 0.  1.
         21   -1    0    0  501  502 -0.00000000000E+00 -0.00000000000E+00 -0.75939290746E+03  0.75939290746E+03  0.00000000000E+00 0.  1.
         25    1    1    2    0    0  0.46068029276E+02  0.94146145745E+02 -0.64886674237E+03  0.66905815101E+03  0.12500000000E+03 0.  0.
         25    1    1    2    0    0 -0.46068029276E+02 -0.94146145745E+02 -0.34188705344E+02  0.16667221620E+03  0.12500000000E+03 0.  0.
</event>
<event>
 4    0  0.2205135E-002  0.4298118E+03  0.7546771E-02  0.1033919E+00
         21   -1    0    0  502  501  0.00000000000E+00  0.00000000000E+00  0.86991441183E+03  0.86991441183E+03  0.00000000000E+00 0. -1.
         21   -1    0    0  501  502 -0.00000000000E+00 -0.00000000000E+00 -0.21236363686E+03  0.21236363686E+03  0.00000000000E+00 0. -1.
         25    1    1    2    0    0  0.28647234948E+03  0.19666672128E+02 -0.41854010949E+02  0.31595876826E+03  0.12500000000E+03 0.  0.
         25    1    1    2    0    0 -0.28647234948E+03 -0.19666672128E+02  0.69940478591E+03  0.76631928043E+03  0.12500000000E+03 0.  0.
</event>
<event>
 4    0  0.2205135E-002  0.1850842E+03  0.7546771E-02  0.1162971E+00
         21   -1    0    0  502  501  0.00000000000E+00  0.00000000000E+00  0.36484405121E+02  0.36484405121E+02  0.00000000000E+00 0.  1.
         21   -1    0    0  501  502 -0.00000000000E+00 -0.00000000000E+00 -0.93892623052E+03  0.93892623052E+03  0.00000000000E+00 0.  1.
         25    1    1    2    0    0 -0.12059092841E+02  0.69129778940E+02 -0.14272001914E+03  0.20228285128E+03  0.12500000000E+03 0.  0.
         25    1    1    2    0    0  0.12059092841E+02 -0.69129778940E+02 -0.75972180625E+03  0.77312778436E+03  0.12500000000E+03 0.  0.
</event>
<event>
 4    0  0.2205135E-002  0.1561195E+03  0.7546771E-02  0.1193149E+00
         21   -1    0    0  502  501  0.00000000000E+00  0.00000000000E+00  0.13251017885E+02  0.13251017885E+02  0.00000000000E+00 0.  1.
         21   -1    0    0  501  502 -0.00000000000E+00 -0.00000000000E+00 -0.18393522146E+04  0.18393522146E+04  0.00000000000E+00 0.  1.
         25    1    1    2    0    0  0.69211542243E+02  0.57519855952E+02 -0.10642641945E+04  0.10753520573E+04  0.12500000000E+03 0.  0.
         25    1    1    2    0    0 -0.69211542243E+02 -0.57519855952E+02 -0.76183700218E+03  0.77725117517E+03  0.12500000000E+03 0.  0.
</event>
<event>
 4    0  0.2205135E-002  0.2182497E+03  0.7546771E-02  0.1135195E+00
         21   -1    0    0  502  501  0.00000000000E+00  0.00000000000E+00  0.83541306199E+03  0.83541306199E+03  0.00000000000E+00 0. -1.
         21   -1    0    0  501  502 -0.00000000000E+00 -0.00000000000E+00 -0.57017246303E+02  0.57017246303E+02  0.00000000000E+00 0. -1.
         25    1    1    2    0    0 -0.10393829816E+02  0.17157713514E+03  0.28776831915E+03  0.35774620964E+03  0.12500000000E+03 0.  0.
         25    1    1    2    0    0  0.10393829816E+02 -0.17157713514E+03  0.49062749653E+03  0.53468409865E+03  0.12500000000E+03 0.  0.
</event>
<event>
 4    0  0.2205135E-002  0.1582279E+03  0.7546771E-02  0.1190712E+00
         21   -1    0    0  502  501  0.00000000000E+00  0.00000000000E+00  0.43102248155E+03  0.43102248155E+03  0.00000000000E+00 0.  1.
         21   -1    0    0  501  502 -0.00000000000E+00 -0.00000000000E+00 -0.58085283160E+02  0.58085283160E+02  0.00000000000E+00 0.  1.
         25    1    1    2    0    0  0.50748675824E+02 -0.31071857303E+02  0.30488641591E+03  0.33484565850E+03  0.12500000000E+03 0.  0.
         25    1    1    2    0    0 -0.50748675824E+02  0.31071857303E+02  0.68050782480E+02  0.15426210620E+03  0.12500000000E+03 0.  0.
</event>
<event>
 4    0  0.2205135E-002  0.1891716E+03  0.7546771E-02  0.1159211E+00
         21   -1    0    0  502  501  0.00000000000E+00  0.00000000000E+00  0.13268759774E+03  0.13268759774E+03  0.00000000000E+00 0. -1.
         21   -1    0    0  501  502 -0.00000000000E+00 -0.00000000000E+00 -0.26970045903E+03  0.26970045903E+03  0.00000000000E+00 0. -1.
         25    1    1    2    0    0 -0.10374882936E+03  0.27510853652E+01  0.34551335888E+02  0.16610292856E+03  0.12500000000E+03 0.  0.
         25    1    1    2    0    0  0.10374882936E+03 -0.27510853652E+01 -0.17156419718E+03  0.23628512822E+03  0.12500000000E+03 0.  0.
</event>
<event>
 4    0  0.2205135E-002  0.3030644E+03  0.7546771E-02  0.1083719E+00
         21   -1    0    0  502  501  0.00000000000E+00  0.00000000000E+00  0.18862391740E+04  0.18862391740E+04  0.00000000000E+00 0.  1.
         21   -1    0    0  501  502 -0.00000000000E+00 -0.00000000000E+00 -0.48693739776E+02  0.48693739776E+02  0.00000000000E+00 0.  1.
         25    1    1    2    0    0 -0.23646076335E+03  0.14213504130E+03  0.88575507735E+03  0.93611063428E+03  0.12500000000E+03 0.  0.
         25    1    1    2    0    0  0.23646076335E+03 -0.14213504130E+03  0.95179035691E+03  0.99882227953E+03  0.12500000000E+03 0.  0.
</event>
<event>
 4    0  0.2205135E-002  0.2475406E+03  0.7546771E-02  0.1114869E+00
         21   -1    0    0  502  501  0.00000000000E+00  0.00000000000E+00  0.65191497056E+03  0.65191497056E+03  0.00000000000E+00 0. -1.
         21   -1    0    0  501  502 -0.00000000000E+00 -0.00000000000E+00 -0.93994403484E+02  0.93994403484E+02  0.00000000000E+00 0. -1.
         25    1    1    2    0    0 -0.39095145545E+02 -0.42432758878E+02 -0.30991887975E+02  0.14111862581E+03  0.12500000000E+03 0.  0.
         25    1    1    2    0    0  0.39095145545E+02  0.42432758878E+02  0.58891245505E+03  0.60479074823E+03  0.12500000000E+03 0.  0.
</event>
<event>
 4    0  0.2205135E-002  0.2385752E+03  0.7546771E-02  0.1120746E+00
         21   -1    0    0  502  501  0.00000000000E+00  0.00000000000E+00  0.86036928241E+02  0.86036928241E+02  0.00000000000E+00 0.  1.
         21   -1    0    0  501  502 -0.00000000000E+00 -0.00000000000E+00 -0.66155437466E+03  0.66155437466E+03  0.00000000000E+00 0.  1.
         25    1    1    2    0    0  0.14480772679E+03  0.25868441420E+02 -0.50741403292E+03  0.54289267337E+03  0.12500000000E+03 0.  0.
         25    1    1    2    0    0 -0.14480772679E+03 -0.25868441420E+02 -0.68103413505E+02  0.20469862953E+03  0.12500000000E+03 0.  0.
</event>
<event>
 4    0  0.2205135E-002  0.2262027E+03  0.7546771E-02  0.1129341E+00
         21   -1    0    0  502  501  0.00000000000E+00  0.00000000000E+00  0.16158938579E+02  0.16158938579E+02  0.00000000000E+00 0.  1.
         21   -1    0    0  501  502 -0.00000000000E+00 -0.00000000000E+00 -0.31665245665E+04  0.31665245665E+04  0.00000000000E+00 0.  1.
         25    1    1    2    0    0 -0.40851759249E+02  0.41759191559E+02 -0.31416611698E+03  0.34312977920E+03  0.12500000000E+03 0.  0.
         25    1    1    2    0    0  0.40851759249E+02 -0.41759191559E+02 -0.28361995109E+04  0.28395537259E+04  0.12500000000E+03 0.  0.
</event>
<event>
 4    0  0.2205135E-002  0.2969389E+03  0.7546771E-02  0.1086781E+00
         21   -1    0    0  502  501  0.00000000000E+00  0.00000000000E+00  0.13265825415E+03  0.13265825415E+03  0.00000000000E+00 0.  1.
         21   -1    0    0  501  502 -0.00000000000E+00 -0.00000000000E+00 -0.66466065711E+03  0.66466065711E+03  0.00000000000E+00 0.  1.
         25    1    1    2    0    0  0.54617881194E+02 -0.23778786677E+03 -0.11279860829E+03  0.29643668558E+03  0.12500000000E+03 0.  0.
         25    1    1    2    0    0 -0.54617881194E+02  0.23778786677E+03 -0.41920379467E+03  0.50088222567E+03  0.12500000000E+03 0.  0.
</event>
<event>
 4    0  0.2205135E-002  0.2083992E+03  0.7546771E-02  0.1142840E+00
         21   -1    0    0  502  501  0.00000000000E+00  0.00000000000E+00  0.13088274411E+02  0.13088274411E+02  0.00000000000E+00 0. -1.
         21   -1    0    0  501  502 -0.00000000000E+00 -0.00000000000E+00 -0.33182548638E+04  0.33182548638E+04  0.00000000000E+00 0. -1.
         25    1    1    2    0    0 -0.73217781063E+02 -0.13814771411E+03 -0.21158561188E+04  0.21253041546E+04  0.12500000000E+03 0.  0.
         25    1    1    2    0    0  0.73217781063E+02  0.13814771411E+03 -0.11893104706E+04  0.12060389836E+04  0.12500000000E+03 0.  0.
</event>
<event>
 4    0  0.2205135E-002  0.2339310E+03  0.7546771E-02  0.1123903E+00
         21   -1    0    0  502  501  0.00000000000E+00  0.00000000000E+00  0.49073578362E+03  0.49073578362E+03  0.00000000000E+00 0.  1.
         21   -1    0    0  501  502 -0.00000000000E+00 -0.00000000000E+00 -0.11151363884E+03  0.11151363884E+03  0.00000000000E+00 0.  1.
         25    1    1    2    0    0  0.12162405137E+03 -0.14139833797E+03  0.10507542859E+03  0.24789462590E+03  0.12500000000E+03 0.  0.
         25    1    1    2    0    0 -0.12162405137E+03  0.14139833797E+03  0.27414671618E+03  0.35435479656E+03  0.12500000000E+03 0.  0.
</event>
<event>
 4    0  0.2205135E-002  0.2450020E+03  0.7546771E-02  0.1116505E+00
         21   -1    0    0  502  501  0.00000000000E+00  0.00000000000E+00  0.46800718046E+02  0.46800718046E+02  0.00000000000E+00 0.  1.
         21   -1    0    0  501  502 -0.00000000000E+00 -0.00000000000E+00 -0.12825871075E+04  0.12825871075E+04  0.00000000000E+00 0.  1.
         25    1    1    2    0    0 -0.17727173155E+03 -0.13697944095E+01 -0.92691314546E+03  0.95195594560E+03  0.12500000000E+03 0.  0.
         25    1    1    2    0    0  0.17727173155E+03  0.13697944095E+01 -0.30887324400E+03  0.37743187995E+03  0.12500000000E+03 0.  0.
</event>
<event>
 4    0  0.2205135E-002  0.1316328E+03  0.7546771E-02  0.1225053E+00
         21   -1    0    0  502  501  0.00000000000E+00  0.00000000000E+00  0.61139916998E+02  0.61139916998E+02  0.00000000000E+00 0.  1.
         21   -1    0    0  501  502 -0.00000000000E+00 -0.00000000000E+00 -0.28340251677E+03  0.28340251677E+03  0.00000000000E+00 0.  1.
         25    1    1    2    0    0  0.41404545346E+01  0.18380205448E+02 -0.15916759312E+03  0.20325918925E+03  0.12500000000E+03 0.  0.
         25    1    1    2    0    0 -0.41404545346E+01 -0.18380205448E+02 -0.63095006649E+02  0.14128324451E+03  0.12500000000E+03 0.  0.
</event>
<event>
 4    0  0.2205135E-002  0.1751875E+03  0.7546771E-02  0.1172544E+00
         21   -1    0    0  502  501  0.00000000000E+00  0.00000000000E+00  0.39914403426E+03  0.39914403426E+03  0.00000000000E+00 0. -1.
         21   -1    0    0  501  502 -0.00000000000E+00 -0.00000000000E+00 -0.76891192253E+02  0.76891192253E+02  0.00000000000E+00 0. -1.
         25    1    1    2    0    0 -0.66258877511E+02  0.86281865927E+01  0.21238921446E+02  0.14332053669E+03  0.12500000000E+03 0.  0.
         25    1    1    2    0    0  0.66258877511E+02 -0.86281865927E+01  0.30101392056E+03  0.33271468982E+03  0.12500000000E+03 0.  0.
</event>
<event>
 4    0  0.2205135E-002  0.1609760E+03  0.7546771E-02  0.1187599E+00
         21   -1    0    0  502  501  0.00000000000E+00  0.00000000000E+00  0.21759661212E+04  0.21759661212E+04  0.00000000000E+00 0. -1.
         21   -1    0    0  501  502 -0.00000000000E+00 -0.00000000000E+00 -0.11908852446E+02  0.11908852446E+02  0.00000000000E+00 0. -1.
         25    1    1    2    0    0  0.82711547160E+01  0.88289088327E+02  0.14166679767E+04  0.14249338691E+04  0.12500000000E+03 0.  0.
         25    1    1    2    0    0 -0.82711547160E+01 -0.88289088327E+02  0.74738929204E+03  0.76294110452E+03  0.12500000000E+03 0.  0.
</event>
<event>
 4    0  0.2205135E-002  0.1944745E+03  0.7546771E-02  0.1154486E+00
         21   -1    0    0  502  501  0.00000000000E+00  0.00000000000E+00  0.24941732950E+03  0.24941732950E+03  0.00000000000E+00 0. -1.
         21   -1    0    0  501  502 -0.00000000000E+00 -0.00000000000E+00 -0.15163478566E+03  0.15163478566E+03  0.00000000000E+00 0. -1.
         25    1    1    2    0    0  0.55706952665E+02 -0.49762947058E+02 -0.84021821820E+02  0.16811984421E+03  0.12500000000E+03 0.  0.
         25    1    1    2    0    0 -0.55706952665E+02  0.49762947058E+02  0.18180436567E+03  0.23293227095E+03  0.12500000000E+03 0.  0.
</event>
<event>
 4    0  0.2205135E-002  0.1560285E+03  0.7546771E-02  0.1193255E+00
         21   -1    0    0  502  501  0.00000000000E+00  0.00000000000E+00  0.16003459445E+04  0.16003459445E+04  0.00000000000E+00 0.  1.
         21   -1    0    0  501  502 -0.00000000000E+00 -0.00000000000E+00 -0.15212274591E+02  0.15212274591E+02  0.00000000000E+00 0.  1.
         25    1    1    2    0    0 -0.61594817892E+02  0.45889488240E+01  0.11551475083E+04  0.11635315836E+04  0.12500000000E+03 0.  0.
         25    1    1    2    0    0  0.61594817892E+02 -0.45889488240E+01  0.42998616163E+03  0.45202663553E+03  0.12500000000E+03 0.  0.
</event>
<event>
 4    0  0.2205135E-002  0.2127160E+03  0.7546771E-02  0.1139433E+00
         21   -1    0    0  502  501  0.00000000000E+00  0.00000000000E+00  0.17157314093E+04  0.17157314093E+04  0.00000000000E+00 0.  1.
         21   -1    0    0  501  502 -0.00000000000E+00 -0.00000000000E+00 -0.26372474171E+02  0.26372474171E+02  0.00000000000E+00 0.  1.
         25    1    1    2    0    0  0.79836277686E+02  0.14704906999E+03  0.10097921642E+04  0.10311655905E+04  0.12500000000E+03 0.  0.
         25    1    1    2    0    0 -0.79836277686E+02 -0.14704906999E+03  0.67956677096E+03  0.71093829297E+03  0.12500000000E+03 0.  0.
</event>
<event>
 4    0  0.2205135E-002  0.2638422E+03  0.7546771E-02  0.1104856E+00
         21   -1    0    0  502  501  0.00000000000E+00  0.00000000000E+00  0.19073245517E+03  0.19073245517E+03  0.00000000000E+00 0. -1.
         21   -1    0    0  501  502 -0.00000000000E+00 -0.00000000000E+00 -0.36497576796E+03  0.36497576796E+03  0.00000000000E+00 0. -1.
         25    1    1    2    0    0  0.10542491729E+03 -0.72564756550E+02  0.11710419261E+03  0.21381872931E+03  0.12500000000E+03 0.  0.
         25    1    1    2    0    0 -0.10542491729E+03  0.72564756550E+02 -0.29134750540E+03  0.34188949382E+03  0.12500000000E+03 0.  0.
</event>
<event>
 4    0  0.2205135E-002  0.2543919E+03  0.7546771E-02  0.1110560E+00
         21   -1    0    0  502  501  0.00000000000E+00  0.00000000000E+00  0.75924497344E+02  0.75924497344E+02  0.00000000000E+00 0.  1.
         21   -1    0    0  501  502 -0.00000000000E+00 -0.00000000000E+00 -0.85236291257E+03  0.85236291257E+03  0.00000000000E+00 0.  1.
         25    1    1    2    0    0 -0.12416523394E+03  0.18281449187E+03 -0.41718731307E+03  0.48837321583E+03  0.12500000000E+03 0.  0.
         25    1    1    2    0    0  0.12416523394E+03 -0.18281449187E+03 -0.35925110216E+03  0.43991419408E+03  0.12500000000E+03 0.  0.
</event>
<event>
 4    0  0.2205135E-002  0.2078399E+03  0.7546771E-02  0.1143288E+00
         21   -1    0    0  502  501  0.00000000000E+00  0.00000000000E+00  0.16801895327E+04  0.16801895327E+04  0.00000000000E+00 0. -1.
         21   -1    0    0  501  502 -0.00000000000E+00 -0.00000000000E+00 -0.25709849083E+02  0.25709849083E+02  0.00000000000E+00 0. -1.
         25    1    1    2    0    0  0.85242142861E+02  0.41921833871E+02  0.13861627525E+04  0.13950253903E+04  0.12500000000E+03 0.  0.
         25    1    1    2    0    0 -0.85242142861E+02 -0.41921833871E+02  0.26831693109E+03  0.31087399149E+03  0.12500000000E+03 0.  0.
</event>
<event>
 4    0  0.2205135E-002  0.2238573E+03  0.7546771E-02  0.1131039E+00
         21   -1    0    0  502  501  0.00000000000E+00  0.00000000000E+00  0.81356495868E+03  0.81356495868E+03  0.00000000000E+00 0.  1.
         21   -1    0    0  501  502 -0.00000000000E+00 -0.00000000000E+00 -0.61595705445E+02  0.61595705445E+02  0.00000000000E+00 0.  1.
         25    1    1    2    0    0  0.34182722499E+02 -0.78081941571E+02  0.69849623640E+03  0.71469380884E+03  0.12500000000E+03 0.  0.
         25    1    1    2    0    0 -0.34182722499E+02  0.78081941571E+02  0.53473016828E+02  0.16046685529E+03  0.12500000000E+03 0.  0.
</event>
<event>
 4    0  0.2205135E-002  0.2564312E+03  0.7546771E-02  0.1109307E+00
         21   -1    0    0  502  501  0.00000000000E+00  0.00000000000E+00  0.58201996647E+03  0.58201996647E+03  0.00000000000E+00 0.  1.
         21   -1    0    0  501  502 -0.00000000000E+00 -0.00000000000E+00 -0.11298058594E+03  0.11298058594E+03  0.00000000000E+00 0.  1.
         25    1    1    2    0    0  0.77908951554E+02  0.19427594968E+03  0.12679661682E+03  0.27480053019E+03  0.12500000000E+03 0.  0.
         25    1    1    2    0    0 -0.77908951554E+02 -0.19427594968E+03  0.34224276371E+03  0.42020002221E+03  0.12500000000E+03 0.  0.
</event>
<event>
 4    0  0.2205135E-002  0.1922713E+03  0.7546771E-02  0.1156429E+00
         21   -1    0    0  502  501  0.00000000000E+00  0.00000000000E+00  0.41132076539E+03  0.41132076539E+03  0.00000000000E+00 0. -1.
         21   -1    0    0  501  502 -0.00000000000E+00 -0.00000000000E+00 -0.89876975061E+02  0.89876975061E+02  0.00000000000E+00 0. -1.
         25    1    1    2    0    0 -0.10978689463E+03 -0.94894770466E+02  0.18272849147E+03  0.26471282797E+03  0.12500000000E+03 0.  0.
         25    1    1    2    0    0  0.10978689463E+03  0.94894770466E+02  0.13871529886E+03  0.23648491248E+03  0.12500000000E+03 0.  0.
</event>
<event>
 4    0  0.2205135E-002  0.1892889E+03  0.7546771E-02  0.1159104E+00
         21   -1    0    0  502  501  0.00000000000E+00  0.00000000000E+00  0.59843276861E+03  0.59843276861E+03  0.00000000000E+00 0. -1.
         21   -1    0    0  501  502 -0.00000000000E+00 -0.00000000000E+00 -0.59873559514E+02  0.59873559514E+02  0.00000000000E+00 0. -1.
         25    1    1    2    0    0  0.11125501535E+03 -0.10202967557E+02  0.11645950512E+03  0.20413131881E+03  0.12500000000E+03 0.  0.
         25    1    1    2    0    0 -0.11125501535E+03  0.10202967557E+02  0.42209970398E+03  0.45417500931E+03  0.12500000000E+03 0.  0.
</event>
<event>
 4    0  0.2205135E-002  0.2666781E+03  0.7546771E-02  0.1103196E+00
         21   -1    0    0  502  501  0.00000000000E+00  0.00000000000E+00  0.12150874215E+03  0.12150874215E+03  0.00000000000E+00 0.  1.
         21   -1    0    0  501  502 -0.00000000000E+00 -0.00000000000E+00 -0.58528459693E+03  0.58528459693E+03  0.00000000000E+00 0.  1.
         25    1    1    2    0    0  0.16038558028E+02  0.20377117216E+03 -0.38706580516E+03  0.45521957721E+03  0.12500000000E+03 0.  0.
         25    1    1    2    0    0 -0.16038558028E+02 -0.20377117216E+03 -0.76710049630E+02  0.25157376187E+03  0.12500000000E+03 0.  0.
</event>
<event>
 4    0  0.2205135E-002  0.1977334E+03  0.7546771E-02  0.1151666E+00
         21   -1    0    0  502  501  0.00000000000E+00  0.00000000000E+00  0.17443737634E+03  0.17443737634E+03  0.00000000000E+00 0. -1.
         21   -1    0    0  501  502 -0.00000000000E+00 -0.00000000000E+00 -0.22414056621E+03  0.22414056621E+03  0.00000000000E+00 0. -1.
         25    1    1    2    0    0 -0.12115434300E+03 -0.86266051927E+02 -0.61928033932E+02  0.20391245163E+03  0.12500000000E+03 0.  0.
         25    1    1    2    0    0  0.12115434300E+03  0.86266051927E+02  0.12224844061E+02  0.19466549092E+03  0.12500000000E+03 0.  0.
</event>
<event>
 4    0  0.2205135E-002  0.1827684E+03  0.7546771E-02  0.1165150E+00
         21   -1    0    0  502  501  0.00000000000E+00  0.00000000000E+00  0.12111071503E+03  0.12111071503E+03  0.00000000000E+00 0.  1.
         21   -1    0    0  501  502 -0.00000000000E+00 -0.00000000000E+00 -0.27581620482E+03  0.27581620482E+03  0.00000000000E+00 0.  1.
         25    1    1    2    0    0 -0.10256714062E+02 -0.11814831815E+03 -0.14353827214E+03  0.22425980655E+03  0.12500000000E+03 0.  0.
         25    1    1    2    0    0  0.10256714062E+02  0.11814831815E+03 -0.11167217645E+02  0.17266711330E+03  0.12500000000E+03 0.  0.
</event>
<event>
 4    0  0.2205135E-002  0.2101381E+03  0.7546771E-02  0.1141457E+00
         21   -1    0    0  502  501  0.00000000000E+00  0.00000000000E+00  0.15601232330E+03  0.15601232330E+03  0.00000000000E+00 0.  1.
         21   -1    0    0  501  502 -0.00000000000E+00 -0.00000000000E+00 -0.28304182479E+03  0.28304182479E+03  0.00000000000E+00 0.  1.
         25    1    1    2    0    0 -0.10107662092E+03 -0.59048526470E+02  0.63703959770E+02  0.18271947424E+03  0.12500000000E+03 0.  0.
         25    1    1    2    0    0  0.10107662092E+03  0.59048526470E+02 -0.19073346126E+03  0.25633467385E+03  0.12500000000E+03 0.  0.
</event>
<event>
 4    0  0.2205135E-002  0.2530170E+03  0.7546771E-02  0.1111413E+00
         21   -1    0    0  502  501  0.00000000000E+00  0.00000000000E+00  0.40149646794E+03  0.40149646794E+03  0.00000000000E+00 0.  1.
         21   -1    0    0  501  502 -0.00000000000E+00 -0.00000000000E+00 -0.15944751210E+03  0.15944751210E+03  0.00000000000E+00 0.  1.
         25    1    1    2    0    0  0.34340048143E+01 -0.15040287750E+03 -0.56889864135E+02  0.20370143492E+03  0.12500000000E+03 0.  0.
         25    1    1    2    0    0 -0.34340048143E+01  0.15040287750E+03  0.29893881998E+03  0.35724254512E+03  0.12500000000E+03 0.  0.
</event>
<event>
 4    0  0.2205135E-002  0.2102231E+03  0.7546771E-02  0.1141389E+00
         21   -1    0    0  502  501  0.00000000000E+00  0.00000000000E+00  0.70233850548E+03  0.70233850548E+03  0.00000000000E+00 0. -1.
         21   -1    0    0  501  502 -0.00000000000E+00 -0.00000000000E+00 -0.62923741035E+02  0.62923741035E+02  0.00000000000E+00 0. -1.
         25    1    1    2    0    0  0.61670884253E+02  0.15512819621E+03  0.36788765538E+03  0.42288814384E+03  0.12500000000E+03 0.  0.
         25    1    1    2    0    0 -0.61670884253E+02 -0.15512819621E+03  0.27152710907E+03  0.34237410267E+03  0.12500000000E+03 0.  0.
</event>
<event>
 4    0  0.2205135E-002  0.1903998E+03  0.7546771E-02  0.1158101E+00
         21   -1    0    0  502  501  0.00000000000E+00  0.00000000000E+00  0.13106486837E+03  0.13106486837E+03  0.00000000000E+00 0.  1.
         21   -1    0    0  501  502 -0.00000000000E+00 -0.00000000000E+00 -0.27659652607E+03  0.27659652607E+03  0.00000000000E+00 0.  1.
         25    1    1    2    0    0  0.35581168740E+01 -0.14265254070E+03 -0.90182430184E+02  0.21004827607E+03  0.12500000000E+03 0.  0.
         25    1    1    2    0    0 -0.35581168740E+01  0.14265254070E+03 -0.55349227516E+02  0.19761311837E+03  0.12500000000E+03 0.  0.
</event>
<event>
 4    0  0.2205135E-002  0.1949672E+03  0.7546771E-02  0.1154056E+00
         21   -1    0    0  502  501  0.00000000000E+00  0.00000000000E+00  0.11560697991E+03  0.11560697991E+03  0.00000000000E+00 0. -1.
         21   -1    0    0  501  502 -0.00000000000E+00 -0.00000000000E+00 -0.32880545831E+03  0.32880545831E+03  0.00000000000E+00 0. -1.
         25    1    1    2    0    0 -0.53146348067E+02 -0.12243613130E+03 -0.18366312295E+03  0.25917616266E+03  0.12500000000E+03 0.  0.
         25    1    1    2    0    0  0.53146348067E+02  0.12243613130E+03 -0.29535355454E+02  0.18523627556E+03  0.12500000000E+03 0.  0.
</event>
<event>
 4    0  0.2205135E-002  0.1906039E+03  0.7546771E-02  0.1157918E+00
         21   -1    0    0  502  501  0.00000000000E+00  0.00000000000E+00  0.12039159984E+03  0.12039159984E+03  0.00000000000E+00 0. -1.
         21   -1    0    0  501  502 -0.00000000000E+00 -0.00000000000E+00 -0.30176381692E+03  0.30176381692E+03  0.00000000000E+00 0. -1.
         25    1    1    2    0    0  0.10668664020E+03 -0.85297207640E+02 -0.40580277258E+02  0.18955055192E+03  0.12500000000E+03 0.  0.
         25    1    1    2    0    0 -0.10668664020E+03  0.85297207640E+02 -0.14079193983E+03  0.23260486484E+03  0.12500000000E+03 0.  0.
</event>
<event>
 4    0  0.2205135E-002  0.2698122E+03  0.7546771E-02  0.1101387E+00
         21   -1    0    0  502  501  0.00000000000E+00  0.00000000000E+00  0.14946723427E+03  0.14946723427E+03  0.00000000000E+00 0. -1.
         21   -1    0    0  501  502 -0.00000000000E+00 -0.00000000000E+00 -0.48705419864E+03  0.48705419864E+03  0.00000000000E+00 0. -1.
         25    1    1    2    0    0 -0.21050456227E+03 -0.43876498317E+02 -0.29214858462E+03  0.38368361099E+03  0.12500000000E+03 0.  0.
         25    1    1    2    0    0  0.21050456227E+03  0.43876498317E+02 -0.45438379751E+02  0.25283782193E+03  0.12500000000E+03 0.  0.
</event>
<event>
 4    0  0.2205135E-002  0.1953216E+03  0.7546771E-02  0.1153747E+00
         21   -1    0    0  502  501  0.00000000000E+00  0.00000000000E+00  0.15831905473E+03  0.15831905473E+03  0.00000000000E+00 0. -1.
         21   -1    0    0  501  502 -0.00000000000E+00 -0.00000000000E+00 -0.24097236993E+03  0.24097236993E+03  0.00000000000E+00 0. -1.
         25    1    1    2    0    0  0.35080041465E+02 -0.67331192053E+02 -0.17365874452E+03  0.22703845111E+03  0.12500000000E+03 0.  0.
         25    1    1    2    0    0 -0.35080041465E+02  0.67331192053E+02  0.91005429319E+02  0.17225297355E+03  0.12500000000E+03 0.  0.
</event>
<event>
 4    0  0.2205135E-002  0.2359654E+03  0.7546771E-02  0.1122510E+00
         21   -1    0    0  502  501  0.00000000000E+00  0.00000000000E+00  0.19093681688E+03  0.19093681688E+03  0.00000000000E+00 0. -1.
         21   -1    0    0  501  502 -0.00000000000E+00 -0.00000000000E+00 -0.29161316460E+03  0.29161316460E+03  0.00000000000E+00 0. -1.
         25    1    1    2    0    0 -0.17629040543E+03 -0.91353128521E+02 -0.24653470802E+02  0.23591628761E+03  0.12500000000E+03 0.  0.
         25    1    1    2    0    0  0.17629040543E+03  0.91353128521E+02 -0.76022876919E+02  0.24663369387E+03  0.12500000000E+03 0.  0.
</event>
<event>
 4    0  0.2205135E-002  0.2486195E+03  0.7546771E-02  0.1114180E+00
         21   -1    0    0  502  501  0.00000000000E+00  0.00000000000E+00  0.21442894403E+03  0.21442894403E+03  0.00000000000E+00 0. -1.
         21   -1    0    0  501  502 -0.00000000000E+00 -0.00000000000E+00 -0.28826177427E+03  0.28826177427E+03  0.00000000000E+00 0. -1.
         25    1    1    2    0    0 -0.16772743268E+03  0.13381672986E+03 -0.24648336368E+02  0.24954348188E+03  0.12500000000E+03 0.  0.
         25    1    1    2    0    0  0.16772743268E+03 -0.13381672986E+03 -0.49184493872E+02  0.25314723641E+03  0.12500000000E+03 0.  0.
</event>
<event>
 4    0  0.2205135E-002  0.1876308E+03  0.7546771E-02  0.1160616E+00
         21   -1    0    0  502  501  0.00000000000E+00  0.00000000000E+00  0.18784204136E+03  0.18784204136E+03  0.00000000000E+00 0.  1.
         21   -1    0    0  501  502 -0.00000000000E+00 -0.00000000000E+00 -0.18741977991E+03  0.18741977991E+03  0.00000000000E+00 0.  1.
         25    1    1    2    0    0  0.25567706054E+02 -0.12835735396E+02  0.13718512135E+03  0.18778503992E+03  0.12500000000E+03 0.  0.
         25    1    1    2    0    0 -0.25567706054E+02  0.12835735396E+02 -0.13676285990E+03  0.18747678135E+03  0.12500000000E+03 0.  0.
</event>
<event>
 4    0  0.2205135E-002  0.3498605E+03  0.7546771E-02  0.1062672E+00
         21   -1    0    0  502  501  0.00000000000E+00  0.00000000000E+00  0.10966819285E+03  0.10966819285E+03  0.00000000000E+00 0.  1.
         21   -1    0    0  501  502 -0.00000000000E+00 -0.00000000000E+00 -0.11161154803E+04  0.11161154803E+04  0.00000000000E+00 0.  1.
         25    1    1    2    0    0 -0.29389199826E+03 -0.12683141466E+03 -0.61834690934E+03  0.70741544702E+03  0.12500000000E+03 0.  0.
         25    1    1    2    0    0  0.29389199826E+03  0.12683141466E+03 -0.38810037813E+03  0.51836822616E+03  0.12500000000E+03 0.  0.
</event>
<event>
 4    0  0.2205135E-002  0.1564192E+03  0.7546771E-02  0.1192800E+00
         21   -1    0    0  502  501  0.00000000000E+00  0.00000000000E+00  0.13518667355E+03  0.13518667355E+03  0.00000000000E+00 0.  1.
         21   -1    0    0  501  502 -0.00000000000E+00 -0.00000000000E+00 -0.18098647701E+03  0.18098647701E+03  0.00000000000E+00 0.  1.
         25    1    1    2    0    0  0.68575856470E+02  0.15905608262E+02  0.40105016369E+02  0.14895988991E+03  0.12500000000E+03 0.  0.
         25    1    1    2    0    0 -0.68575856470E+02 -0.15905608262E+02 -0.85904819828E+02  0.16721326064E+03  0.12500000000E+03 0.  0.
</event>
<event>
 4    0  0.2205135E-002  0.2333966E+03  0.7546771E-02  0.1124272E+00
         21   -1    0    0  502  501  0.00000000000E+00  0.00000000000E+00  0.22072539349E+04  0.22072539349E+04  0.00000000000E+00 0. -1.
         21   -1    0    0  501  502 -0.00000000000E+00 -0.00000000000E+00 -0.24679519806E+02  0.24679519806E+02  0.00000000000E+00 0. -1.
         25    1    1    2    0    0  0.86978053556E+02  0.96689026101E+02  0.17994379873E+04  0.18084568062E+04  0.12500000000E+03 0.  0.
         25    1    1    2    0    0 -0.86978053556E+02 -0.96689026101E+02  0.38313642777E+03  0.42347664853E+03  0.12500000000E+03 0.  0.
</event>
<event>
 4    0  0.2205135E-002  0.2648027E+03  0.7546771E-02  0.1104292E+00
         21   -1    0    0  502  501  0.00000000000E+00  0.00000000000E+00  0.13885767669E+03  0.13885767669E+03  0.00000000000E+00 0. -1.
         21   -1    0    0  501  502 -0.00000000000E+00 -0.00000000000E+00 -0.50498091376E+03  0.50498091376E+03  0.00000000000E+00 0. -1.
         25    1    1    2    0    0  0.42122849090E+02  0.12258356793E+03 -0.41908936472E+03  0.45613809440E+03  0.12500000000E+03 0.  0.
         25    1    1    2    0    0 -0.42122849090E+02 -0.12258356793E+03  0.52966127651E+02  0.18770049606E+03  0.12500000000E+03 0.  0.
</event>
<event>
 4    0  0.2205135E-002  0.2113912E+03  0.7546771E-02  0.1140469E+00
         21   -1    0    0  502  501  0.00000000000E+00  0.00000000000E+00  0.22091544687E+04  0.22091544687E+04  0.00000000000E+00 0.  1.
         21   -1    0    0  501  502 -0.00000000000E+00 -0.00000000000E+00 -0.20227758210E+02  0.20227758210E+02  0.00000000000E+00 0.  1.
         25    1    1    2    0    0 -0.13364699401E+03  0.10550135467E+03  0.11383246793E+04  0.11577565074E+04  0.12500000000E+03 0.  0.
         25    1    1    2    0    0  0.13364699401E+03 -0.10550135467E+03  0.10506020312E+04  0.10716257195E+04  0.12500000000E+03 0.  0.
</event>
<event>
 4    0  0.2205135E-002  0.1925396E+03  0.7546771E-02  0.1156190E+00
         21   -1    0    0  502  501  0.00000000000E+00  0.00000000000E+00  0.50087807879E+02  0.50087807879E+02  0.00000000000E+00 0.  1.
         21   -1    0    0  501  502 -0.00000000000E+00 -0.00000000000E+00 -0.74013051869E+03  0.74013051869E+03  0.00000000000E+00 0.  1.
         25    1    1    2    0    0  0.98984826720E+02 -0.10632224044E+03 -0.38308756026E+03  0.42834973276E+03  0.12500000000E+03 0.  0.
         25    1    1    2    0    0 -0.98984826720E+02  0.10632224044E+03 -0.30695515056E+03  0.36186859381E+03  0.12500000000E+03 0.  0.
</event>
<event>
 4    0  0.2205135E-002  0.2463378E+03  0.7546771E-02  0.1115641E+00
         21   -1    0    0  502  501  0.00000000000E+00  0.00000000000E+00  0.11807508567E+04  0.11807508567E+04  0.00000000000E+00 0.  1.
         21   -1    0    0  501  502 -0.00000000000E+00 -0.00000000000E+00 -0.51392967461E+02  0.51392967461E+02  0.00000000000E+00 0.  1.
         25    1    1    2    0    0 -0.17557028703E+03 -0.10659362867E+03  0.69866318158E+03  0.73887912994E+03  0.12500000000E+03 0.  0.
         25    1    1    2    0    0  0.17557028703E+03  0.10659362867E+03  0.43069470767E+03  0.49326469423E+03  0.12500000000E+03 0.  0.
</event>
<event>
 4    0  0.2205135E-002  0.1886130E+03  0.7546771E-02  0.1159718E+00
         21   -1    0    0  502  501  0.00000000000E+00  0.00000000000E+00  0.63001365362E+03  0.63001365362E+03  0.00000000000E+00 0. -1.
         21   -1    0    0  501  502 -0.00000000000E+00 -0.00000000000E+00 -0.56466812675E+02  0.56466812675E+02  0.00000000000E+00 0. -1.
         25    1    1    2    0    0  0.58764437343E+02 -0.27215997842E+02  0.51520076247E+03  0.53408875225E+03  0.12500000000E+03 0.  0.
         25    1    1    2    0    0 -0.58764437343E+02  0.27215997842E+02  0.58346078476E+02  0.15239171404E+03  0.12500000000E+03 0.  0.
</event>
<event>
 4    0  0.2205135E-002  0.2500409E+03  0.7546771E-02  0.1113279E+00
         21   -1    0    0  502  501  0.00000000000E+00  0.00000000000E+00  0.35243003372E+03  0.35243003372E+03  0.00000000000E+00 0. -1.
         21   -1    0    0  501  502 -0.00000000000E+00 -0.00000000000E+00 -0.17739812649E+03  0.17739812649E+03  0.00000000000E+00 0. -1.
         25    1    1    2    0    0 -0.28854136649E+02 -0.23233603417E+02 -0.13853681180E+03  0.19023619464E+03  0.12500000000E+03 0.  0.
         25    1    1    2    0    0  0.28854136649E+02  0.23233603417E+02  0.31356871902E+03  0.33959196557E+03  0.12500000000E+03 0.  0.
</event>
<event>
 4    0  0.2205135E-002  0.2201702E+03  0.7546771E-02  0.1133756E+00
         21   -1    0    0  502  501  0.00000000000E+00  0.00000000000E+00  0.47521579289E+03  0.47521579289E+03  0.00000000000E+00 0. -1.
         21   -1    0    0  501  502 -0.00000000000E+00 -0.00000000000E+00 -0.10200610185E+03  0.10200610185E+03  0.00000000000E+00 0. -1.
         25    1    1    2    0    0  0.91748508503E+02 -0.12612245622E+03  0.65570730905E+02  0.21035489899E+03  0.12500000000E+03 0.  0.
         25    1    1    2    0    0 -0.91748508503E+02  0.12612245622E+03  0.30763896014E+03  0.36686699575E+03  0.12500000000E+03 0.  0.
</event>
<event>
 4    0  0.2205135E-002  0.2055263E+03  0.7546771E-02  0.1145158E+00
         21   -1    0    0  502  501  0.00000000000E+00  0.00000000000E+00  0.93354438530E+02  0.93354438530E+02  0.00000000000E+00 0. -1.
         21   -1    0    0  501  502 -0.00000000000E+00 -0.00000000000E+00 -0.45248067114E+03  0.45248067114E+03  0.00000000000E+00 0. -1.
         25    1    1    2    0    0  0.53378915263E+02  0.24379431261E+02 -0.38170188088E+03  0.40591254123E+03  0.12500000000E+03 0.  0.
         25    1    1    2    0    0 -0.53378915263E+02 -0.24379431261E+02  0.22575648269E+02  0.13992256844E+03  0.12500000000E+03 0.  0.
</event>
<event>
 4    0  0.2205135E-002  0.1942467E+03  0.7546771E-02  0.1154686E+00
         21   -1    0    0  502  501  0.00000000000E+00  0.00000000000E+00  0.25329183049E+03  0.25329183049E+03  0.00000000000E+00 0. -1.
         21   -1    0    0  501  502 -0.00000000000E+00 -0.00000000000E+00 -0.14896561253E+03  0.14896561253E+03  0.00000000000E+00 0. -1.
         25    1    1    2    0    0 -0.13995439179E+03 -0.23035328269E+02  0.98340410521E+02  0.21310489077E+03  0.12500000000E+03 0.  0.
         25    1    1    2    0    0  0.13995439179E+03  0.23035328269E+02  0.59858074420E+01  0.18915255224E+03  0.12500000000E+03 0.  0.
</event>
<event>
 4    0  0.2205135E-002  0.1838176E+03  0.7546771E-02  0.1164159E+00
         21   -1    0    0  502  501  0.00000000000E+00  0.00000000000E+00  0.76189043567E+03  0.76189043567E+03  0.00000000000E+00 0. -1.
         21   -1    0    0  501  502 -0.00000000000E+00 -0.00000000000E+00 -0.44348760806E+02  0.44348760806E+02  0.00000000000E+00 0. -1.
         25    1    1    2    0    0  0.99646991560E+02  0.35701540387E+02  0.54172591574E+03  0.56594707411E+03  0.12500000000E+03 0.  0.
         25    1    1    2    0    0 -0.99646991560E+02 -0.35701540387E+02  0.17581575912E+03  0.24029212236E+03  0.12500000000E+03 0.  0.
</event>
<event>
 4    0  0.2205135E-002  0.1811626E+03  0.7546771E-02  0.1166683E+00
         21   -1    0    0  502  501  0.00000000000E+00  0.00000000000E+00  0.53766602736E+02  0.53766602736E+02  0.00000000000E+00 0.  1.
         21   -1    0    0  501  502 -0.00000000000E+00 -0.00000000000E+00 -0.61041396990E+03  0.61041396990E+03  0.00000000000E+00 0.  1.
         25    1    1    2    0    0  0.85223597987E+02 -0.47224628901E+02 -0.43919542482E+03  0.46691631843E+03  0.12500000000E+03 0.  0.
         25    1    1    2    0    0 -0.85223597987E+02  0.47224628901E+02 -0.11745194234E+03  0.19726425421E+03  0.12500000000E+03 0.  0.
</event>
<event>
 4    0  0.2205135E-002  0.2076471E+03  0.7546771E-02  0.1143443E+00
         21   -1    0    0  502  501  0.00000000000E+00  0.00000000000E+00  0.42876920501E+03  0.42876920501E+03  0.00000000000E+00 0. -1.
         21   -1    0    0  501  502 -0.00000000000E+00 -0.00000000000E+00 -0.10056066602E+03  0.10056066602E+03  0.00000000000E+00 0. -1.
         25    1    1    2    0    0 -0.11321406214E+03 -0.42981976073E+02  0.30846217925E+03  0.35417338997E+03  0.12500000000E+03 0.  0.
         25    1    1    2    0    0  0.11321406214E+03  0.42981976073E+02  0.19746359734E+02  0.17515648106E+03  0.12500000000E+03 0.  0.
</event>
<event>
 4    0  0.2205135E-002  0.1831449E+03  0.7546771E-02  0.1164794E+00
         21   -1    0    0  502  501  0.00000000000E+00  0.00000000000E+00  0.32236187320E+02  0.32236187320E+02  0.00000000000E+00 0.  1.
         21   -1    0    0  501  502 -0.00000000000E+00 -0.00000000000E+00 -0.10405087989E+04  0.10405087989E+04  0.00000000000E+00 0.  1.
         25    1    1    2    0    0  0.26432920512E+02 -0.72217480922E+02 -0.82499675949E+03  0.83794911361E+03  0.12500000000E+03 0.  0.
         25    1    1    2    0    0 -0.26432920512E+02  0.72217480922E+02 -0.18327585213E+03  0.23479587264E+03  0.12500000000E+03 0.  0.
</event>
<event>
 4    0  0.2205135E-002  0.2683209E+03  0.7546771E-02  0.1102244E+00
         21   -1    0    0  502  501  0.00000000000E+00  0.00000000000E+00  0.80527005506E+02  0.80527005506E+02  0.00000000000E+00 0. -1.
         21   -1    0    0  501  502 -0.00000000000E+00 -0.00000000000E+00 -0.89406179914E+03  0.89406179914E+03  0.00000000000E+00 0. -1.
         25    1    1    2    0    0  0.87972526944E+02  0.12400086432E+01 -0.80725665488E+03  0.82160149097E+03  0.12500000000E+03 0.  0.
         25    1    1    2    0    0 -0.87972526944E+02 -0.12400086432E+01 -0.62781387511E+01  0.15298731367E+03  0.12500000000E+03 0.  0.
</event>
<event>
 4    0  0.2205135E-002  0.1976739E+03  0.7546771E-02  0.1151716E+00
         21   -1    0    0  502  501  0.00000000000E+00  0.00000000000E+00  0.29974846289E+02  0.29974846289E+02  0.00000000000E+00 0.  1.
         21   -1    0    0  501  502 -0.00000000000E+00 -0.00000000000E+00 -0.13035922087E+04  0.13035922087E+04  0.00000000000E+00 0.  1.
         25    1    1    2    0    0 -0.44799059575E+02 -0.60214991276E+02 -0.18655743168E+03  0.23677304794E+03  0.12500000000E+03 0.  0.
         25    1    1    2    0    0  0.44799059575E+02  0.60214991276E+02 -0.10870599307E+04  0.10967940071E+04  0.12500000000E+03 0.  0.
</event>
<event>
 4    0  0.2205135E-002  0.2235491E+03  0.7546771E-02  0.1131264E+00
         21   -1    0    0  502  501  0.00000000000E+00  0.00000000000E+00  0.12015827115E+04  0.12015827115E+04  0.00000000000E+00 0. -1.
         21   -1    0    0  501  502 -0.00000000000E+00 -0.00000000000E+00 -0.41590301045E+02  0.41590301045E+02  0.00000000000E+00 0. -1.
         25    1    1    2    0    0  0.17696752664E+03 -0.52404157874E+01  0.42759285170E+03  0.47938044836E+03  0.12500000000E+03 0.  0.
         25    1    1    2    0    0 -0.17696752664E+03  0.52404157874E+01  0.73239955879E+03  0.76379256422E+03  0.12500000000E+03 0.  0.
</event>
<event>
 4    0  0.2205135E-002  0.2798908E+03  0.7546771E-02  0.1095749E+00
         21   -1    0    0  502  501  0.00000000000E+00  0.00000000000E+00  0.16179651688E+03  0.16179651688E+03  0.00000000000E+00 0.  1.
         21   -1    0    0  501  502 -0.00000000000E+00 -0.00000000000E+00 -0.48418144535E+03  0.48418144535E+03  0.00000000000E+00 0.  1.
         25    1    1    2    0    0  0.93838538421E+00  0.25021727908E+03 -0.17297800982E+03  0.32887073327E+03  0.12500000000E+03 0.  0.
         25    1    1    2    0    0 -0.93838538421E+00 -0.25021727908E+03 -0.14940691865E+03  0.31710722896E+03  0.12500000000E+03 0.  0.
</event>
<event>
 4    0  0.2205135E-002  0.2252245E+03  0.7546771E-02  0.1130047E+00
         21   -1    0    0  502  501  0.00000000000E+00  0.00000000000E+00  0.15769352341E+03  0.15769352341E+03  0.00000000000E+00 0. -1.
         21   -1    0    0  501  502 -0.00000000000E+00 -0.00000000000E+00 -0.32167509520E+03  0.32167509520E+03  0.00000000000E+00 0. -1.
         25    1    1    2    0    0  0.88336189371E+02 -0.52231603890E+01 -0.25773078901E+03  0.29980113969E+03  0.12500000000E+03 0.  0.
         25    1    1    2    0    0 -0.88336189371E+02  0.52231603890E+01  0.93749217213E+02  0.17956747892E+03  0.12500000000E+03 0.  0.
</event>
<event>
 4    0  0.2205135E-002  0.2959627E+03  0.7546771E-02  0.1087276E+00
         21   -1    0    0  502  501  0.00000000000E+00  0.00000000000E+00  0.57740606816E+02  0.57740606816E+02  0.00000000000E+00 0. -1.
         21   -1    0    0  501  502 -0.00000000000E+00 -0.00000000000E+00 -0.15170245357E+04  0.15170245357E+04  0.00000000000E+00 0. -1.
         25    1    1    2    0    0 -0.22937382250E+03  0.12365437309E+03 -0.89928701961E+03  0.94458715748E+03  0.12500000000E+03 0.  0.
         25    1    1    2    0    0  0.22937382250E+03 -0.12365437309E+03 -0.55999690931E+03  0.63017798507E+03  0.12500000000E+03 0.  0.
</event>
<event>
 4    0  0.2205135E-002  0.2389748E+03  0.7546771E-02  0.1120478E+00
         21   -1    0    0  502  501  0.00000000000E+00  0.00000000000E+00  0.34977785616E+03  0.34977785616E+03  0.00000000000E+00 0.  1.
         21   -1    0    0  501  502 -0.00000000000E+00 -0.00000000000E+00 -0.16327201470E+03  0.16327201470E+03  0.00000000000E+00 0.  1.
         25    1    1    2    0    0  0.18726550655E+03 -0.72706164819E+02  0.12932717771E+03  0.26963878660E+03  0.12500000000E+03 0.  0.
         25    1    1    2    0    0 -0.18726550655E+03  0.72706164819E+02  0.57178663750E+02  0.24341108425E+03  0.12500000000E+03 0.  0.
</event>
<event>
 4    0  0.2205135E-002  0.2306834E+03  0.7546771E-02  0.1126160E+00
         21   -1    0    0  502  501  0.00000000000E+00  0.00000000000E+00  0.25601972101E+03  0.25601972101E+03  0.00000000000E+00 0. -1.
         21   -1    0    0  501  502 -0.00000000000E+00 -0.00000000000E+00 -0.20785438751E+03  0.20785438751E+03  0.00000000000E+00 0. -1.
         25    1    1    2    0    0 -0.55107375114E+02 -0.76460997676E+02  0.19443401704E+03  0.24962510679E+03  0.12500000000E+03 0.  0.
         25    1    1    2    0    0  0.55107375114E+02  0.76460997676E+02 -0.14626868354E+03  0.21424900173E+03  0.12500000000E+03 0.  0.
</event>
<event>
 4    0  0.2205135E-002  0.2321133E+03  0.7546771E-02  0.1125161E+00
         21   -1    0    0  502  501  0.00000000000E+00  0.00000000000E+00  0.12920964008E+03  0.12920964008E+03  0.00000000000E+00 0.  1.
         21   -1    0    0  501  502 -0.00000000000E+00 -0.00000000000E+00 -0.41697019171E+03  0.41697019171E+03  0.00000000000E+00 0.  1.
         25    1    1    2    0    0 -0.19513067685E+03  0.71651816747E+01 -0.15699471006E+03  0.27999939261E+03  0.12500000000E+03 0.  0.
         25    1    1    2    0    0  0.19513067685E+03 -0.71651816747E+01 -0.13076584157E+03  0.26618043917E+03  0.12500000000E+03 0.  0.
</event>
<event>
 4    0  0.2205135E-002  0.2419811E+03  0.7546771E-02  0.1118480E+00
         21   -1    0    0  502  501  0.00000000000E+00  0.00000000000E+00  0.74658080869E+02  0.74658080869E+02  0.00000000000E+00 0.  1.
         21   -1    0    0  501  502 -0.00000000000E+00 -0.00000000000E+00 -0.78430689341E+03  0.78430689341E+03  0.00000000000E+00 0.  1.
         25    1    1    2    0    0  0.14291123604E+03  0.15001822142E+03 -0.35637101020E+03  0.43076024081E+03  0.12500000000E+03 0.  0.
         25    1    1    2    0    0 -0.14291123604E+03 -0.15001822142E+03 -0.35327780234E+03  0.42820473348E+03  0.12500000000E+03 0.  0.
</event>
<event>
 4    0  0.2205135E-002  0.2222086E+03  0.7546771E-02  0.1132247E+00
         21   -1    0    0  502  501  0.00000000000E+00  0.00000000000E+00  0.16550893573E+03  0.16550893573E+03  0.00000000000E+00 0. -1.
         21   -1    0    0  501  502 -0.00000000000E+00 -0.00000000000E+00 -0.29833237249E+03  0.29833237249E+03  0.00000000000E+00 0. -1.
         25    1    1    2    0    0 -0.89854086372E+02  0.15991195777E+03 -0.77161512750E+02  0.23499891516E+03  0.12500000000E+03 0.  0.
         25    1    1    2    0    0  0.89854086372E+02 -0.15991195777E+03 -0.55661924013E+02  0.22884239306E+03  0.12500000000E+03 0.  0.
</event>
<event>
 4    0  0.2205135E-002  0.2747638E+03  0.7546771E-02  0.1098584E+00
         21   -1    0    0  502  501  0.00000000000E+00  0.00000000000E+00  0.27731593929E+03  0.27731593929E+03  0.00000000000E+00 0. -1.
         21   -1    0    0  501  502 -0.00000000000E+00 -0.00000000000E+00 -0.27223521250E+03  0.27223521250E+03  0.00000000000E+00 0. -1.
         25    1    1    2    0    0 -0.17148949692E+02 -0.17546191751E+03  0.17222139838E+03  0.27634431609E+03  0.12500000000E+03 0.  0.
         25    1    1    2    0    0  0.17148949692E+02  0.17546191751E+03 -0.16714067159E+03  0.27320683570E+03  0.12500000000E+03 0.  0.
</event>
<event>
 4    0  0.2205135E-002  0.1894311E+03  0.7546771E-02  0.1158975E+00
         21   -1    0    0  502  501  0.00000000000E+00  0.00000000000E+00  0.12786929703E+04  0.12786929703E+04  0.00000000000E+00 0.  1.
         21   -1    0    0  501  502 -0.00000000000E+00 -0.00000000000E+00 -0.28063147092E+02  0.28063147092E+02  0.00000000000E+00 0.  1.
         25    1    1    2    0    0 -0.79735548323E+02 -0.62249922376E+02  0.97068474454E+03  0.98391396157E+03  0.12500000000E+03 0.  0.
         25    1    1    2    0    0  0.79735548323E+02  0.62249922376E+02  0.27994507868E+03  0.32284215583E+03  0.12500000000E+03 0.  0.
</event>
<event>
 4    0  0.2205135E-002  0.2487110E+03  0.7546771E-02  0.1114122E+00
         21   -1    0    0  502  501  0.00000000000E+00  0.00000000000E+00  0.46551774506E+03  0.46551774506E+03  0.00000000000E+00 0. -1.
         21   -1    0    0  501  502 -0.00000000000E+00 -0.00000000000E+00 -0.13287819692E+03  0.13287819692E+03  0.00000000000E+00 0. -1.
         25    1    1    2    0    0  0.38109001336E+02 -0.45714240116E+02  0.41487740362E+03  0.43736752025E+03  0.12500000000E+03 0.  0.
         25    1    1    2    0    0 -0.38109001336E+02  0.45714240116E+02 -0.82237855482E+02  0.16102842173E+03  0.12500000000E+03 0.  0.
</event>
<event>
 4    0  0.2205135E-002  0.1804191E+03  0.7546771E-02  0.1167398E+00
         21   -1    0    0  502  501  0.00000000000E+00  0.00000000000E+00  0.33886731974E+03  0.33886731974E+03  0.00000000000E+00 0. -1.
         21   -1    0    0  501  502 -0.00000000000E+00 -0.00000000000E+00 -0.96058427756E+02  0.96058427756E+02  0.00000000000E+00 0. -1.
         25    1    1    2    0    0  0.92950066745E+02 -0.25409943398E+02  0.16046183598E+02  0.15864381532E+03  0.12500000000E+03 0.  0.
         25    1    1    2    0    0 -0.92950066745E+02  0.25409943398E+02  0.22676270838E+03  0.27628193217E+03  0.12500000000E+03 0.  0.
</event>
<event>
 4    0  0.2205135E-002  0.2512145E+03  0.7546771E-02  0.1112540E+00
         21   -1    0    0  502  501  0.00000000000E+00  0.00000000000E+00  0.12821129290E+04  0.12821129290E+04  0.00000000000E+00 0.  1.
         21   -1    0    0  501  502 -0.00000000000E+00 -0.00000000000E+00 -0.49222443771E+02  0.49222443771E+02  0.00000000000E+00 0.  1.
         25    1    1    2    0    0 -0.70703593881E+02 -0.13590110990E+03  0.20580674086E+03  0.28539363070E+03  0.12500000000E+03 0.  0.
         25    1    1    2    0    0  0.70703593881E+02  0.13590110990E+03  0.10270837444E+04  0.10459417421E+04  0.12500000000E+03 0.  0.
</event>
<event>
 4    0  0.2205135E-002  0.2073857E+03  0.7546771E-02  0.1143653E+00
         21   -1    0    0  502  501  0.00000000000E+00  0.00000000000E+00  0.76488300250E+02  0.76488300250E+02  0.00000000000E+00 0.  1.
         21   -1    0    0  501  502 -0.00000000000E+00 -0.00000000000E+00 -0.56229268732E+03  0.56229268732E+03  0.00000000000E+00 0.  1.
         25    1    1    2    0    0  0.11905917121E+03 -0.35321242168E+02 -0.41133607939E+03  0.44748748207E+03  0.12500000000E+03 0.  0.
         25    1    1    2    0    0 -0.11905917121E+03  0.35321242168E+02 -0.74468307678E+02  0.19129350550E+03  0.12500000000E+03 0.  0.
</event>
<event>
 4    0  0.2205135E-002  0.2076847E+03  0.7546771E-02  0.1143413E+00
         21   -1    0    0  502  501  0.00000000000E+00  0.00000000000E+00  0.81660935550E+02  0.81660935550E+02  0.00000000000E+00 0. -1.
         21   -1    0    0  501  502 -0.00000000000E+00 -0.00000000000E+00 -0.52819539752E+03  0.52819539752E+03  0.00000000000E+00 0. -1.
         25    1    1    2    0    0 -0.21606644599E+01  0.41932680844E+02 -0.45884742084E+03  0.47741907566E+03  0.12500000000E+03 0.  0.
         25    1    1    2    0    0  0.21606644599E+01 -0.41932680844E+02  0.12312958870E+02  0.13243725741E+03  0.12500000000E+03 0.  0.
</event>
<event>
 4    0  0.2205135E-002  0.1594164E+03  0.7546771E-02  0.1189357E+00
         21   -1    0    0  502  501  0.00000000000E+00  0.00000000000E+00  0.35343868843E+03  0.35343868843E+03  0.00000000000E+00 0. -1.
         21   -1    0    0  501  502 -0.00000000000E+00 -0.00000000000E+00 -0.71903845963E+02  0.71903845963E+02  0.00000000000E+00 0. -1.
         25    1    1    2    0    0  0.19312994674E+02 -0.52792779533E+02  0.32153777581E+02  0.14077973841E+03  0.12500000000E+03 0.  0.
         25    1    1    2    0    0 -0.19312994674E+02  0.52792779533E+02  0.24938106489E+03  0.28456279599E+03  0.12500000000E+03 0.  0.
</event>
<event>
 4    0  0.2205135E-002  0.3239174E+03  0.7546771E-02  0.1073860E+00
         21   -1    0    0  502  501  0.00000000000E+00  0.00000000000E+00  0.98183994812E+02  0.98183994812E+02  0.00000000000E+00 0. -1.
         21   -1    0    0  501  502 -0.00000000000E+00 -0.00000000000E+00 -0.10686311332E+04  0.10686311332E+04  0.00000000000E+00 0. -1.
         25    1    1    2    0    0 -0.21930358021E+03 -0.27780751418E+02 -0.12306522900E+03  0.28219830090E+03  0.12500000000E+03 0.  0.
         25    1    1    2    0    0  0.21930358021E+03  0.27780751418E+02 -0.84738190941E+03  0.88461682713E+03  0.12500000000E+03 0.  0.
</event>
<event>
 4    0  0.2205135E-002  0.1858643E+03  0.7546771E-02  0.1162245E+00
         21   -1    0    0  502  501  0.00000000000E+00  0.00000000000E+00  0.28684550034E+03  0.28684550034E+03  0.00000000000E+00 0.  1.
         21   -1    0    0  501  502 -0.00000000000E+00 -0.00000000000E+00 -0.12043261132E+03  0.12043261132E+03  0.00000000000E+00 0.  1.
         25    1    1    2    0    0  0.47027546547E+02 -0.28877830204E+02 -0.54839078577E+02  0.14723397621E+03  0.12500000000E+03 0.  0.
         25    1    1    2    0    0 -0.47027546547E+02  0.28877830204E+02  0.22125196760E+03  0.26004413544E+03  0.12500000000E+03 0.  0.
</event>
<event>
 4    0  0.2205135E-002  0.2070138E+03  0.7546771E-02  0.1143953E+00
         21   -1    0    0  502  501  0.00000000000E+00  0.00000000000E+00  0.14554743868E+04  0.14554743868E+04  0.00000000000E+00 0.  1.
         21   -1    0    0  501  502 -0.00000000000E+00 -0.00000000000E+00 -0.29443821548E+02  0.29443821548E+02  0.00000000000E+00 0.  1.
         25    1    1    2    0    0 -0.63729015365E+02 -0.10913667204E+03  0.33248022457E+03  0.37701498685E+03  0.12500000000E+03 0.  0.
         25    1    1    2    0    0  0.63729015365E+02  0.10913667204E+03  0.10935503407E+04  0.11079032215E+04  0.12500000000E+03 0.  0.
</event>
<event>
 4    0  0.2205135E-002  0.2243454E+03  0.7546771E-02  0.1130684E+00
         21   -1    0    0  502  501  0.00000000000E+00  0.00000000000E+00  0.11240309637E+03  0.11240309637E+03  0.00000000000E+00 0.  1.
         21   -1    0    0  501  502 -0.00000000000E+00 -0.00000000000E+00 -0.44777114101E+03  0.44777114101E+03  0.00000000000E+00 0.  1.
         25    1    1    2    0    0 -0.71521620946E+02  0.14514153103E+03 -0.52415879481E+02  0.21107778357E+03  0.12500000000E+03 0.  0.
         25    1    1    2    0    0  0.71521620946E+02 -0.14514153103E+03 -0.28295216516E+03  0.34909645381E+03  0.12500000000E+03 0.  0.
</event>
<event>
 4    0  0.2205135E-002  0.2049088E+03  0.7546771E-02  0.1145662E+00
         21   -1    0    0  502  501  0.00000000000E+00  0.00000000000E+00  0.29718224294E+03  0.29718224294E+03  0.00000000000E+00 0.  1.
         21   -1    0    0  501  502 -0.00000000000E+00 -0.00000000000E+00 -0.14128574144E+03  0.14128574144E+03  0.00000000000E+00 0.  1.
         25    1    1    2    0    0  0.14047617823E+03 -0.77179960582E+02  0.10568989935E+03  0.22909748535E+03  0.12500000000E+03 0.  0.
         25    1    1    2    0    0 -0.14047617823E+03  0.77179960582E+02  0.50206602147E+02  0.20937049903E+03  0.12500000000E+03 0.  0.
</event>
<event>
 4    0  0.2205135E-002  0.2061498E+03  0.7546771E-02  0.1144652E+00
         21   -1    0    0  502  501  0.00000000000E+00  0.00000000000E+00  0.12061241412E+03  0.12061241412E+03  0.00000000000E+00 0.  1.
         21   -1    0    0  501  502 -0.00000000000E+00 -0.00000000000E+00 -0.35234967705E+03  0.35234967705E+03  0.00000000000E+00 0.  1.
         25    1    1    2    0    0 -0.63168777807E+02 -0.84137711298E+02 -0.26007592734E+03  0.30713830262E+03  0.12500000000E+03 0.  0.
         25    1    1    2    0    0  0.63168777807E+02  0.84137711298E+02  0.28338664408E+02  0.16582378856E+03  0.12500000000E+03 0.  0.
</event>
<event>
 4    0  0.2205135E-002  0.1985401E+03  0.7546771E-02  0.1150977E+00
         21   -1    0    0  502  501  0.00000000000E+00  0.00000000000E+00  0.26588809819E+02  0.26588809819E+02  0.00000000000E+00 0. -1.
         21   -1    0    0  501  502 -0.00000000000E+00 -0.00000000000E+00 -0.14825097064E+04  0.14825097064E+04  0.00000000000E+00 0. -1.
         25    1    1    2    0    0 -0.13100161322E+02 -0.14944706762E+03 -0.59161196550E+03  0.62300542371E+03  0.12500000000E+03 0.  0.
         25    1    1    2    0    0  0.13100161322E+02  0.14944706762E+03 -0.86430893105E+03  0.88609309248E+03  0.12500000000E+03 0.  0.
</event>
<event>
 4    0  0.2205135E-002  0.3968044E+03  0.7546771E-02  0.1044892E+00
         21   -1    0    0  502  501  0.00000000000E+00  0.00000000000E+00  0.59115194315E+03  0.59115194315E+03  0.00000000000E+00 0.  1.
         21   -1    0    0  501  502 -0.00000000000E+00 -0.00000000000E+00 -0.26635070792E+03  0.26635070792E+03  0.00000000000E+00 0.  1.
         25    1    1    2    0    0 -0.10791095859E+03  0.36077472764E+03  0.16786328568E+03  0.43082045189E+03  0.12500000000E+03 0.  0.
         25    1    1    2    0    0  0.10791095859E+03 -0.36077472764E+03  0.15693794955E+03  0.42668219918E+03  0.12500000000E+03 0.  0.
</event>
<event>
 4    0  0.2205135E-002  0.3478945E+03  0.7546771E-02  0.1063483E+00
         21   -1    0    0  502  501  0.00000000000E+00  0.00000000000E+00  0.54674179765E+02  0.54674179765E+02  0.00000000000E+00 0.  1.
         21   -1    0    0  501  502 -0.00000000000E+00 -0.00000000000E+00 -0.22136698310E+04  0.22136698310E+04  0.00000000000E+00 0.  1.
         25    1    1    2    0    0 -0.14380163293E+03  0.26844133422E+03 -0.14463995723E+04  0.14833867945E+04  0.12500000000E+03 0.  0.
         25    1    1    2    0    0  0.14380163293E+03 -0.26844133422E+03 -0.71259607899E+03  0.78495721625E+03  0.12500000000E+03 0.  0.
</event>
<event>
 4    0  0.2205135E-002  0.5571648E+03  0.7546771E-02  0.9998490E-01
         21   -1    0    0  502  501  0.00000000000E+00  0.00000000000E+00  0.99115357397E+03  0.99115357397E+03  0.00000000000E+00 0. -1.
         21   -1    0    0  501  502 -0.00000000000E+00 -0.00000000000E+00 -0.31320338101E+03  0.31320338101E+03  0.00000000000E+00 0. -1.
         25    1    1    2    0    0 -0.38600383276E+03 -0.28551354357E+03  0.63577029472E+03  0.80644020864E+03  0.12500000000E+03 0.  0.
         25    1    1    2    0    0  0.38600383276E+03  0.28551354357E+03  0.42179898234E+02  0.49791674634E+03  0.12500000000E+03 0.  0.
</event>
<event>
 4    0  0.2205135E-002  0.3452408E+03  0.7546771E-02  0.1064586E+00
         21   -1    0    0  502  501  0.00000000000E+00  0.00000000000E+00  0.25284577917E+03  0.25284577917E+03  0.00000000000E+00 0.  1.
         21   -1    0    0  501  502 -0.00000000000E+00 -0.00000000000E+00 -0.47139874816E+03  0.47139874816E+03  0.00000000000E+00 0.  1.
         25    1    1    2    0    0 -0.16476643210E+03  0.15838183837E+03 -0.34692394327E+03  0.43383638193E+03  0.12500000000E+03 0.  0.
         25    1    1    2    0    0  0.16476643210E+03 -0.15838183837E+03  0.12837097428E+03  0.29040814539E+03  0.12500000000E+03 0.  0.
</event>
<event>
 4    0  0.2205135E-002  0.1924656E+03  0.7546771E-02  0.1156256E+00
         21   -1    0    0  502  501  0.00000000000E+00  0.00000000000E+00  0.79943537674E+02  0.79943537674E+02  0.00000000000E+00 0.  1.
         21   -1    0    0  501  502 -0.00000000000E+00 -0.00000000000E+00 -0.46336466783E+03  0.46336466783E+03  0.00000000000E+00 0.  1.
         25    1    1    2    0    0  0.13678411215E+03  0.49925279716E+02 -0.21243445516E+03  0.28627927733E+03  0.12500000000E+03 0.  0.
         25    1    1    2    0    0 -0.13678411215E+03 -0.49925279716E+02 -0.17098667500E+03  0.25702892817E+03  0.12500000000E+03 0.  0.
</event>
<event>
 4    0  0.2205135E-002  0.3509061E+03  0.7546771E-02  0.1062244E+00
         21   -1    0    0  502  501  0.00000000000E+00  0.00000000000E+00  0.98307803429E+03  0.98307803429E+03  0.00000000000E+00 0.  1.
         21   -1    0    0  501  502 -0.00000000000E+00 -0.00000000000E+00 -0.12525462374E+03  0.12525462374E+03  0.00000000000E+00 0.  1.
         25    1    1    2    0    0  0.80695577828E+02  0.13802313251E+03  0.88099472003E+03  0.90406794994E+03  0.12500000000E+03 0.  0.
         25    1    1    2    0    0 -0.80695577828E+02 -0.13802313251E+03 -0.23171309474E+02  0.20426470809E+03  0.12500000000E+03 0.  0.
</event>
<event>
 4    0  0.2205135E-002  0.2139610E+03  0.7546771E-02  0.1138467E+00
         21   -1    0    0  502  501  0.00000000000E+00  0.00000000000E+00  0.14882083413E+04  0.14882083413E+04  0.00000000000E+00 0. -1.
         21   -1    0    0  501  502 -0.00000000000E+00 -0.00000000000E+00 -0.30761347540E+02  0.30761347540E+02  0.00000000000E+00 0. -1.
         25    1    1    2    0    0  0.52169658749E+02  0.14535226097E+03  0.44685998829E+03  0.48903762861E+03  0.12500000000E+03 0.  0.
         25    1    1    2    0    0 -0.52169658749E+02 -0.14535226097E+03  0.10105870055E+04  0.10299320603E+04  0.12500000000E+03 0.  0.
</event>
<event>
 4    0  0.2205135E-002  0.2037280E+03  0.7546771E-02  0.1146631E+00
         21   -1    0    0  502  501  0.00000000000E+00  0.00000000000E+00  0.10823401411E+03  0.10823401411E+03  0.00000000000E+00 0. -1.
         21   -1    0    0  501  502 -0.00000000000E+00 -0.00000000000E+00 -0.38347554764E+03  0.38347554764E+03  0.00000000000E+00 0. -1.
         25    1    1    2    0    0  0.84635173378E+02  0.10591258943E+03 -0.33114016636E+02  0.18735561713E+03  0.12500000000E+03 0.  0.
         25    1    1    2    0    0 -0.84635173378E+02 -0.10591258943E+03 -0.24212751689E+03  0.30435394462E+03  0.12500000000E+03 0.  0.
</event>
<event>
 4    0  0.2205135E-002  0.2255554E+03  0.7546771E-02  0.1129808E+00
         21   -1    0    0  502  501  0.00000000000E+00  0.00000000000E+00  0.17711370547E+02  0.17711370547E+02  0.00000000000E+00 0.  1.
         21   -1    0    0  501  502 -0.00000000000E+00 -0.00000000000E+00 -0.28724607664E+04  0.28724607664E+04  0.00000000000E+00 0.  1.
         25    1    1    2    0    0  0.14551034284E+03  0.66454168205E+02 -0.20570941916E+04  0.20670875476E+04  0.12500000000E+03 0.  0.
         25    1    1    2    0    0 -0.14551034284E+03 -0.66454168205E+02 -0.79765520432E+03  0.82308458941E+03  0.12500000000E+03 0.  0.
</event>
<event>
 4    0  0.2205135E-002  0.2247562E+03  0.7546771E-02  0.1130386E+00
         21   -1    0    0  502  501  0.00000000000E+00  0.00000000000E+00  0.17147206140E+03  0.17147206140E+03  0.00000000000E+00 0.  1.
         21   -1    0    0  501  502 -0.00000000000E+00 -0.00000000000E+00 -0.29459815522E+03  0.29459815522E+03  0.00000000000E+00 0.  1.
         25    1    1    2    0    0 -0.91745345847E+02  0.41816031215E+02  0.10146937509E+03  0.18996532060E+03  0.12500000000E+03 0.  0.
         25    1    1    2    0    0  0.91745345847E+02 -0.41816031215E+02 -0.22459546891E+03  0.27610489602E+03  0.12500000000E+03 0.  0.
</event>
<event>
 4    0  0.2205135E-002  0.1690475E+03  0.7546771E-02  0.1178845E+00
         21   -1    0    0  502  501  0.00000000000E+00  0.00000000000E+00  0.47863745843E+02  0.47863745843E+02  0.00000000000E+00 0. -1.
         21   -1    0    0  501  502 -0.00000000000E+00 -0.00000000000E+00 -0.59704984984E+03  0.59704984984E+03  0.00000000000E+00 0. -1.
         25    1    1    2    0    0 -0.15178440644E+02 -0.11230075920E+03 -0.25456922086E+03  0.30540519607E+03  0.12500000000E+03 0.  0.
         25    1    1    2    0    0  0.15178440644E+02  0.11230075920E+03 -0.29461688313E+03  0.33950839961E+03  0.12500000000E+03 0.  0.
</event>
<event>
 4    0  0.2205135E-002  0.1889069E+03  0.7546771E-02  0.1159451E+00
         21   -1    0    0  502  501  0.00000000000E+00  0.00000000000E+00  0.48487359119E+02  0.48487359119E+02  0.00000000000E+00 0.  1.
         21   -1    0    0  501  502 -0.00000000000E+00 -0.00000000000E+00 -0.73598182583E+03  0.73598182583E+03  0.00000000000E+00 0.  1.
         25    1    1    2    0    0 -0.14043170306E+03  0.18432270160E+02 -0.34386628194E+03  0.39233892448E+03  0.12500000000E+03 0.  0.
         25    1    1    2    0    0  0.14043170306E+03 -0.18432270160E+02 -0.34362818477E+03  0.39213026047E+03  0.12500000000E+03 0.  0.
</event>
<event>
 4    0  0.2205135E-002  0.2283081E+03  0.7546771E-02  0.1127836E+00
         21   -1    0    0  502  501  0.00000000000E+00  0.00000000000E+00  0.74358989980E+03  0.74358989980E+03  0.00000000000E+00 0. -1.
         21   -1    0    0  501  502 -0.00000000000E+00 -0.00000000000E+00 -0.70098574920E+02  0.70098574920E+02  0.00000000000E+00 0. -1.
         25    1    1    2    0    0 -0.11802479184E+03 -0.10164854720E+03  0.53387437216E+03  0.57000800336E+03  0.12500000000E+03 0.  0.
         25    1    1    2    0    0  0.11802479184E+03  0.10164854720E+03  0.13961695272E+03  0.24368047137E+03  0.12500000000E+03 0.  0.
</event>
<event>
 4    0  0.2205135E-002  0.1525632E+03  0.7546771E-02  0.1197358E+00
         21   -1    0    0  502  501  0.00000000000E+00  0.00000000000E+00  0.10363326918E+04  0.10363326918E+04  0.00000000000E+00 0. -1.
         21   -1    0    0  501  502 -0.00000000000E+00 -0.00000000000E+00 -0.22459512605E+02  0.22459512605E+02  0.00000000000E+00 0. -1.
         25    1    1    2    0    0 -0.41112593518E+02  0.67655617889E+02  0.63598181408E+03  0.65296661157E+03  0.12500000000E+03 0.  0.
         25    1    1    2    0    0  0.41112593518E+02 -0.67655617889E+02  0.37789136515E+03  0.40582559288E+03  0.12500000000E+03 0.  0.
</event>
<event>
 4    0  0.2205135E-002  0.3681321E+03  0.7546771E-02  0.1055409E+00
         21   -1    0    0  502  501  0.00000000000E+00  0.00000000000E+00  0.27596103077E+03  0.27596103077E+03  0.00000000000E+00 0.  1.
         21   -1    0    0  501  502 -0.00000000000E+00 -0.00000000000E+00 -0.49108836110E+03  0.49108836110E+03  0.00000000000E+00 0.  1.
         25    1    1    2    0    0  0.27585144581E+03 -0.13788457842E+03  0.56468319283E+02  0.33752014488E+03  0.12500000000E+03 0.  0.
         25    1    1    2    0    0 -0.27585144581E+03  0.13788457842E+03 -0.27159564961E+03  0.42952924698E+03  0.12500000000E+03 0.  0.
</event>
<event>
 4    0  0.2205135E-002  0.3329818E+03  0.7546771E-02  0.1069825E+00
         21   -1    0    0  502  501  0.00000000000E+00  0.00000000000E+00  0.75656421644E+02  0.75656421644E+02  0.00000000000E+00 0.  1.
         21   -1    0    0  501  502 -0.00000000000E+00 -0.00000000000E+00 -0.14655314726E+04  0.14655314726E+04  0.00000000000E+00 0.  1.
         25    1    1    2    0    0 -0.67438823715E+02  0.29338857387E+03 -0.53751906574E+03  0.62863073123E+03  0.12500000000E+03 0.  0.
         25    1    1    2    0    0  0.67438823715E+02 -0.29338857387E+03 -0.85235598524E+03  0.91255716303E+03  0.12500000000E+03 0.  0.
</event>
<event>
 4    0  0.2205135E-002  0.2632725E+03  0.7546771E-02  0.1105193E+00
         21   -1    0    0  502  501  0.00000000000E+00  0.00000000000E+00  0.19279241504E+03  0.19279241504E+03  0.00000000000E+00 0. -1.
         21   -1    0    0  501  502 -0.00000000000E+00 -0.00000000000E+00 -0.35951822308E+03  0.35951822308E+03  0.00000000000E+00 0. -1.
         25    1    1    2    0    0 -0.11061495224E+03  0.84662743499E+02  0.11085682390E+03  0.21752628163E+03  0.12500000000E+03 0.  0.
         25    1    1    2    0    0  0.11061495224E+03 -0.84662743499E+02 -0.27758263193E+03  0.33478435649E+03  0.12500000000E+03 0.  0.
</event>
<event>
 4    0  0.2205135E-002  0.1874998E+03  0.7546771E-02  0.1160736E+00
         21   -1    0    0  502  501  0.00000000000E+00  0.00000000000E+00  0.74871148287E+02  0.74871148287E+02  0.00000000000E+00 0.  1.
         21   -1    0    0  501  502 -0.00000000000E+00 -0.00000000000E+00 -0.46955579197E+03  0.46955579197E+03  0.00000000000E+00 0.  1.
         25    1    1    2    0    0  0.29293383075E+02 -0.83083122794E+02 -0.35485011466E+03  0.38639941959E+03  0.12500000000E+03 0.  0.
         25    1    1    2    0    0 -0.29293383075E+02  0.83083122794E+02 -0.39834529019E+02  0.15802752066E+03  0.12500000000E+03 0.  0.
</event>
<event>
 4    0  0.2205135E-002  0.1999258E+03  0.7546771E-02  0.1149802E+00
         21   -1    0    0  502  501  0.00000000000E+00  0.00000000000E+00  0.15076353028E+03  0.15076353028E+03  0.00000000000E+00 0.  1.
         21   -1    0    0  501  502 -0.00000000000E+00 -0.00000000000E+00 -0.26511926206E+03  0.26511926206E+03  0.00000000000E+00 0.  1.
         25    1    1    2    0    0 -0.13498941709E+03  0.45736679512E+02 -0.12321622954E+03  0.22610003495E+03  0.12500000000E+03 0.  0.
         25    1    1    2    0    0  0.13498941709E+03 -0.45736679512E+02  0.88604977638E+01  0.18978275739E+03  0.12500000000E+03 0.  0.
</event>
<event>
 4    0  0.2205135E-002  0.2248858E+03  0.7546771E-02  0.1130292E+00
         21   -1    0    0  502  501  0.00000000000E+00  0.00000000000E+00  0.20862202756E+02  0.20862202756E+02  0.00000000000E+00 0. -1.
         21   -1    0    0  501  502 -0.00000000000E+00 -0.00000000000E+00 -0.24241747121E+04  0.24241747121E+04  0.00000000000E+00 0. -1.
         25    1    1    2    0    0 -0.82655194122E+02  0.15071964866E+03 -0.16011440957E+04  0.16151890628E+04  0.12500000000E+03 0.  0.
         25    1    1    2    0    0  0.82655194122E+02 -0.15071964866E+03 -0.80216841367E+03  0.82984785202E+03  0.12500000000E+03 0.  0.
</event>
<event>
 4    0  0.2205135E-002  0.2869062E+03  0.7546771E-02  0.1091976E+00
         21   -1    0    0  502  501  0.00000000000E+00  0.00000000000E+00  0.11355583798E+04  0.11355583798E+04  0.00000000000E+00 0. -1.
         21   -1    0    0  501  502 -0.00000000000E+00 -0.00000000000E+00 -0.72488713676E+02  0.72488713676E+02  0.00000000000E+00 0. -1.
         25    1    1    2    0    0  0.18566324297E+03  0.17608392329E+03  0.45818761513E+03  0.53947870996E+03  0.12500000000E+03 0.  0.
         25    1    1    2    0    0 -0.18566324297E+03 -0.17608392329E+03  0.60488205100E+03  0.66856838353E+03  0.12500000000E+03 0.  0.
</event>
<event>
 4    0  0.2227014E-002  0.2012850E+03  0.7546771E-02  0.1148659E+00
         21   -1    0    0  502  501  0.00000000000E+00  0.00000000000E+00  0.14989460690E+03  0.14989460690E+03  0.00000000000E+00 0. -1.
         21   -1    0    0  501  502 -0.00000000000E+00 -0.00000000000E+00 -0.27029430578E+03  0.27029430578E+03  0.00000000000E+00 0. -1.
         25    1    1    2    0    0  0.27189350381E+02 -0.88776089747E+02 -0.19333711649E+03  0.24824321843E+03  0.12500000000E+03 0.  0.
         25    1    1    2    0    0 -0.27189350381E+02  0.88776089747E+02  0.72937417612E+02  0.17194569425E+03  0.12500000000E+03 0.  0.
</event>
<event>
 4    0  0.2205135E-002  0.2185429E+03  0.7546771E-02  0.1134974E+00
         21   -1    0    0  502  501  0.00000000000E+00  0.00000000000E+00  0.52650552420E+02  0.52650552420E+02  0.00000000000E+00 0.  1.
         21   -1    0    0  501  502 -0.00000000000E+00 -0.00000000000E+00 -0.90713204130E+03  0.90713204130E+03  0.00000000000E+00 0.  1.
         25    1    1    2    0    0 -0.18195374457E+02 -0.18232336917E+02 -0.37682977940E+02  0.13307327526E+03  0.12500000000E+03 0.  0.
         25    1    1    2    0    0  0.18195374457E+02  0.18232336917E+02 -0.81679851094E+03  0.82670931846E+03  0.12500000000E+03 0.  0.
</event>
<event>
 4    0  0.2205135E-002  0.1583352E+03  0.7546771E-02  0.1190589E+00
         21   -1    0    0  502  501  0.00000000000E+00  0.00000000000E+00  0.94244861660E+02  0.94244861660E+02  0.00000000000E+00 0. -1.
         21   -1    0    0  501  502 -0.00000000000E+00 -0.00000000000E+00 -0.26600941831E+03  0.26600941831E+03  0.00000000000E+00 0. -1.
         25    1    1    2    0    0 -0.25511333514E+01  0.48862916050E+02 -0.18140901579E+03  0.22567304636E+03  0.12500000000E+03 0.  0.
         25    1    1    2    0    0  0.25511333514E+01 -0.48862916050E+02  0.96444591397E+01  0.13458123360E+03  0.12500000000E+03 0.  0.
</event>
<event>
 4    0  0.2205135E-002  0.2673541E+03  0.7546771E-02  0.1102804E+00
         21   -1    0    0  502  501  0.00000000000E+00  0.00000000000E+00  0.15827731488E+03  0.15827731488E+03  0.00000000000E+00 0.  1.
         21   -1    0    0  501  502 -0.00000000000E+00 -0.00000000000E+00 -0.45160098378E+03  0.45160098378E+03  0.00000000000E+00 0.  1.
         25    1    1    2    0    0  0.48938045074E+01 -0.11803800149E+03  0.86799034661E+02  0.19265511033E+03  0.12500000000E+03 0.  0.
         25    1    1    2    0    0 -0.48938045074E+01  0.11803800149E+03 -0.38012270356E+03  0.41722318833E+03  0.12500000000E+03 0.  0.
</event>
<event>
 4    0  0.2205135E-002  0.2542336E+03  0.7546771E-02  0.1110658E+00
         21   -1    0    0  502  501  0.00000000000E+00  0.00000000000E+00  0.41000686116E+03  0.41000686116E+03  0.00000000000E+00 0.  1.
         21   -1    0    0  501  502 -0.00000000000E+00 -0.00000000000E+00 -0.15764297687E+03  0.15764297687E+03  0.00000000000E+00 0.  1.
         25    1    1    2    0    0  0.20686565869E+03  0.77469765717E+02  0.10982241030E+03  0.27655185255E+03  0.12500000000E+03 0.  0.
         25    1    1    2    0    0 -0.20686565869E+03 -0.77469765717E+02  0.14254147398E+03  0.29109798548E+03  0.12500000000E+03 0.  0.
</event>
<event>
 4    0  0.2205135E-002  0.2157341E+03  0.7546771E-02  0.1137104E+00
         21   -1    0    0  502  501  0.00000000000E+00  0.00000000000E+00  0.42568911216E+02  0.42568911216E+02  0.00000000000E+00 0.  1.
         21   -1    0    0  501  502 -0.00000000000E+00 -0.00000000000E+00 -0.10933144097E+04  0.10933144097E+04  0.00000000000E+00 0.  1.
         25    1    1    2    0    0 -0.17613841399E+02  0.98457470708E+02 -0.14467214377E+03  0.21577569402E+03  0.12500000000E+03 0.  0.
         25    1    1    2    0    0  0.17613841399E+02 -0.98457470708E+02 -0.90607335469E+03  0.92010762688E+03  0.12500000000E+03 0.  0.
</event>
<event>
 4    0  0.2205135E-002  0.1796932E+03  0.7546771E-02  0.1168100E+00
         21   -1    0    0  502  501  0.00000000000E+00  0.00000000000E+00  0.10456313494E+03  0.10456313494E+03  0.00000000000E+00 0.  1.
         21   -1    0    0  501  502 -0.00000000000E+00 -0.00000000000E+00 -0.30880537351E+03  0.30880537351E+03  0.00000000000E+00 0.  1.
         25    1    1    2    0    0  0.81159187266E+02 -0.10037935731E+03 -0.10367661679E+03  0.20745281372E+03  0.12500000000E+03 0.  0.
         25    1    1    2    0    0 -0.81159187266E+02  0.10037935731E+03 -0.10056562179E+03  0.20591569473E+03  0.12500000000E+03 0.  0.
</event>
<event>
 4    0  0.2205135E-002  0.1898351E+03  0.7546771E-02  0.1158610E+00
         21   -1    0    0  502  501  0.00000000000E+00  0.00000000000E+00  0.53341556059E+03  0.53341556059E+03  0.00000000000E+00 0. -1.
         21   -1    0    0  501  502 -0.00000000000E+00 -0.00000000000E+00 -0.67559631258E+02  0.67559631258E+02  0.00000000000E+00 0. -1.
         25    1    1    2    0    0  0.11334203084E+03  0.85317276291E+02  0.20611658722E+03  0.27970431015E+03  0.12500000000E+03 0.  0.
         25    1    1    2    0    0 -0.11334203084E+03 -0.85317276291E+02  0.25973934211E+03  0.32127088170E+03  0.12500000000E+03 0.  0.
</event>
<event>
 4    0  0.2205135E-002  0.2635591E+03  0.7546771E-02  0.1105024E+00
         21   -1    0    0  502  501  0.00000000000E+00  0.00000000000E+00  0.21127065443E+03  0.21127065443E+03  0.00000000000E+00 0.  1.
         21   -1    0    0  501  502 -0.00000000000E+00 -0.00000000000E+00 -0.32878871732E+03  0.32878871732E+03  0.00000000000E+00 0.  1.
         25    1    1    2    0    0 -0.95855801376E+02  0.13363866926E+03  0.10893829529E+03  0.23353839247E+03  0.12500000000E+03 0.  0.
         25    1    1    2    0    0  0.95855801376E+02 -0.13363866926E+03 -0.22645635818E+03  0.30652097928E+03  0.12500000000E+03 0.  0.
</event>
<event>
 4    0  0.2286579E-002  0.1976981E+03  0.7546771E-02  0.1151696E+00
         21   -1    0    0  502  501  0.00000000000E+00  0.00000000000E+00  0.10395693657E+03  0.10395693657E+03  0.00000000000E+00 0. -1.
         21   -1    0    0  501  502 -0.00000000000E+00 -0.00000000000E+00 -0.37596842641E+03  0.37596842641E+03  0.00000000000E+00 0. -1.
         25    1    1    2    0    0  0.11115239471E+02 -0.40427028640E+00  0.49412624933E+02  0.13487149249E+03  0.12500000000E+03 0.  0.
         25    1    1    2    0    0 -0.11115239471E+02  0.40427028640E+00 -0.32142411477E+03  0.34505387049E+03  0.12500000000E+03 0.  0.
</event>
<event>
 4    0  0.2205135E-002  0.1686647E+03  0.7546771E-02  0.1179248E+00
         21   -1    0    0  502  501  0.00000000000E+00  0.00000000000E+00  0.30078810154E+02  0.30078810154E+02  0.00000000000E+00 0.  1.
         21   -1    0    0  501  502 -0.00000000000E+00 -0.00000000000E+00 -0.94577524644E+03  0.94577524644E+03  0.00000000000E+00 0.  1.
         25    1    1    2    0    0  0.23662513833E+02 -0.10382640056E+03 -0.34644569830E+03  0.38339204202E+03  0.12500000000E+03 0.  0.
         25    1    1    2    0    0 -0.23662513833E+02  0.10382640056E+03 -0.56925073799E+03  0.59246201458E+03  0.12500000000E+03 0.  0.
</event>
<event>
 4    0  0.2205135E-002  0.2539467E+03  0.7546771E-02  0.1110836E+00
         21   -1    0    0  502  501  0.00000000000E+00  0.00000000000E+00  0.27951030272E+03  0.27951030272E+03  0.00000000000E+00 0.  1.
         21   -1    0    0  501  502 -0.00000000000E+00 -0.00000000000E+00 -0.23072105778E+03  0.23072105778E+03  0.00000000000E+00 0.  1.
         25    1    1    2    0    0  0.15208565461E+03 -0.15232035013E+03 -0.26159762514E+02  0.25028157858E+03  0.12500000000E+03 0.  0.
         25    1    1    2    0    0 -0.15208565461E+03  0.15232035013E+03  0.74949007457E+02  0.25994978192E+03  0.12500000000E+03 0.  0.
</event>
<event>
 4    0  0.2205135E-002  0.2227502E+03  0.7546771E-02  0.1131849E+00
         21   -1    0    0  502  501  0.00000000000E+00  0.00000000000E+00  0.16548744567E+03  0.16548744567E+03  0.00000000000E+00 0.  1.
         21   -1    0    0  501  502 -0.00000000000E+00 -0.00000000000E+00 -0.29982722736E+03  0.29982722736E+03  0.00000000000E+00 0.  1.
         25    1    1    2    0    0 -0.48861630197E+02  0.64821501715E+02 -0.24007211015E+03  0.28257548383E+03  0.12500000000E+03 0.  0.
         25    1    1    2    0    0  0.48861630197E+02 -0.64821501715E+02  0.10573232845E+03  0.18273918920E+03  0.12500000000E+03 0.  0.
</event>
<event>
 4    0  0.2205135E-002  0.1940236E+03  0.7546771E-02  0.1154882E+00
         21   -1    0    0  502  501  0.00000000000E+00  0.00000000000E+00  0.27691188756E+02  0.27691188756E+02  0.00000000000E+00 0.  1.
         21   -1    0    0  501  502 -0.00000000000E+00 -0.00000000000E+00 -0.13594629359E+04  0.13594629359E+04  0.00000000000E+00 0.  1.
         25    1    1    2    0    0 -0.74262918751E+02 -0.12393639799E+03 -0.78684266466E+03  0.80970463181E+03  0.12500000000E+03 0.  0.
         25    1    1    2    0    0  0.74262918751E+02  0.12393639799E+03 -0.54492908250E+03  0.57744949286E+03  0.12500000000E+03 0.  0.
</event>
<event>
 4    0  0.2205135E-002  0.1966581E+03  0.7546771E-02  0.1152590E+00
         21   -1    0    0  502  501  0.00000000000E+00  0.00000000000E+00  0.60698689592E+03  0.60698689592E+03  0.00000000000E+00 0.  1.
         21   -1    0    0  501  502 -0.00000000000E+00 -0.00000000000E+00 -0.63715408086E+02  0.63715408086E+02  0.00000000000E+00 0.  1.
         25    1    1    2    0    0  0.61968585103E+02 -0.13780294236E+03  0.24636228418E+03  0.31487955083E+03  0.12500000000E+03 0.  0.
         25    1    1    2    0    0 -0.61968585103E+02  0.13780294236E+03  0.29690920365E+03  0.35582275317E+03  0.12500000000E+03 0.  0.
</event>
<event>
 4    0  0.2205135E-002  0.2561302E+03  0.7546771E-02  0.1109491E+00
         21   -1    0    0  502  501  0.00000000000E+00  0.00000000000E+00  0.45729078914E+03  0.45729078914E+03  0.00000000000E+00 0. -1.
         21   -1    0    0  501  502 -0.00000000000E+00 -0.00000000000E+00 -0.14345939545E+03  0.14345939545E+03  0.00000000000E+00 0. -1.
         25    1    1    2    0    0  0.16765966530E+03  0.14647790309E+03  0.13310810863E+03  0.28793802814E+03  0.12500000000E+03 0.  0.
         25    1    1    2    0    0 -0.16765966530E+03 -0.14647790309E+03  0.18072328506E+03  0.31281215646E+03  0.12500000000E+03 0.  0.
</event>
<event>
 4    0  0.2205135E-002  0.2090851E+03  0.7546771E-02  0.1142293E+00
         21   -1    0    0  502  501  0.00000000000E+00  0.00000000000E+00  0.20675568683E+03  0.20675568683E+03  0.00000000000E+00 0.  1.
         21   -1    0    0  501  502 -0.00000000000E+00 -0.00000000000E+00 -0.21144068511E+03  0.21144068511E+03  0.00000000000E+00 0.  1.
         25    1    1    2    0    0 -0.74872258801E+02 -0.79115871236E+02 -0.12973333314E+03  0.21052532852E+03  0.12500000000E+03 0.  0.
         25    1    1    2    0    0  0.74872258801E+02  0.79115871236E+02  0.12504833487E+03  0.20767104341E+03  0.12500000000E+03 0.  0.
</event>
<event>
 4    0  0.2205135E-002  0.2072866E+03  0.7546771E-02  0.1143733E+00
         21   -1    0    0  502  501  0.00000000000E+00  0.00000000000E+00  0.69500029167E+03  0.69500029167E+03  0.00000000000E+00 0.  1.
         21   -1    0    0  501  502 -0.00000000000E+00 -0.00000000000E+00 -0.61824045931E+02  0.61824045931E+02  0.00000000000E+00 0.  1.
         25    1    1    2    0    0  0.14513106888E+03  0.77882190769E+02  0.28987842887E+03  0.35606623866E+03  0.12500000000E+03 0.  0.
         25    1    1    2    0    0 -0.14513106888E+03 -0.77882190769E+02  0.34329781687E+03  0.40075809894E+03  0.12500000000E+03 0.  0.
</event>
<event>
 4    0  0.2205135E-002  0.3242508E+03  0.7546771E-02  0.1073709E+00
         21   -1    0    0  502  501  0.00000000000E+00  0.00000000000E+00  0.15070631799E+04  0.15070631799E+04  0.00000000000E+00 0. -1.
         21   -1    0    0  501  502 -0.00000000000E+00 -0.00000000000E+00 -0.69763885345E+02  0.69763885345E+02  0.00000000000E+00 0. -1.
         25    1    1    2    0    0  0.28752945737E+03 -0.78056942282E+01  0.51844657976E+03  0.60592571639E+03  0.12500000000E+03 0.  0.
         25    1    1    2    0    0 -0.28752945737E+03  0.78056942282E+01  0.91885271479E+03  0.97090134885E+03  0.12500000000E+03 0.  0.
</event>
<event>
 4    0  0.2205135E-002  0.2622284E+03  0.7546771E-02  0.1105812E+00
         21   -1    0    0  502  501  0.00000000000E+00  0.00000000000E+00  0.15880124754E+03  0.15880124754E+03  0.00000000000E+00 0. -1.
         21   -1    0    0  501  502 -0.00000000000E+00 -0.00000000000E+00 -0.43301746527E+03  0.43301746527E+03  0.00000000000E+00 0. -1.
         25    1    1    2    0    0 -0.10823710730E+03  0.17891287282E+03 -0.27622380714E+02  0.24517969609E+03  0.12500000000E+03 0.  0.
         25    1    1    2    0    0  0.10823710730E+03 -0.17891287282E+03 -0.24659383702E+03  0.34663901672E+03  0.12500000000E+03 0.  0.
</event>
<event>
 4    0  0.2205135E-002  0.2149128E+03  0.7546771E-02  0.1137734E+00
         21   -1    0    0  502  501  0.00000000000E+00  0.00000000000E+00  0.18042434763E+03  0.18042434763E+03  0.00000000000E+00 0.  1.
         21   -1    0    0  501  502 -0.00000000000E+00 -0.00000000000E+00 -0.25599367179E+03  0.25599367179E+03  0.00000000000E+00 0.  1.
         25    1    1    2    0    0  0.10581180585E+03  0.12790694712E+03 -0.93454115876E+02  0.22784862772E+03  0.12500000000E+03 0.  0.
         25    1    1    2    0    0 -0.10581180585E+03 -0.12790694712E+03  0.17884791720E+02  0.20856939170E+03  0.12500000000E+03 0.  0.
</event>
<event>
 4    0  0.2205135E-002  0.2385704E+03  0.7546771E-02  0.1120749E+00
         21   -1    0    0  502  501  0.00000000000E+00  0.00000000000E+00  0.73853512265E+03  0.73853512265E+03  0.00000000000E+00 0.  1.
         21   -1    0    0  501  502 -0.00000000000E+00 -0.00000000000E+00 -0.77065820361E+02  0.77065820361E+02  0.00000000000E+00 0.  1.
         25    1    1    2    0    0 -0.49143701774E+02 -0.91429987130E+02  0.62933957298E+03  0.64997526421E+03  0.12500000000E+03 0.  0.
         25    1    1    2    0    0  0.49143701774E+02  0.91429987130E+02  0.32129729305E+02  0.16562567879E+03  0.12500000000E+03 0.  0.
</event>
<event>
 4    0  0.2205135E-002  0.2612347E+03  0.7546771E-02  0.1106404E+00
         21   -1    0    0  502  501  0.00000000000E+00  0.00000000000E+00  0.57621309420E+02  0.57621309420E+02  0.00000000000E+00 0. -1.
         21   -1    0    0  501  502 -0.00000000000E+00 -0.00000000000E+00 -0.11843458480E+04  0.11843458480E+04  0.00000000000E+00 0. -1.
         25    1    1    2    0    0  0.22689603775E+03  0.16561719412E+02 -0.49355224732E+03  0.55765125601E+03  0.12500000000E+03 0.  0.
         25    1    1    2    0    0 -0.22689603775E+03 -0.16561719412E+02 -0.63317229126E+03  0.68431590141E+03  0.12500000000E+03 0.  0.
</event>
<event>
 4    0  0.2205135E-002  0.3388562E+03  0.7546771E-02  0.1067284E+00
         21   -1    0    0  502  501  0.00000000000E+00  0.00000000000E+00  0.12181951455E+03  0.12181951455E+03  0.00000000000E+00 0.  1.
         21   -1    0    0  501  502 -0.00000000000E+00 -0.00000000000E+00 -0.94257066338E+03  0.94257066338E+03  0.00000000000E+00 0.  1.
         25    1    1    2    0    0 -0.93761751733E+02 -0.28481939823E+03 -0.56171421024E+03  0.64889229436E+03  0.12500000000E+03 0.  0.
         25    1    1    2    0    0  0.93761751733E+02  0.28481939823E+03 -0.25903693859E+03  0.41549788357E+03  0.12500000000E+03 0.  0.
</event>
<event>
 4    0  0.2205135E-002  0.2254749E+03  0.7546771E-02  0.1129866E+00
         21   -1    0    0  502  501  0.00000000000E+00  0.00000000000E+00  0.10387333521E+03  0.10387333521E+03  0.00000000000E+00 0. -1.
         21   -1    0    0  501  502 -0.00000000000E+00 -0.00000000000E+00 -0.48943200133E+03  0.48943200133E+03  0.00000000000E+00 0. -1.
         25    1    1    2    0    0 -0.42311144880E+02  0.16114499590E+03 -0.30638571954E+03  0.37047962403E+03  0.12500000000E+03 0.  0.
         25    1    1    2    0    0  0.42311144880E+02 -0.16114499590E+03 -0.79172946589E+02  0.22282571251E+03  0.12500000000E+03 0.  0.
</event>
<event>
 4    0  0.2205135E-002  0.2553303E+03  0.7546771E-02  0.1109982E+00
         21   -1    0    0  502  501  0.00000000000E+00  0.00000000000E+00  0.37720443050E+03  0.37720443050E+03  0.00000000000E+00 0. -1.
         21   -1    0    0  501  502 -0.00000000000E+00 -0.00000000000E+00 -0.17283352104E+03  0.17283352104E+03  0.00000000000E+00 0. -1.
         25    1    1    2    0    0 -0.27583626235E+02 -0.22065767850E+03  0.11388102841E+03  0.27936455779E+03  0.12500000000E+03 0.  0.
         25    1    1    2    0    0  0.27583626235E+02  0.22065767850E+03  0.90489881054E+02  0.27067339376E+03  0.12500000000E+03 0.  0.
</event>
<event>
 4    0  0.2205135E-002  0.1835735E+03  0.7546771E-02  0.1164389E+00
         21   -1    0    0  502  501  0.00000000000E+00  0.00000000000E+00  0.14008753098E+03  0.14008753098E+03  0.00000000000E+00 0. -1.
         21   -1    0    0  501  502 -0.00000000000E+00 -0.00000000000E+00 -0.24055830687E+03  0.24055830687E+03  0.00000000000E+00 0. -1.
         25    1    1    2    0    0  0.98544465034E+02  0.18113771676E+02 -0.14316984902E+03  0.21485280073E+03  0.12500000000E+03 0.  0.
         25    1    1    2    0    0 -0.98544465034E+02 -0.18113771676E+02  0.42699073125E+02  0.16579303712E+03  0.12500000000E+03 0.  0.
</event>
<event>
 4    0  0.2205135E-002  0.1741970E+03  0.7546771E-02  0.1173540E+00
         21   -1    0    0  502  501  0.00000000000E+00  0.00000000000E+00  0.48911475054E+03  0.48911475054E+03  0.00000000000E+00 0.  1.
         21   -1    0    0  501  502 -0.00000000000E+00 -0.00000000000E+00 -0.62039837408E+02  0.62039837408E+02  0.00000000000E+00 0.  1.
         25    1    1    2    0    0 -0.11546363967E+03  0.34960595150E+02  0.19318544390E+03  0.25980706502E+03  0.12500000000E+03 0.  0.
         25    1    1    2    0    0  0.11546363967E+03 -0.34960595150E+02  0.23388946923E+03  0.29134752293E+03  0.12500000000E+03 0.  0.
</event>
<event>
 4    0  0.2205135E-002  0.2223553E+03  0.7546771E-02  0.1132139E+00
         21   -1    0    0  502  501  0.00000000000E+00  0.00000000000E+00  0.85679707060E+03  0.85679707060E+03  0.00000000000E+00 0. -1.
         21   -1    0    0  501  502 -0.00000000000E+00 -0.00000000000E+00 -0.57705454956E+02  0.57705454956E+02  0.00000000000E+00 0. -1.
         25    1    1    2    0    0 -0.15178018446E+02  0.12458980816E+03  0.12316179465E+03  0.21574712096E+03  0.12500000000E+03 0.  0.
         25    1    1    2    0    0  0.15178018446E+02 -0.12458980816E+03  0.67592982100E+03  0.69875540460E+03  0.12500000000E+03 0.  0.
</event>
<event>
 4    0  0.2205135E-002  0.1805777E+03  0.7546771E-02  0.1167245E+00
         21   -1    0    0  502  501  0.00000000000E+00  0.00000000000E+00  0.53879080000E+02  0.53879080000E+02  0.00000000000E+00 0.  1.
         21   -1    0    0  501  502 -0.00000000000E+00 -0.00000000000E+00 -0.60521273148E+03  0.60521273148E+03  0.00000000000E+00 0.  1.
         25    1    1    2    0    0  0.59856105713E+00 -0.47766305747E+02 -0.54392984652E+02  0.14444921260E+03  0.12500000000E+03 0.  0.
         25    1    1    2    0    0 -0.59856105713E+00  0.47766305747E+02 -0.49694066682E+03  0.51464259888E+03  0.12500000000E+03 0.  0.
</event>
<event>
 4    0  0.2205135E-002  0.3063966E+03  0.7546771E-02  0.1082086E+00
         21   -1    0    0  502  501  0.00000000000E+00  0.00000000000E+00  0.15361619622E+03  0.15361619622E+03  0.00000000000E+00 0.  1.
         21   -1    0    0  501  502 -0.00000000000E+00 -0.00000000000E+00 -0.61112599704E+03  0.61112599704E+03  0.00000000000E+00 0.  1.
         25    1    1    2    0    0 -0.18346301557E+02 -0.17992279979E+03 -0.49508592951E+03  0.54170460425E+03  0.12500000000E+03 0.  0.
         25    1    1    2    0    0  0.18346301557E+02  0.17992279979E+03  0.37576128697E+02  0.22303758901E+03  0.12500000000E+03 0.  0.
</event>
<event>
 4    0  0.2205135E-002  0.2888210E+03  0.7546771E-02  0.1090966E+00
         21   -1    0    0  502  501  0.00000000000E+00  0.00000000000E+00  0.18903322428E+03  0.18903322428E+03  0.00000000000E+00 0.  1.
         21   -1    0    0  501  502 -0.00000000000E+00 -0.00000000000E+00 -0.44128532133E+03  0.44128532133E+03  0.00000000000E+00 0.  1.
         25    1    1    2    0    0 -0.18051558797E+03  0.16929831314E+03 -0.37848724062E+02  0.27983088151E+03  0.12500000000E+03 0.  0.
         25    1    1    2    0    0  0.18051558797E+03 -0.16929831314E+03 -0.21440337299E+03  0.35048766409E+03  0.12500000000E+03 0.  0.
</event>
<event>
 4    0  0.2205135E-002  0.3227546E+03  0.7546771E-02  0.1074388E+00
         21   -1    0    0  502  501  0.00000000000E+00  0.00000000000E+00  0.34435747470E+03  0.34435747470E+03  0.00000000000E+00 0.  1.
         21   -1    0    0  501  502 -0.00000000000E+00 -0.00000000000E+00 -0.30250696272E+03  0.30250696272E+03  0.00000000000E+00 0.  1.
         25    1    1    2    0    0  0.27119879925E+03 -0.78728081851E+02 -0.73072712116E+02  0.31735078516E+03  0.12500000000E+03 0.  0.
         25    1    1    2    0    0 -0.27119879925E+03  0.78728081851E+02  0.11492322410E+03  0.32951365226E+03  0.12500000000E+03 0.  0.
</event>
<event>
 4    0  0.2205135E-002  0.2188373E+03  0.7546771E-02  0.1134753E+00
         21   -1    0    0  502  501  0.00000000000E+00  0.00000000000E+00  0.11955374633E+03  0.11955374633E+03  0.00000000000E+00 0. -1.
         21   -1    0    0  501  502 -0.00000000000E+00 -0.00000000000E+00 -0.40057085222E+03  0.40057085222E+03  0.00000000000E+00 0. -1.
         25    1    1    2    0    0  0.13312229640E+03 -0.79290356080E+02 -0.24848953604E+03  0.31840313423E+03  0.12500000000E+03 0.  0.
         25    1    1    2    0    0 -0.13312229640E+03  0.79290356080E+02 -0.32527569852E+02  0.20172146432E+03  0.12500000000E+03 0.  0.
</event>
<event>
 4    0  0.2205135E-002  0.2028827E+03  0.7546771E-02  0.1147329E+00
         21   -1    0    0  502  501  0.00000000000E+00  0.00000000000E+00  0.19329477801E+04  0.19329477801E+04  0.00000000000E+00 0.  1.
         21   -1    0    0  501  502 -0.00000000000E+00 -0.00000000000E+00 -0.21294621538E+02  0.21294621538E+02  0.00000000000E+00 0.  1.
         25    1    1    2    0    0 -0.30400349289E+02 -0.11589166780E+03  0.14650990201E+04  0.14752949530E+04  0.12500000000E+03 0.  0.
         25    1    1    2    0    0  0.30400349289E+02  0.11589166780E+03  0.44655413854E+03  0.47894744863E+03  0.12500000000E+03 0.  0.
</event>
<event>
 4    0  0.2205135E-002  0.1806275E+03  0.7546771E-02  0.1167197E+00
         21   -1    0    0  502  501  0.00000000000E+00  0.00000000000E+00  0.25787492008E+03  0.25787492008E+03  0.00000000000E+00 0.  1.
         21   -1    0    0  501  502 -0.00000000000E+00 -0.00000000000E+00 -0.12651977915E+03  0.12651977915E+03  0.00000000000E+00 0.  1.
         25    1    1    2    0    0  0.12864638442E+02  0.71455804108E+02 -0.49564168693E+02  0.15281700717E+03  0.12500000000E+03 0.  0.
         25    1    1    2    0    0 -0.12864638442E+02 -0.71455804108E+02  0.18091930962E+03  0.23157769205E+03  0.12500000000E+03 0.  0.
</event>
<event>
 4    0  0.2205135E-002  0.1444839E+03  0.7546771E-02  0.1207420E+00
         21   -1    0    0  502  501  0.00000000000E+00  0.00000000000E+00  0.26195176367E+03  0.26195176367E+03  0.00000000000E+00 0. -1.
         21   -1    0    0  501  502 -0.00000000000E+00 -0.00000000000E+00 -0.79692557688E+02  0.79692557688E+02  0.00000000000E+00 0. -1.
         25    1    1    2    0    0  0.56082945733E+02  0.43658667467E+02  0.10781751580E+03  0.17972476947E+03  0.12500000000E+03 0.  0.
         25    1    1    2    0    0 -0.56082945733E+02 -0.43658667467E+02  0.74441690185E+02  0.16191955189E+03  0.12500000000E+03 0.  0.
</event>
<event>
 4    0  0.2205135E-002  0.2320763E+03  0.7546771E-02  0.1125187E+00
         21   -1    0    0  502  501  0.00000000000E+00  0.00000000000E+00  0.55227549253E+02  0.55227549253E+02  0.00000000000E+00 0. -1.
         21   -1    0    0  501  502 -0.00000000000E+00 -0.00000000000E+00 -0.97522742454E+03  0.97522742454E+03  0.00000000000E+00 0. -1.
         25    1    1    2    0    0 -0.18938148192E+03 -0.47175084264E+02 -0.43339729582E+03  0.49147639851E+03  0.12500000000E+03 0.  0.
         25    1    1    2    0    0  0.18938148192E+03  0.47175084264E+02 -0.48660257947E+03  0.53897857529E+03  0.12500000000E+03 0.  0.
</event>
<event>
 4    0  0.2205135E-002  0.2197339E+03  0.7546771E-02  0.1134082E+00
         21   -1    0    0  502  501  0.00000000000E+00  0.00000000000E+00  0.53173225395E+03  0.53173225395E+03  0.00000000000E+00 0.  1.
         21   -1    0    0  501  502 -0.00000000000E+00 -0.00000000000E+00 -0.90803226383E+02  0.90803226383E+02  0.00000000000E+00 0.  1.
         25    1    1    2    0    0  0.16560390973E+03 -0.41181831735E+02  0.30471636019E+03  0.37094158348E+03  0.12500000000E+03 0.  0.
         25    1    1    2    0    0 -0.16560390973E+03  0.41181831735E+02  0.13621266737E+03  0.25159389686E+03  0.12500000000E+03 0.  0.
</event>
<event>
 4    0  0.2205135E-002  0.1660688E+03  0.7546771E-02  0.1182011E+00
         21   -1    0    0  502  501  0.00000000000E+00  0.00000000000E+00  0.45324420890E+03  0.45324420890E+03  0.00000000000E+00 0. -1.
         21   -1    0    0  501  502 -0.00000000000E+00 -0.00000000000E+00 -0.60847683757E+02  0.60847683757E+02  0.00000000000E+00 0. -1.
         25    1    1    2    0    0  0.45926493213E+02  0.98857243158E+02  0.20931951305E+03  0.26706114627E+03  0.12500000000E+03 0.  0.
         25    1    1    2    0    0 -0.45926493213E+02 -0.98857243158E+02  0.18307701209E+03  0.24703074638E+03  0.12500000000E+03 0.  0.
</event>
<event>
 4    0  0.2205135E-002  0.1975396E+03  0.7546771E-02  0.1151832E+00
         21   -1    0    0  502  501  0.00000000000E+00  0.00000000000E+00  0.27767600213E+02  0.27767600213E+02  0.00000000000E+00 0. -1.
         21   -1    0    0  501  502 -0.00000000000E+00 -0.00000000000E+00 -0.14053032908E+04  0.14053032908E+04  0.00000000000E+00 0.  1.
         25    1    1    2    0    0  0.62209431863E+02 -0.13969541349E+03 -0.70137394896E+03  0.72865303007E+03  0.12500000000E+03 0.  0.
         25    1    1    2    0    0 -0.62209431863E+02  0.13969541349E+03 -0.67616174162E+03  0.70441786093E+03  0.12500000000E+03 0.  0.
</event>
<event>
 4    0  0.2205135E-002  0.2758850E+03  0.7546771E-02  0.1097958E+00
         21   -1    0    0  502  501  0.00000000000E+00  0.00000000000E+00  0.55715208426E+03  0.55715208426E+03  0.00000000000E+00 0. -1.
         21   -1    0    0  501  502 -0.00000000000E+00 -0.00000000000E+00 -0.13660997747E+03  0.13660997747E+03  0.00000000000E+00 0. -1.
         25    1    1    2    0    0  0.51226728890E+02 -0.12158167536E+03  0.47124467971E+03  0.50507705322E+03  0.12500000000E+03 0.  0.
         25    1    1    2    0    0 -0.51226728890E+02  0.12158167536E+03 -0.50702572916E+02  0.18868500851E+03  0.12500000000E+03 0.  0.
</event>
<event>
 4    0  0.2205135E-002  0.3027438E+03  0.7546771E-02  0.1083877E+00
         21   -1    0    0  502  501  0.00000000000E+00  0.00000000000E+00  0.32972529140E+03  0.32972529140E+03  0.00000000000E+00 0.  1.
         21   -1    0    0  501  502 -0.00000000000E+00 -0.00000000000E+00 -0.27797024779E+03  0.27797024779E+03  0.00000000000E+00 0. -1.
         25    1    1    2    0    0  0.27267490503E+03 -0.26374392670E+00  0.66979848072E+02  0.30734829338E+03  0.12500000000E+03 0.  0.
         25    1    1    2    0    0 -0.27267490503E+03  0.26374392670E+00 -0.15224804467E+02  0.30034724581E+03  0.12500000000E+03 0.  0.
</event>
<event>
 4    0  0.2205135E-002  0.2048119E+03  0.7546771E-02  0.1145742E+00
         21   -1    0    0  502  501  0.00000000000E+00  0.00000000000E+00  0.19892735341E+03  0.19892735341E+03  0.00000000000E+00 0. -1.
         21   -1    0    0  501  502 -0.00000000000E+00 -0.00000000000E+00 -0.21087049195E+03  0.21087049195E+03  0.00000000000E+00 0. -1.
         25    1    1    2    0    0  0.93253667417E+02 -0.46148130359E+02 -0.13051146794E+03  0.20852851049E+03  0.12500000000E+03 0.  0.
         25    1    1    2    0    0 -0.93253667417E+02  0.46148130359E+02  0.11856832941E+03  0.20126933487E+03  0.12500000000E+03 0.  0.
</event>
<event>
 4    0  0.2205135E-002  0.2446258E+03  0.7546771E-02  0.1116749E+00
         21   -1    0    0  502  501  0.00000000000E+00  0.00000000000E+00  0.47325386731E+02  0.47325386731E+02  0.00000000000E+00 0. -1.
         21   -1    0    0  501  502 -0.00000000000E+00 -0.00000000000E+00 -0.12644754854E+04  0.12644754854E+04  0.00000000000E+00 0. -1.
         25    1    1    2    0    0  0.13115569688E+03  0.15321977406E+03 -0.44907677503E+03  0.50791049001E+03  0.12500000000E+03 0.  0.
         25    1    1    2    0    0 -0.13115569688E+03 -0.15321977406E+03 -0.76807332360E+03  0.80389038209E+03  0.12500000000E+03 0.  0.
</event>
<event>
 4    0  0.2205135E-002  0.1997600E+03  0.7546771E-02  0.1149942E+00
         21   -1    0    0  502  501  0.00000000000E+00  0.00000000000E+00  0.21456581906E+04  0.21456581906E+04  0.00000000000E+00 0. -1.
         21   -1    0    0  501  502 -0.00000000000E+00 -0.00000000000E+00 -0.18597576285E+02  0.18597576285E+02  0.00000000000E+00 0. -1.
         25    1    1    2    0    0  0.14016264414E+03  0.55331933098E+02  0.12783014877E+04  0.12932079814E+04  0.12500000000E+03 0.  0.
         25    1    1    2    0    0 -0.14016264414E+03 -0.55331933098E+02  0.84875912666E+03  0.87104778555E+03  0.12500000000E+03 0.  0.
</event>
<event>
 4    0  0.2205135E-002  0.1569664E+03  0.7546771E-02  0.1192165E+00
         21   -1    0    0  502  501  0.00000000000E+00  0.00000000000E+00  0.61448219830E+03  0.61448219830E+03  0.00000000000E+00 0.  1.
         21   -1    0    0  501  502 -0.00000000000E+00 -0.00000000000E+00 -0.40096266737E+02  0.40096266737E+02  0.00000000000E+00 0.  1.
         25    1    1    2    0    0  0.91297850009E+02 -0.14657060240E+02  0.33207405781E+03  0.36667193334E+03  0.12500000000E+03 0.  0.
         25    1    1    2    0    0 -0.91297850009E+02  0.14657060240E+02  0.24231187376E+03  0.28790653170E+03  0.12500000000E+03 0.  0.
</event>
<event>
 4    0  0.2205135E-002  0.2038905E+03  0.7546771E-02  0.1146497E+00
         21   -1    0    0  502  501  0.00000000000E+00  0.00000000000E+00  0.14996974812E+04  0.14996974812E+04  0.00000000000E+00 0.  1.
         21   -1    0    0  501  502 -0.00000000000E+00 -0.00000000000E+00 -0.27719818746E+02  0.27719818746E+02  0.00000000000E+00 0.  1.
         25    1    1    2    0    0  0.78736989994E+02  0.53755334928E+01  0.21001834883E+03  0.25682896410E+03  0.12500000000E+03 0.  0.
         25    1    1    2    0    0 -0.78736989994E+02 -0.53755334928E+01  0.12619593136E+04  0.12705883358E+04  0.12500000000E+03 0.  0.
</event>
<event>
 4    0  0.2205135E-002  0.1680145E+03  0.7546771E-02  0.1179934E+00
         21   -1    0    0  502  501  0.00000000000E+00  0.00000000000E+00  0.17704656241E+02  0.17704656241E+02  0.00000000000E+00 0.  1.
         21   -1    0    0  501  502 -0.00000000000E+00 -0.00000000000E+00 -0.15944325095E+04  0.15944325095E+04  0.00000000000E+00 0.  1.
         25    1    1    2    0    0  0.41561494992E+02  0.73887543999E+02 -0.11414744851E+04  0.11514233484E+04  0.12500000000E+03 0.  0.
         25    1    1    2    0    0 -0.41561494992E+02 -0.73887543999E+02 -0.43525336809E+03  0.46071381731E+03  0.12500000000E+03 0.  0.
</event>
<event>
 4    0  0.2205135E-002  0.1896292E+03  0.7546771E-02  0.1158796E+00
         21   -1    0    0  502  501  0.00000000000E+00  0.00000000000E+00  0.24191967038E+03  0.24191967038E+03  0.00000000000E+00 0. -1.
         21   -1    0    0  501  502 -0.00000000000E+00 -0.00000000000E+00 -0.14864126175E+03  0.14864126175E+03  0.00000000000E+00 0. -1.
         25    1    1    2    0    0  0.14136883225E+03  0.18681366643E+02  0.46972671668E+02  0.19536010871E+03  0.12500000000E+03 0.  0.
         25    1    1    2    0    0 -0.14136883225E+03 -0.18681366643E+02  0.46305736959E+02  0.19520082343E+03  0.12500000000E+03 0.  0.
</event>
<event>
 4    0  0.2205135E-002  0.1446386E+03  0.7546771E-02  0.1207220E+00
         21   -1    0    0  502  501  0.00000000000E+00  0.00000000000E+00  0.25619727915E+03  0.25619727915E+03  0.00000000000E+00 0. -1.
         21   -1    0    0  501  502 -0.00000000000E+00 -0.00000000000E+00 -0.81657131228E+02  0.81657131228E+02  0.00000000000E+00 0. -1.
         25    1    1    2    0    0  0.44354865387E+02 -0.23129419811E+02  0.25546426663E+02  0.13703993600E+03  0.12500000000E+03 0.  0.
         25    1    1    2    0    0 -0.44354865387E+02  0.23129419811E+02  0.14899372126E+03  0.20081447438E+03  0.12500000000E+03 0.  0.
</event>
<event>
 4    0  0.2205135E-002  0.3156493E+03  0.7546771E-02  0.1077669E+00
         21   -1    0    0  502  501  0.00000000000E+00  0.00000000000E+00  0.14514916002E+04  0.14514916002E+04  0.00000000000E+00 0.  1.
         21   -1    0    0  501  502 -0.00000000000E+00 -0.00000000000E+00 -0.68642811204E+02  0.68642811204E+02  0.00000000000E+00 0.  1.
         25    1    1    2    0    0 -0.20422855339E+03  0.20543165367E+03  0.71526156778E+03  0.78175160805E+03  0.12500000000E+03 0.  0.
         25    1    1    2    0    0  0.20422855339E+03 -0.20543165367E+03  0.66758722122E+03  0.73838280335E+03  0.12500000000E+03 0.  0.
</event>
<event>
 4    0  0.2205135E-002  0.2457474E+03  0.7546771E-02  0.1116022E+00
         21   -1    0    0  502  501  0.00000000000E+00  0.00000000000E+00  0.48682502780E+03  0.48682502780E+03  0.00000000000E+00 0. -1.
         21   -1    0    0  501  502 -0.00000000000E+00 -0.00000000000E+00 -0.12405229234E+03  0.12405229234E+03  0.00000000000E+00 0. -1.
         25    1    1    2    0    0  0.16552732848E+03  0.10075721407E+03  0.75809976981E+02  0.24274156066E+03  0.12500000000E+03 0.  0.
         25    1    1    2    0    0 -0.16552732848E+03 -0.10075721407E+03  0.28696275848E+03  0.36813575949E+03  0.12500000000E+03 0.  0.
</event>
<event>
 4    0  0.2205135E-002  0.2032548E+03  0.7546771E-02  0.1147022E+00
         21   -1    0    0  502  501  0.00000000000E+00  0.00000000000E+00  0.10852402722E+03  0.10852402722E+03  0.00000000000E+00 0. -1.
         21   -1    0    0  501  502 -0.00000000000E+00 -0.00000000000E+00 -0.38067611335E+03  0.38067611335E+03  0.00000000000E+00 0. -1.
         25    1    1    2    0    0 -0.24801376161E+02 -0.86576087011E+02 -0.29562277593E+03  0.33335919479E+03  0.12500000000E+03 0.  0.
         25    1    1    2    0    0  0.24801376161E+02  0.86576087011E+02  0.23470689800E+02  0.15584094578E+03  0.12500000000E+03 0.  0.
</event>
<event>
 4    0  0.2205135E-002  0.2831517E+03  0.7546771E-02  0.1093980E+00
         21   -1    0    0  502  501  0.00000000000E+00  0.00000000000E+00  0.36814679587E+02  0.36814679587E+02  0.00000000000E+00 0.  1.
         21   -1    0    0  501  502 -0.00000000000E+00 -0.00000000000E+00 -0.21777959050E+04  0.21777959050E+04  0.00000000000E+00 0.  1.
         25    1    1    2    0    0  0.79098308815E+01  0.22944742125E+03 -0.64494545367E+03  0.69590827180E+03  0.12500000000E+03 0.  0.
         25    1    1    2    0    0 -0.79098308815E+01 -0.22944742125E+03 -0.14960357718E+04  0.15187023128E+04  0.12500000000E+03 0.  0.
</event>
<event>
 4    0  0.2205135E-002  0.1982885E+03  0.7546771E-02  0.1151191E+00
         21   -1    0    0  502  501  0.00000000000E+00  0.00000000000E+00  0.51231254638E+02  0.51231254638E+02  0.00000000000E+00 0. -1.
         21   -1    0    0  501  502 -0.00000000000E+00 -0.00000000000E+00 -0.76746735169E+03  0.76746735169E+03  0.00000000000E+00 0. -1.
         25    1    1    2    0    0  0.94453017485E+02  0.11938765141E+03 -0.40512739099E+03  0.45047528984E+03  0.12500000000E+03 0.  0.
         25    1    1    2    0    0 -0.94453017485E+02 -0.11938765141E+03 -0.31110870606E+03  0.36822331649E+03  0.12500000000E+03 0.  0.
</event>
<event>
 4    0  0.2205135E-002  0.2336608E+03  0.7546771E-02  0.1124089E+00
         21   -1    0    0  502  501  0.00000000000E+00  0.00000000000E+00  0.14370891683E+03  0.14370891683E+03  0.00000000000E+00 0. -1.
         21   -1    0    0  501  502 -0.00000000000E+00 -0.00000000000E+00 -0.37991632558E+03  0.37991632558E+03  0.00000000000E+00 0. -1.
         25    1    1    2    0    0 -0.11764180540E+03 -0.24440701840E+02  0.57406148813E+02  0.18264010569E+03  0.12500000000E+03 0.  0.
         25    1    1    2    0    0  0.11764180540E+03  0.24440701840E+02 -0.29361355756E+03  0.34098513672E+03  0.12500000000E+03 0.  0.
</event>
<event>
 4    0  0.2205135E-002  0.2507058E+03  0.7546771E-02  0.1112860E+00
         21   -1    0    0  502  501  0.00000000000E+00  0.00000000000E+00  0.23841232771E+03  0.23841232771E+03  0.00000000000E+00 0. -1.
         21   -1    0    0  501  502 -0.00000000000E+00 -0.00000000000E+00 -0.26363314130E+03  0.26363314130E+03  0.00000000000E+00 0. -1.
         25    1    1    2    0    0  0.11405316880E+03  0.11019270283E+03 -0.16138436917E+03  0.25849656029E+03  0.12500000000E+03 0.  0.
         25    1    1    2    0    0 -0.11405316880E+03 -0.11019270283E+03  0.13616355559E+03  0.24354890872E+03  0.12500000000E+03 0.  0.
</event>
<event>
 4    0  0.2205135E-002  0.1895966E+03  0.7546771E-02  0.1158826E+00
         21   -1    0    0  502  501  0.00000000000E+00  0.00000000000E+00  0.42364121493E+02  0.42364121493E+02  0.00000000000E+00 0.  1.
         21   -1    0    0  501  502 -0.00000000000E+00 -0.00000000000E+00 -0.84852172236E+03  0.84852172236E+03  0.00000000000E+00 0.  1.
         25    1    1    2    0    0  0.15375870964E+02  0.91732764502E+02 -0.14926962247E+03  0.21577242104E+03  0.12500000000E+03 0.  0.
         25    1    1    2    0    0 -0.15375870964E+02 -0.91732764502E+02 -0.65688797840E+03  0.67511342281E+03  0.12500000000E+03 0.  0.
</event>
<event>
 4    0  0.2205135E-002  0.1810161E+03  0.7546771E-02  0.1166823E+00
         21   -1    0    0  502  501  0.00000000000E+00  0.00000000000E+00  0.17230418434E+03  0.17230418434E+03  0.00000000000E+00 0. -1.
         21   -1    0    0  501  502 -0.00000000000E+00 -0.00000000000E+00 -0.19016852410E+03  0.19016852410E+03  0.00000000000E+00 0. -1.
         25    1    1    2    0    0 -0.84417704570E+02  0.41101343586E+02  0.82426663521E+02  0.17673376629E+03  0.12500000000E+03 0.  0.
         25    1    1    2    0    0  0.84417704570E+02 -0.41101343586E+02 -0.10029100329E+03  0.18573894215E+03  0.12500000000E+03 0.  0.
</event>
<event>
 4    0  0.2205135E-002  0.2232854E+03  0.7546771E-02  0.1131457E+00
         21   -1    0    0  502  501  0.00000000000E+00  0.00000000000E+00  0.13107769936E+04  0.13107769936E+04  0.00000000000E+00 0. -1.
         21   -1    0    0  501  502 -0.00000000000E+00 -0.00000000000E+00 -0.38035752243E+02  0.38035752243E+02  0.00000000000E+00 0. -1.
         25    1    1    2    0    0  0.15087905539E+03 -0.82742761648E+02  0.43106190398E+03  0.48067683430E+03  0.12500000000E+03 0.  0.
         25    1    1    2    0    0 -0.15087905539E+03  0.82742761648E+02  0.84167933740E+03  0.86813591158E+03  0.12500000000E+03 0.  0.
</event>
<event>
 4    0  0.2205135E-002  0.1797862E+03  0.7546771E-02  0.1168010E+00
         21   -1    0    0  502  501  0.00000000000E+00  0.00000000000E+00  0.19117217723E+03  0.19117217723E+03  0.00000000000E+00 0. -1.
         21   -1    0    0  501  502 -0.00000000000E+00 -0.00000000000E+00 -0.16907840569E+03  0.16907840569E+03  0.00000000000E+00 0. -1.
         25    1    1    2    0    0 -0.78485902470E+02  0.40744299310E+02  0.10544746971E+03  0.18591477531E+03  0.12500000000E+03 0.  0.
         25    1    1    2    0    0  0.78485902470E+02 -0.40744299310E+02 -0.83353698171E+02  0.17433580760E+03  0.12500000000E+03 0.  0.
</event>
<event>
 4    0  0.2205135E-002  0.3119597E+03  0.7546771E-02  0.1079410E+00
         21   -1    0    0  502  501  0.00000000000E+00  0.00000000000E+00  0.13272088316E+03  0.13272088316E+03  0.00000000000E+00 0.  1.
         21   -1    0    0  501  502 -0.00000000000E+00 -0.00000000000E+00 -0.73325940943E+03  0.73325940943E+03  0.00000000000E+00 0.  1.
         25    1    1    2    0    0  0.15598651270E+03 -0.23285449428E+03 -0.37805530774E+03  0.48693307893E+03  0.12500000000E+03 0.  0.
         25    1    1    2    0    0 -0.15598651270E+03  0.23285449428E+03 -0.22248321853E+03  0.37904721365E+03  0.12500000000E+03 0.  0.
</event>
<event>
 4    0  0.2205135E-002  0.2521474E+03  0.7546771E-02  0.1111955E+00
         21   -1    0    0  502  501  0.00000000000E+00  0.00000000000E+00  0.39980522103E+03  0.39980522103E+03  0.00000000000E+00 0. -1.
         21   -1    0    0  501  502 -0.00000000000E+00 -0.00000000000E+00 -0.15902319816E+03  0.15902319816E+03  0.00000000000E+00 0. -1.
         25    1    1    2    0    0  0.63147213286E+02  0.11539990614E+03 -0.73607906824E+02  0.19582602695E+03  0.12500000000E+03 0.  0.
         25    1    1    2    0    0 -0.63147213286E+02 -0.11539990614E+03  0.31438992969E+03  0.36300239224E+03  0.12500000000E+03 0.  0.
</event>
<event>
 4    0  0.2205135E-002  0.1866980E+03  0.7546771E-02  0.1161474E+00
         21   -1    0    0  502  501  0.00000000000E+00  0.00000000000E+00  0.20144051209E+04  0.20144051209E+04  0.00000000000E+00 0. -1.
         21   -1    0    0  501  502 -0.00000000000E+00 -0.00000000000E+00 -0.17303445404E+02  0.17303445404E+02  0.00000000000E+00 0. -1.
         25    1    1    2    0    0 -0.50708398029E+02  0.58434411724E+01  0.17001372710E+04  0.17054903189E+04  0.12500000000E+03 0.  0.
         25    1    1    2    0    0  0.50708398029E+02 -0.58434411724E+01  0.29696440447E+03  0.32621824743E+03  0.12500000000E+03 0.  0.
</event>
<event>
 4    0  0.2205135E-002  0.3316472E+03  0.7546771E-02  0.1070410E+00
         21   -1    0    0  502  501  0.00000000000E+00  0.00000000000E+00  0.40981565719E+03  0.40981565719E+03  0.00000000000E+00 0. -1.
         21   -1    0    0  501  502 -0.00000000000E+00 -0.00000000000E+00 -0.26838856621E+03  0.26838856621E+03  0.00000000000E+00 0. -1.
         25    1    1    2    0    0  0.18698004520E+03 -0.68750581732E+01 -0.17839386618E+03  0.28715531550E+03  0.12500000000E+03 0.  0.
         25    1    1    2    0    0 -0.18698004520E+03  0.68750581732E+01  0.31982095716E+03  0.39104890790E+03  0.12500000000E+03 0.  0.
</event>
<event>
 4    0  0.2205135E-002  0.1893607E+03  0.7546771E-02  0.1159039E+00
         21   -1    0    0  502  501  0.00000000000E+00  0.00000000000E+00  0.31055469731E+03  0.31055469731E+03  0.00000000000E+00 0.  1.
         21   -1    0    0  501  502 -0.00000000000E+00 -0.00000000000E+00 -0.11546272664E+03  0.11546272664E+03  0.00000000000E+00 0.  1.
         25    1    1    2    0    0 -0.11636671676E+03 -0.75838985736E+02  0.13202925200E+03  0.22880010470E+03  0.12500000000E+03 0.  0.
         25    1    1    2    0    0  0.11636671676E+03  0.75838985736E+02  0.63062718675E+02  0.19721731925E+03  0.12500000000E+03 0.  0.
</event>
<event>
 4    0  0.2205135E-002  0.2046446E+03  0.7546771E-02  0.1145878E+00
         21   -1    0    0  502  501  0.00000000000E+00  0.00000000000E+00  0.88769502886E+02  0.88769502886E+02  0.00000000000E+00 0.  1.
         21   -1    0    0  501  502 -0.00000000000E+00 -0.00000000000E+00 -0.47177704663E+03  0.47177704663E+03  0.00000000000E+00 0. -1.
         25    1    1    2    0    0 -0.82774197834E+02  0.36434650995E+02 -0.73736266747E+01  0.15446171691E+03  0.12500000000E+03 0.  0.
         25    1    1    2    0    0  0.82774197834E+02 -0.36434650995E+02 -0.37563391707E+03  0.40608483261E+03  0.12500000000E+03 0.  0.
</event>
<event>
 4    0  0.2205135E-002  0.2537224E+03  0.7546771E-02  0.1110975E+00
         21   -1    0    0  502  501  0.00000000000E+00  0.00000000000E+00  0.70034060453E+02  0.70034060453E+02  0.00000000000E+00 0.  1.
         21   -1    0    0  501  502 -0.00000000000E+00 -0.00000000000E+00 -0.91919607016E+03  0.91919607016E+03  0.00000000000E+00 0.  1.
         25    1    1    2    0    0 -0.11137927279E+03  0.12170481480E+03 -0.71064100477E+03  0.74017095459E+03  0.12500000000E+03 0.  0.
         25    1    1    2    0    0  0.11137927279E+03 -0.12170481480E+03 -0.13852100493E+03  0.24905917602E+03  0.12500000000E+03 0.  0.
</event>
<event>
 4    0  0.2205135E-002  0.2259498E+03  0.7546771E-02  0.1129523E+00
         21   -1    0    0  502  501  0.00000000000E+00  0.00000000000E+00  0.10154550847E+04  0.10154550847E+04  0.00000000000E+00 0.  1.
         21   -1    0    0  501  502 -0.00000000000E+00 -0.00000000000E+00 -0.50276294769E+02  0.50276294769E+02  0.00000000000E+00 0.  1.
         25    1    1    2    0    0 -0.91881129179E+02 -0.87352270804E+02  0.15448589825E+03  0.23571901466E+03  0.12500000000E+03 0.  0.
         25    1    1    2    0    0  0.91881129179E+02  0.87352270804E+02  0.81069289163E+03  0.83001236476E+03  0.12500000000E+03 0.  0.
</event>
<event>
 4    0  0.2205135E-002  0.2040921E+03  0.7546771E-02  0.1146332E+00
         21   -1    0    0  502  501  0.00000000000E+00  0.00000000000E+00  0.18543949698E+03  0.18543949698E+03  0.00000000000E+00 0. -1.
         21   -1    0    0  501  502 -0.00000000000E+00 -0.00000000000E+00 -0.22462099815E+03  0.22462099815E+03  0.00000000000E+00 0. -1.
         25    1    1    2    0    0 -0.71536600330E+02  0.36954408936E+02  0.12085704790E+03  0.19161038478E+03  0.12500000000E+03 0.  0.
         25    1    1    2    0    0  0.71536600330E+02 -0.36954408936E+02 -0.16003854907E+03  0.21845011036E+03  0.12500000000E+03 0.  0.
</event>
<event>
 4    0  0.2205135E-002  0.1773006E+03  0.7546771E-02  0.1170441E+00
         21   -1    0    0  502  501  0.00000000000E+00  0.00000000000E+00  0.45778936245E+02  0.45778936245E+02  0.00000000000E+00 0.  1.
         21   -1    0    0  501  502 -0.00000000000E+00 -0.00000000000E+00 -0.68668070457E+03  0.68668070457E+03  0.00000000000E+00 0.  1.
         25    1    1    2    0    0 -0.59988279381E+02 -0.47073583987E+02 -0.11393356669E+03  0.18552728530E+03  0.12500000000E+03 0.  0.
         25    1    1    2    0    0  0.59988279381E+02  0.47073583987E+02 -0.52696820164E+03  0.54693235552E+03  0.12500000000E+03 0.  0.
</event>
<event>
 4    0  0.2205135E-002  0.2528997E+03  0.7546771E-02  0.1111486E+00
         21   -1    0    0  502  501  0.00000000000E+00  0.00000000000E+00  0.17819388497E+04  0.17819388497E+04  0.00000000000E+00 0.  1.
         21   -1    0    0  501  502 -0.00000000000E+00 -0.00000000000E+00 -0.35892511248E+02  0.35892511248E+02  0.00000000000E+00 0.  1.
         25    1    1    2    0    0  0.14170722445E+03 -0.16799845095E+03  0.89232494145E+03  0.92745523780E+03  0.12500000000E+03 0.  0.
         25    1    1    2    0    0 -0.14170722445E+03  0.16799845095E+03  0.85372139701E+03  0.89037612316E+03  0.12500000000E+03 0.  0.
</event>
<event>
 4    0  0.2205135E-002  0.2264081E+03  0.7546771E-02  0.1129194E+00
         21   -1    0    0  502  501  0.00000000000E+00  0.00000000000E+00  0.23507149884E+03  0.23507149884E+03  0.00000000000E+00 0. -1.
         21   -1    0    0  501  502 -0.00000000000E+00 -0.00000000000E+00 -0.21806394740E+03  0.21806394740E+03  0.00000000000E+00 0. -1.
         25    1    1    2    0    0 -0.16009962742E+03  0.98631369494E+02 -0.81085683812E+01  0.22594421132E+03  0.12500000000E+03 0.  0.
         25    1    1    2    0    0  0.16009962742E+03 -0.98631369494E+02  0.25116119818E+02  0.22719123492E+03  0.12500000000E+03 0.  0.
</event>
<event>
 4    0  0.2205135E-002  0.2048796E+03  0.7546771E-02  0.1145686E+00
         21   -1    0    0  502  501  0.00000000000E+00  0.00000000000E+00  0.90493378906E+02  0.90493378906E+02  0.00000000000E+00 0.  1.
         21   -1    0    0  501  502 -0.00000000000E+00 -0.00000000000E+00 -0.46385317992E+03  0.46385317992E+03  0.00000000000E+00 0.  1.
         25    1    1    2    0    0 -0.14312982667E+03  0.30300688154E+02 -0.28182702396E+03  0.34125613609E+03  0.12500000000E+03 0.  0.
         25    1    1    2    0    0  0.14312982667E+03 -0.30300688154E+02 -0.91532777055E+02  0.21309042273E+03  0.12500000000E+03 0.  0.
</event>
<event>
 4    0  0.2205135E-002  0.2784294E+03  0.7546771E-02  0.1096550E+00
         21   -1    0    0  502  501  0.00000000000E+00  0.00000000000E+00  0.25053895914E+03  0.25053895914E+03  0.00000000000E+00 0.  1.
         21   -1    0    0  501  502 -0.00000000000E+00 -0.00000000000E+00 -0.30942461082E+03  0.30942461082E+03  0.00000000000E+00 0.  1.
         25    1    1    2    0    0  0.12028565363E+03  0.21764894355E+03 -0.21770157061E+02  0.27917492874E+03  0.12500000000E+03 0.  0.
         25    1    1    2    0    0 -0.12028565363E+03 -0.21764894355E+03 -0.37115494616E+02  0.28078864122E+03  0.12500000000E+03 0.  0.
</event>
<event>
 4    0  0.2205135E-002  0.2436573E+03  0.7546771E-02  0.1117380E+00
         21   -1    0    0  502  501  0.00000000000E+00  0.00000000000E+00  0.71923466268E+02  0.71923466268E+02  0.00000000000E+00 0.  1.
         21   -1    0    0  501  502 -0.00000000000E+00 -0.00000000000E+00 -0.82544527778E+03  0.82544527778E+03  0.00000000000E+00 0.  1.
         25    1    1    2    0    0  0.61255500892E+01  0.20498590038E+03 -0.45239847336E+03  0.51219734519E+03  0.12500000000E+03 0.  0.
         25    1    1    2    0    0 -0.61255500892E+01 -0.20498590038E+03 -0.30112333815E+03  0.38517139886E+03  0.12500000000E+03 0.  0.
</event>
<event>
 4    0  0.2205135E-002  0.1854393E+03  0.7546771E-02  0.1162640E+00
         21   -1    0    0  502  501  0.00000000000E+00  0.00000000000E+00  0.47880434867E+03  0.47880434867E+03  0.00000000000E+00 0. -1.
         21   -1    0    0  501  502 -0.00000000000E+00 -0.00000000000E+00 -0.71819984957E+02  0.71819984957E+02  0.00000000000E+00 0. -1.
         25    1    1    2    0    0  0.39901976851E+02  0.17195964727E+02  0.10631501347E+02  0.13276256167E+03  0.12500000000E+03 0.  0.
         25    1    1    2    0    0 -0.39901976851E+02 -0.17195964727E+02  0.39635286237E+03  0.41786177196E+03  0.12500000000E+03 0.  0.
</event>
<event>
 4    0  0.2205135E-002  0.2596080E+03  0.7546771E-02  0.1107379E+00
         21   -1    0    0  502  501  0.00000000000E+00  0.00000000000E+00  0.56101502298E+03  0.56101502298E+03  0.00000000000E+00 0.  1.
         21   -1    0    0  501  502 -0.00000000000E+00 -0.00000000000E+00 -0.12013281246E+03  0.12013281246E+03  0.00000000000E+00 0.  1.
         25    1    1    2    0    0 -0.41398509979E+01 -0.16870546711E+02 -0.77183299784E+02  0.14793246932E+03  0.12500000000E+03 0.  0.
         25    1    1    2    0    0  0.41398509979E+01  0.16870546711E+02  0.51806551030E+03  0.53321536613E+03  0.12500000000E+03 0.  0.
</event>
<event>
 4    0  0.2205135E-002  0.1892505E+03  0.7546771E-02  0.1159139E+00
         21   -1    0    0  502  501  0.00000000000E+00  0.00000000000E+00  0.47538457871E+02  0.47538457871E+02  0.00000000000E+00 0.  1.
         21   -1    0    0  501  502 -0.00000000000E+00 -0.00000000000E+00 -0.75340608241E+03  0.75340608241E+03  0.00000000000E+00 0.  1.
         25    1    1    2    0    0  0.21302595754E+02  0.84806278301E+02 -0.11592296826E+03  0.19159603335E+03  0.12500000000E+03 0.  0.
         25    1    1    2    0    0 -0.21302595754E+02 -0.84806278301E+02 -0.58994465629E+03  0.60934850694E+03  0.12500000000E+03 0.  0.
</event>
<event>
 4    0  0.2205135E-002  0.2658067E+03  0.7546771E-02  0.1103704E+00
         21   -1    0    0  502  501  0.00000000000E+00  0.00000000000E+00  0.32840746751E+03  0.32840746751E+03  0.00000000000E+00 0. -1.
         21   -1    0    0  501  502 -0.00000000000E+00 -0.00000000000E+00 -0.21513880486E+03  0.21513880486E+03  0.00000000000E+00 0. -1.
         25    1    1    2    0    0 -0.10247212762E+03  0.12136383295E+03 -0.11986279730E+03  0.23499320642E+03  0.12500000000E+03 0.  0.
         25    1    1    2    0    0  0.10247212762E+03 -0.12136383295E+03  0.23313145995E+03  0.30855306595E+03  0.12500000000E+03 0.  0.
</event>
<event>
 4    0  0.2205135E-002  0.2727198E+03  0.7546771E-02  0.1099733E+00
         21   -1    0    0  502  501  0.00000000000E+00  0.00000000000E+00  0.51453637860E+03  0.51453637860E+03  0.00000000000E+00 0. -1.
         21   -1    0    0  501  502 -0.00000000000E+00 -0.00000000000E+00 -0.14454970049E+03  0.14454970049E+03  0.00000000000E+00 0.  1.
         25    1    1    2    0    0 -0.18260875549E+03  0.15883035744E+03  0.16887005333E+03  0.32049202009E+03  0.12500000000E+03 0.  0.
         25    1    1    2    0    0  0.18260875549E+03 -0.15883035744E+03  0.20111662478E+03  0.33859405900E+03  0.12500000000E+03 0.  0.
</event>
<event>
 4    0  0.2205135E-002  0.2020229E+03  0.7546771E-02  0.1148043E+00
         21   -1    0    0  502  501  0.00000000000E+00  0.00000000000E+00  0.17864134763E+03  0.17864134763E+03  0.00000000000E+00 0. -1.
         21   -1    0    0  501  502 -0.00000000000E+00 -0.00000000000E+00 -0.22846483328E+03  0.22846483328E+03  0.00000000000E+00 0. -1.
         25    1    1    2    0    0  0.92364694683E+02  0.10702544439E+03  0.47763508346E+02  0.19465876631E+03  0.12500000000E+03 0.  0.
         25    1    1    2    0    0 -0.92364694683E+02 -0.10702544439E+03 -0.97586994006E+02  0.21244741460E+03  0.12500000000E+03 0.  0.
</event>
<event>
 4    0  0.2205135E-002  0.1834591E+03  0.7546771E-02  0.1164497E+00
         21   -1    0    0  502  501  0.00000000000E+00  0.00000000000E+00  0.98951785822E+03  0.98951785822E+03  0.00000000000E+00 0.  1.
         21   -1    0    0  501  502 -0.00000000000E+00 -0.00000000000E+00 -0.34013768933E+02  0.34013768933E+02  0.00000000000E+00 0.  1.
         25    1    1    2    0    0 -0.12242240785E+03 -0.54428175561E+02  0.45240567754E+03  0.48810405582E+03  0.12500000000E+03 0.  0.
         25    1    1    2    0    0  0.12242240785E+03  0.54428175561E+02  0.50309841175E+03  0.53542757134E+03  0.12500000000E+03 0.  0.
</event>
<event>
 4    0  0.2205135E-002  0.2159050E+03  0.7546771E-02  0.1136973E+00
         21   -1    0    0  502  501  0.00000000000E+00  0.00000000000E+00  0.78791370786E+02  0.78791370786E+02  0.00000000000E+00 0. -1.
         21   -1    0    0  501  502 -0.00000000000E+00 -0.00000000000E+00 -0.59162515641E+03  0.59162515641E+03  0.00000000000E+00 0. -1.
         25    1    1    2    0    0 -0.17590887365E+03 -0.39567247563E+01 -0.24786088115E+03  0.32866335954E+03  0.12500000000E+03 0.  0.
         25    1    1    2    0    0  0.17590887365E+03  0.39567247563E+01 -0.26497290448E+03  0.34175316766E+03  0.12500000000E+03 0.  0.
</event>
<event>
 4    0  0.2205135E-002  0.1585162E+03  0.7546771E-02  0.1190382E+00
         21   -1    0    0  502  501  0.00000000000E+00  0.00000000000E+00  0.11748508887E+02  0.11748508887E+02  0.00000000000E+00 0.  1.
         21   -1    0    0  501  502 -0.00000000000E+00 -0.00000000000E+00 -0.21387718191E+04  0.21387718191E+04  0.00000000000E+00 0.  1.
         25    1    1    2    0    0 -0.92064964087E+02  0.23902635923E+02 -0.12082177234E+04  0.12183851447E+04  0.12500000000E+03 0.  0.
         25    1    1    2    0    0  0.92064964087E+02 -0.23902635923E+02 -0.91880558682E+03  0.93213518332E+03  0.12500000000E+03 0.  0.
</event>
<event>
 4    0  0.2205135E-002  0.1774764E+03  0.7546771E-02  0.1170268E+00
         21   -1    0    0  502  501  0.00000000000E+00  0.00000000000E+00  0.15990420970E+03  0.15990420970E+03  0.00000000000E+00 0.  1.
         21   -1    0    0  501  502 -0.00000000000E+00 -0.00000000000E+00 -0.19697960131E+03  0.19697960131E+03  0.00000000000E+00 0.  1.
         25    1    1    2    0    0  0.54515360106E+02  0.77906321206E+02  0.64565139604E+02  0.16980864708E+03  0.12500000000E+03 0.  0.
         25    1    1    2    0    0 -0.54515360106E+02 -0.77906321206E+02 -0.10164053122E+03  0.18707516392E+03  0.12500000000E+03 0.  0.
</event>
<event>
 4    0  0.2205135E-002  0.1895430E+03  0.7546771E-02  0.1158874E+00
         21   -1    0    0  502  501  0.00000000000E+00  0.00000000000E+00  0.67484582804E+02  0.67484582804E+02  0.00000000000E+00 0.  1.
         21   -1    0    0  501  502 -0.00000000000E+00 -0.00000000000E+00 -0.53236693599E+03  0.53236693599E+03  0.00000000000E+00 0.  1.
         25    1    1    2    0    0 -0.17618440801E+02  0.78738964612E+01 -0.90580499371E+01  0.12680479475E+03  0.12500000000E+03 0.  0.
         25    1    1    2    0    0  0.17618440801E+02 -0.78738964612E+01 -0.45582430325E+03  0.47304672405E+03  0.12500000000E+03 0.  0.
</event>
<event>
 4    0  0.2205135E-002  0.1869602E+03  0.7546771E-02  0.1161232E+00
         21   -1    0    0  502  501  0.00000000000E+00  0.00000000000E+00  0.24820435705E+03  0.24820435705E+03  0.00000000000E+00 0. -1.
         21   -1    0    0  501  502 -0.00000000000E+00 -0.00000000000E+00 -0.14082790275E+03  0.14082790275E+03  0.00000000000E+00 0. -1.
         25    1    1    2    0    0 -0.10673272448E+03  0.54601569015E+02  0.12693146506E+03  0.21473193204E+03  0.12500000000E+03 0.  0.
         25    1    1    2    0    0  0.10673272448E+03 -0.54601569015E+02 -0.19555010761E+02  0.17430032777E+03  0.12500000000E+03 0.  0.
</event>
<event>
 4    0  0.2205135E-002  0.2681729E+03  0.7546771E-02  0.1102330E+00
         21   -1    0    0  502  501  0.00000000000E+00  0.00000000000E+00  0.68098304817E+02  0.68098304817E+02  0.00000000000E+00 0. -1.
         21   -1    0    0  501  502 -0.00000000000E+00 -0.00000000000E+00 -0.10560716717E+04  0.10560716717E+04  0.00000000000E+00 0. -1.
         25    1    1    2    0    0  0.10731560109E+03 -0.13419174313E+03 -0.15106725816E+03  0.26071129367E+03  0.12500000000E+03 0.  0.
         25    1    1    2    0    0 -0.10731560109E+03  0.13419174313E+03 -0.83690610875E+03  0.86345868287E+03  0.12500000000E+03 0.  0.
</event>
<event>
 4    0  0.2205135E-002  0.2256689E+03  0.7546771E-02  0.1129726E+00
         21   -1    0    0  502  501  0.00000000000E+00  0.00000000000E+00  0.78434996333E+02  0.78434996333E+02  0.00000000000E+00 0. -1.
         21   -1    0    0  501  502 -0.00000000000E+00 -0.00000000000E+00 -0.64928252902E+03  0.64928252902E+03  0.00000000000E+00 0. -1.
         25    1    1    2    0    0  0.28154897954E+02 -0.13047361754E+03 -0.49862953201E+03  0.53110495512E+03  0.12500000000E+03 0.  0.
         25    1    1    2    0    0 -0.28154897954E+02  0.13047361754E+03 -0.72218000671E+02  0.19661257023E+03  0.12500000000E+03 0.  0.
</event>
<event>
 4    0  0.2205135E-002  0.1944669E+03  0.7546771E-02  0.1154493E+00
         21   -1    0    0  502  501  0.00000000000E+00  0.00000000000E+00  0.12650523680E+03  0.12650523680E+03  0.00000000000E+00 0. -1.
         21   -1    0    0  501  502 -0.00000000000E+00 -0.00000000000E+00 -0.29893931416E+03  0.29893931416E+03  0.00000000000E+00 0. -1.
         25    1    1    2    0    0 -0.20948022637E+02  0.13524107806E+03 -0.21841663400E+02  0.18663072391E+03  0.12500000000E+03 0.  0.
         25    1    1    2    0    0  0.20948022637E+02 -0.13524107806E+03 -0.15059241396E+03  0.23881382705E+03  0.12500000000E+03 0.  0.
</event>
<event>
 4    0  0.2205135E-002  0.2684281E+03  0.7546771E-02  0.1102183E+00
         21   -1    0    0  502  501  0.00000000000E+00  0.00000000000E+00  0.31540041663E+03  0.31540041663E+03  0.00000000000E+00 0. -1.
         21   -1    0    0  501  502 -0.00000000000E+00 -0.00000000000E+00 -0.22845130363E+03  0.22845130363E+03  0.00000000000E+00 0. -1.
         25    1    1    2    0    0  0.14255142223E+03 -0.18990256242E+03  0.36698210790E+02  0.27084248165E+03  0.12500000000E+03 0.  0.
         25    1    1    2    0    0 -0.14255142223E+03  0.18990256242E+03  0.50250902208E+02  0.27300923861E+03  0.12500000000E+03 0.  0.
</event>
<event>
 4    0  0.2205135E-002  0.1360980E+03  0.7546771E-02  0.1218678E+00
         21   -1    0    0  502  501  0.00000000000E+00  0.00000000000E+00  0.36278254110E+03  0.36278254110E+03  0.00000000000E+00 0. -1.
         21   -1    0    0  501  502 -0.00000000000E+00 -0.00000000000E+00 -0.51057193019E+02  0.51057193019E+02  0.00000000000E+00 0. -1.
         25    1    1    2    0    0  0.34607828621E+02  0.31366977665E+02  0.11517826507E+03  0.17627428013E+03  0.12500000000E+03 0.  0.
         25    1    1    2    0    0 -0.34607828621E+02 -0.31366977665E+02  0.19654708301E+03  0.23756545399E+03  0.12500000000E+03 0.  0.
</event>
<event>
 4    0  0.2205135E-002  0.3046213E+03  0.7546771E-02  0.1082953E+00
         21   -1    0    0  502  501  0.00000000000E+00  0.00000000000E+00  0.21038432608E+03  0.21038432608E+03  0.00000000000E+00 0. -1.
         21   -1    0    0  501  502 -0.00000000000E+00 -0.00000000000E+00 -0.44106948499E+03  0.44106948499E+03  0.00000000000E+00 0. -1.
         25    1    1    2    0    0 -0.11497876202E+03  0.23531082077E+03 -0.16309198962E+02  0.29065837001E+03  0.12500000000E+03 0.  0.
         25    1    1    2    0    0  0.11497876202E+03 -0.23531082077E+03 -0.21437595996E+03  0.36079544106E+03  0.12500000000E+03 0.  0.
</event>
<event>
 4    0  0.2205135E-002  0.2548794E+03  0.7546771E-02  0.1110259E+00
         21   -1    0    0  502  501  0.00000000000E+00  0.00000000000E+00  0.93367782283E+03  0.93367782283E+03  0.00000000000E+00 0.  1.
         21   -1    0    0  501  502 -0.00000000000E+00 -0.00000000000E+00 -0.69578077200E+02  0.69578077200E+02  0.00000000000E+00 0.  1.
         25    1    1    2    0    0 -0.50864469018E+02  0.15689484664E+03  0.72486256745E+03  0.75382619270E+03  0.12500000000E+03 0.  0.
         25    1    1    2    0    0  0.50864469018E+02 -0.15689484664E+03  0.13923717819E+03  0.24942970733E+03  0.12500000000E+03 0.  0.
</event>
<event>
 4    0  0.2205135E-002  0.2762941E+03  0.7546771E-02  0.1097730E+00
         21   -1    0    0  502  501  0.00000000000E+00  0.00000000000E+00  0.32028323355E+03  0.32028323355E+03  0.00000000000E+00 0.  1.
         21   -1    0    0  501  502 -0.00000000000E+00 -0.00000000000E+00 -0.23834670382E+03  0.23834670382E+03  0.00000000000E+00 0.  1.
         25    1    1    2    0    0  0.14958826303E+03 -0.16059255279E+03 -0.72269073666E+02  0.26270598672E+03  0.12500000000E+03 0.  0.
         25    1    1    2    0    0 -0.14958826303E+03  0.16059255279E+03  0.15420560340E+03  0.29592395065E+03  0.12500000000E+03 0.  0.
</event>
<event>
 4    0  0.2205135E-002  0.2227299E+03  0.7546771E-02  0.1131864E+00
         21   -1    0    0  502  501  0.00000000000E+00  0.00000000000E+00  0.10491589848E+03  0.10491589848E+03  0.00000000000E+00 0. -1.
         21   -1    0    0  501  502 -0.00000000000E+00 -0.00000000000E+00 -0.47284147582E+03  0.47284147582E+03  0.00000000000E+00 0. -1.
         25    1    1    2    0    0 -0.92452071485E+02 -0.99992004316E+02 -0.34511259887E+03  0.39150158664E+03  0.12500000000E+03 0.  0.
         25    1    1    2    0    0  0.92452071485E+02  0.99992004316E+02 -0.22812978469E+02  0.18625578766E+03  0.12500000000E+03 0.  0.
</event>
<event>
 4    0  0.2205135E-002  0.1716597E+03  0.7546771E-02  0.1176128E+00
         21   -1    0    0  502  501  0.00000000000E+00  0.00000000000E+00  0.17865076596E+03  0.17865076596E+03  0.00000000000E+00 0.  1.
         21   -1    0    0  501  502 -0.00000000000E+00 -0.00000000000E+00 -0.16494216440E+03  0.16494216440E+03  0.00000000000E+00 0.  1.
         25    1    1    2    0    0 -0.62990424627E+02 -0.18259026394E+02  0.10460945436E+03  0.17569668062E+03  0.12500000000E+03 0.  0.
         25    1    1    2    0    0  0.62990424627E+02  0.18259026394E+02 -0.90900852795E+02  0.16789624975E+03  0.12500000000E+03 0.  0.
</event>
<event>
 4    0  0.2205135E-002  0.1695682E+03  0.7546771E-02  0.1178299E+00
         21   -1    0    0  502  501  0.00000000000E+00  0.00000000000E+00  0.33164560439E+03  0.33164560439E+03  0.00000000000E+00 0. -1.
         21   -1    0    0  501  502 -0.00000000000E+00 -0.00000000000E+00 -0.86699051432E+02  0.86699051432E+02  0.00000000000E+00 0. -1.
         25    1    1    2    0    0 -0.43169793305E+02  0.68735749017E+02  0.22714075805E+02  0.15076194310E+03  0.12500000000E+03 0.  0.
         25    1    1    2    0    0  0.43169793305E+02 -0.68735749017E+02  0.22223247715E+03  0.26758271272E+03  0.12500000000E+03 0.  0.
</event>
<event>
 4    0  0.2205135E-002  0.2072941E+03  0.7546771E-02  0.1143727E+00
         21   -1    0    0  502  501  0.00000000000E+00  0.00000000000E+00  0.27733865801E+02  0.27733865801E+02  0.00000000000E+00 0. -1.
         21   -1    0    0  501  502 -0.00000000000E+00 -0.00000000000E+00 -0.15493991753E+04  0.15493991753E+04  0.00000000000E+00 0. -1.
         25    1    1    2    0    0 -0.52875885422E+02 -0.13557628461E+03 -0.46204662770E+03  0.50028879098E+03  0.12500000000E+03 0.  0.
         25    1    1    2    0    0  0.52875885422E+02  0.13557628461E+03 -0.10596186818E+04  0.10768442502E+04  0.12500000000E+03 0.  0.
</event>
<event>
 4    0  0.2205135E-002  0.2112791E+03  0.7546771E-02  0.1140557E+00
         21   -1    0    0  502  501  0.00000000000E+00  0.00000000000E+00  0.95328139588E+02  0.95328139588E+02  0.00000000000E+00 0. -1.
         21   -1    0    0  501  502 -0.00000000000E+00 -0.00000000000E+00 -0.46826516940E+03  0.46826516940E+03  0.00000000000E+00 0. -1.
         25    1    1    2    0    0  0.11662902952E+03 -0.32281994052E+02 -0.34635012347E+03  0.38759239633E+03  0.12500000000E+03 0.  0.
         25    1    1    2    0    0 -0.11662902952E+03  0.32281994052E+02 -0.26586906335E+02  0.17600091265E+03  0.12500000000E+03 0.  0.
</event>
<event>
 4    0  0.2205135E-002  0.2650023E+03  0.7546771E-02  0.1104174E+00
         21   -1    0    0  502  501  0.00000000000E+00  0.00000000000E+00  0.13229470656E+03  0.13229470656E+03  0.00000000000E+00 0.  1.
         21   -1    0    0  501  502 -0.00000000000E+00 -0.00000000000E+00 -0.53083170972E+03  0.53083170972E+03  0.00000000000E+00 0. -1.
         25    1    1    2    0    0  0.19533170835E+03 -0.24698687868E+02 -0.35672092221E+03  0.42619164447E+03  0.12500000000E+03 0.  0.
         25    1    1    2    0    0 -0.19533170835E+03  0.24698687868E+02 -0.41816080951E+02  0.23693477181E+03  0.12500000000E+03 0.  0.
</event>
<event>
 4    0  0.2205135E-002  0.3375476E+03  0.7546771E-02  0.1067845E+00
         21   -1    0    0  502  501  0.00000000000E+00  0.00000000000E+00  0.24348990030E+04  0.24348990030E+04  0.00000000000E+00 0.  1.
         21   -1    0    0  501  502 -0.00000000000E+00 -0.00000000000E+00 -0.46793891945E+02  0.46793891945E+02  0.00000000000E+00 0.  1.
         25    1    1    2    0    0 -0.18440142109E+03 -0.20697535962E+03  0.65540305907E+03  0.72251010611E+03  0.12500000000E+03 0.  0.
         25    1    1    2    0    0  0.18440142109E+03  0.20697535962E+03  0.17327020520E+04  0.17591827889E+04  0.12500000000E+03 0.  0.
</event>
<event>
 4    0  0.2205135E-002  0.2341982E+03  0.7546771E-02  0.1123719E+00
         21   -1    0    0  502  501  0.00000000000E+00  0.00000000000E+00  0.14271478114E+03  0.14271478114E+03  0.00000000000E+00 0. -1.
         21   -1    0    0  501  502 -0.00000000000E+00 -0.00000000000E+00 -0.38432440760E+03  0.38432440760E+03  0.00000000000E+00 0. -1.
         25    1    1    2    0    0  0.66933487301E+02  0.35147578735E+02 -0.32677570162E+03  0.35794245792E+03  0.12500000000E+03 0.  0.
         25    1    1    2    0    0 -0.66933487301E+02 -0.35147578735E+02  0.85166075165E+02  0.16909673081E+03  0.12500000000E+03 0.  0.
</event>
<event>
 4    0  0.2205135E-002  0.1818665E+03  0.7546771E-02  0.1166009E+00
         21   -1    0    0  502  501  0.00000000000E+00  0.00000000000E+00  0.11876252554E+04  0.11876252554E+04  0.00000000000E+00 0. -1.
         21   -1    0    0  501  502 -0.00000000000E+00 -0.00000000000E+00 -0.27850041811E+02  0.27850041811E+02  0.00000000000E+00 0. -1.
         25    1    1    2    0    0 -0.62031443997E+02  0.11539884550E+03  0.52341245857E+03  0.55385051717E+03  0.12500000000E+03 0.  0.
         25    1    1    2    0    0  0.62031443997E+02 -0.11539884550E+03  0.63636275507E+03  0.66162478009E+03  0.12500000000E+03 0.  0.
</event>
<event>
 4    0  0.2205135E-002  0.1604828E+03  0.7546771E-02  0.1188153E+00
         21   -1    0    0  502  501  0.00000000000E+00  0.00000000000E+00  0.16434970143E+03  0.16434970143E+03  0.00000000000E+00 0.  1.
         21   -1    0    0  501  502 -0.00000000000E+00 -0.00000000000E+00 -0.15670688971E+03  0.15670688971E+03  0.00000000000E+00 0.  1.
         25    1    1    2    0    0 -0.75755455500E+02 -0.25121487459E+01  0.70055963843E+02  0.16210502151E+03  0.12500000000E+03 0.  0.
         25    1    1    2    0    0  0.75755455500E+02  0.25121487459E+01 -0.62413152117E+02  0.15895156963E+03  0.12500000000E+03 0.  0.
</event>
<event>
 4    0  0.2205135E-002  0.2117521E+03  0.7546771E-02  0.1140186E+00
         21   -1    0    0  502  501  0.00000000000E+00  0.00000000000E+00  0.35413678406E+03  0.35413678406E+03  0.00000000000E+00 0.  1.
         21   -1    0    0  501  502 -0.00000000000E+00 -0.00000000000E+00 -0.12661475702E+03  0.12661475702E+03  0.00000000000E+00 0.  1.
         25    1    1    2    0    0  0.25056441068E+02 -0.50938260006E+02 -0.69250299862E+02  0.15376324529E+03  0.12500000000E+03 0.  0.
         25    1    1    2    0    0 -0.25056441068E+02  0.50938260006E+02  0.29677232690E+03  0.32698829579E+03  0.12500000000E+03 0.  0.
</event>
<event>
 4    0  0.2205135E-002  0.2228266E+03  0.7546771E-02  0.1131793E+00
         21   -1    0    0  502  501  0.00000000000E+00  0.00000000000E+00  0.48414457610E+03  0.48414457610E+03  0.00000000000E+00 0. -1.
         21   -1    0    0  501  502 -0.00000000000E+00 -0.00000000000E+00 -0.10255549150E+03  0.10255549150E+03  0.00000000000E+00 0. -1.
         25    1    1    2    0    0 -0.18250647848E+02 -0.14544432475E+03  0.33821578725E+03  0.38923265086E+03  0.12500000000E+03 0.  0.
         25    1    1    2    0    0  0.18250647848E+02  0.14544432475E+03  0.43373297342E+02  0.19746741673E+03  0.12500000000E+03 0.  0.
</event>
<event>
 4    0  0.2205135E-002  0.2529441E+03  0.7546771E-02  0.1111458E+00
         21   -1    0    0  502  501  0.00000000000E+00  0.00000000000E+00  0.12119248745E+03  0.12119248745E+03  0.00000000000E+00 0. -1.
         21   -1    0    0  501  502 -0.00000000000E+00 -0.00000000000E+00 -0.52792634048E+03  0.52792634048E+03  0.00000000000E+00 0. -1.
         25    1    1    2    0    0 -0.20447422477E+03  0.76766738828E+02 -0.23615240978E+03  0.34510259552E+03  0.12500000000E+03 0.  0.
         25    1    1    2    0    0  0.20447422477E+03 -0.76766738828E+02 -0.17058144325E+03  0.30401623241E+03  0.12500000000E+03 0.  0.
</event>
<event>
 4    0  0.2205135E-002  0.1927483E+03  0.7546771E-02  0.1156006E+00
         21   -1    0    0  502  501  0.00000000000E+00  0.00000000000E+00  0.13611308205E+03  0.13611308205E+03  0.00000000000E+00 0. -1.
         21   -1    0    0  501  502 -0.00000000000E+00 -0.00000000000E+00 -0.27294878737E+03  0.27294878737E+03  0.00000000000E+00 0. -1.
         25    1    1    2    0    0 -0.12479568080E+03  0.33353312373E+02 -0.14224454070E+03  0.22922677581E+03  0.12500000000E+03 0.  0.
         25    1    1    2    0    0  0.12479568080E+03 -0.33353312373E+02  0.54088353728E+01  0.17983509361E+03  0.12500000000E+03 0.  0.
</event>
<event>
 4    0  0.2205135E-002  0.2491506E+03  0.7546771E-02  0.1113843E+00
         21   -1    0    0  502  501  0.00000000000E+00  0.00000000000E+00  0.19842774979E+03  0.19842774979E+03  0.00000000000E+00 0.  1.
         21   -1    0    0  501  502 -0.00000000000E+00 -0.00000000000E+00 -0.31283949043E+03  0.31283949043E+03  0.00000000000E+00 0.  1.
         25    1    1    2    0    0 -0.30847785317E+02  0.72692441515E+02  0.14854961299E+03  0.20958951413E+03  0.12500000000E+03 0.  0.
         25    1    1    2    0    0  0.30847785317E+02 -0.72692441515E+02 -0.26296135364E+03  0.30167772609E+03  0.12500000000E+03 0.  0.
</event>
<event>
 4    0  0.2205135E-002  0.2093273E+03  0.7546771E-02  0.1142100E+00
         21   -1    0    0  502  501  0.00000000000E+00  0.00000000000E+00  0.35558174266E+03  0.35558174266E+03  0.00000000000E+00 0. -1.
         21   -1    0    0  501  502 -0.00000000000E+00 -0.00000000000E+00 -0.12322880891E+03  0.12322880891E+03  0.00000000000E+00 0. -1.
         25    1    1    2    0    0 -0.11226189372E+03  0.12449628582E+03  0.12707796608E+03  0.24469545853E+03  0.12500000000E+03 0.  0.
         25    1    1    2    0    0  0.11226189372E+03 -0.12449628582E+03  0.10527496767E+03  0.23411509303E+03  0.12500000000E+03 0.  0.
</event>
<event>
 4    0  0.2205135E-002  0.2790245E+03  0.7546771E-02  0.1096223E+00
         21   -1    0    0  502  501  0.00000000000E+00  0.00000000000E+00  0.65677377867E+02  0.65677377867E+02  0.00000000000E+00 0.  1.
         21   -1    0    0  501  502 -0.00000000000E+00 -0.00000000000E+00 -0.11854111803E+04  0.11854111803E+04  0.00000000000E+00 0.  1.
         25    1    1    2    0    0 -0.37874034913E+02  0.19235265652E+03 -0.21403505156E+03  0.31602213575E+03  0.12500000000E+03 0.  0.
         25    1    1    2    0    0  0.37874034913E+02 -0.19235265652E+03 -0.90569875088E+03  0.93506642242E+03  0.12500000000E+03 0.  0.
</event>
<event>
 4    0  0.2205135E-002  0.2064667E+03  0.7546771E-02  0.1144395E+00
         21   -1    0    0  502  501  0.00000000000E+00  0.00000000000E+00  0.26103937094E+03  0.26103937094E+03  0.00000000000E+00 0. -1.
         21   -1    0    0  501  502 -0.00000000000E+00 -0.00000000000E+00 -0.16330300880E+03  0.16330300880E+03  0.00000000000E+00 0. -1.
         25    1    1    2    0    0 -0.78649211627E+02 -0.13961955763E+03  0.11473284442E+02  0.20355823643E+03  0.12500000000E+03 0.  0.
         25    1    1    2    0    0  0.78649211627E+02  0.13961955763E+03  0.86263077690E+02  0.22078414331E+03  0.12500000000E+03 0.  0.
</event>
<event>
 4    0  0.2205135E-002  0.4588657E+03  0.7546771E-02  0.1025111E+00
         21   -1    0    0  502  501  0.00000000000E+00  0.00000000000E+00  0.37492002790E+03  0.37492002790E+03  0.00000000000E+00 0. -1.
         21   -1    0    0  501  502 -0.00000000000E+00 -0.00000000000E+00 -0.56160715138E+03  0.56160715138E+03  0.00000000000E+00 0. -1.
         25    1    1    2    0    0 -0.34445990531E+03 -0.26947311811E+03 -0.15511746919E+03  0.48057758687E+03  0.12500000000E+03 0.  0.
         25    1    1    2    0    0  0.34445990531E+03  0.26947311811E+03 -0.31569654290E+02  0.45594959242E+03  0.12500000000E+03 0.  0.
</event>
<event>
 4    0  0.2205135E-002  0.2724032E+03  0.7546771E-02  0.1099912E+00
         21   -1    0    0  502  501  0.00000000000E+00  0.00000000000E+00  0.21043414467E+03  0.21043414467E+03  0.00000000000E+00 0.  1.
         21   -1    0    0  501  502 -0.00000000000E+00 -0.00000000000E+00 -0.35262100542E+03  0.35262100542E+03  0.00000000000E+00 0.  1.
         25    1    1    2    0    0  0.50777562836E+02  0.18940288753E+03 -0.21771398899E+03  0.31855328549E+03  0.12500000000E+03 0.  0.
         25    1    1    2    0    0 -0.50777562836E+02 -0.18940288753E+03  0.75527128236E+02  0.24450186460E+03  0.12500000000E+03 0.  0.
</event>
<event>
 4    0  0.2205135E-002  0.1673564E+03  0.7546771E-02  0.1180633E+00
         21   -1    0    0  502  501  0.00000000000E+00  0.00000000000E+00  0.49479038623E+03  0.49479038623E+03  0.00000000000E+00 0.  1.
         21   -1    0    0  501  502 -0.00000000000E+00 -0.00000000000E+00 -0.56606143260E+02  0.56606143260E+02  0.00000000000E+00 0.  1.
         25    1    1    2    0    0  0.72401913272E+02  0.84505189076E+02  0.21891576690E+03  0.27555811914E+03  0.12500000000E+03 0.  0.
         25    1    1    2    0    0 -0.72401913272E+02 -0.84505189076E+02  0.21926847606E+03  0.27583841034E+03  0.12500000000E+03 0.  0.
</event>
<event>
 4    0  0.2205135E-002  0.3002766E+03  0.7546771E-02  0.1085102E+00
         21   -1    0    0  502  501  0.00000000000E+00  0.00000000000E+00  0.46890681727E+03  0.46890681727E+03  0.00000000000E+00 0.  1.
         21   -1    0    0  501  502 -0.00000000000E+00 -0.00000000000E+00 -0.19228988432E+03  0.19228988432E+03  0.00000000000E+00 0.  1.
         25    1    1    2    0    0 -0.20763591711E+03 -0.16638566418E+03  0.20567701975E+03  0.35878252434E+03  0.12500000000E+03 0.  0.
         25    1    1    2    0    0  0.20763591711E+03  0.16638566418E+03  0.70939913209E+02  0.30241417725E+03  0.12500000000E+03 0.  0.
</event>
<event>
 4    0  0.2205135E-002  0.2187387E+03  0.7546771E-02  0.1134827E+00
         21   -1    0    0  502  501  0.00000000000E+00  0.00000000000E+00  0.84698176481E+02  0.84698176481E+02  0.00000000000E+00 0. -1.
         21   -1    0    0  501  502 -0.00000000000E+00 -0.00000000000E+00 -0.56490737405E+03  0.56490737405E+03  0.00000000000E+00 0. -1.
         25    1    1    2    0    0  0.63843076563E+02 -0.44041450070E+02 -0.48048261786E+03  0.50249789434E+03  0.12500000000E+03 0.  0.
         25    1    1    2    0    0 -0.63843076563E+02  0.44041450070E+02  0.27342029956E+00  0.14710765618E+03  0.12500000000E+03 0.  0.
</event>
<event>
 4    0  0.2205135E-002  0.2492113E+03  0.7546771E-02  0.1113804E+00
         21   -1    0    0  502  501  0.00000000000E+00  0.00000000000E+00  0.11663446998E+03  0.11663446998E+03  0.00000000000E+00 0.  1.
         21   -1    0    0  501  502 -0.00000000000E+00 -0.00000000000E+00 -0.53248657349E+03  0.53248657349E+03  0.00000000000E+00 0.  1.
         25    1    1    2    0    0 -0.71277300552E+02  0.80299905242E+01 -0.47271142491E+03  0.49419229614E+03  0.12500000000E+03 0.  0.
         25    1    1    2    0    0  0.71277300552E+02 -0.80299905242E+01  0.56859321391E+02  0.15492874733E+03  0.12500000000E+03 0.  0.
</event>
<event>
 4    0  0.2205135E-002  0.3685301E+03  0.7546771E-02  0.1055256E+00
         21   -1    0    0  502  501  0.00000000000E+00  0.00000000000E+00  0.75159624994E+02  0.75159624994E+02  0.00000000000E+00 0.  1.
         21   -1    0    0  501  502 -0.00000000000E+00 -0.00000000000E+00 -0.18070127304E+04  0.18070127304E+04  0.00000000000E+00 0.  1.
         25    1    1    2    0    0  0.30741115540E+03  0.15619655534E+03 -0.77419441949E+03  0.85668020961E+03  0.12500000000E+03 0.  0.
         25    1    1    2    0    0 -0.30741115540E+03 -0.15619655534E+03 -0.95765868595E+03  0.10254921458E+04  0.12500000000E+03 0.  0.
</event>
<event>
 4    0  0.2205135E-002  0.1823503E+03  0.7546771E-02  0.1165548E+00
         21   -1    0    0  502  501  0.00000000000E+00  0.00000000000E+00  0.62626123543E+03  0.62626123543E+03  0.00000000000E+00 0.  1.
         21   -1    0    0  501  502 -0.00000000000E+00 -0.00000000000E+00 -0.53095484843E+02  0.53095484843E+02  0.00000000000E+00 0.  1.
         25    1    1    2    0    0  0.75928569694E+02  0.88207071379E+02  0.40558236114E+03  0.44007691011E+03  0.12500000000E+03 0.  0.
         25    1    1    2    0    0 -0.75928569694E+02 -0.88207071379E+02  0.16758338945E+03  0.23927981017E+03  0.12500000000E+03 0.  0.
</event>
<event>
 4    0  0.2205135E-002  0.2728838E+03  0.7546771E-02  0.1099640E+00
         21   -1    0    0  502  501  0.00000000000E+00  0.00000000000E+00  0.11523030029E+03  0.11523030029E+03  0.00000000000E+00 0.  1.
         21   -1    0    0  501  502 -0.00000000000E+00 -0.00000000000E+00 -0.64623256715E+03  0.64623256715E+03  0.00000000000E+00 0.  1.
         25    1    1    2    0    0  0.63684295169E+02 -0.22678400928E+03 -0.34630195791E+03  0.43707747868E+03  0.12500000000E+03 0.  0.
         25    1    1    2    0    0 -0.63684295169E+02  0.22678400928E+03 -0.18470030895E+03  0.32438538876E+03  0.12500000000E+03 0.  0.
</event>
<event>
 4    0  0.2205135E-002  0.3997837E+03  0.7546771E-02  0.1043855E+00
         21   -1    0    0  502  501  0.00000000000E+00  0.00000000000E+00  0.35415332307E+03  0.35415332307E+03  0.00000000000E+00 0. -1.
         21   -1    0    0  501  502 -0.00000000000E+00 -0.00000000000E+00 -0.45129315887E+03  0.45129315887E+03  0.00000000000E+00 0. -1.
         25    1    1    2    0    0 -0.13401235636E+03 -0.32162767917E+03 -0.20067119261E+03  0.42106721935E+03  0.12500000000E+03 0.  0.
         25    1    1    2    0    0  0.13401235636E+03  0.32162767917E+03  0.10353135680E+03  0.38437926259E+03  0.12500000000E+03 0.  0.
</event>
<event>
 4    0  0.2205135E-002  0.3274790E+03  0.7546771E-02  0.1072258E+00
         21   -1    0    0  502  501  0.00000000000E+00  0.00000000000E+00  0.48815191512E+03  0.48815191512E+03  0.00000000000E+00 0.  1.
         21   -1    0    0  501  502 -0.00000000000E+00 -0.00000000000E+00 -0.21969083991E+03  0.21969083991E+03  0.00000000000E+00 0.  1.
         25    1    1    2    0    0  0.65654924476E+02 -0.87903554790E+02  0.43910778682E+03  0.46955111809E+03  0.12500000000E+03 0.  0.
         25    1    1    2    0    0 -0.65654924476E+02  0.87903554790E+02 -0.17064671162E+03  0.23829163694E+03  0.12500000000E+03 0.  0.
</event>
<event>
 4    0  0.2205135E-002  0.3093712E+03  0.7546771E-02  0.1080648E+00
         21   -1    0    0  502  501  0.00000000000E+00  0.00000000000E+00  0.17238733369E+03  0.17238733369E+03  0.00000000000E+00 0. -1.
         21   -1    0    0  501  502 -0.00000000000E+00 -0.00000000000E+00 -0.55520633919E+03  0.55520633919E+03  0.00000000000E+00 0. -1.
         25    1    1    2    0    0  0.49276433939E+02 -0.19804665027E+02 -0.51827633664E+03  0.53577584196E+03  0.12500000000E+03 0.  0.
         25    1    1    2    0    0 -0.49276433939E+02  0.19804665027E+02  0.13545733114E+03  0.19181783092E+03  0.12500000000E+03 0.  0.
</event>
<event>
 4    0  0.2205135E-002  0.2152859E+03  0.7546771E-02  0.1137447E+00
         21   -1    0    0  502  501  0.00000000000E+00  0.00000000000E+00  0.73343544087E+02  0.73343544087E+02  0.00000000000E+00 0. -1.
         21   -1    0    0  501  502 -0.00000000000E+00 -0.00000000000E+00 -0.63193060432E+03  0.63193060432E+03  0.00000000000E+00 0. -1.
         25    1    1    2    0    0 -0.61278650268E+02 -0.10367056077E+03 -0.48790718606E+03  0.51786202830E+03  0.12500000000E+03 0.  0.
         25    1    1    2    0    0  0.61278650268E+02  0.10367056077E+03 -0.70679874173E+02  0.18741212010E+03  0.12500000000E+03 0.  0.
</event>
<event>
 4    0  0.2205135E-002  0.2207924E+03  0.7546771E-02  0.1133294E+00
         21   -1    0    0  502  501  0.00000000000E+00  0.00000000000E+00  0.10404933181E+04  0.10404933181E+04  0.00000000000E+00 0. -1.
         21   -1    0    0  501  502 -0.00000000000E+00 -0.00000000000E+00 -0.46852074005E+02  0.46852074005E+02  0.00000000000E+00 0. -1.
         25    1    1    2    0    0  0.39237741775E+02 -0.84762093251E+02  0.11218554628E+03  0.19218431160E+03  0.12500000000E+03 0.  0.
         25    1    1    2    0    0 -0.39237741775E+02  0.84762093251E+02  0.88145569781E+03  0.89516108049E+03  0.12500000000E+03 0.  0.
</event>
<event>
 4    0  0.2205135E-002  0.1802580E+03  0.7546771E-02  0.1167554E+00
         21   -1    0    0  502  501  0.00000000000E+00  0.00000000000E+00  0.72843250290E+03  0.72843250290E+03  0.00000000000E+00 0. -1.
         21   -1    0    0  501  502 -0.00000000000E+00 -0.00000000000E+00 -0.44606665044E+02  0.44606665044E+02  0.00000000000E+00 0. -1.
         25    1    1    2    0    0  0.11269659240E+03 -0.64389868313E+02  0.33200106969E+03  0.37775162124E+03  0.12500000000E+03 0.  0.
         25    1    1    2    0    0 -0.11269659240E+03  0.64389868313E+02  0.35182476817E+03  0.39528754670E+03  0.12500000000E+03 0.  0.
</event>
<event>
 4    0  0.2205135E-002  0.3148754E+03  0.7546771E-02  0.1078032E+00
         21   -1    0    0  502  501  0.00000000000E+00  0.00000000000E+00  0.33316205984E+03  0.33316205984E+03  0.00000000000E+00 0. -1.
         21   -1    0    0  501  502 -0.00000000000E+00 -0.00000000000E+00 -0.29759239293E+03  0.29759239293E+03  0.00000000000E+00 0. -1.
         25    1    1    2    0    0  0.73278033591E+02 -0.21848247665E+03 -0.15689850814E+03  0.30552643857E+03  0.12500000000E+03 0.  0.
         25    1    1    2    0    0 -0.73278033591E+02  0.21848247665E+03  0.19246817506E+03  0.32522801420E+03  0.12500000000E+03 0.  0.
</event>
<event>
 4    0  0.2205135E-002  0.3459688E+03  0.7546771E-02  0.1064282E+00
         21   -1    0    0  502  501  0.00000000000E+00  0.00000000000E+00  0.27357359177E+03  0.27357359177E+03  0.00000000000E+00 0.  1.
         21   -1    0    0  501  502 -0.00000000000E+00 -0.00000000000E+00 -0.43752191239E+03  0.43752191239E+03  0.00000000000E+00 0.  1.
         25    1    1    2    0    0  0.30868511939E+03  0.72364211973E+02 -0.14317428286E+03  0.36965789236E+03  0.12500000000E+03 0.  0.
         25    1    1    2    0    0 -0.30868511939E+03 -0.72364211973E+02 -0.20774037767E+02  0.34143761180E+03  0.12500000000E+03 0.  0.
</event>
<event>
 4    0  0.2205135E-002  0.1828398E+03  0.7546771E-02  0.1165083E+00
         21   -1    0    0  502  501  0.00000000000E+00  0.00000000000E+00  0.22242651941E+03  0.22242651941E+03  0.00000000000E+00 0. -1.
         21   -1    0    0  501  502 -0.00000000000E+00 -0.00000000000E+00 -0.15029857119E+03  0.15029857119E+03  0.00000000000E+00 0. -1.
         25    1    1    2    0    0 -0.12740541917E+03  0.23576843010E+02  0.68574909054E+02  0.19265390344E+03  0.12500000000E+03 0.  0.
         25    1    1    2    0    0  0.12740541917E+03 -0.23576843010E+02  0.35530391682E+01  0.18007118716E+03  0.12500000000E+03 0.  0.
</event>
<event>
 4    0  0.2205135E-002  0.2938399E+03  0.7546771E-02  0.1088361E+00
         21   -1    0    0  502  501  0.00000000000E+00  0.00000000000E+00  0.46092751272E+03  0.46092751272E+03  0.00000000000E+00 0.  1.
         21   -1    0    0  501  502 -0.00000000000E+00 -0.00000000000E+00 -0.18732203655E+03  0.18732203655E+03  0.00000000000E+00 0.  1.
         25    1    1    2    0    0  0.20397863205E+02 -0.20660869732E+03  0.32010313862E+03  0.40149003224E+03  0.12500000000E+03 0.  0.
         25    1    1    2    0    0 -0.20397863205E+02  0.20660869732E+03 -0.46497662446E+02  0.24675951703E+03  0.12500000000E+03 0.  0.
</event>
<event>
 4    0  0.2205135E-002  0.1842968E+03  0.7546771E-02  0.1163708E+00
         21   -1    0    0  502  501  0.00000000000E+00  0.00000000000E+00  0.87463904715E+03  0.87463904715E+03  0.00000000000E+00 0.  1.
         21   -1    0    0  501  502 -0.00000000000E+00 -0.00000000000E+00 -0.38833535191E+02  0.38833535191E+02  0.00000000000E+00 0.  1.
         25    1    1    2    0    0 -0.10701099911E+03  0.40619003696E+01  0.62335181431E+03  0.64471725382E+03  0.12500000000E+03 0.  0.
         25    1    1    2    0    0  0.10701099911E+03 -0.40619003696E+01  0.21245369765E+03  0.26875532852E+03  0.12500000000E+03 0.  0.
</event>
<event>
 4    0  0.2205135E-002  0.2252125E+03  0.7546771E-02  0.1130056E+00
         21   -1    0    0  502  501  0.00000000000E+00  0.00000000000E+00  0.29302019772E+03  0.29302019772E+03  0.00000000000E+00 0.  1.
         21   -1    0    0  501  502 -0.00000000000E+00 -0.00000000000E+00 -0.17309618950E+03  0.17309618950E+03  0.00000000000E+00 0.  1.
         25    1    1    2    0    0  0.18545732264E+03 -0.24648035849E+02  0.49943016272E+02  0.23048047437E+03  0.12500000000E+03 0.  0.
         25    1    1    2    0    0 -0.18545732264E+03  0.24648035849E+02  0.69980991951E+02  0.23563591285E+03  0.12500000000E+03 0.  0.
</event>
<event>
 4    0  0.2205135E-002  0.1833618E+03  0.7546771E-02  0.1164589E+00
         21   -1    0    0  502  501  0.00000000000E+00  0.00000000000E+00  0.50626501210E+02  0.50626501210E+02  0.00000000000E+00 0.  1.
         21   -1    0    0  501  502 -0.00000000000E+00 -0.00000000000E+00 -0.66410995751E+03  0.66410995751E+03  0.00000000000E+00 0.  1.
         25    1    1    2    0    0 -0.30902439002E+02  0.10176222505E+03 -0.46610633461E+03  0.49415647962E+03  0.12500000000E+03 0.  0.
         25    1    1    2    0    0  0.30902439002E+02 -0.10176222505E+03 -0.14737712169E+03  0.22057997910E+03  0.12500000000E+03 0.  0.
</event>
<event>
 4    0  0.2205135E-002  0.1960335E+03  0.7546771E-02  0.1153129E+00
         21   -1    0    0  502  501  0.00000000000E+00  0.00000000000E+00  0.50042699731E+03  0.50042699731E+03  0.00000000000E+00 0. -1.
         21   -1    0    0  501  502 -0.00000000000E+00 -0.00000000000E+00 -0.76792654158E+02  0.76792654158E+02  0.00000000000E+00 0. -1.
         25    1    1    2    0    0 -0.11253836620E+02 -0.14382849340E+03  0.27750702934E+03  0.33682107369E+03  0.12500000000E+03 0.  0.
         25    1    1    2    0    0  0.11253836620E+02  0.14382849340E+03  0.14612731381E+03  0.24039857777E+03  0.12500000000E+03 0.  0.
</event>
<event>
 4    0  0.2205135E-002  0.2614339E+03  0.7546771E-02  0.1106285E+00
         21   -1    0    0  502  501  0.00000000000E+00  0.00000000000E+00  0.26488100305E+03  0.26488100305E+03  0.00000000000E+00 0.  1.
         21   -1    0    0  501  502 -0.00000000000E+00 -0.00000000000E+00 -0.25803168107E+03  0.25803168107E+03  0.00000000000E+00 0.  1.
         25    1    1    2    0    0  0.20468207207E+03  0.10380510067E+03 -0.38175725031E+01  0.26136148035E+03  0.12500000000E+03 0.  0.
         25    1    1    2    0    0 -0.20468207207E+03 -0.10380510067E+03  0.10666894484E+02  0.26155120376E+03  0.12500000000E+03 0.  0.
</event>
<event>
 4    0  0.2205135E-002  0.2686891E+03  0.7546771E-02  0.1102032E+00
         21   -1    0    0  502  501  0.00000000000E+00  0.00000000000E+00  0.73256343593E+02  0.73256343593E+02  0.00000000000E+00 0.  1.
         21   -1    0    0  501  502 -0.00000000000E+00 -0.00000000000E+00 -0.98549627204E+03  0.98549627204E+03  0.00000000000E+00 0.  1.
         25    1    1    2    0    0  0.21718092670E+02  0.23170281518E+03 -0.55286117063E+03  0.61273023763E+03  0.12500000000E+03 0.  0.
         25    1    1    2    0    0 -0.21718092670E+02 -0.23170281518E+03 -0.35937875781E+03  0.44602237800E+03  0.12500000000E+03 0.  0.
</event>
<event>
 4    0  0.2205135E-002  0.2474827E+03  0.7546771E-02  0.1114906E+00
         21   -1    0    0  502  501  0.00000000000E+00  0.00000000000E+00  0.19219485299E+03  0.19219485299E+03  0.00000000000E+00 0. -1.
         21   -1    0    0  501  502 -0.00000000000E+00 -0.00000000000E+00 -0.31867490068E+03  0.31867490068E+03  0.00000000000E+00 0. -1.
         25    1    1    2    0    0 -0.42166411896E+01 -0.21338216199E+03 -0.72055459593E+02  0.25761738368E+03  0.12500000000E+03 0.  0.
         25    1    1    2    0    0  0.42166411896E+01  0.21338216199E+03 -0.54424588100E+02  0.25325236999E+03  0.12500000000E+03 0.  0.
</event>
<event>
 4    0  0.2205135E-002  0.2311191E+03  0.7546771E-02  0.1125855E+00
         21   -1    0    0  502  501  0.00000000000E+00  0.00000000000E+00  0.95246672511E+03  0.95246672511E+03  0.00000000000E+00 0.  1.
         21   -1    0    0  501  502 -0.00000000000E+00 -0.00000000000E+00 -0.56081774400E+02  0.56081774400E+02  0.00000000000E+00 0.  1.
         25    1    1    2    0    0  0.12691350232E+03 -0.13007613692E+03  0.29759234570E+03  0.37042278910E+03  0.12500000000E+03 0.  0.
         25    1    1    2    0    0 -0.12691350232E+03  0.13007613692E+03  0.59879260502E+03  0.63812571041E+03  0.12500000000E+03 0.  0.
</event>
<event>
 4    0  0.2205135E-002  0.5376557E+03  0.7546771E-02  0.1004392E+00
         21   -1    0    0  502  501  0.00000000000E+00  0.00000000000E+00  0.32748189385E+03  0.32748189385E+03  0.00000000000E+00 0. -1.
         21   -1    0    0  501  502 -0.00000000000E+00 -0.00000000000E+00 -0.88271630063E+03  0.88271630063E+03  0.00000000000E+00 0. -1.
         25    1    1    2    0    0 -0.36663638422E+03 -0.60091190554E+02  0.13653153234E+03  0.41508920576E+03  0.12500000000E+03 0.  0.
         25    1    1    2    0    0  0.36663638422E+03  0.60091190554E+02 -0.69176593912E+03  0.79510898872E+03  0.12500000000E+03 0.  0.
</event>
<event>
 4    0  0.2205135E-002  0.1877636E+03  0.7546771E-02  0.1160494E+00
         21   -1    0    0  502  501  0.00000000000E+00  0.00000000000E+00  0.35806347086E+03  0.35806347086E+03  0.00000000000E+00 0.  1.
         21   -1    0    0  501  502 -0.00000000000E+00 -0.00000000000E+00 -0.98460662663E+02  0.98460662663E+02  0.00000000000E+00 0.  1.
         25    1    1    2    0    0 -0.13723104835E+03  0.23763203220E+02  0.11124009737E+03  0.21770716507E+03  0.12500000000E+03 0.  0.
         25    1    1    2    0    0  0.13723104835E+03 -0.23763203220E+02  0.14836271083E+03  0.23881696846E+03  0.12500000000E+03 0.  0.
</event>
<event>
 4    0  0.2205135E-002  0.1710300E+03  0.7546771E-02  0.1176778E+00
         21   -1    0    0  502  501  0.00000000000E+00  0.00000000000E+00  0.14496308220E+03  0.14496308220E+03  0.00000000000E+00 0. -1.
         21   -1    0    0  501  502 -0.00000000000E+00 -0.00000000000E+00 -0.20178429082E+03  0.20178429082E+03  0.00000000000E+00 0. -1.
         25    1    1    2    0    0  0.21853276450E+02  0.73805111013E+02  0.60550223674E+02  0.15879574834E+03  0.12500000000E+03 0.  0.
         25    1    1    2    0    0 -0.21853276450E+02 -0.73805111013E+02 -0.11737143230E+03  0.18795162469E+03  0.12500000000E+03 0.  0.
</event>
<event>
 4    0  0.2205135E-002  0.2478841E+03  0.7546771E-02  0.1114649E+00
         21   -1    0    0  502  501  0.00000000000E+00  0.00000000000E+00  0.62510375973E+03  0.62510375973E+03  0.00000000000E+00 0. -1.
         21   -1    0    0  501  502 -0.00000000000E+00 -0.00000000000E+00 -0.98298087001E+02  0.98298087001E+02  0.00000000000E+00 0. -1.
         25    1    1    2    0    0 -0.13484052496E+03  0.16622769875E+03  0.26750115033E+03  0.36468545410E+03  0.12500000000E+03 0.  0.
         25    1    1    2    0    0  0.13484052496E+03 -0.16622769875E+03  0.25930452240E+03  0.35871639263E+03  0.12500000000E+03 0.  0.
</event>
<event>
 4    0  0.2205135E-002  0.2049671E+03  0.7546771E-02  0.1145615E+00
         21   -1    0    0  502  501  0.00000000000E+00  0.00000000000E+00  0.36576348502E+03  0.36576348502E+03  0.00000000000E+00 0. -1.
         21   -1    0    0  501  502 -0.00000000000E+00 -0.00000000000E+00 -0.11485979234E+03  0.11485979234E+03  0.00000000000E+00 0. -1.
         25    1    1    2    0    0 -0.94418644008E+02 -0.70946009783E+02 -0.53070223418E+01  0.17205051911E+03  0.12500000000E+03 0.  0.
         25    1    1    2    0    0  0.94418644008E+02  0.70946009783E+02  0.25621071503E+03  0.30857275825E+03  0.12500000000E+03 0.  0.
</event>
<event>
 4    0  0.2205135E-002  0.2284497E+03  0.7546771E-02  0.1127736E+00
         21   -1    0    0  502  501  0.00000000000E+00  0.00000000000E+00  0.40077830544E+03  0.40077830544E+03  0.00000000000E+00 0.  1.
         21   -1    0    0  501  502 -0.00000000000E+00 -0.00000000000E+00 -0.13021978916E+03  0.13021978916E+03  0.00000000000E+00 0.  1.
         25    1    1    2    0    0 -0.15155604319E+03  0.49176473920E+01 -0.10740336195E+00  0.19651572206E+03  0.12500000000E+03 0.  0.
         25    1    1    2    0    0  0.15155604319E+03 -0.49176473920E+01  0.27066591964E+03  0.33448237254E+03  0.12500000000E+03 0.  0.
</event>
<event>
 4    0  0.2205135E-002  0.2088957E+03  0.7546771E-02  0.1142444E+00
         21   -1    0    0  502  501  0.00000000000E+00  0.00000000000E+00  0.18796259528E+03  0.18796259528E+03  0.00000000000E+00 0. -1.
         21   -1    0    0  501  502 -0.00000000000E+00 -0.00000000000E+00 -0.23215998272E+03  0.23215998272E+03  0.00000000000E+00 0. -1.
         25    1    1    2    0    0 -0.70141833930E+02 -0.28577783900E+02 -0.17218239773E+03  0.22585027051E+03  0.12500000000E+03 0.  0.
         25    1    1    2    0    0  0.70141833930E+02  0.28577783900E+02  0.12798501029E+03  0.19427230749E+03  0.12500000000E+03 0.  0.
</event>
<event>
 4    0  0.2205135E-002  0.2114951E+03  0.7546771E-02  0.1140387E+00
         21   -1    0    0  502  501  0.00000000000E+00  0.00000000000E+00  0.69244571952E+03  0.69244571952E+03  0.00000000000E+00 0.  1.
         21   -1    0    0  501  502 -0.00000000000E+00 -0.00000000000E+00 -0.64597406708E+02  0.64597406708E+02  0.00000000000E+00 0.  1.
         25    1    1    2    0    0  0.16201097779E+03  0.33137892093E+02  0.23885052278E+03  0.31625978095E+03  0.12500000000E+03 0.  0.
         25    1    1    2    0    0 -0.16201097779E+03 -0.33137892093E+02  0.38899779004E+03  0.44078334527E+03  0.12500000000E+03 0.  0.
</event>
<event>
 4    0  0.2205135E-002  0.1950608E+03  0.7546771E-02  0.1153974E+00
         21   -1    0    0  502  501  0.00000000000E+00  0.00000000000E+00  0.19927137928E+03  0.19927137928E+03  0.00000000000E+00 0. -1.
         21   -1    0    0  501  502 -0.00000000000E+00 -0.00000000000E+00 -0.19093920269E+03  0.19093920269E+03  0.00000000000E+00 0. -1.
         25    1    1    2    0    0 -0.10068266107E+03  0.11075564992E+03  0.86287256452E+01  0.19520058180E+03  0.12500000000E+03 0.  0.
         25    1    1    2    0    0  0.10068266107E+03 -0.11075564992E+03 -0.29654905639E+00  0.19501000018E+03  0.12500000000E+03 0.  0.
</event>
<event>
 4    0  0.2205135E-002  0.1889264E+03  0.7546771E-02  0.1159433E+00
         21   -1    0    0  502  501  0.00000000000E+00  0.00000000000E+00  0.14995588051E+04  0.14995588051E+04  0.00000000000E+00 0.  1.
         21   -1    0    0  501  502 -0.00000000000E+00 -0.00000000000E+00 -0.23802446260E+02  0.23802446260E+02  0.00000000000E+00 0.  1.
         25    1    1    2    0    0 -0.94519179176E+02  0.11639599515E+02  0.11606959755E+04  0.11712854064E+04  0.12500000000E+03 0.  0.
         25    1    1    2    0    0  0.94519179176E+02 -0.11639599515E+02  0.31506038330E+03  0.35207584500E+03  0.12500000000E+03 0.  0.
</event>
<event>
 4    0  0.2205135E-002  0.2698273E+03  0.7546771E-02  0.1101379E+00
         21   -1    0    0  502  501  0.00000000000E+00  0.00000000000E+00  0.23102064657E+04  0.23102064657E+04  0.00000000000E+00 0.  1.
         21   -1    0    0  501  502 -0.00000000000E+00 -0.00000000000E+00 -0.31515258556E+02  0.31515258556E+02  0.00000000000E+00 0.  1.
         25    1    1    2    0    0 -0.20099963517E+03  0.11429396105E+03  0.87476259360E+03  0.91339945152E+03  0.12500000000E+03 0.  0.
         25    1    1    2    0    0  0.20099963517E+03 -0.11429396105E+03  0.14039286135E+04  0.14283222727E+04  0.12500000000E+03 0.  0.
</event>
<event>
 4    0  0.2205135E-002  0.1638786E+03  0.7546771E-02  0.1184386E+00
         21   -1    0    0  502  501  0.00000000000E+00  0.00000000000E+00  0.30680564570E+02  0.30680564570E+02  0.00000000000E+00 0. -1.
         21   -1    0    0  501  502 -0.00000000000E+00 -0.00000000000E+00 -0.87534852080E+03  0.87534852080E+03  0.00000000000E+00 0. -1.
         25    1    1    2    0    0  0.52721959188E+01  0.91833778081E+02 -0.27684644673E+03  0.31738020404E+03  0.12500000000E+03 0.  0.
         25    1    1    2    0    0 -0.52721959188E+01 -0.91833778081E+02 -0.56782150950E+03  0.58864888134E+03  0.12500000000E+03 0.  0.
</event>
<event>
 4    0  0.2205135E-002  0.3130460E+03  0.7546771E-02  0.1078895E+00
         21   -1    0    0  502  501  0.00000000000E+00  0.00000000000E+00  0.22119988176E+03  0.22119988176E+03  0.00000000000E+00 0.  1.
         21   -1    0    0  501  502 -0.00000000000E+00 -0.00000000000E+00 -0.44302826964E+03  0.44302826964E+03  0.00000000000E+00 0.  1.
         25    1    1    2    0    0 -0.91765314997E+02  0.52512010815E+02  0.17216117692E+03  0.23757705098E+03  0.12500000000E+03 0.  0.
         25    1    1    2    0    0  0.91765314997E+02 -0.52512010815E+02 -0.39398956479E+03  0.42665110041E+03  0.12500000000E+03 0.  0.
</event>
<event>
 4    0  0.2205135E-002  0.2514656E+03  0.7546771E-02  0.1112382E+00
         21   -1    0    0  502  501  0.00000000000E+00  0.00000000000E+00  0.38137310747E+03  0.38137310747E+03  0.00000000000E+00 0. -1.
         21   -1    0    0  501  502 -0.00000000000E+00 -0.00000000000E+00 -0.16580865162E+03  0.16580865162E+03  0.00000000000E+00 0. -1.
         25    1    1    2    0    0 -0.11128496480E+02 -0.21587050398E+03  0.14016770789E+03  0.28634926970E+03  0.12500000000E+03 0.  0.
         25    1    1    2    0    0  0.11128496480E+02  0.21587050398E+03  0.75396747958E+02  0.26083248939E+03  0.12500000000E+03 0.  0.
</event>
<event>
 4    0  0.2205135E-002  0.1831900E+03  0.7546771E-02  0.1164751E+00
         21   -1    0    0  502  501  0.00000000000E+00  0.00000000000E+00  0.24923818274E+03  0.24923818274E+03  0.00000000000E+00 0. -1.
         21   -1    0    0  501  502 -0.00000000000E+00 -0.00000000000E+00 -0.13464462484E+03  0.13464462484E+03  0.00000000000E+00 0. -1.
         25    1    1    2    0    0 -0.66350526436E+02  0.37404467076E+02 -0.58110917171E+02  0.15749084167E+03  0.12500000000E+03 0.  0.
         25    1    1    2    0    0  0.66350526436E+02 -0.37404467076E+02  0.17270447507E+03  0.22639196590E+03  0.12500000000E+03 0.  0.
</event>
<event>
 4    0  0.2205135E-002  0.3595324E+03  0.7546771E-02  0.1058769E+00
         21   -1    0    0  502  501  0.00000000000E+00  0.00000000000E+00  0.78358699864E+03  0.78358699864E+03  0.00000000000E+00 0.  1.
         21   -1    0    0  501  502 -0.00000000000E+00 -0.00000000000E+00 -0.16496383036E+03  0.16496383036E+03  0.00000000000E+00 0.  1.
         25    1    1    2    0    0 -0.21674609011E+03  0.19876427510E+03  0.52668018577E+03  0.61603824777E+03  0.12500000000E+03 0.  0.
         25    1    1    2    0    0  0.21674609011E+03 -0.19876427510E+03  0.91942982513E+02  0.33251258122E+03  0.12500000000E+03 0.  0.
</event>
<event>
 4    0  0.2205135E-002  0.1832945E+03  0.7546771E-02  0.1164652E+00
         21   -1    0    0  502  501  0.00000000000E+00  0.00000000000E+00  0.79621355702E+02  0.79621355702E+02  0.00000000000E+00 0.  1.
         21   -1    0    0  501  502 -0.00000000000E+00 -0.00000000000E+00 -0.42195815193E+03  0.42195815193E+03  0.00000000000E+00 0.  1.
         25    1    1    2    0    0 -0.55074626149E+02 -0.13063337825E+02 -0.33744126110E+03  0.36427389411E+03  0.12500000000E+03 0.  0.
         25    1    1    2    0    0  0.55074626149E+02  0.13063337825E+02 -0.48955351338E+01  0.13730561352E+03  0.12500000000E+03 0.  0.
</event>
<event>
 4    0  0.2205135E-002  0.1970283E+03  0.7546771E-02  0.1152271E+00
         21   -1    0    0  502  501  0.00000000000E+00  0.00000000000E+00  0.85499778381E+03  0.85499778381E+03  0.00000000000E+00 0.  1.
         21   -1    0    0  501  502 -0.00000000000E+00 -0.00000000000E+00 -0.45403800026E+02  0.45403800026E+02  0.00000000000E+00 0.  1.
         25    1    1    2    0    0 -0.79903071488E+02  0.10535004793E+03  0.57748903486E+03  0.60547643952E+03  0.12500000000E+03 0.  0.
         25    1    1    2    0    0  0.79903071488E+02 -0.10535004793E+03  0.23210494892E+03  0.29492514431E+03  0.12500000000E+03 0.  0.
</event>
<event>
 4    0  0.2205135E-002  0.2774209E+03  0.7546771E-02  0.1097106E+00
         21   -1    0    0  502  501  0.00000000000E+00  0.00000000000E+00  0.10346562072E+03  0.10346562072E+03  0.00000000000E+00 0.  1.
         21   -1    0    0  501  502 -0.00000000000E+00 -0.00000000000E+00 -0.74384489468E+03  0.74384489468E+03  0.00000000000E+00 0.  1.
         25    1    1    2    0    0  0.54876746213E+02  0.23263722952E+03 -0.22115216733E+03  0.34880484365E+03  0.12500000000E+03 0.  0.
         25    1    1    2    0    0 -0.54876746213E+02 -0.23263722952E+03 -0.41922710663E+03  0.49850567175E+03  0.12500000000E+03 0.  0.
</event>
<event>
 4    0  0.2205135E-002  0.3264113E+03  0.7546771E-02  0.1072736E+00
         21   -1    0    0  502  501  0.00000000000E+00  0.00000000000E+00  0.96492177249E+03  0.96492177249E+03  0.00000000000E+00 0.  1.
         21   -1    0    0  501  502 -0.00000000000E+00 -0.00000000000E+00 -0.11041755811E+03  0.11041755811E+03  0.00000000000E+00 0.  1.
         25    1    1    2    0    0 -0.11090694844E+03  0.24227117657E+03  0.19474583946E+03  0.35291162661E+03  0.12500000000E+03 0.  0.
         25    1    1    2    0    0  0.11090694844E+03 -0.24227117657E+03  0.65975837492E+03  0.72242770399E+03  0.12500000000E+03 0.  0.
</event>
<event>
 4    0  0.2205135E-002  0.3895502E+03  0.7546771E-02  0.1047459E+00
         21   -1    0    0  502  501  0.00000000000E+00  0.00000000000E+00  0.73740618227E+03  0.73740618227E+03  0.00000000000E+00 0. -1.
         21   -1    0    0  501  502 -0.00000000000E+00 -0.00000000000E+00 -0.20578803823E+03  0.20578803823E+03  0.00000000000E+00 0. -1.
         25    1    1    2    0    0  0.20189191916E+03  0.16331964126E+03  0.58309931472E+03  0.65043328872E+03  0.12500000000E+03 0.  0.
         25    1    1    2    0    0 -0.20189191916E+03 -0.16331964126E+03 -0.51481170676E+02  0.29276093178E+03  0.12500000000E+03 0.  0.
</event>
<event>
 4    0  0.2205135E-002  0.1776055E+03  0.7546771E-02  0.1170141E+00
         21   -1    0    0  502  501  0.00000000000E+00  0.00000000000E+00  0.44627400123E+02  0.44627400123E+02  0.00000000000E+00 0.  1.
         21   -1    0    0  501  502 -0.00000000000E+00 -0.00000000000E+00 -0.70682384235E+03  0.70682384235E+03  0.00000000000E+00 0.  1.
         25    1    1    2    0    0 -0.11458708843E+03 -0.27898535487E+02 -0.23624937798E+03  0.29214259825E+03  0.12500000000E+03 0.  0.
         25    1    1    2    0    0  0.11458708843E+03  0.27898535487E+02 -0.42594706424E+03  0.45930864422E+03  0.12500000000E+03 0.  0.
</event>
<event>
 4    0  0.2205135E-002  0.2475591E+03  0.7546771E-02  0.1114857E+00
         21   -1    0    0  502  501  0.00000000000E+00  0.00000000000E+00  0.83057984179E+02  0.83057984179E+02  0.00000000000E+00 0.  1.
         21   -1    0    0  501  502 -0.00000000000E+00 -0.00000000000E+00 -0.73786410107E+03  0.73786410107E+03  0.00000000000E+00 0.  1.
         25    1    1    2    0    0 -0.14616981072E+03  0.14400045830E+03 -0.42631355134E+03  0.48935670999E+03  0.12500000000E+03 0.  0.
         25    1    1    2    0    0  0.14616981072E+03 -0.14400045830E+03 -0.22849256555E+03  0.33156537525E+03  0.12500000000E+03 0.  0.
</event>
<event>
 4    0  0.2205135E-002  0.1948762E+03  0.7546771E-02  0.1154135E+00
         21   -1    0    0  502  501  0.00000000000E+00  0.00000000000E+00  0.32900496557E+03  0.32900496557E+03  0.00000000000E+00 0.  1.
         21   -1    0    0  501  502 -0.00000000000E+00 -0.00000000000E+00 -0.11542909656E+03  0.11542909656E+03  0.00000000000E+00 0.  1.
         25    1    1    2    0    0  0.43040883032E+02 -0.27907129925E+02  0.26691935311E+03  0.29916929418E+03  0.12500000000E+03 0.  0.
         25    1    1    2    0    0 -0.43040883032E+02  0.27907129925E+02 -0.53343484104E+02  0.14526476796E+03  0.12500000000E+03 0.  0.
</event>
<event>
 4    0  0.2205135E-002  0.2642635E+03  0.7546771E-02  0.1104608E+00
         21   -1    0    0  502  501  0.00000000000E+00  0.00000000000E+00  0.10749281908E+03  0.10749281908E+03  0.00000000000E+00 0. -1.
         21   -1    0    0  501  502 -0.00000000000E+00 -0.00000000000E+00 -0.64967297361E+03  0.64967297361E+03  0.00000000000E+00 0. -1.
         25    1    1    2    0    0  0.14239889586E+03  0.15794124393E+03 -0.40690216269E+03  0.47583321876E+03  0.12500000000E+03 0.  0.
         25    1    1    2    0    0 -0.14239889586E+03 -0.15794124393E+03 -0.13527799183E+03  0.28133257392E+03  0.12500000000E+03 0.  0.
</event>
<event>
 4    0  0.2205135E-002  0.2804258E+03  0.7546771E-02  0.1095457E+00
         21   -1    0    0  502  501  0.00000000000E+00  0.00000000000E+00  0.22693565573E+03  0.22693565573E+03  0.00000000000E+00 0. -1.
         21   -1    0    0  501  502 -0.00000000000E+00 -0.00000000000E+00 -0.34652402187E+03  0.34652402187E+03  0.00000000000E+00 0. -1.
         25    1    1    2    0    0  0.78324006672E+02 -0.15954680365E+03 -0.24104683217E+03  0.32452797703E+03  0.12500000000E+03 0.  0.
         25    1    1    2    0    0 -0.78324006672E+02  0.15954680365E+03  0.12145846603E+03  0.24893170056E+03  0.12500000000E+03 0.  0.
</event>
<event>
 4    0  0.2205135E-002  0.3117542E+03  0.7546771E-02  0.1079508E+00
         21   -1    0    0  502  501  0.00000000000E+00  0.00000000000E+00  0.24963433007E+03  0.24963433007E+03  0.00000000000E+00 0.  1.
         21   -1    0    0  501  502 -0.00000000000E+00 -0.00000000000E+00 -0.38933222393E+03  0.38933222393E+03  0.00000000000E+00 0.  1.
         25    1    1    2    0    0  0.14956557269E+02 -0.15728846432E+03 -0.31365975393E+03  0.37278787648E+03  0.12500000000E+03 0.  0.
         25    1    1    2    0    0 -0.14956557269E+02  0.15728846432E+03  0.17396186007E+03  0.26617867753E+03  0.12500000000E+03 0.  0.
</event>
<event>
 4    0  0.2205135E-002  0.2957281E+03  0.7546771E-02  0.1087396E+00
         21   -1    0    0  502  501  0.00000000000E+00  0.00000000000E+00  0.23854545911E+03  0.23854545911E+03  0.00000000000E+00 0. -1.
         21   -1    0    0  501  502 -0.00000000000E+00 -0.00000000000E+00 -0.36661816324E+03  0.36661816324E+03  0.00000000000E+00 0. -1.
         25    1    1    2    0    0  0.90767949171E+01  0.14863755132E+03 -0.29203377849E+03  0.35083363243E+03  0.12500000000E+03 0.  0.
         25    1    1    2    0    0 -0.90767949171E+01 -0.14863755132E+03  0.16396107435E+03  0.25432998992E+03  0.12500000000E+03 0.  0.
</event>
<event>
 4    0  0.2205135E-002  0.2031969E+03  0.7546771E-02  0.1147069E+00
         21   -1    0    0  502  501  0.00000000000E+00  0.00000000000E+00  0.48697609401E+03  0.48697609401E+03  0.00000000000E+00 0. -1.
         21   -1    0    0  501  502 -0.00000000000E+00 -0.00000000000E+00 -0.84786484659E+02  0.84786484659E+02  0.00000000000E+00 0. -1.
         25    1    1    2    0    0 -0.41700299998E+01  0.57701884556E+02  0.41127288576E+03  0.43372489344E+03  0.12500000000E+03 0.  0.
         25    1    1    2    0    0  0.41700299998E+01 -0.57701884556E+02 -0.90832764098E+01  0.13803768522E+03  0.12500000000E+03 0.  0.
</event>
<event>
 4    0  0.2205135E-002  0.4146246E+03  0.7546771E-02  0.1038830E+00
         21   -1    0    0  502  501  0.00000000000E+00  0.00000000000E+00  0.56878295442E+03  0.56878295442E+03  0.00000000000E+00 0. -1.
         21   -1    0    0  501  502 -0.00000000000E+00 -0.00000000000E+00 -0.30224809008E+03  0.30224809008E+03  0.00000000000E+00 0. -1.
         25    1    1    2    0    0  0.52912628250E+02  0.39169876100E+03  0.12507065536E+03  0.43300731452E+03  0.12500000000E+03 0.  0.
         25    1    1    2    0    0 -0.52912628250E+02 -0.39169876100E+03  0.14146420898E+03  0.43802372997E+03  0.12500000000E+03 0.  0.
</event>
<event>
 4    0  0.2205135E-002  0.2180894E+03  0.7546771E-02  0.1135316E+00
         21   -1    0    0  502  501  0.00000000000E+00  0.00000000000E+00  0.13933735355E+04  0.13933735355E+04  0.00000000000E+00 0.  1.
         21   -1    0    0  501  502 -0.00000000000E+00 -0.00000000000E+00 -0.34135115106E+02  0.34135115106E+02  0.00000000000E+00 0.  1.
         25    1    1    2    0    0  0.15916186642E+03  0.19098981756E+01  0.94553619727E+03  0.96695390158E+03  0.12500000000E+03 0.  0.
         25    1    1    2    0    0 -0.15916186642E+03 -0.19098981756E+01  0.41370222316E+03  0.46055474906E+03  0.12500000000E+03 0.  0.
</event>
<event>
 4    0  0.2205135E-002  0.1805712E+03  0.7546771E-02  0.1167251E+00
         21   -1    0    0  502  501  0.00000000000E+00  0.00000000000E+00  0.15802046332E+03  0.15802046332E+03  0.00000000000E+00 0.  1.
         21   -1    0    0  501  502 -0.00000000000E+00 -0.00000000000E+00 -0.20634012115E+03  0.20634012115E+03  0.00000000000E+00 0.  1.
         25    1    1    2    0    0  0.12633930781E+03  0.24458231207E+02 -0.44864291153E+02  0.18492601330E+03  0.12500000000E+03 0.  0.
         25    1    1    2    0    0 -0.12633930781E+03 -0.24458231207E+02 -0.34553666703E+01  0.17943457117E+03  0.12500000000E+03 0.  0.
</event>
<event>
 4    0  0.2205135E-002  0.2353556E+03  0.7546771E-02  0.1122926E+00
         21   -1    0    0  502  501  0.00000000000E+00  0.00000000000E+00  0.10445529843E+03  0.10445529843E+03  0.00000000000E+00 0.  1.
         21   -1    0    0  501  502 -0.00000000000E+00 -0.00000000000E+00 -0.53029615484E+03  0.53029615484E+03  0.00000000000E+00 0.  1.
         25    1    1    2    0    0  0.18849400018E+02 -0.17526415653E+03 -0.33865928475E+03  0.40173117329E+03  0.12500000000E+03 0.  0.
         25    1    1    2    0    0 -0.18849400018E+02  0.17526415653E+03 -0.87181571662E+02  0.23302027998E+03  0.12500000000E+03 0.  0.
</event>
<event>
 4    0  0.2205135E-002  0.3575369E+03  0.7546771E-02  0.1059563E+00
         21   -1    0    0  502  501  0.00000000000E+00  0.00000000000E+00  0.11607255142E+04  0.11607255142E+04  0.00000000000E+00 0. -1.
         21   -1    0    0  501  502 -0.00000000000E+00 -0.00000000000E+00 -0.11013167666E+03  0.11013167666E+03  0.00000000000E+00 0. -1.
         25    1    1    2    0    0  0.28417604099E+03  0.98579591792E+02  0.26329010457E+03  0.41883246932E+03  0.12500000000E+03 0.  0.
         25    1    1    2    0    0 -0.28417604099E+03 -0.98579591792E+02  0.78730373300E+03  0.85202472158E+03  0.12500000000E+03 0.  0.
</event>
<event>
 4    0  0.2205135E-002  0.1945407E+03  0.7546771E-02  0.1154429E+00
         21   -1    0    0  502  501  0.00000000000E+00  0.00000000000E+00  0.28535380801E+03  0.28535380801E+03  0.00000000000E+00 0. -1.
         21   -1    0    0  501  502 -0.00000000000E+00 -0.00000000000E+00 -0.13262858357E+03  0.13262858357E+03  0.00000000000E+00 0. -1.
         25    1    1    2    0    0 -0.50687452839E+02  0.10557539577E+03 -0.22714273347E+02  0.17278981533E+03  0.12500000000E+03 0.  0.
         25    1    1    2    0    0  0.50687452839E+02 -0.10557539577E+03  0.17543949778E+03  0.24519257625E+03  0.12500000000E+03 0.  0.
</event>
<event>
 4    0  0.2205135E-002  0.3066268E+03  0.7546771E-02  0.1081974E+00
         21   -1    0    0  502  501  0.00000000000E+00  0.00000000000E+00  0.21372293618E+03  0.21372293618E+03  0.00000000000E+00 0.  1.
         21   -1    0    0  501  502 -0.00000000000E+00 -0.00000000000E+00 -0.43991546404E+03  0.43991546404E+03  0.00000000000E+00 0.  1.
         25    1    1    2    0    0  0.11361560368E+03 -0.20321276570E+03 -0.27887358258E+03  0.38418668457E+03  0.12500000000E+03 0.  0.
         25    1    1    2    0    0 -0.11361560368E+03  0.20321276570E+03  0.52681054718E+02  0.26945171565E+03  0.12500000000E+03 0.  0.
</event>
<event>
 4    0  0.2205135E-002  0.2238316E+03  0.7546771E-02  0.1131058E+00
         21   -1    0    0  502  501  0.00000000000E+00  0.00000000000E+00  0.40738665527E+03  0.40738665527E+03  0.00000000000E+00 0. -1.
         21   -1    0    0  501  502 -0.00000000000E+00 -0.00000000000E+00 -0.12298042591E+03  0.12298042591E+03  0.00000000000E+00 0. -1.
         25    1    1    2    0    0  0.23962862006E+02 -0.93096859818E+02 -0.45997547383E+02  0.16426204196E+03  0.12500000000E+03 0.  0.
         25    1    1    2    0    0 -0.23962862006E+02  0.93096859818E+02  0.33040377674E+03  0.36610503923E+03  0.12500000000E+03 0.  0.
</event>
<event>
 4    0  0.2205135E-002  0.1374542E+03  0.7546771E-02  0.1216796E+00
         21   -1    0    0  502  501  0.00000000000E+00  0.00000000000E+00  0.85991127784E+02  0.85991127784E+02  0.00000000000E+00 0.  1.
         21   -1    0    0  501  502 -0.00000000000E+00 -0.00000000000E+00 -0.21971644391E+03  0.21971644391E+03  0.00000000000E+00 0.  1.
         25    1    1    2    0    0  0.24068027844E+02  0.32547736845E+02 -0.21965672487E+02  0.13321454840E+03  0.12500000000E+03 0.  0.
         25    1    1    2    0    0 -0.24068027844E+02 -0.32547736845E+02 -0.11175964364E+03  0.17249302329E+03  0.12500000000E+03 0.  0.
</event>
<event>
 4    0  0.2205135E-002  0.2291568E+03  0.7546771E-02  0.1127235E+00
         21   -1    0    0  502  501  0.00000000000E+00  0.00000000000E+00  0.36260163325E+03  0.36260163325E+03  0.00000000000E+00 0. -1.
         21   -1    0    0  501  502 -0.00000000000E+00 -0.00000000000E+00 -0.14482246107E+03  0.14482246107E+03  0.00000000000E+00 0. -1.
         25    1    1    2    0    0  0.77372876043E+02 -0.63684937553E+01 -0.85606750899E+02  0.17023699792E+03  0.12500000000E+03 0.  0.
         25    1    1    2    0    0 -0.77372876043E+02  0.63684937553E+01  0.30338592308E+03  0.33718709640E+03  0.12500000000E+03 0.  0.
</event>
<event>
 4    0  0.2205135E-002  0.2088278E+03  0.7546771E-02  0.1142498E+00
         21   -1    0    0  502  501  0.00000000000E+00  0.00000000000E+00  0.11161130827E+03  0.11161130827E+03  0.00000000000E+00 0. -1.
         21   -1    0    0  501  502 -0.00000000000E+00 -0.00000000000E+00 -0.39072255434E+03  0.39072255434E+03  0.00000000000E+00 0. -1.
         25    1    1    2    0    0 -0.17949187342E+02  0.88139389272E+02  0.30084221187E+02  0.15691011960E+03  0.12500000000E+03 0.  0.
         25    1    1    2    0    0  0.17949187342E+02 -0.88139389272E+02 -0.30919546726E+03  0.34542374302E+03  0.12500000000E+03 0.  0.
</event>
<event>
 4    0  0.2205135E-002  0.2239092E+03  0.7546771E-02  0.1131002E+00
         21   -1    0    0  502  501  0.00000000000E+00  0.00000000000E+00  0.34957244948E+03  0.34957244948E+03  0.00000000000E+00 0.  1.
         21   -1    0    0  501  502 -0.00000000000E+00 -0.00000000000E+00 -0.14341896164E+03  0.14341896164E+03  0.00000000000E+00 0.  1.
         25    1    1    2    0    0 -0.47645915064E+02 -0.15925760229E+03  0.19437097144E+03  0.28467207740E+03  0.12500000000E+03 0.  0.
         25    1    1    2    0    0  0.47645915064E+02  0.15925760229E+03  0.11782516396E+02  0.20831933372E+03  0.12500000000E+03 0.  0.
</event>
<event>
 4    0  0.2205135E-002  0.3102933E+03  0.7546771E-02  0.1080205E+00
         21   -1    0    0  502  501  0.00000000000E+00  0.00000000000E+00  0.60328230326E+03  0.60328230326E+03  0.00000000000E+00 0. -1.
         21   -1    0    0  501  502 -0.00000000000E+00 -0.00000000000E+00 -0.15959679196E+03  0.15959679196E+03  0.00000000000E+00 0. -1.
         25    1    1    2    0    0 -0.25388062839E+03  0.12537881230E+03  0.24882274419E+03  0.39713093316E+03  0.12500000000E+03 0.  0.
         25    1    1    2    0    0  0.25388062839E+03 -0.12537881230E+03  0.19486276711E+03  0.36574816206E+03  0.12500000000E+03 0.  0.
</event>
<event>
 4    0  0.2205135E-002  0.2107087E+03  0.7546771E-02  0.1141006E+00
         21   -1    0    0  502  501  0.00000000000E+00  0.00000000000E+00  0.89743978070E+02  0.89743978070E+02  0.00000000000E+00 0. -1.
         21   -1    0    0  501  502 -0.00000000000E+00 -0.00000000000E+00 -0.49472007894E+03  0.49472007894E+03  0.00000000000E+00 0. -1.
         25    1    1    2    0    0 -0.14091714038E+03 -0.63861277921E+02 -0.10602868243E+03  0.22539517468E+03  0.12500000000E+03 0.  0.
         25    1    1    2    0    0  0.14091714038E+03  0.63861277921E+02 -0.29894741843E+03  0.35906888233E+03  0.12500000000E+03 0.  0.
</event>
<event>
 4    0  0.2205135E-002  0.2071169E+03  0.7546771E-02  0.1143870E+00
         21   -1    0    0  502  501  0.00000000000E+00  0.00000000000E+00  0.90421004377E+02  0.90421004377E+02  0.00000000000E+00 0.  1.
         21   -1    0    0  501  502 -0.00000000000E+00 -0.00000000000E+00 -0.47441878942E+03  0.47441878942E+03  0.00000000000E+00 0.  1.
         25    1    1    2    0    0 -0.12963234106E+03 -0.24522057367E+02 -0.56554100970E+02  0.19033980530E+03  0.12500000000E+03 0.  0.
         25    1    1    2    0    0  0.12963234106E+03  0.24522057367E+02 -0.32744368407E+03  0.37449998850E+03  0.12500000000E+03 0.  0.
</event>
<event>
 4    0  0.2205135E-002  0.2344192E+03  0.7546771E-02  0.1123567E+00
         21   -1    0    0  502  501  0.00000000000E+00  0.00000000000E+00  0.17211318851E+03  0.17211318851E+03  0.00000000000E+00 0. -1.
         21   -1    0    0  501  502 -0.00000000000E+00 -0.00000000000E+00 -0.31928037336E+03  0.31928037336E+03  0.00000000000E+00 0. -1.
         25    1    1    2    0    0  0.95835271953E+02  0.13417360708E+03 -0.18906788051E+03  0.28028310622E+03  0.12500000000E+03 0.  0.
         25    1    1    2    0    0 -0.95835271953E+02 -0.13417360708E+03  0.41900695670E+02  0.21111045565E+03  0.12500000000E+03 0.  0.
</event>
<event>
 4    0  0.2205135E-002  0.2384403E+03  0.7546771E-02  0.1120836E+00
         21   -1    0    0  502  501  0.00000000000E+00  0.00000000000E+00  0.15880320791E+03  0.15880320791E+03  0.00000000000E+00 0.  1.
         21   -1    0    0  501  502 -0.00000000000E+00 -0.00000000000E+00 -0.35801414433E+03  0.35801414433E+03  0.00000000000E+00 0.  1.
         25    1    1    2    0    0  0.15487594498E+03 -0.48020624510E+02 -0.23205433157E+03  0.30946203566E+03  0.12500000000E+03 0.  0.
         25    1    1    2    0    0 -0.15487594498E+03  0.48020624510E+02  0.32843395157E+02  0.20735531659E+03  0.12500000000E+03 0.  0.
</event>
<event>
 4    0  0.2205135E-002  0.2253567E+03  0.7546771E-02  0.1129951E+00
         21   -1    0    0  502  501  0.00000000000E+00  0.00000000000E+00  0.62398700893E+03  0.62398700893E+03  0.00000000000E+00 0.  1.
         21   -1    0    0  501  502 -0.00000000000E+00 -0.00000000000E+00 -0.81388951069E+02  0.81388951069E+02  0.00000000000E+00 0.  1.
         25    1    1    2    0    0 -0.13999567868E+02  0.10805997731E+03  0.51012605581E+03  0.53640147224E+03  0.12500000000E+03 0.  0.
         25    1    1    2    0    0  0.13999567868E+02 -0.10805997731E+03  0.32472002042E+02  0.16897448776E+03  0.12500000000E+03 0.  0.
</event>
<event>
 4    0  0.2205135E-002  0.1739494E+03  0.7546771E-02  0.1173791E+00
         21   -1    0    0  502  501  0.00000000000E+00  0.00000000000E+00  0.50515578716E+03  0.50515578716E+03  0.00000000000E+00 0. -1.
         21   -1    0    0  501  502 -0.00000000000E+00 -0.00000000000E+00 -0.59899164049E+02  0.59899164049E+02  0.00000000000E+00 0. -1.
         25    1    1    2    0    0 -0.73677076496E+00 -0.53707028975E+02  0.39867481471E+03  0.42125003938E+03  0.12500000000E+03 0.  0.
         25    1    1    2    0    0  0.73677076496E+00  0.53707028975E+02  0.46581808400E+02  0.14380491183E+03  0.12500000000E+03 0.  0.
</event>
<event>
 4    0  0.2205135E-002  0.1656578E+03  0.7546771E-02  0.1182453E+00
         21   -1    0    0  502  501  0.00000000000E+00  0.00000000000E+00  0.12168582527E+03  0.12168582527E+03  0.00000000000E+00 0.  1.
         21   -1    0    0  501  502 -0.00000000000E+00 -0.00000000000E+00 -0.22551947255E+03  0.22551947255E+03  0.00000000000E+00 0.  1.
         25    1    1    2    0    0 -0.26233244828E+02 -0.92492045928E+02 -0.10509041063E+03  0.18950450153E+03  0.12500000000E+03 0.  0.
         25    1    1    2    0    0  0.26233244828E+02  0.92492045928E+02  0.12567633438E+01  0.15770079628E+03  0.12500000000E+03 0.  0.
</event>
<event>
 4    0  0.2205135E-002  0.2630719E+03  0.7546771E-02  0.1105312E+00
         21   -1    0    0  502  501  0.00000000000E+00  0.00000000000E+00  0.73962074626E+03  0.73962074626E+03  0.00000000000E+00 0.  1.
         21   -1    0    0  501  502 -0.00000000000E+00 -0.00000000000E+00 -0.93570658389E+02  0.93570658389E+02  0.00000000000E+00 0.  1.
         25    1    1    2    0    0  0.20440266065E+03  0.85964346932E+02  0.42820493896E+03  0.49815136894E+03  0.12500000000E+03 0.  0.
         25    1    1    2    0    0 -0.20440266065E+03 -0.85964346932E+02  0.21784514891E+03  0.33504003571E+03  0.12500000000E+03 0.  0.
</event>
<event>
 4    0  0.2205135E-002  0.1767676E+03  0.7546771E-02  0.1170969E+00
         21   -1    0    0  502  501  0.00000000000E+00  0.00000000000E+00  0.12305880382E+04  0.12305880382E+04  0.00000000000E+00 0.  1.
         21   -1    0    0  501  502 -0.00000000000E+00 -0.00000000000E+00 -0.25391751516E+02  0.25391751516E+02  0.00000000000E+00 0.  1.
         25    1    1    2    0    0 -0.80976921600E+02  0.58517053745E+02  0.33578928364E+03  0.37196901809E+03  0.12500000000E+03 0.  0.
         25    1    1    2    0    0  0.80976921600E+02 -0.58517053745E+02  0.86940700304E+03  0.88401077163E+03  0.12500000000E+03 0.  0.
</event>
<event>
 4    0  0.2205135E-002  0.2239381E+03  0.7546771E-02  0.1130981E+00
         21   -1    0    0  502  501  0.00000000000E+00  0.00000000000E+00  0.13116425553E+04  0.13116425553E+04  0.00000000000E+00 0.  1.
         21   -1    0    0  501  502 -0.00000000000E+00 -0.00000000000E+00 -0.38233185579E+02  0.38233185579E+02  0.00000000000E+00 0.  1.
         25    1    1    2    0    0  0.13287292815E+03 -0.12468215184E+03  0.52710220531E+03  0.57154403931E+03  0.12500000000E+03 0.  0.
         25    1    1    2    0    0 -0.13287292815E+03  0.12468215184E+03  0.74630716437E+03  0.77833170154E+03  0.12500000000E+03 0.  0.
</event>
<event>
 4    0  0.2205135E-002  0.1605894E+03  0.7546771E-02  0.1188033E+00
         21   -1    0    0  502  501  0.00000000000E+00  0.00000000000E+00  0.50938359307E+03  0.50938359307E+03  0.00000000000E+00 0. -1.
         21   -1    0    0  501  502 -0.00000000000E+00 -0.00000000000E+00 -0.50627747812E+02  0.50627747812E+02  0.00000000000E+00 0. -1.
         25    1    1    2    0    0  0.79150532799E+02  0.47729059534E+01  0.33793594129E+03  0.36893534378E+03  0.12500000000E+03 0.  0.
         25    1    1    2    0    0 -0.79150532799E+02 -0.47729059534E+01  0.12081990396E+03  0.19107599710E+03  0.12500000000E+03 0.  0.
</event>
<event>
 4    0  0.2205135E-002  0.2045970E+03  0.7546771E-02  0.1145917E+00
         21   -1    0    0  502  501  0.00000000000E+00  0.00000000000E+00  0.38333590132E+02  0.38333590132E+02  0.00000000000E+00 0. -1.
         21   -1    0    0  501  502 -0.00000000000E+00 -0.00000000000E+00 -0.10919909935E+04  0.10919909935E+04  0.00000000000E+00 0. -1.
         25    1    1    2    0    0 -0.14160829884E+01 -0.97318113802E+02 -0.88446229369E+03  0.89853846302E+03  0.12500000000E+03 0.  0.
         25    1    1    2    0    0  0.14160829884E+01  0.97318113802E+02 -0.16919510964E+03  0.23178612058E+03  0.12500000000E+03 0.  0.
</event>
<event>
 4    0  0.2205135E-002  0.2303056E+03  0.7546771E-02  0.1126425E+00
         21   -1    0    0  502  501  0.00000000000E+00  0.00000000000E+00  0.15429559861E+04  0.15429559861E+04  0.00000000000E+00 0.  1.
         21   -1    0    0  501  502 -0.00000000000E+00 -0.00000000000E+00 -0.34376006893E+02  0.34376006893E+02  0.00000000000E+00 0.  1.
         25    1    1    2    0    0  0.10501592341E+03  0.10503526539E+03  0.11786283897E+04  0.11945085316E+04  0.12500000000E+03 0.  0.
         25    1    1    2    0    0 -0.10501592341E+03 -0.10503526539E+03  0.32995158948E+03  0.38282346133E+03  0.12500000000E+03 0.  0.
</event>
<event>
 4    0  0.2205135E-002  0.3245813E+03  0.7546771E-02  0.1073560E+00
         21   -1    0    0  502  501  0.00000000000E+00  0.00000000000E+00  0.93915026742E+03  0.93915026742E+03  0.00000000000E+00 0.  1.
         21   -1    0    0  501  502 -0.00000000000E+00 -0.00000000000E+00 -0.11217911671E+03  0.11217911671E+03  0.00000000000E+00 0.  1.
         25    1    1    2    0    0  0.13029695715E+03 -0.25003526402E+03  0.24965716052E+03  0.39679796887E+03  0.12500000000E+03 0.  0.
         25    1    1    2    0    0 -0.13029695715E+03  0.25003526402E+03  0.57731399019E+03  0.65453141527E+03  0.12500000000E+03 0.  0.
</event>
<event>
 4    0  0.2205135E-002  0.1981650E+03  0.7546771E-02  0.1151297E+00
         21   -1    0    0  502  501  0.00000000000E+00  0.00000000000E+00  0.18002191866E+02  0.18002191866E+02  0.00000000000E+00 0.  1.
         21   -1    0    0  501  502 -0.00000000000E+00 -0.00000000000E+00 -0.21813656571E+04  0.21813656571E+04  0.00000000000E+00 0.  1.
         25    1    1    2    0    0  0.97281101504E+02  0.11784293113E+03 -0.98656380486E+03  0.10061231089E+04  0.12500000000E+03 0.  0.
         25    1    1    2    0    0 -0.97281101504E+02 -0.11784293113E+03 -0.11767996604E+04  0.11932447401E+04  0.12500000000E+03 0.  0.
</event>
<event>
 4    0  0.2205135E-002  0.1908861E+03  0.7546771E-02  0.1157665E+00
         21   -1    0    0  502  501  0.00000000000E+00  0.00000000000E+00  0.16752776456E+02  0.16752776456E+02  0.00000000000E+00 0. -1.
         21   -1    0    0  501  502 -0.00000000000E+00 -0.00000000000E+00 -0.21750129846E+04  0.21750129846E+04  0.00000000000E+00 0. -1.
         25    1    1    2    0    0  0.10627642568E+03  0.85849522183E+02 -0.81307270942E+03  0.83389270888E+03  0.12500000000E+03 0.  0.
         25    1    1    2    0    0 -0.10627642568E+03 -0.85849522183E+02 -0.13451874987E+04  0.13578730522E+04  0.12500000000E+03 0.  0.
</event>
<event>
 4    0  0.2205135E-002  0.3160174E+03  0.7546771E-02  0.1077497E+00
         21   -1    0    0  502  501  0.00000000000E+00  0.00000000000E+00  0.70046303659E+02  0.70046303659E+02  0.00000000000E+00 0.  1.
         21   -1    0    0  501  502 -0.00000000000E+00 -0.00000000000E+00 -0.14257279545E+04  0.14257279545E+04  0.00000000000E+00 0.  1.
         25    1    1    2    0    0  0.14020346457E+03  0.14796482978E+03 -0.11668254077E+04  0.11910739416E+04  0.12500000000E+03 0.  0.
         25    1    1    2    0    0 -0.14020346457E+03 -0.14796482978E+03 -0.18885624315E+03  0.30470031655E+03  0.12500000000E+03 0.  0.
</event>
<event>
 4    0  0.2205135E-002  0.1919309E+03  0.7546771E-02  0.1156731E+00
         21   -1    0    0  502  501  0.00000000000E+00  0.00000000000E+00  0.29057070692E+03  0.29057070692E+03  0.00000000000E+00 0.  1.
         21   -1    0    0  501  502 -0.00000000000E+00 -0.00000000000E+00 -0.12677628932E+03  0.12677628932E+03  0.00000000000E+00 0.  1.
         25    1    1    2    0    0  0.10654169189E+03 -0.84966483834E+02  0.26012614743E+02  0.18674070690E+03  0.12500000000E+03 0.  0.
         25    1    1    2    0    0 -0.10654169189E+03  0.84966483834E+02  0.13778180285E+03  0.23060628934E+03  0.12500000000E+03 0.  0.
</event>
<event>
 4    0  0.2205135E-002  0.2037681E+03  0.7546771E-02  0.1146598E+00
         21   -1    0    0  502  501  0.00000000000E+00  0.00000000000E+00  0.99140896980E+03  0.99140896980E+03  0.00000000000E+00 0.  1.
         21   -1    0    0  501  502 -0.00000000000E+00 -0.00000000000E+00 -0.41881238436E+02  0.41881238436E+02  0.00000000000E+00 0.  1.
         25    1    1    2    0    0 -0.14733829982E+02  0.15491791402E+03  0.37084758715E+03  0.42115267864E+03  0.12500000000E+03 0.  0.
         25    1    1    2    0    0  0.14733829982E+02 -0.15491791402E+03  0.57868014422E+03  0.61213752960E+03  0.12500000000E+03 0.  0.
</event>
<event>
 4    0  0.2205135E-002  0.2946414E+03  0.7546771E-02  0.1087950E+00
         21   -1    0    0  502  501  0.00000000000E+00  0.00000000000E+00  0.46470302691E+03  0.46470302691E+03  0.00000000000E+00 0.  1.
         21   -1    0    0  501  502 -0.00000000000E+00 -0.00000000000E+00 -0.18681516421E+03  0.18681516421E+03  0.00000000000E+00 0.  1.
         25    1    1    2    0    0  0.12999864713E+03  0.90907355496E+02  0.37613513673E+03  0.42692673449E+03  0.12500000000E+03 0.  0.
         25    1    1    2    0    0 -0.12999864713E+03 -0.90907355496E+02 -0.98247274034E+02  0.22459145664E+03  0.12500000000E+03 0.  0.
</event>
<event>
 4    0  0.2205135E-002  0.1761724E+03  0.7546771E-02  0.1171560E+00
         21   -1    0    0  502  501  0.00000000000E+00  0.00000000000E+00  0.30179788718E+02  0.30179788718E+02  0.00000000000E+00 0.  1.
         21   -1    0    0  501  502 -0.00000000000E+00 -0.00000000000E+00 -0.10283941627E+04  0.10283941627E+04  0.00000000000E+00 0.  1.
         25    1    1    2    0    0 -0.46518515882E+02 -0.22609371262E+02 -0.16004494847E+03  0.20955796697E+03  0.12500000000E+03 0.  0.
         25    1    1    2    0    0  0.46518515882E+02  0.22609371262E+02 -0.83816942549E+03  0.84901598443E+03  0.12500000000E+03 0.  0.
</event>
<event>
 4    0  0.2205135E-002  0.2733272E+03  0.7546771E-02  0.1099390E+00
         21   -1    0    0  502  501  0.00000000000E+00  0.00000000000E+00  0.31983089849E+03  0.31983089849E+03  0.00000000000E+00 0.  1.
         21   -1    0    0  501  502 -0.00000000000E+00 -0.00000000000E+00 -0.23358522940E+03  0.23358522940E+03  0.00000000000E+00 0.  1.
         25    1    1    2    0    0 -0.10881787772E+03  0.18188242896E+03  0.16359147250E+03  0.29548217941E+03  0.12500000000E+03 0.  0.
         25    1    1    2    0    0  0.10881787772E+03 -0.18188242896E+03 -0.77345803405E+02  0.25793394848E+03  0.12500000000E+03 0.  0.
</event>
<event>
 4    0  0.2205135E-002  0.1712398E+03  0.7546771E-02  0.1176561E+00
         21   -1    0    0  502  501  0.00000000000E+00  0.00000000000E+00  0.10455530977E+03  0.10455530977E+03  0.00000000000E+00 0.  1.
         21   -1    0    0  501  502 -0.00000000000E+00 -0.00000000000E+00 -0.28045507859E+03  0.28045507859E+03  0.00000000000E+00 0.  1.
         25    1    1    2    0    0 -0.49512846925E+01 -0.98730936465E+02 -0.17513131943E+02  0.16032474178E+03  0.12500000000E+03 0.  0.
         25    1    1    2    0    0  0.49512846925E+01  0.98730936465E+02 -0.15838663688E+03  0.22468564658E+03  0.12500000000E+03 0.  0.
</event>
<event>
 4    0  0.2205135E-002  0.1600374E+03  0.7546771E-02  0.1188654E+00
         21   -1    0    0  502  501  0.00000000000E+00  0.00000000000E+00  0.15270474230E+03  0.15270474230E+03  0.00000000000E+00 0. -1.
         21   -1    0    0  501  502 -0.00000000000E+00 -0.00000000000E+00 -0.16772222965E+03  0.16772222965E+03  0.00000000000E+00 0. -1.
         25    1    1    2    0    0 -0.70454673138E+02 -0.29212446659E+02  0.57135907929E+02  0.15718377773E+03  0.12500000000E+03 0.  0.
         25    1    1    2    0    0  0.70454673138E+02  0.29212446659E+02 -0.72153395283E+02  0.16324319422E+03  0.12500000000E+03 0.  0.
</event>
<event>
 4    0  0.2205135E-002  0.1589195E+03  0.7546771E-02  0.1189922E+00
         21   -1    0    0  502  501  0.00000000000E+00  0.00000000000E+00  0.78250751283E+03  0.78250751283E+03  0.00000000000E+00 0.  1.
         21   -1    0    0  501  502 -0.00000000000E+00 -0.00000000000E+00 -0.32274960788E+02  0.32274960788E+02  0.00000000000E+00 0.  1.
         25    1    1    2    0    0  0.32872958146E+02 -0.34629696554E+02  0.59489950083E+03  0.60976246470E+03  0.12500000000E+03 0.  0.
         25    1    1    2    0    0 -0.32872958146E+02  0.34629696554E+02  0.15533305121E+03  0.20502000892E+03  0.12500000000E+03 0.  0.
</event>
<event>
 4    0  0.2205135E-002  0.2488853E+03  0.7546771E-02  0.1114011E+00
         21   -1    0    0  502  501  0.00000000000E+00  0.00000000000E+00  0.24265581794E+03  0.24265581794E+03  0.00000000000E+00 0. -1.
         21   -1    0    0  501  502 -0.00000000000E+00 -0.00000000000E+00 -0.25527467577E+03  0.25527467577E+03  0.00000000000E+00 0. -1.
         25    1    1    2    0    0  0.39759814907E+02 -0.38766176957E+02  0.20168819479E+03  0.24369404440E+03  0.12500000000E+03 0.  0.
         25    1    1    2    0    0 -0.39759814907E+02  0.38766176957E+02 -0.21430705261E+03  0.25423644931E+03  0.12500000000E+03 0.  0.
</event>
<event>
 4    0  0.2205135E-002  0.2036259E+03  0.7546771E-02  0.1146715E+00
         21   -1    0    0  502  501  0.00000000000E+00  0.00000000000E+00  0.98070432836E+02  0.98070432836E+02  0.00000000000E+00 0. -1.
         21   -1    0    0  501  502 -0.00000000000E+00 -0.00000000000E+00 -0.42279296988E+03  0.42279296988E+03  0.00000000000E+00 0. -1.
         25    1    1    2    0    0  0.20744969666E+02  0.29708013843E+01  0.41470505293E+02  0.13335659802E+03  0.12500000000E+03 0.  0.
         25    1    1    2    0    0 -0.20744969666E+02 -0.29708013843E+01 -0.36619304234E+03  0.38750680469E+03  0.12500000000E+03 0.  0.
</event>
<event>
 4    0  0.2205135E-002  0.2414515E+03  0.7546771E-02  0.1118830E+00
         21   -1    0    0  502  501  0.00000000000E+00  0.00000000000E+00  0.30543280894E+02  0.30543280894E+02  0.00000000000E+00 0.  1.
         21   -1    0    0  501  502 -0.00000000000E+00 -0.00000000000E+00 -0.19087288382E+04  0.19087288382E+04  0.00000000000E+00 0.  1.
         25    1    1    2    0    0 -0.59880372743E+02  0.18870220091E+03 -0.11759830848E+04  0.11990643833E+04  0.12500000000E+03 0.  0.
         25    1    1    2    0    0  0.59880372743E+02 -0.18870220091E+03 -0.70220247248E+03  0.74020773572E+03  0.12500000000E+03 0.  0.
</event>
<event>
 4    0  0.2205135E-002  0.1893712E+03  0.7546771E-02  0.1159030E+00
         21   -1    0    0  502  501  0.00000000000E+00  0.00000000000E+00  0.19884359658E+02  0.19884359658E+02  0.00000000000E+00 0. -1.
         21   -1    0    0  501  502 -0.00000000000E+00 -0.00000000000E+00 -0.18035000456E+04  0.18035000456E+04  0.00000000000E+00 0. -1.
         25    1    1    2    0    0  0.11095934252E+03 -0.45040842492E+02 -0.12614703234E+04  0.12732922014E+04  0.12500000000E+03 0.  0.
         25    1    1    2    0    0 -0.11095934252E+03  0.45040842492E+02 -0.52214536258E+03  0.55009220395E+03  0.12500000000E+03 0.  0.
</event>
<event>
 4    0  0.2205135E-002  0.4763909E+03  0.7546771E-02  0.1020132E+00
         21   -1    0    0  502  501  0.00000000000E+00  0.00000000000E+00  0.19153368781E+03  0.19153368781E+03  0.00000000000E+00 0.  1.
         21   -1    0    0  501  502 -0.00000000000E+00 -0.00000000000E+00 -0.11849001885E+04  0.11849001885E+04  0.00000000000E+00 0.  1.
         25    1    1    2    0    0  0.44486143871E+03 -0.10732082691E+03 -0.55971762994E+03  0.73370858303E+03  0.12500000000E+03 0.  0.
         25    1    1    2    0    0 -0.44486143871E+03  0.10732082691E+03 -0.43364887077E+03  0.64272529331E+03  0.12500000000E+03 0.  0.
</event>
<event>
 4    0  0.2205135E-002  0.1829899E+03  0.7546771E-02  0.1164940E+00
         21   -1    0    0  502  501  0.00000000000E+00  0.00000000000E+00  0.13666264168E+03  0.13666264168E+03  0.00000000000E+00 0.  1.
         21   -1    0    0  501  502 -0.00000000000E+00 -0.00000000000E+00 -0.24502170116E+03  0.24502170116E+03  0.00000000000E+00 0.  1.
         25    1    1    2    0    0  0.10795046087E+03 -0.77631725758E+02 -0.68184315434E+02  0.19481808878E+03  0.12500000000E+03 0.  0.
         25    1    1    2    0    0 -0.10795046087E+03  0.77631725758E+02 -0.40174744046E+02  0.18686625406E+03  0.12500000000E+03 0.  0.
</event>
<event>
 4    0  0.2205135E-002  0.1959861E+03  0.7546771E-02  0.1153170E+00
         21   -1    0    0  502  501  0.00000000000E+00  0.00000000000E+00  0.46538318099E+02  0.46538318099E+02  0.00000000000E+00 0. -1.
         21   -1    0    0  501  502 -0.00000000000E+00 -0.00000000000E+00 -0.82535330116E+03  0.82535330116E+03  0.00000000000E+00 0. -1.
         25    1    1    2    0    0 -0.54280318043E+02 -0.14001177710E+02 -0.70116217825E+03  0.71441989481E+03  0.12500000000E+03 0.  0.
         25    1    1    2    0    0  0.54280318043E+02  0.14001177710E+02 -0.77652804814E+02  0.15747172444E+03  0.12500000000E+03 0.  0.
</event>
<event>
 4    0  0.2205135E-002  0.3552699E+03  0.7546771E-02  0.1060473E+00
         21   -1    0    0  502  501  0.00000000000E+00  0.00000000000E+00  0.14587530312E+03  0.14587530312E+03  0.00000000000E+00 0. -1.
         21   -1    0    0  501  502 -0.00000000000E+00 -0.00000000000E+00 -0.86523690424E+03  0.86523690424E+03  0.00000000000E+00 0. -1.
         25    1    1    2    0    0  0.25771211190E+03 -0.14298042658E+03 -0.57890327971E+03  0.66152319858E+03  0.12500000000E+03 0.  0.
         25    1    1    2    0    0 -0.25771211190E+03  0.14298042658E+03 -0.14045832141E+03  0.34958900878E+03  0.12500000000E+03 0.  0.
</event>
<event>
 4    0  0.2205135E-002  0.1710931E+03  0.7546771E-02  0.1176713E+00
         21   -1    0    0  502  501  0.00000000000E+00  0.00000000000E+00  0.11259435370E+03  0.11259435370E+03  0.00000000000E+00 0.  1.
         21   -1    0    0  501  502 -0.00000000000E+00 -0.00000000000E+00 -0.25998499322E+03  0.25998499322E+03  0.00000000000E+00 0.  1.
         25    1    1    2    0    0  0.12905351114E+02 -0.39842859687E+02  0.45050244163E+02  0.13931448616E+03  0.12500000000E+03 0.  0.
         25    1    1    2    0    0 -0.12905351114E+02  0.39842859687E+02 -0.19244088368E+03  0.23326486076E+03  0.12500000000E+03 0.  0.
</event>
<event>
 4    0  0.2205135E-002  0.3715494E+03  0.7546771E-02  0.1054102E+00
         21   -1    0    0  502  501  0.00000000000E+00  0.00000000000E+00  0.25680859743E+03  0.25680859743E+03  0.00000000000E+00 0.  1.
         21   -1    0    0  501  502 -0.00000000000E+00 -0.00000000000E+00 -0.53755576489E+03  0.53755576489E+03  0.00000000000E+00 0.  1.
         25    1    1    2    0    0 -0.15497158177E+03 -0.28614276333E+03 -0.27781276508E+03  0.44575644090E+03  0.12500000000E+03 0.  0.
         25    1    1    2    0    0  0.15497158177E+03  0.28614276333E+03 -0.29344023788E+01  0.34860792142E+03  0.12500000000E+03 0.  0.
</event>
<event>
 4    0  0.2205135E-002  0.3087131E+03  0.7546771E-02  0.1080964E+00
         21   -1    0    0  502  501  0.00000000000E+00  0.00000000000E+00  0.28287283223E+04  0.28287283223E+04  0.00000000000E+00 0. -1.
         21   -1    0    0  501  502 -0.00000000000E+00 -0.00000000000E+00 -0.33691395657E+02  0.33691395657E+02  0.00000000000E+00 0. -1.
         25    1    1    2    0    0 -0.20113479863E+03 -0.41775710360E+02  0.50000979889E+03  0.55482899725E+03  0.12500000000E+03 0.  0.
         25    1    1    2    0    0  0.20113479863E+03  0.41775710360E+02  0.22950271278E+04  0.23075907207E+04  0.12500000000E+03 0.  0.
</event>
<event>
 4    0  0.2205135E-002  0.1961319E+03  0.7546771E-02  0.1153044E+00
         21   -1    0    0  502  501  0.00000000000E+00  0.00000000000E+00  0.40807486524E+03  0.40807486524E+03  0.00000000000E+00 0.  1.
         21   -1    0    0  501  502 -0.00000000000E+00 -0.00000000000E+00 -0.94266343227E+02  0.94266343227E+02  0.00000000000E+00 0.  1.
         25    1    1    2    0    0  0.32252435202E+02  0.13939827333E+03  0.21925651851E+03  0.29012155916E+03  0.12500000000E+03 0.  0.
         25    1    1    2    0    0 -0.32252435202E+02 -0.13939827333E+03  0.94552003499E+02  0.21221964930E+03  0.12500000000E+03 0.  0.
</event>
<event>
 4    0  0.2205135E-002  0.2216594E+03  0.7546771E-02  0.1132652E+00
         21   -1    0    0  502  501  0.00000000000E+00  0.00000000000E+00  0.22053151683E+03  0.22053151683E+03  0.00000000000E+00 0.  1.
         21   -1    0    0  501  502 -0.00000000000E+00 -0.00000000000E+00 -0.22279304942E+03  0.22279304942E+03  0.00000000000E+00 0.  1.
         25    1    1    2    0    0  0.12693336045E+03  0.13155334914E+03  0.83312520719E+01  0.22161401451E+03  0.12500000000E+03 0.  0.
         25    1    1    2    0    0 -0.12693336045E+03 -0.13155334914E+03 -0.10592784658E+02  0.22171055174E+03  0.12500000000E+03 0.  0.
</event>
<event>
 4    0  0.2205135E-002  0.1834688E+03  0.7546771E-02  0.1164488E+00
         21   -1    0    0  502  501  0.00000000000E+00  0.00000000000E+00  0.11757039994E+03  0.11757039994E+03  0.00000000000E+00 0.  1.
         21   -1    0    0  501  502 -0.00000000000E+00 -0.00000000000E+00 -0.28630330988E+03  0.28630330988E+03  0.00000000000E+00 0.  1.
         25    1    1    2    0    0 -0.11701092963E+03  0.27947173814E+01 -0.15684665832E+03  0.23221809215E+03  0.12500000000E+03 0.  0.
         25    1    1    2    0    0  0.11701092963E+03 -0.27947173814E+01 -0.11886251613E+02  0.17165561766E+03  0.12500000000E+03 0.  0.
</event>
<event>
 4    0  0.2205135E-002  0.3493863E+03  0.7546771E-02  0.1062867E+00
         21   -1    0    0  502  501  0.00000000000E+00  0.00000000000E+00  0.33744018771E+03  0.33744018771E+03  0.00000000000E+00 0.  1.
         21   -1    0    0  501  502 -0.00000000000E+00 -0.00000000000E+00 -0.36175525207E+03  0.36175525207E+03  0.00000000000E+00 0.  1.
         25    1    1    2    0    0  0.31545978153E+03 -0.12967237296E+02 -0.94443166470E+02  0.35245926672E+03  0.12500000000E+03 0.  0.
         25    1    1    2    0    0 -0.31545978153E+03  0.12967237296E+02  0.70128102112E+02  0.34673617306E+03  0.12500000000E+03 0.  0.
</event>
<event>
 4    0  0.2205135E-002  0.2247427E+03  0.7546771E-02  0.1130396E+00
         21   -1    0    0  502  501  0.00000000000E+00  0.00000000000E+00  0.85050475282E+02  0.85050475282E+02  0.00000000000E+00 0. -1.
         21   -1    0    0  501  502 -0.00000000000E+00 -0.00000000000E+00 -0.59387435343E+03  0.59387435343E+03  0.00000000000E+00 0. -1.
         25    1    1    2    0    0 -0.17772629999E+03  0.54942336827E+02 -0.27964131631E+03  0.35837070733E+03  0.12500000000E+03 0.  0.
         25    1    1    2    0    0  0.17772629999E+03 -0.54942336827E+02 -0.22918256184E+03  0.32055412138E+03  0.12500000000E+03 0.  0.
</event>
<event>
 4    0  0.2205135E-002  0.2409477E+03  0.7546771E-02  0.1119163E+00
         21   -1    0    0  502  501  0.00000000000E+00  0.00000000000E+00  0.21614494448E+03  0.21614494448E+03  0.00000000000E+00 0.  1.
         21   -1    0    0  501  502 -0.00000000000E+00 -0.00000000000E+00 -0.26859652902E+03  0.26859652902E+03  0.00000000000E+00 0.  1.
         25    1    1    2    0    0  0.10797997566E+03 -0.15515431659E+03 -0.10855196960E+03  0.25127886343E+03  0.12500000000E+03 0.  0.
         25    1    1    2    0    0 -0.10797997566E+03  0.15515431659E+03  0.56100385057E+02  0.23346261008E+03  0.12500000000E+03 0.  0.
</event>
<event>
 4    0  0.2205135E-002  0.3077959E+03  0.7546771E-02  0.1081407E+00
         21   -1    0    0  502  501  0.00000000000E+00  0.00000000000E+00  0.33920346661E+03  0.33920346661E+03  0.00000000000E+00 0.  1.
         21   -1    0    0  501  502 -0.00000000000E+00 -0.00000000000E+00 -0.27929644897E+03  0.27929644897E+03  0.00000000000E+00 0. -1.
         25    1    1    2    0    0  0.25949489712E+03  0.57102974153E+02  0.12266603692E+03  0.31822996072E+03  0.12500000000E+03 0.  0.
         25    1    1    2    0    0 -0.25949489712E+03 -0.57102974153E+02 -0.62759019285E+02  0.30026995486E+03  0.12500000000E+03 0.  0.
</event>
<event>
 4    0  0.2205135E-002  0.1484887E+03  0.7546771E-02  0.1202343E+00
         21   -1    0    0  502  501  0.00000000000E+00  0.00000000000E+00  0.12312685553E+03  0.12312685553E+03  0.00000000000E+00 0. -1.
         21   -1    0    0  501  502 -0.00000000000E+00 -0.00000000000E+00 -0.17907453721E+03  0.17907453721E+03  0.00000000000E+00 0. -1.
         25    1    1    2    0    0 -0.46685210827E+02 -0.61189933329E+02 -0.52160015266E+01  0.14688745189E+03  0.12500000000E+03 0.  0.
         25    1    1    2    0    0  0.46685210827E+02  0.61189933329E+02 -0.50731680155E+02  0.15531394085E+03  0.12500000000E+03 0.  0.
</event>
<event>
 4    0  0.2205135E-002  0.3108305E+03  0.7546771E-02  0.1079948E+00
         21   -1    0    0  502  501  0.00000000000E+00  0.00000000000E+00  0.12973746352E+03  0.12973746352E+03  0.00000000000E+00 0.  1.
         21   -1    0    0  501  502 -0.00000000000E+00 -0.00000000000E+00 -0.74470097335E+03  0.74470097335E+03  0.00000000000E+00 0.  1.
         25    1    1    2    0    0 -0.18249047845E+03  0.21189949475E+03 -0.38173249735E+03  0.48943729949E+03  0.12500000000E+03 0.  0.
         25    1    1    2    0    0  0.18249047845E+03 -0.21189949475E+03 -0.23323101248E+03  0.38500113738E+03  0.12500000000E+03 0.  0.
</event>
<event>
 4    0  0.2205135E-002  0.2084588E+03  0.7546771E-02  0.1142792E+00
         21   -1    0    0  502  501  0.00000000000E+00  0.00000000000E+00  0.58326537359E+03  0.58326537359E+03  0.00000000000E+00 0. -1.
         21   -1    0    0  501  502 -0.00000000000E+00 -0.00000000000E+00 -0.74503070872E+02  0.74503070872E+02  0.00000000000E+00 0. -1.
         25    1    1    2    0    0  0.16473052733E+02  0.11768800591E+03  0.43910101444E+03  0.47175897350E+03  0.12500000000E+03 0.  0.
         25    1    1    2    0    0 -0.16473052733E+02 -0.11768800591E+03  0.69661288283E+02  0.18600947096E+03  0.12500000000E+03 0.  0.
</event>
<event>
 4    0  0.2205135E-002  0.1969406E+03  0.7546771E-02  0.1152346E+00
         21   -1    0    0  502  501  0.00000000000E+00  0.00000000000E+00  0.13456774786E+03  0.13456774786E+03  0.00000000000E+00 0.  1.
         21   -1    0    0  501  502 -0.00000000000E+00 -0.00000000000E+00 -0.28822352541E+03  0.28822352541E+03  0.00000000000E+00 0.  1.
         25    1    1    2    0    0  0.83816640729E+02 -0.52850609018E+02 -0.20081430955E+03  0.25645624004E+03  0.12500000000E+03 0.  0.
         25    1    1    2    0    0 -0.83816640729E+02  0.52850609018E+02  0.47158532003E+02  0.16633503322E+03  0.12500000000E+03 0.  0.
</event>
<event>
 4    0  0.2205135E-002  0.3189768E+03  0.7546771E-02  0.1076121E+00
         21   -1    0    0  502  501  0.00000000000E+00  0.00000000000E+00  0.20866787698E+04  0.20866787698E+04  0.00000000000E+00 0. -1.
         21   -1    0    0  501  502 -0.00000000000E+00 -0.00000000000E+00 -0.48759871210E+02  0.48759871210E+02  0.00000000000E+00 0. -1.
         25    1    1    2    0    0 -0.27071618484E+03 -0.45602397003E+02  0.67183096922E+03  0.73644326499E+03  0.12500000000E+03 0.  0.
         25    1    1    2    0    0  0.27071618484E+03  0.45602397003E+02  0.13660879294E+04  0.13989953761E+04  0.12500000000E+03 0.  0.
</event>
<event>
 4    0  0.2205135E-002  0.3373138E+03  0.7546771E-02  0.1067946E+00
         21   -1    0    0  502  501  0.00000000000E+00  0.00000000000E+00  0.16120324987E+04  0.16120324987E+04  0.00000000000E+00 0. -1.
         21   -1    0    0  501  502 -0.00000000000E+00 -0.00000000000E+00 -0.70582092177E+02  0.70582092177E+02  0.00000000000E+00 0. -1.
         25    1    1    2    0    0 -0.26712337649E+03 -0.13828538390E+03  0.98927035470E+03  0.10415174412E+04  0.12500000000E+03 0.  0.
         25    1    1    2    0    0  0.26712337649E+03  0.13828538390E+03  0.55218005178E+03  0.64109714962E+03  0.12500000000E+03 0.  0.
</event>
<event>
 4    0  0.2205135E-002  0.2308553E+03  0.7546771E-02  0.1126039E+00
         21   -1    0    0  502  501  0.00000000000E+00  0.00000000000E+00  0.13601822945E+04  0.13601822945E+04  0.00000000000E+00 0.  1.
         21   -1    0    0  501  502 -0.00000000000E+00 -0.00000000000E+00 -0.39181635564E+02  0.39181635564E+02  0.00000000000E+00 0.  1.
         25    1    1    2    0    0  0.35473334770E+02  0.18843138302E+03  0.56935241615E+03  0.61363826263E+03  0.12500000000E+03 0.  0.
         25    1    1    2    0    0 -0.35473334770E+02 -0.18843138302E+03  0.75164824280E+03  0.78572566745E+03  0.12500000000E+03 0.  0.
</event>
<event>
 4    0  0.2205135E-002  0.2664648E+03  0.7546771E-02  0.1103320E+00
         21   -1    0    0  502  501  0.00000000000E+00  0.00000000000E+00  0.53340528931E+03  0.53340528931E+03  0.00000000000E+00 0.  1.
         21   -1    0    0  501  502 -0.00000000000E+00 -0.00000000000E+00 -0.13311357114E+03  0.13311357114E+03  0.00000000000E+00 0.  1.
         25    1    1    2    0    0 -0.13079372533E+03  0.30575263339E+02  0.44180889298E+03  0.47839517475E+03  0.12500000000E+03 0.  0.
         25    1    1    2    0    0  0.13079372533E+03 -0.30575263339E+02 -0.41517174808E+02  0.18812368569E+03  0.12500000000E+03 0.  0.
</event>
<event>
 4    0  0.2205135E-002  0.2007921E+03  0.7546771E-02  0.1149072E+00
         21   -1    0    0  502  501  0.00000000000E+00  0.00000000000E+00  0.47550833495E+03  0.47550833495E+03  0.00000000000E+00 0. -1.
         21   -1    0    0  501  502 -0.00000000000E+00 -0.00000000000E+00 -0.84788148084E+02  0.84788148084E+02  0.00000000000E+00 0. -1.
         25    1    1    2    0    0  0.14771206881E+03  0.51718327479E+02  0.17568654459E+03  0.26642898232E+03  0.12500000000E+03 0.  0.
         25    1    1    2    0    0 -0.14771206881E+03 -0.51718327479E+02  0.21503364228E+03  0.29386750072E+03  0.12500000000E+03 0.  0.
</event>
<event>
 4    0  0.2205135E-002  0.1922108E+03  0.7546771E-02  0.1156482E+00
         21   -1    0    0  502  501  0.00000000000E+00  0.00000000000E+00  0.13353023365E+03  0.13353023365E+03  0.00000000000E+00 0. -1.
         21   -1    0    0  501  502 -0.00000000000E+00 -0.00000000000E+00 -0.27667899004E+03  0.27667899004E+03  0.00000000000E+00 0. -1.
         25    1    1    2    0    0  0.86121381765E+02  0.78700255053E+01 -0.19711494824E+03  0.24891390583E+03  0.12500000000E+03 0.  0.
         25    1    1    2    0    0 -0.86121381765E+02 -0.78700255053E+01  0.53966191848E+02  0.16129531785E+03  0.12500000000E+03 0.  0.
</event>
<event>
 4    0  0.2205135E-002  0.2081643E+03  0.7546771E-02  0.1143028E+00
         21   -1    0    0  502  501  0.00000000000E+00  0.00000000000E+00  0.55987043384E+03  0.55987043384E+03  0.00000000000E+00 0.  1.
         21   -1    0    0  501  502 -0.00000000000E+00 -0.00000000000E+00 -0.77397130354E+02  0.77397130354E+02  0.00000000000E+00 0.  1.
         25    1    1    2    0    0  0.44762887126E+01  0.15672416735E+03  0.15567067263E+03  0.25385204374E+03  0.12500000000E+03 0.  0.
         25    1    1    2    0    0 -0.44762887126E+01 -0.15672416735E+03  0.32680263085E+03  0.38341552045E+03  0.12500000000E+03 0.  0.
</event>
<event>
 4    0  0.2205135E-002  0.2746012E+03  0.7546771E-02  0.1098675E+00
         21   -1    0    0  502  501  0.00000000000E+00  0.00000000000E+00  0.11594358932E+04  0.11594358932E+04  0.00000000000E+00 0.  1.
         21   -1    0    0  501  502 -0.00000000000E+00 -0.00000000000E+00 -0.65036620671E+02  0.65036620671E+02  0.00000000000E+00 0.  1.
         25    1    1    2    0    0  0.41692919470E+02 -0.62762401723E+02  0.10657952808E+04  0.10757425338E+04  0.12500000000E+03 0.  0.
         25    1    1    2    0    0 -0.41692919470E+02  0.62762401723E+02  0.28603991714E+02  0.14872997998E+03  0.12500000000E+03 0.  0.
</event>
<event>
 4    0  0.2205135E-002  0.2923178E+03  0.7546771E-02  0.1089145E+00
         21   -1    0    0  502  501  0.00000000000E+00  0.00000000000E+00  0.16418964793E+03  0.16418964793E+03  0.00000000000E+00 0. -1.
         21   -1    0    0  501  502 -0.00000000000E+00 -0.00000000000E+00 -0.52043305131E+03  0.52043305131E+03  0.00000000000E+00 0. -1.
         25    1    1    2    0    0  0.67885119255E+02  0.10936909404E+03  0.92115463902E+02  0.20169344768E+03  0.12500000000E+03 0.  0.
         25    1    1    2    0    0 -0.67885119255E+02 -0.10936909404E+03 -0.44835886728E+03  0.48292925156E+03  0.12500000000E+03 0.  0.
</event>
<event>
 4    0  0.2205135E-002  0.2280866E+03  0.7546771E-02  0.1127994E+00
         21   -1    0    0  502  501  0.00000000000E+00  0.00000000000E+00  0.14193143399E+03  0.14193143399E+03  0.00000000000E+00 0. -1.
         21   -1    0    0  501  502 -0.00000000000E+00 -0.00000000000E+00 -0.36653966862E+03  0.36653966862E+03  0.00000000000E+00 0. -1.
         25    1    1    2    0    0  0.14843990935E+03 -0.53692456831E+02 -0.23173878429E+03  0.30699373081E+03  0.12500000000E+03 0.  0.
         25    1    1    2    0    0 -0.14843990935E+03  0.53692456831E+02  0.71305496616E+01  0.20147737180E+03  0.12500000000E+03 0.  0.
</event>
<event>
 4    0  0.2205135E-002  0.1942838E+03  0.7546771E-02  0.1154653E+00
         21   -1    0    0  502  501  0.00000000000E+00  0.00000000000E+00  0.87954105303E+02  0.87954105303E+02  0.00000000000E+00 0.  1.
         21   -1    0    0  501  502 -0.00000000000E+00 -0.00000000000E+00 -0.42915765557E+03  0.42915765557E+03  0.00000000000E+00 0.  1.
         25    1    1    2    0    0 -0.14606028355E+03 -0.14308559670E+02 -0.13847321718E+03  0.23735663712E+03  0.12500000000E+03 0.  0.
         25    1    1    2    0    0  0.14606028355E+03  0.14308559670E+02 -0.20273033308E+03  0.27975512374E+03  0.12500000000E+03 0.  0.
</event>
<event>
 4    0  0.2205135E-002  0.2596275E+03  0.7546771E-02  0.1107367E+00
         21   -1    0    0  502  501  0.00000000000E+00  0.00000000000E+00  0.20566205919E+03  0.20566205919E+03  0.00000000000E+00 0. -1.
         21   -1    0    0  501  502 -0.00000000000E+00 -0.00000000000E+00 -0.32775350806E+03  0.32775350806E+03  0.00000000000E+00 0. -1.
         25    1    1    2    0    0  0.17301716759E+03 -0.12877320578E+03  0.13486167776E+02  0.24964846390E+03  0.12500000000E+03 0.  0.
         25    1    1    2    0    0 -0.17301716759E+03  0.12877320578E+03 -0.13557761664E+03  0.28376710335E+03  0.12500000000E+03 0.  0.
</event>
<event>
 4    0  0.2205135E-002  0.2193595E+03  0.7546771E-02  0.1134361E+00
         21   -1    0    0  502  501  0.00000000000E+00  0.00000000000E+00  0.53738105004E+02  0.53738105004E+02  0.00000000000E+00 0. -1.
         21   -1    0    0  501  502 -0.00000000000E+00 -0.00000000000E+00 -0.89542753548E+03  0.89542753548E+03  0.00000000000E+00 0. -1.
         25    1    1    2    0    0  0.60869240223E+01  0.14121068385E+03 -0.66288609848E+03  0.68921730059E+03  0.12500000000E+03 0.  0.
         25    1    1    2    0    0 -0.60869240223E+01 -0.14121068385E+03 -0.17880333199E+03  0.25994833989E+03  0.12500000000E+03 0.  0.
</event>
<event>
 4    0  0.2205135E-002  0.2773402E+03  0.7546771E-02  0.1097151E+00
         21   -1    0    0  502  501  0.00000000000E+00  0.00000000000E+00  0.18725904912E+03  0.18725904912E+03  0.00000000000E+00 0.  1.
         21   -1    0    0  501  502 -0.00000000000E+00 -0.00000000000E+00 -0.41075503836E+03  0.41075503836E+03  0.00000000000E+00 0.  1.
         25    1    1    2    0    0 -0.78337637916E+02 -0.74431623682E+02 -0.35189563543E+03  0.38875749556E+03  0.12500000000E+03 0.  0.
         25    1    1    2    0    0  0.78337637916E+02  0.74431623682E+02  0.12839964620E+03  0.20925659192E+03  0.12500000000E+03 0.  0.
</event>
<event>
 4    0  0.2205135E-002  0.2259347E+03  0.7546771E-02  0.1129534E+00
         21   -1    0    0  502  501  0.00000000000E+00  0.00000000000E+00  0.65751457020E+02  0.65751457020E+02  0.00000000000E+00 0.  1.
         21   -1    0    0  501  502 -0.00000000000E+00 -0.00000000000E+00 -0.77635536978E+03  0.77635536978E+03  0.00000000000E+00 0.  1.
         25    1    1    2    0    0 -0.47212629962E+02 -0.12309498371E+03 -0.60560928350E+03  0.63227289338E+03  0.12500000000E+03 0.  0.
         25    1    1    2    0    0  0.47212629962E+02  0.12309498371E+03 -0.10499462927E+03  0.20983393343E+03  0.12500000000E+03 0.  0.
</event>
<event>
 4    0  0.2205135E-002  0.1771202E+03  0.7546771E-02  0.1170620E+00
         21   -1    0    0  502  501  0.00000000000E+00  0.00000000000E+00  0.69011987089E+02  0.69011987089E+02  0.00000000000E+00 0.  1.
         21   -1    0    0  501  502 -0.00000000000E+00 -0.00000000000E+00 -0.45458153951E+03  0.45458153951E+03  0.00000000000E+00 0.  1.
         25    1    1    2    0    0 -0.10258953732E+03 -0.27765127284E+02 -0.29139633578E+03  0.33441342671E+03  0.12500000000E+03 0.  0.
         25    1    1    2    0    0  0.10258953732E+03  0.27765127284E+02 -0.94173216638E+02  0.18918009988E+03  0.12500000000E+03 0.  0.
</event>
<event>
 4    0  0.2205135E-002  0.1735915E+03  0.7546771E-02  0.1174153E+00
         21   -1    0    0  502  501  0.00000000000E+00  0.00000000000E+00  0.69250714764E+02  0.69250714764E+02  0.00000000000E+00 0. -1.
         21   -1    0    0  501  502 -0.00000000000E+00 -0.00000000000E+00 -0.43514356812E+03  0.43514356812E+03  0.00000000000E+00 0. -1.
         25    1    1    2    0    0 -0.85625221596E+02 -0.64025056932E+02 -0.26354999729E+03  0.31066780902E+03  0.12500000000E+03 0.  0.
         25    1    1    2    0    0  0.85625221596E+02  0.64025056932E+02 -0.10234285606E+03  0.19372647386E+03  0.12500000000E+03 0.  0.
</event>
<event>
 4    0  0.2205135E-002  0.2367495E+03  0.7546771E-02  0.1121977E+00
         21   -1    0    0  502  501  0.00000000000E+00  0.00000000000E+00  0.12770398290E+04  0.12770398290E+04  0.00000000000E+00 0. -1.
         21   -1    0    0  501  502 -0.00000000000E+00 -0.00000000000E+00 -0.43890814441E+02  0.43890814441E+02  0.00000000000E+00 0. -1.
         25    1    1    2    0    0 -0.99348386683E+02  0.61870230720E+01  0.11039138226E+04  0.11154188043E+04  0.12500000000E+03 0.  0.
         25    1    1    2    0    0  0.99348386683E+02 -0.61870230720E+01  0.12923519191E+03  0.20551183912E+03  0.12500000000E+03 0.  0.
</event>
<event>
 4    0  0.2205135E-002  0.2468194E+03  0.7546771E-02  0.1115332E+00
         21   -1    0    0  502  501  0.00000000000E+00  0.00000000000E+00  0.24032190844E+03  0.24032190844E+03  0.00000000000E+00 0. -1.
         21   -1    0    0  501  502 -0.00000000000E+00 -0.00000000000E+00 -0.25349260710E+03  0.25349260710E+03  0.00000000000E+00 0. -1.
         25    1    1    2    0    0 -0.15034654220E+02 -0.73476205539E+02 -0.20582960470E+03  0.25222137059E+03  0.12500000000E+03 0.  0.
         25    1    1    2    0    0  0.15034654220E+02  0.73476205539E+02  0.19265890605E+03  0.24159314495E+03  0.12500000000E+03 0.  0.
</event>
<event>
 4    0  0.2205135E-002  0.2515914E+03  0.7546771E-02  0.1112303E+00
         21   -1    0    0  502  501  0.00000000000E+00  0.00000000000E+00  0.14814997389E+03  0.14814997389E+03  0.00000000000E+00 0.  1.
         21   -1    0    0  501  502 -0.00000000000E+00 -0.00000000000E+00 -0.42725795177E+03  0.42725795177E+03  0.00000000000E+00 0.  1.
         25    1    1    2    0    0 -0.16961636920E+03  0.12348290823E+03 -0.70414821112E+02  0.25416724486E+03  0.12500000000E+03 0.  0.
         25    1    1    2    0    0  0.16961636920E+03 -0.12348290823E+03 -0.20869315677E+03  0.32124068081E+03  0.12500000000E+03 0.  0.
</event>
<event>
 4    0  0.2205135E-002  0.2093705E+03  0.7546771E-02  0.1142065E+00
         21   -1    0    0  502  501  0.00000000000E+00  0.00000000000E+00  0.44604237916E+02  0.44604237916E+02  0.00000000000E+00 0. -1.
         21   -1    0    0  501  502 -0.00000000000E+00 -0.00000000000E+00 -0.98277679400E+03  0.98277679400E+03  0.00000000000E+00 0. -1.
         25    1    1    2    0    0  0.67715175717E+02 -0.26286423491E+02 -0.97523273891E+02  0.17439068218E+03  0.12500000000E+03 0.  0.
         25    1    1    2    0    0 -0.67715175717E+02  0.26286423491E+02 -0.84064928220E+03  0.85299034973E+03  0.12500000000E+03 0.  0.
</event>
<event>
 4    0  0.2205135E-002  0.2113839E+03  0.7546771E-02  0.1140475E+00
         21   -1    0    0  502  501  0.00000000000E+00  0.00000000000E+00  0.71646361818E+02  0.71646361818E+02  0.00000000000E+00 0.  1.
         21   -1    0    0  501  502 -0.00000000000E+00 -0.00000000000E+00 -0.62366271582E+03  0.62366271582E+03  0.00000000000E+00 0.  1.
         25    1    1    2    0    0  0.14943664788E+03  0.33630929731E+02 -0.39903719426E+03  0.44532912948E+03  0.12500000000E+03 0.  0.
         25    1    1    2    0    0 -0.14943664788E+03 -0.33630929731E+02 -0.15297915974E+03  0.24997994815E+03  0.12500000000E+03 0.  0.
</event>
<event>
 4    0  0.2205135E-002  0.1926836E+03  0.7546771E-02  0.1156063E+00
         21   -1    0    0  502  501  0.00000000000E+00  0.00000000000E+00  0.23513731668E+03  0.23513731668E+03  0.00000000000E+00 0.  1.
         21   -1    0    0  501  502 -0.00000000000E+00 -0.00000000000E+00 -0.15789491041E+03  0.15789491041E+03  0.00000000000E+00 0.  1.
         25    1    1    2    0    0 -0.35264750479E+02  0.10333956014E+03 -0.61199499537E+02  0.17689840604E+03  0.12500000000E+03 0.  0.
         25    1    1    2    0    0  0.35264750479E+02 -0.10333956014E+03  0.13844190581E+03  0.21613382104E+03  0.12500000000E+03 0.  0.
</event>
<event>
 4    0  0.2205135E-002  0.3011824E+03  0.7546771E-02  0.1084651E+00
         21   -1    0    0  502  501  0.00000000000E+00  0.00000000000E+00  0.22413055592E+03  0.22413055592E+03  0.00000000000E+00 0.  1.
         21   -1    0    0  501  502 -0.00000000000E+00 -0.00000000000E+00 -0.40472332794E+03  0.40472332794E+03  0.00000000000E+00 0.  1.
         25    1    1    2    0    0 -0.26091958830E+03  0.81738814630E+01 -0.17726658794E+03  0.33940283896E+03  0.12500000000E+03 0.  0.
         25    1    1    2    0    0  0.26091958830E+03 -0.81738814630E+01 -0.33261840779E+01  0.28945104490E+03  0.12500000000E+03 0.  0.
</event>
<event>
 4    0  0.2205135E-002  0.1825593E+03  0.7546771E-02  0.1165349E+00
         21   -1    0    0  502  501  0.00000000000E+00  0.00000000000E+00  0.21096188324E+02  0.21096188324E+02  0.00000000000E+00 0.  1.
         21   -1    0    0  501  502 -0.00000000000E+00 -0.00000000000E+00 -0.15798074776E+04  0.15798074776E+04  0.00000000000E+00 0.  1.
         25    1    1    2    0    0 -0.44929471970E+02 -0.19108653259E+02 -0.23667041119E+03  0.27206925886E+03  0.12500000000E+03 0.  0.
         25    1    1    2    0    0  0.44929471970E+02  0.19108653259E+02 -0.13220408781E+04  0.13288344071E+04  0.12500000000E+03 0.  0.
</event>
<event>
 4    0  0.2205135E-002  0.2316158E+03  0.7546771E-02  0.1125508E+00
         21   -1    0    0  502  501  0.00000000000E+00  0.00000000000E+00  0.16690631335E+03  0.16690631335E+03  0.00000000000E+00 0.  1.
         21   -1    0    0  501  502 -0.00000000000E+00 -0.00000000000E+00 -0.32141315582E+03  0.32141315582E+03  0.00000000000E+00 0.  1.
         25    1    1    2    0    0  0.60678957109E+01 -0.17579617724E+03 -0.16595174243E+03  0.27222434885E+03  0.12500000000E+03 0.  0.
         25    1    1    2    0    0 -0.60678957109E+01  0.17579617724E+03  0.11444899957E+02  0.21609512032E+03  0.12500000000E+03 0.  0.
</event>
<event>
 4    0  0.2205135E-002  0.1860890E+03  0.7546771E-02  0.1162037E+00
         21   -1    0    0  502  501  0.00000000000E+00  0.00000000000E+00  0.15340157864E+04  0.15340157864E+04  0.00000000000E+00 0.  1.
         21   -1    0    0  501  502 -0.00000000000E+00 -0.00000000000E+00 -0.22574159186E+02  0.22574159186E+02  0.00000000000E+00 0.  1.
         25    1    1    2    0    0 -0.10163438842E+03  0.25051623873E+02  0.38054046519E+03  0.41399659227E+03  0.12500000000E+03 0.  0.
         25    1    1    2    0    0  0.10163438842E+03 -0.25051623873E+02  0.11309011621E+04  0.11425933534E+04  0.12500000000E+03 0.  0.
</event>
<event>
 4    0  0.2205135E-002  0.2484484E+03  0.7546771E-02  0.1114289E+00
         21   -1    0    0  502  501  0.00000000000E+00  0.00000000000E+00  0.15338176214E+03  0.15338176214E+03  0.00000000000E+00 0.  1.
         21   -1    0    0  501  502 -0.00000000000E+00 -0.00000000000E+00 -0.40243772607E+03  0.40243772607E+03  0.00000000000E+00 0.  1.
         25    1    1    2    0    0  0.19588110882E+03  0.34776749471E+02 -0.21486875823E+03  0.31839034903E+03  0.12500000000E+03 0.  0.
         25    1    1    2    0    0 -0.19588110882E+03 -0.34776749471E+02 -0.34187205698E+02  0.23742913917E+03  0.12500000000E+03 0.  0.
</event>
<event>
 4    0  0.2205135E-002  0.1841642E+03  0.7546771E-02  0.1163833E+00
         21   -1    0    0  502  501  0.00000000000E+00  0.00000000000E+00  0.28284770487E+02  0.28284770487E+02  0.00000000000E+00 0.  1.
         21   -1    0    0  501  502 -0.00000000000E+00 -0.00000000000E+00 -0.11991071036E+04  0.11991071036E+04  0.00000000000E+00 0.  1.
         25    1    1    2    0    0 -0.12229973557E+03 -0.29997858262E+02 -0.74982616688E+03  0.77053317733E+03  0.12500000000E+03 0.  0.
         25    1    1    2    0    0  0.12229973557E+03  0.29997858262E+02 -0.42099616619E+03  0.45685869672E+03  0.12500000000E+03 0.  0.
</event>
<event>
 4    0  0.2205135E-002  0.1834948E+03  0.7546771E-02  0.1164463E+00
         21   -1    0    0  502  501  0.00000000000E+00  0.00000000000E+00  0.38572460445E+02  0.38572460445E+02  0.00000000000E+00 0.  1.
         21   -1    0    0  501  502 -0.00000000000E+00 -0.00000000000E+00 -0.87291151132E+03  0.87291151132E+03  0.00000000000E+00 0.  1.
         25    1    1    2    0    0 -0.12022116283E+03  0.16874792960E+02 -0.56000708953E+03  0.58649026160E+03  0.12500000000E+03 0.  0.
         25    1    1    2    0    0  0.12022116283E+03 -0.16874792960E+02 -0.27433196134E+03  0.32499371016E+03  0.12500000000E+03 0.  0.
</event>
<event>
 4    0  0.2205135E-002  0.1924833E+03  0.7546771E-02  0.1156240E+00
         21   -1    0    0  502  501  0.00000000000E+00  0.00000000000E+00  0.81634756607E+02  0.81634756607E+02  0.00000000000E+00 0. -1.
         21   -1    0    0  501  502 -0.00000000000E+00 -0.00000000000E+00 -0.45384850968E+03  0.45384850968E+03  0.00000000000E+00 0. -1.
         25    1    1    2    0    0 -0.91229383100E+02  0.36855060116E+02 -0.33684589586E+03  0.37252013819E+03  0.12500000000E+03 0.  0.
         25    1    1    2    0    0  0.91229383100E+02 -0.36855060116E+02 -0.35367857217E+02  0.16296312810E+03  0.12500000000E+03 0.  0.
</event>
<event>
 4    0  0.2205135E-002  0.2839599E+03  0.7546771E-02  0.1093546E+00
         21   -1    0    0  502  501  0.00000000000E+00  0.00000000000E+00  0.16813174990E+03  0.16813174990E+03  0.00000000000E+00 0.  1.
         21   -1    0    0  501  502 -0.00000000000E+00 -0.00000000000E+00 -0.47958357923E+03  0.47958357923E+03  0.00000000000E+00 0.  1.
         25    1    1    2    0    0 -0.82629318838E+02  0.62576562950E+02 -0.42140431493E+03  0.45160826742E+03  0.12500000000E+03 0.  0.
         25    1    1    2    0    0  0.82629318838E+02 -0.62576562950E+02  0.10995248560E+03  0.19610706171E+03  0.12500000000E+03 0.  0.
</event>
<event>
 4    0  0.2205135E-002  0.1858394E+03  0.7546771E-02  0.1162268E+00
         21   -1    0    0  502  501  0.00000000000E+00  0.00000000000E+00  0.18780116709E+04  0.18780116709E+04  0.00000000000E+00 0. -1.
         21   -1    0    0  501  502 -0.00000000000E+00 -0.00000000000E+00 -0.18389805749E+02  0.18389805749E+02  0.00000000000E+00 0. -1.
         25    1    1    2    0    0 -0.18215182206E+02 -0.12969718614E+03  0.71587366480E+03  0.73841266032E+03  0.12500000000E+03 0.  0.
         25    1    1    2    0    0  0.18215182206E+02  0.12969718614E+03  0.11437482003E+04  0.11579888163E+04  0.12500000000E+03 0.  0.
</event>
<event>
 4    0  0.2205135E-002  0.2369806E+03  0.7546771E-02  0.1121821E+00
         21   -1    0    0  502  501  0.00000000000E+00  0.00000000000E+00  0.11438055743E+03  0.11438055743E+03  0.00000000000E+00 0. -1.
         21   -1    0    0  501  502 -0.00000000000E+00 -0.00000000000E+00 -0.49099077135E+03  0.49099077135E+03  0.00000000000E+00 0. -1.
         25    1    1    2    0    0 -0.52366008155E+02 -0.78205262993E+02  0.39020273309E+02  0.16126327449E+03  0.12500000000E+03 0.  0.
         25    1    1    2    0    0  0.52366008155E+02  0.78205262993E+02 -0.41563048723E+03  0.44410805429E+03  0.12500000000E+03 0.  0.
</event>
<event>
 4    0  0.2205135E-002  0.2714788E+03  0.7546771E-02  0.1100436E+00
         21   -1    0    0  502  501  0.00000000000E+00  0.00000000000E+00  0.52621420567E+02  0.52621420567E+02  0.00000000000E+00 0.  1.
         21   -1    0    0  501  502 -0.00000000000E+00 -0.00000000000E+00 -0.14005841399E+04  0.14005841399E+04  0.00000000000E+00 0.  1.
         25    1    1    2    0    0  0.15420699025E+03  0.15104811359E+03 -0.38720743974E+03  0.46059736197E+03  0.12500000000E+03 0.  0.
         25    1    1    2    0    0 -0.15420699025E+03 -0.15104811359E+03 -0.96075527961E+03  0.99260819852E+03  0.12500000000E+03 0.  0.
</event>
<event>
 4    0  0.2205135E-002  0.2794178E+03  0.7546771E-02  0.1096007E+00
         21   -1    0    0  502  501  0.00000000000E+00  0.00000000000E+00  0.36540194588E+02  0.36540194588E+02  0.00000000000E+00 0. -1.
         21   -1    0    0  501  502 -0.00000000000E+00 -0.00000000000E+00 -0.21366694881E+04  0.21366694881E+04  0.00000000000E+00 0. -1.
         25    1    1    2    0    0  0.98897795073E+02  0.15029631756E+03 -0.17245201259E+04  0.17383798266E+04  0.12500000000E+03 0.  0.
         25    1    1    2    0    0 -0.98897795073E+02 -0.15029631756E+03 -0.37560916762E+03  0.43482985608E+03  0.12500000000E+03 0.  0.
</event>
<event>
 4    0  0.2205135E-002  0.2623001E+03  0.7546771E-02  0.1105769E+00
         21   -1    0    0  502  501  0.00000000000E+00  0.00000000000E+00  0.14598983582E+04  0.14598983582E+04  0.00000000000E+00 0.  1.
         21   -1    0    0  501  502 -0.00000000000E+00 -0.00000000000E+00 -0.47127473066E+02  0.47127473066E+02  0.00000000000E+00 0.  1.
         25    1    1    2    0    0 -0.53718443800E+02 -0.22412065208E+03  0.68402571576E+03  0.73255164849E+03  0.12500000000E+03 0.  0.
         25    1    1    2    0    0  0.53718443800E+02  0.22412065208E+03  0.72874516937E+03  0.77447418277E+03  0.12500000000E+03 0.  0.
</event>
<event>
 4    0  0.2205135E-002  0.2290322E+03  0.7546771E-02  0.1127323E+00
         21   -1    0    0  502  501  0.00000000000E+00  0.00000000000E+00  0.12017688411E+03  0.12017688411E+03  0.00000000000E+00 0.  1.
         21   -1    0    0  501  502 -0.00000000000E+00 -0.00000000000E+00 -0.43648776245E+03  0.43648776245E+03  0.00000000000E+00 0.  1.
         25    1    1    2    0    0 -0.14492974525E+03 -0.11382024122E+03 -0.22327153281E+03  0.31533292840E+03  0.12500000000E+03 0.  0.
         25    1    1    2    0    0  0.14492974525E+03  0.11382024122E+03 -0.93039345531E+02  0.24133171815E+03  0.12500000000E+03 0.  0.
</event>
<event>
 4    0  0.2205135E-002  0.1906120E+03  0.7546771E-02  0.1157910E+00
         21   -1    0    0  502  501  0.00000000000E+00  0.00000000000E+00  0.44489019184E+02  0.44489019184E+02  0.00000000000E+00 0. -1.
         21   -1    0    0  501  502 -0.00000000000E+00 -0.00000000000E+00 -0.81667226230E+03  0.81667226230E+03  0.00000000000E+00 0. -1.
         25    1    1    2    0    0 -0.56913430764E+02 -0.12641715689E+03 -0.47321493601E+03  0.50870208553E+03  0.12500000000E+03 0.  0.
         25    1    1    2    0    0  0.56913430764E+02  0.12641715689E+03 -0.29896830710E+03  0.35245919595E+03  0.12500000000E+03 0.  0.
</event>
<event>
 4    0  0.2205135E-002  0.1991993E+03  0.7546771E-02  0.1150416E+00
         21   -1    0    0  502  501  0.00000000000E+00  0.00000000000E+00  0.47909351865E+03  0.47909351865E+03  0.00000000000E+00 0.  1.
         21   -1    0    0  501  502 -0.00000000000E+00 -0.00000000000E+00 -0.82823792108E+02  0.82823792108E+02  0.00000000000E+00 0.  1.
         25    1    1    2    0    0  0.47947797953E+02 -0.11200243059E+03  0.33350632202E+03  0.37642396658E+03  0.12500000000E+03 0.  0.
         25    1    1    2    0    0 -0.47947797953E+02  0.11200243059E+03  0.62763404522E+02  0.18549334418E+03  0.12500000000E+03 0.  0.
</event>
<event>
 4    0  0.2205135E-002  0.2499007E+03  0.7546771E-02  0.1113368E+00
         21   -1    0    0  502  501  0.00000000000E+00  0.00000000000E+00  0.11120608392E+04  0.11120608392E+04  0.00000000000E+00 0. -1.
         21   -1    0    0  501  502 -0.00000000000E+00 -0.00000000000E+00 -0.56157307527E+02  0.56157307527E+02  0.00000000000E+00 0. -1.
         25    1    1    2    0    0 -0.19581981219E+03 -0.74426597297E+02  0.65470130379E+03  0.69867268046E+03  0.12500000000E+03 0.  0.
         25    1    1    2    0    0  0.19581981219E+03  0.74426597297E+02  0.40120222784E+03  0.46954546623E+03  0.12500000000E+03 0.  0.
</event>
<event>
 4    0  0.2205135E-002  0.2111312E+03  0.7546771E-02  0.1140673E+00
         21   -1    0    0  502  501  0.00000000000E+00  0.00000000000E+00  0.38323338494E+03  0.38323338494E+03  0.00000000000E+00 0.  1.
         21   -1    0    0  501  502 -0.00000000000E+00 -0.00000000000E+00 -0.11631659924E+03  0.11631659924E+03  0.00000000000E+00 0.  1.
         25    1    1    2    0    0  0.72085108265E+02  0.14518631588E+01  0.31578748819E+03  0.34719606627E+03  0.12500000000E+03 0.  0.
         25    1    1    2    0    0 -0.72085108265E+02 -0.14518631588E+01 -0.48870702485E+02  0.15235391791E+03  0.12500000000E+03 0.  0.
</event>
<event>
 4    0  0.2205135E-002  0.1781205E+03  0.7546771E-02  0.1169635E+00
         21   -1    0    0  502  501  0.00000000000E+00  0.00000000000E+00  0.76410344769E+03  0.76410344769E+03  0.00000000000E+00 0.  1.
         21   -1    0    0  501  502 -0.00000000000E+00 -0.00000000000E+00 -0.41521745061E+02  0.41521745061E+02  0.00000000000E+00 0.  1.
         25    1    1    2    0    0 -0.45746260705E+02 -0.75528578676E+01  0.62841282599E+03  0.64239975552E+03  0.12500000000E+03 0.  0.
         25    1    1    2    0    0  0.45746260705E+02  0.75528578676E+01  0.94168876642E+02  0.16322543723E+03  0.12500000000E+03 0.  0.
</event>
<event>
 4    0  0.2205135E-002  0.2780149E+03  0.7546771E-02  0.1096778E+00
         21   -1    0    0  502  501  0.00000000000E+00  0.00000000000E+00  0.23294964667E+03  0.23294964667E+03  0.00000000000E+00 0.  1.
         21   -1    0    0  501  502 -0.00000000000E+00 -0.00000000000E+00 -0.33179835769E+03  0.33179835769E+03  0.00000000000E+00 0.  1.
         25    1    1    2    0    0  0.89872007387E+02  0.99348035576E+02  0.16294807305E+03  0.24520212967E+03  0.12500000000E+03 0.  0.
         25    1    1    2    0    0 -0.89872007387E+02 -0.99348035576E+02 -0.26179678407E+03  0.31954587469E+03  0.12500000000E+03 0.  0.
</event>
<event>
 4    0  0.2205135E-002  0.3257647E+03  0.7546771E-02  0.1073026E+00
         21   -1    0    0  502  501  0.00000000000E+00  0.00000000000E+00  0.69661937964E+03  0.69661937964E+03  0.00000000000E+00 0.  1.
         21   -1    0    0  501  502 -0.00000000000E+00 -0.00000000000E+00 -0.15233946351E+03  0.15233946351E+03  0.00000000000E+00 0.  1.
         25    1    1    2    0    0  0.23958420482E+03 -0.12926864899E+03  0.10533931794E+03  0.31754109453E+03  0.12500000000E+03 0.  0.
         25    1    1    2    0    0 -0.23958420482E+03  0.12926864899E+03  0.43894059819E+03  0.53141774862E+03  0.12500000000E+03 0.  0.
</event>
<event>
 4    0  0.2205135E-002  0.1634108E+03  0.7546771E-02  0.1184899E+00
         21   -1    0    0  502  501  0.00000000000E+00  0.00000000000E+00  0.15147990791E+03  0.15147990791E+03  0.00000000000E+00 0. -1.
         21   -1    0    0  501  502 -0.00000000000E+00 -0.00000000000E+00 -0.17628135741E+03  0.17628135741E+03  0.00000000000E+00 0. -1.
         25    1    1    2    0    0  0.66149179037E+02 -0.71796149314E+02  0.27052990592E+02  0.16089519957E+03  0.12500000000E+03 0.  0.
         25    1    1    2    0    0 -0.66149179037E+02  0.71796149314E+02 -0.51854440091E+02  0.16686606576E+03  0.12500000000E+03 0.  0.
</event>
<event>
 4    0  0.2205135E-002  0.3013142E+03  0.7546771E-02  0.1084586E+00
         21   -1    0    0  502  501  0.00000000000E+00  0.00000000000E+00  0.77903362425E+03  0.77903362425E+03  0.00000000000E+00 0. -1.
         21   -1    0    0  501  502 -0.00000000000E+00 -0.00000000000E+00 -0.11654212511E+03  0.11654212511E+03  0.00000000000E+00 0. -1.
         25    1    1    2    0    0 -0.21523988532E+03  0.70712256208E+02  0.10180171948E+03  0.27805938485E+03  0.12500000000E+03 0.  0.
         25    1    1    2    0    0  0.21523988532E+03 -0.70712256208E+02  0.56068977966E+03  0.61751636451E+03  0.12500000000E+03 0.  0.
</event>
<event>
 4    0  0.2205135E-002  0.2348146E+03  0.7546771E-02  0.1123296E+00
         21   -1    0    0  502  501  0.00000000000E+00  0.00000000000E+00  0.10108274131E+04  0.10108274131E+04  0.00000000000E+00 0. -1.
         21   -1    0    0  501  502 -0.00000000000E+00 -0.00000000000E+00 -0.54547295607E+02  0.54547295607E+02  0.00000000000E+00 0. -1.
         25    1    1    2    0    0 -0.84683390512E+02 -0.23998717393E+02  0.73818970654E+02  0.16976882957E+03  0.12500000000E+03 0.  0.
         25    1    1    2    0    0  0.84683390512E+02  0.23998717393E+02  0.88246114682E+03  0.89560587912E+03  0.12500000000E+03 0.  0.
</event>
<event>
 4    0  0.2205135E-002  0.3103658E+03  0.7546771E-02  0.1080171E+00
         21   -1    0    0  502  501  0.00000000000E+00  0.00000000000E+00  0.28882262163E+03  0.28882262163E+03  0.00000000000E+00 0.  1.
         21   -1    0    0  501  502 -0.00000000000E+00 -0.00000000000E+00 -0.33351597198E+03  0.33351597198E+03  0.00000000000E+00 0.  1.
         25    1    1    2    0    0 -0.10028415249E+03 -0.53546652681E+02 -0.28336233135E+03  0.32991417988E+03  0.12500000000E+03 0.  0.
         25    1    1    2    0    0  0.10028415249E+03  0.53546652681E+02  0.23866898101E+03  0.29242441374E+03  0.12500000000E+03 0.  0.
</event>
<event>
 4    0  0.2205135E-002  0.2019512E+03  0.7546771E-02  0.1148103E+00
         21   -1    0    0  502  501  0.00000000000E+00  0.00000000000E+00  0.13845719412E+03  0.13845719412E+03  0.00000000000E+00 0. -1.
         21   -1    0    0  501  502 -0.00000000000E+00 -0.00000000000E+00 -0.29456238401E+03  0.29456238401E+03  0.00000000000E+00 0. -1.
         25    1    1    2    0    0 -0.10349688758E+03 -0.15290054746E+02 -0.20586929499E+03  0.26258819115E+03  0.12500000000E+03 0.  0.
         25    1    1    2    0    0  0.10349688758E+03  0.15290054746E+02  0.49764105103E+02  0.17043138698E+03  0.12500000000E+03 0.  0.
</event>
<event>
 4    0  0.2205135E-002  0.3066552E+03  0.7546771E-02  0.1081960E+00
         21   -1    0    0  502  501  0.00000000000E+00  0.00000000000E+00  0.43195820991E+03  0.43195820991E+03  0.00000000000E+00 0.  1.
         21   -1    0    0  501  502 -0.00000000000E+00 -0.00000000000E+00 -0.21770019706E+03  0.21770019706E+03  0.00000000000E+00 0.  1.
         25    1    1    2    0    0 -0.24862025107E+03  0.11355074393E+03  0.42639081250E+02  0.30356035963E+03  0.12500000000E+03 0.  0.
         25    1    1    2    0    0  0.24862025107E+03 -0.11355074393E+03  0.17161893160E+03  0.34609804734E+03  0.12500000000E+03 0.  0.
</event>
<event>
 4    0  0.2205135E-002  0.2818405E+03  0.7546771E-02  0.1094688E+00
         21   -1    0    0  502  501  0.00000000000E+00  0.00000000000E+00  0.54518819252E+02  0.54518819252E+02  0.00000000000E+00 0. -1.
         21   -1    0    0  501  502 -0.00000000000E+00 -0.00000000000E+00 -0.14570030700E+04  0.14570030700E+04  0.00000000000E+00 0. -1.
         25    1    1    2    0    0  0.10886988978E+02 -0.15612720057E+03 -0.16955108102E+03  0.26242484326E+03  0.12500000000E+03 0.  0.
         25    1    1    2    0    0 -0.10886988978E+02  0.15612720057E+03 -0.12329331697E+04  0.12490970460E+04  0.12500000000E+03 0.  0.
</event>
<event>
 4    0  0.2205135E-002  0.1899433E+03  0.7546771E-02  0.1158513E+00
         21   -1    0    0  502  501  0.00000000000E+00  0.00000000000E+00  0.64963902861E+02  0.64963902861E+02  0.00000000000E+00 0. -1.
         21   -1    0    0  501  502 -0.00000000000E+00 -0.00000000000E+00 -0.55536135666E+03  0.55536135666E+03  0.00000000000E+00 0. -1.
         25    1    1    2    0    0  0.86749800806E+02 -0.33879493674E+02 -0.67967619699E+02  0.17005277228E+03  0.12500000000E+03 0.  0.
         25    1    1    2    0    0 -0.86749800806E+02  0.33879493674E+02 -0.42242983410E+03  0.45027248724E+03  0.12500000000E+03 0.  0.
</event>
<event>
 4    0  0.2205135E-002  0.2094462E+03  0.7546771E-02  0.1142005E+00
         21   -1    0    0  502  501  0.00000000000E+00  0.00000000000E+00  0.10437283260E+04  0.10437283260E+04  0.00000000000E+00 0.  1.
         21   -1    0    0  501  502 -0.00000000000E+00 -0.00000000000E+00 -0.42029818287E+02  0.42029818287E+02  0.00000000000E+00 0.  1.
         25    1    1    2    0    0  0.50676678188E+02 -0.11351089301E+03  0.79398147637E+03  0.81331693292E+03  0.12500000000E+03 0.  0.
         25    1    1    2    0    0 -0.50676678188E+02  0.11351089301E+03  0.20771703133E+03  0.27244121136E+03  0.12500000000E+03 0.  0.
</event>
<event>
 4    0  0.2205135E-002  0.2018099E+03  0.7546771E-02  0.1148221E+00
         21   -1    0    0  502  501  0.00000000000E+00  0.00000000000E+00  0.53821131156E+02  0.53821131156E+02  0.00000000000E+00 0. -1.
         21   -1    0    0  501  502 -0.00000000000E+00 -0.00000000000E+00 -0.75671449523E+03  0.75671449523E+03  0.00000000000E+00 0. -1.
         25    1    1    2    0    0  0.17733949057E+02  0.14208349909E+03 -0.48764739074E+03  0.52338054163E+03  0.12500000000E+03 0.  0.
         25    1    1    2    0    0 -0.17733949057E+02 -0.14208349909E+03 -0.21524597333E+03  0.28715508475E+03  0.12500000000E+03 0.  0.
</event>
<event>
 4    0  0.2205135E-002  0.3045331E+03  0.7546771E-02  0.1082996E+00
         21   -1    0    0  502  501  0.00000000000E+00  0.00000000000E+00  0.13779516270E+04  0.13779516270E+04  0.00000000000E+00 0. -1.
         21   -1    0    0  501  502 -0.00000000000E+00 -0.00000000000E+00 -0.67303090623E+02  0.67303090623E+02  0.00000000000E+00 0. -1.
         25    1    1    2    0    0 -0.15148811569E+03  0.22931058863E+03  0.56090158799E+03  0.63699889063E+03  0.12500000000E+03 0.  0.
         25    1    1    2    0    0  0.15148811569E+03 -0.22931058863E+03  0.74974694841E+03  0.80825582701E+03  0.12500000000E+03 0.  0.
</event>
<event>
 4    0  0.2205135E-002  0.2273397E+03  0.7546771E-02  0.1128526E+00
         21   -1    0    0  502  501  0.00000000000E+00  0.00000000000E+00  0.10290665917E+03  0.10290665917E+03  0.00000000000E+00 0. -1.
         21   -1    0    0  501  502 -0.00000000000E+00 -0.00000000000E+00 -0.50223492311E+03  0.50223492311E+03  0.00000000000E+00 0. -1.
         25    1    1    2    0    0  0.18114555413E+03 -0.56576823754E+02 -0.20845921365E+03  0.30837459772E+03  0.12500000000E+03 0.  0.
         25    1    1    2    0    0 -0.18114555413E+03  0.56576823754E+02 -0.19086905028E+03  0.29676698456E+03  0.12500000000E+03 0.  0.
</event>
<event>
 4    0  0.2205135E-002  0.2309243E+03  0.7546771E-02  0.1125991E+00
         21   -1    0    0  502  501  0.00000000000E+00  0.00000000000E+00  0.37961992967E+03  0.37961992967E+03  0.00000000000E+00 0. -1.
         21   -1    0    0  501  502 -0.00000000000E+00 -0.00000000000E+00 -0.14047212463E+03  0.14047212463E+03  0.00000000000E+00 0. -1.
         25    1    1    2    0    0 -0.93887017173E+02 -0.54868118233E+02  0.30071917260E+03  0.34333992363E+03  0.12500000000E+03 0.  0.
         25    1    1    2    0    0  0.93887017173E+02  0.54868118233E+02 -0.61571367553E+02  0.17675213066E+03  0.12500000000E+03 0.  0.
</event>
<event>
 4    0  0.2205135E-002  0.2192254E+03  0.7546771E-02  0.1134462E+00
         21   -1    0    0  502  501  0.00000000000E+00  0.00000000000E+00  0.10636875648E+04  0.10636875648E+04  0.00000000000E+00 0. -1.
         21   -1    0    0  501  502 -0.00000000000E+00 -0.00000000000E+00 -0.45182250348E+02  0.45182250348E+02  0.00000000000E+00 0. -1.
         25    1    1    2    0    0 -0.12448774405E+03  0.57358107378E+02  0.80470571270E+03  0.82581077431E+03  0.12500000000E+03 0.  0.
         25    1    1    2    0    0  0.12448774405E+03 -0.57358107378E+02  0.21379960179E+03  0.28305904088E+03  0.12500000000E+03 0.  0.
</event>
<event>
 4    0  0.2205135E-002  0.2682191E+03  0.7546771E-02  0.1102303E+00
         21   -1    0    0  502  501  0.00000000000E+00  0.00000000000E+00  0.10290319285E+04  0.10290319285E+04  0.00000000000E+00 0.  1.
         21   -1    0    0  501  502 -0.00000000000E+00 -0.00000000000E+00 -0.69911825983E+02  0.69911825983E+02  0.00000000000E+00 0.  1.
         25    1    1    2    0    0  0.16363890134E+03 -0.14786964654E+03  0.65901235519E+03  0.70609164185E+03  0.12500000000E+03 0.  0.
         25    1    1    2    0    0 -0.16363890134E+03  0.14786964654E+03  0.30010774735E+03  0.39285211266E+03  0.12500000000E+03 0.  0.
</event>
<event>
 4    0  0.2205135E-002  0.2885296E+03  0.7546771E-02  0.1091119E+00
         21   -1    0    0  502  501  0.00000000000E+00  0.00000000000E+00  0.16269989714E+03  0.16269989714E+03  0.00000000000E+00 0.  1.
         21   -1    0    0  501  502 -0.00000000000E+00 -0.00000000000E+00 -0.51167427531E+03  0.51167427531E+03  0.00000000000E+00 0.  1.
         25    1    1    2    0    0 -0.41285152775E+02 -0.25084211377E+03 -0.23847616496E+03  0.37030002854E+03  0.12500000000E+03 0.  0.
         25    1    1    2    0    0  0.41285152775E+02  0.25084211377E+03 -0.11049821321E+03  0.30407414392E+03  0.12500000000E+03 0.  0.
</event>
<event>
 4    0  0.2205135E-002  0.2779970E+03  0.7546771E-02  0.1096788E+00
         21   -1    0    0  502  501  0.00000000000E+00  0.00000000000E+00  0.35891326611E+02  0.35891326611E+02  0.00000000000E+00 0. -1.
         21   -1    0    0  501  502 -0.00000000000E+00 -0.00000000000E+00 -0.21532314936E+04  0.21532314936E+04  0.00000000000E+00 0. -1.
         25    1    1    2    0    0 -0.18180779682E+03 -0.82515599086E+02 -0.47740688128E+03  0.53235817770E+03  0.12500000000E+03 0.  0.
         25    1    1    2    0    0  0.18180779682E+03  0.82515599086E+02 -0.16399332857E+04  0.16567646425E+04  0.12500000000E+03 0.  0.
</event>
<event>
 4    0  0.2205135E-002  0.1821150E+03  0.7546771E-02  0.1165772E+00
         21   -1    0    0  502  501  0.00000000000E+00  0.00000000000E+00  0.30475110563E+03  0.30475110563E+03  0.00000000000E+00 0.  1.
         21   -1    0    0  501  502 -0.00000000000E+00 -0.00000000000E+00 -0.10882932959E+03  0.10882932959E+03  0.00000000000E+00 0.  1.
         25    1    1    2    0    0 -0.10678135723E+03 -0.57142429788E+02  0.15882735633E+03  0.23562394754E+03  0.12500000000E+03 0.  0.
         25    1    1    2    0    0  0.10678135723E+03  0.57142429788E+02  0.37094419715E+02  0.17795648768E+03  0.12500000000E+03 0.  0.
</event>
<event>
 4    0  0.2205135E-002  0.1954604E+03  0.7546771E-02  0.1153627E+00
         21   -1    0    0  502  501  0.00000000000E+00  0.00000000000E+00  0.22915510814E+04  0.22915510814E+04  0.00000000000E+00 0. -1.
         21   -1    0    0  501  502 -0.00000000000E+00 -0.00000000000E+00 -0.16672006207E+02  0.16672006207E+02  0.00000000000E+00 0. -1.
         25    1    1    2    0    0 -0.17845624907E+02  0.27262157195E+02  0.20035846567E+04  0.20077445475E+04  0.12500000000E+03 0.  0.
         25    1    1    2    0    0  0.17845624907E+02 -0.27262157195E+02  0.27129441845E+03  0.30047854004E+03  0.12500000000E+03 0.  0.
</event>
<event>
 4    0  0.2205135E-002  0.1762389E+03  0.7546771E-02  0.1171494E+00
         21   -1    0    0  502  501  0.00000000000E+00  0.00000000000E+00  0.57799351474E+02  0.57799351474E+02  0.00000000000E+00 0.  1.
         21   -1    0    0  501  502 -0.00000000000E+00 -0.00000000000E+00 -0.53737876714E+03  0.53737876714E+03  0.00000000000E+00 0.  1.
         25    1    1    2    0    0 -0.93746498356E+02 -0.80851865641E+02 -0.25747639353E+03  0.31184054155E+03  0.12500000000E+03 0.  0.
         25    1    1    2    0    0  0.93746498356E+02  0.80851865641E+02 -0.22210302213E+03  0.28333757706E+03  0.12500000000E+03 0.  0.
</event>
<event>
 4    0  0.2205135E-002  0.1768248E+03  0.7546771E-02  0.1170912E+00
         21   -1    0    0  502  501  0.00000000000E+00  0.00000000000E+00  0.71139169162E+02  0.71139169162E+02  0.00000000000E+00 0. -1.
         21   -1    0    0  501  502 -0.00000000000E+00 -0.00000000000E+00 -0.43951888010E+03  0.43951888010E+03  0.00000000000E+00 0. -1.
         25    1    1    2    0    0  0.43572063882E+02 -0.11442336058E+03 -0.14735377807E+03  0.22875612803E+03  0.12500000000E+03 0.  0.
         25    1    1    2    0    0 -0.43572063882E+02  0.11442336058E+03 -0.22102593287E+03  0.28190192124E+03  0.12500000000E+03 0.  0.
</event>
<event>
 4    0  0.2205135E-002  0.1940277E+03  0.7546771E-02  0.1154878E+00
         21   -1    0    0  502  501  0.00000000000E+00  0.00000000000E+00  0.27681421407E+02  0.27681421407E+02  0.00000000000E+00 0.  1.
         21   -1    0    0  501  502 -0.00000000000E+00 -0.00000000000E+00 -0.13600000514E+04  0.13600000514E+04  0.00000000000E+00 0.  1.
         25    1    1    2    0    0  0.42759652310E+02  0.56361956743E+02 -0.19967879785E+03  0.24597089329E+03  0.12500000000E+03 0.  0.
         25    1    1    2    0    0 -0.42759652310E+02 -0.56361956743E+02 -0.11326398322E+04  0.11417105795E+04  0.12500000000E+03 0.  0.
</event>
<event>
 4    0  0.2205135E-002  0.2021522E+03  0.7546771E-02  0.1147936E+00
         21   -1    0    0  502  501  0.00000000000E+00  0.00000000000E+00  0.10745729705E+03  0.10745729705E+03  0.00000000000E+00 0. -1.
         21   -1    0    0  501  502 -0.00000000000E+00 -0.00000000000E+00 -0.38029520521E+03  0.38029520521E+03  0.00000000000E+00 0. -1.
         25    1    1    2    0    0  0.72654861387E+02  0.10782858781E+03 -0.26280818481E+02  0.18226742620E+03  0.12500000000E+03 0.  0.
         25    1    1    2    0    0 -0.72654861387E+02 -0.10782858781E+03 -0.24655708968E+03  0.30548507607E+03  0.12500000000E+03 0.  0.
</event>
<event>
 4    0  0.2205135E-002  0.2183581E+03  0.7546771E-02  0.1135113E+00
         21   -1    0    0  502  501  0.00000000000E+00  0.00000000000E+00  0.46021680834E+03  0.46021680834E+03  0.00000000000E+00 0. -1.
         21   -1    0    0  501  502 -0.00000000000E+00 -0.00000000000E+00 -0.10360388564E+03  0.10360388564E+03  0.00000000000E+00 0. -1.
         25    1    1    2    0    0 -0.10516868743E+02  0.14037042384E+03  0.35467571901E+02  0.19156567822E+03  0.12500000000E+03 0.  0.
         25    1    1    2    0    0  0.10516868743E+02 -0.14037042384E+03  0.32114535080E+03  0.37225501575E+03  0.12500000000E+03 0.  0.
</event>
<event>
 4    0  0.2205135E-002  0.2291974E+03  0.7546771E-02  0.1127206E+00
         21   -1    0    0  502  501  0.00000000000E+00  0.00000000000E+00  0.57088045029E+03  0.57088045029E+03  0.00000000000E+00 0. -1.
         21   -1    0    0  501  502 -0.00000000000E+00 -0.00000000000E+00 -0.92018279303E+02  0.92018279303E+02  0.00000000000E+00 0. -1.
         25    1    1    2    0    0 -0.16449879590E+03 -0.11877669202E+02  0.96963325936E+02  0.22853406629E+03  0.12500000000E+03 0.  0.
         25    1    1    2    0    0  0.16449879590E+03  0.11877669202E+02  0.38189884505E+03  0.43436466330E+03  0.12500000000E+03 0.  0.
</event>
<event>
 4    0  0.2205135E-002  0.1935505E+03  0.7546771E-02  0.1155297E+00
         21   -1    0    0  502  501  0.00000000000E+00  0.00000000000E+00  0.20899551902E+03  0.20899551902E+03  0.00000000000E+00 0.  1.
         21   -1    0    0  501  502 -0.00000000000E+00 -0.00000000000E+00 -0.17924693879E+03  0.17924693879E+03  0.00000000000E+00 0.  1.
         25    1    1    2    0    0  0.10247439040E+03  0.70058968414E+02 -0.65534089489E+02  0.18796003998E+03  0.12500000000E+03 0.  0.
         25    1    1    2    0    0 -0.10247439040E+03 -0.70058968414E+02  0.95282669714E+02  0.20028241783E+03  0.12500000000E+03 0.  0.
</event>
<event>
 4    0  0.2205135E-002  0.2443102E+03  0.7546771E-02  0.1116954E+00
         21   -1    0    0  502  501  0.00000000000E+00  0.00000000000E+00  0.25137106605E+03  0.25137106605E+03  0.00000000000E+00 0. -1.
         21   -1    0    0  501  502 -0.00000000000E+00 -0.00000000000E+00 -0.23744759996E+03  0.23744759996E+03  0.00000000000E+00 0. -1.
         25    1    1    2    0    0 -0.24043745992E+02  0.18945901471E+03 -0.80192148564E+02  0.24192684982E+03  0.12500000000E+03 0.  0.
         25    1    1    2    0    0  0.24043745992E+02 -0.18945901471E+03  0.94115614654E+02  0.24689181618E+03  0.12500000000E+03 0.  0.
</event>
<event>
 4    0  0.2205135E-002  0.1992549E+03  0.7546771E-02  0.1150369E+00
         21   -1    0    0  502  501  0.00000000000E+00  0.00000000000E+00  0.25675643311E+03  0.25675643311E+03  0.00000000000E+00 0. -1.
         21   -1    0    0  501  502 -0.00000000000E+00 -0.00000000000E+00 -0.15463104488E+03  0.15463104488E+03  0.00000000000E+00 0. -1.
         25    1    1    2    0    0 -0.74419438871E+02 -0.48440837965E+02  0.18242547610E+03  0.23830405367E+03  0.12500000000E+03 0.  0.
         25    1    1    2    0    0  0.74419438871E+02  0.48440837965E+02 -0.80300087862E+02  0.17308342432E+03  0.12500000000E+03 0.  0.
</event>
<event>
 4    0  0.2205135E-002  0.2147197E+03  0.7546771E-02  0.1137882E+00
         21   -1    0    0  502  501  0.00000000000E+00  0.00000000000E+00  0.52753287131E+03  0.52753287131E+03  0.00000000000E+00 0. -1.
         21   -1    0    0  501  502 -0.00000000000E+00 -0.00000000000E+00 -0.87396547341E+02  0.87396547341E+02  0.00000000000E+00 0. -1.
         25    1    1    2    0    0 -0.13790434880E+02  0.17363603526E+03  0.20313116306E+03  0.29534203602E+03  0.12500000000E+03 0.  0.
         25    1    1    2    0    0  0.13790434880E+02 -0.17363603526E+03  0.23700516090E+03  0.31958738262E+03  0.12500000000E+03 0.  0.
</event>
<event>
 4    0  0.2205135E-002  0.1469155E+03  0.7546771E-02  0.1204315E+00
         21   -1    0    0  502  501  0.00000000000E+00  0.00000000000E+00  0.24512419446E+03  0.24512419446E+03  0.00000000000E+00 0. -1.
         21   -1    0    0  501  502 -0.00000000000E+00 -0.00000000000E+00 -0.88053983491E+02  0.88053983491E+02  0.00000000000E+00 0. -1.
         25    1    1    2    0    0 -0.35574764352E+02  0.62803173951E+02  0.10957526878E+03  0.18122235526E+03  0.12500000000E+03 0.  0.
         25    1    1    2    0    0  0.35574764352E+02 -0.62803173951E+02  0.47494942191E+02  0.15195582269E+03  0.12500000000E+03 0.  0.
</event>
<event>
 4    0  0.2205135E-002  0.2396413E+03  0.7546771E-02  0.1120032E+00
         21   -1    0    0  502  501  0.00000000000E+00  0.00000000000E+00  0.56331189515E+03  0.56331189515E+03  0.00000000000E+00 0. -1.
         21   -1    0    0  501  502 -0.00000000000E+00 -0.00000000000E+00 -0.10194695681E+03  0.10194695681E+03  0.00000000000E+00 0. -1.
         25    1    1    2    0    0  0.14263249581E+03  0.93979004235E+02  0.74710481771E+02  0.22446099479E+03  0.12500000000E+03 0.  0.
         25    1    1    2    0    0 -0.14263249581E+03 -0.93979004235E+02  0.38665445656E+03  0.44079785716E+03  0.12500000000E+03 0.  0.
</event>
<event>
 4    0  0.2205135E-002  0.1463434E+03  0.7546771E-02  0.1205040E+00
         21   -1    0    0  502  501  0.00000000000E+00  0.00000000000E+00  0.32407248117E+02  0.32407248117E+02  0.00000000000E+00 0. -1.
         21   -1    0    0  501  502 -0.00000000000E+00 -0.00000000000E+00 -0.66085208706E+03  0.66085208706E+03  0.00000000000E+00 0. -1.
         25    1    1    2    0    0 -0.61155707721E+01 -0.67729957703E+02 -0.39512508792E+03  0.41996854939E+03  0.12500000000E+03 0.  0.
         25    1    1    2    0    0  0.61155707721E+01  0.67729957703E+02 -0.23331975102E+03  0.27329078578E+03  0.12500000000E+03 0.  0.
</event>
<event>
 4    0  0.2205135E-002  0.2351469E+03  0.7546771E-02  0.1123069E+00
         21   -1    0    0  502  501  0.00000000000E+00  0.00000000000E+00  0.21105065417E+03  0.21105065417E+03  0.00000000000E+00 0. -1.
         21   -1    0    0  501  502 -0.00000000000E+00 -0.00000000000E+00 -0.26199418502E+03  0.26199418502E+03  0.00000000000E+00 0. -1.
         25    1    1    2    0    0  0.14672949877E+03  0.11036343240E+02  0.10954347086E+03  0.22198224859E+03  0.12500000000E+03 0.  0.
         25    1    1    2    0    0 -0.14672949877E+03 -0.11036343240E+02 -0.16048700172E+03  0.25106259060E+03  0.12500000000E+03 0.  0.
</event>
<event>
 4    0  0.2205135E-002  0.1778472E+03  0.7546771E-02  0.1169903E+00
         21   -1    0    0  502  501  0.00000000000E+00  0.00000000000E+00  0.69740120607E+02  0.69740120607E+02  0.00000000000E+00 0. -1.
         21   -1    0    0  501  502 -0.00000000000E+00 -0.00000000000E+00 -0.45353560299E+03  0.45353560299E+03  0.00000000000E+00 0. -1.
         25    1    1    2    0    0  0.55798018266E+02  0.85169097227E+02 -0.30235500343E+03  0.34265250920E+03  0.12500000000E+03 0.  0.
         25    1    1    2    0    0 -0.55798018266E+02 -0.85169097227E+02 -0.81440478951E+02  0.18062321439E+03  0.12500000000E+03 0.  0.
</event>
<event>
 4    0  0.2205135E-002  0.5133218E+03  0.7546771E-02  0.1010359E+00
         21   -1    0    0  502  501  0.00000000000E+00  0.00000000000E+00  0.78414551720E+03  0.78414551720E+03  0.00000000000E+00 0.  1.
         21   -1    0    0  501  502 -0.00000000000E+00 -0.00000000000E+00 -0.33603358965E+03  0.33603358965E+03  0.00000000000E+00 0.  1.
         25    1    1    2    0    0  0.33878243682E+03 -0.23720381417E+03 -0.78389772850E+02  0.43910038197E+03  0.12500000000E+03 0.  0.
         25    1    1    2    0    0 -0.33878243682E+03  0.23720381417E+03  0.52650170041E+03  0.68107872488E+03  0.12500000000E+03 0.  0.
</event>
<event>
 4    0  0.2205135E-002  0.2330422E+03  0.7546771E-02  0.1124517E+00
         21   -1    0    0  502  501  0.00000000000E+00  0.00000000000E+00  0.41674006725E+03  0.41674006725E+03  0.00000000000E+00 0. -1.
         21   -1    0    0  501  502 -0.00000000000E+00 -0.00000000000E+00 -0.13031787298E+03  0.13031787298E+03  0.00000000000E+00 0. -1.
         25    1    1    2    0    0 -0.17592242953E+03  0.11284625766E+02  0.40836183451E+02  0.21992871088E+03  0.12500000000E+03 0.  0.
         25    1    1    2    0    0  0.17592242953E+03 -0.11284625766E+02  0.24558601082E+03  0.32712922936E+03  0.12500000000E+03 0.  0.
</event>
<event>
 4    0  0.2205135E-002  0.3794306E+03  0.7546771E-02  0.1051144E+00
         21   -1    0    0  502  501  0.00000000000E+00  0.00000000000E+00  0.49691032685E+03  0.49691032685E+03  0.00000000000E+00 0.  1.
         21   -1    0    0  501  502 -0.00000000000E+00 -0.00000000000E+00 -0.28972543706E+03  0.28972543706E+03  0.00000000000E+00 0.  1.
         25    1    1    2    0    0  0.11647468343E+03  0.26381359448E+03  0.32392452663E+03  0.45134915915E+03  0.12500000000E+03 0.  0.
         25    1    1    2    0    0 -0.11647468343E+03 -0.26381359448E+03 -0.11673963684E+03  0.33528660475E+03  0.12500000000E+03 0.  0.
</event>
<event>
 4    0  0.2205135E-002  0.2990574E+03  0.7546771E-02  0.1085713E+00
         21   -1    0    0  502  501  0.00000000000E+00  0.00000000000E+00  0.21461334614E+03  0.21461334614E+03  0.00000000000E+00 0.  1.
         21   -1    0    0  501  502 -0.00000000000E+00 -0.00000000000E+00 -0.41672761793E+03  0.41672761793E+03  0.00000000000E+00 0.  1.
         25    1    1    2    0    0  0.11911555094E+03  0.11884346161E+03  0.12409483057E+03  0.24359148141E+03  0.12500000000E+03 0.  0.
         25    1    1    2    0    0 -0.11911555094E+03 -0.11884346161E+03 -0.32620910236E+03  0.38774948266E+03  0.12500000000E+03 0.  0.
</event>
<event>
 4    0  0.2205135E-002  0.2897336E+03  0.7546771E-02  0.1090488E+00
         21   -1    0    0  502  501  0.00000000000E+00  0.00000000000E+00  0.16940191978E+04  0.16940191978E+04  0.00000000000E+00 0.  1.
         21   -1    0    0  501  502 -0.00000000000E+00 -0.00000000000E+00 -0.49554081625E+02  0.49554081625E+02  0.00000000000E+00 0.  1.
         25    1    1    2    0    0 -0.55662179817E+02  0.20438762274E+03  0.36148386534E+03  0.43722781646E+03  0.12500000000E+03 0.  0.
         25    1    1    2    0    0  0.55662179817E+02 -0.20438762274E+03  0.12829812509E+04  0.13063454630E+04  0.12500000000E+03 0.  0.
</event>
<event>
 4    0  0.2205135E-002  0.3512970E+03  0.7546771E-02  0.1062084E+00
         21   -1    0    0  502  501  0.00000000000E+00  0.00000000000E+00  0.31610742672E+03  0.31610742672E+03  0.00000000000E+00 0. -1.
         21   -1    0    0  501  502 -0.00000000000E+00 -0.00000000000E+00 -0.39040395025E+03  0.39040395025E+03  0.00000000000E+00 0. -1.
         25    1    1    2    0    0  0.41509068679E+01 -0.21351772093E+03  0.21359627746E+03  0.32688746829E+03  0.12500000000E+03 0.  0.
         25    1    1    2    0    0 -0.41509068679E+01  0.21351772093E+03 -0.28789280099E+03  0.37962390868E+03  0.12500000000E+03 0.  0.
</event>
<event>
 4    0  0.2205135E-002  0.2533430E+03  0.7546771E-02  0.1111210E+00
         21   -1    0    0  502  501  0.00000000000E+00  0.00000000000E+00  0.14628543630E+03  0.14628543630E+03  0.00000000000E+00 0. -1.
         21   -1    0    0  501  502 -0.00000000000E+00 -0.00000000000E+00 -0.43874963471E+03  0.43874963471E+03  0.00000000000E+00 0. -1.
         25    1    1    2    0    0  0.14881111505E+02 -0.21370126745E+03 -0.86592310466E+02  0.26270307844E+03  0.12500000000E+03 0.  0.
         25    1    1    2    0    0 -0.14881111505E+02  0.21370126745E+03 -0.20587188793E+03  0.32233199257E+03  0.12500000000E+03 0.  0.
</event>
<event>
 4    0  0.2205135E-002  0.2852779E+03  0.7546771E-02  0.1092841E+00
         21   -1    0    0  502  501  0.00000000000E+00  0.00000000000E+00  0.28734109717E+03  0.28734109717E+03  0.00000000000E+00 0.  1.
         21   -1    0    0  501  502 -0.00000000000E+00 -0.00000000000E+00 -0.28322942784E+03  0.28322942784E+03  0.00000000000E+00 0.  1.
         25    1    1    2    0    0  0.97633751505E+02  0.36731284857E+02 -0.23220847702E+03  0.28359709717E+03  0.12500000000E+03 0.  0.
         25    1    1    2    0    0 -0.97633751505E+02 -0.36731284857E+02  0.23632014635E+03  0.28697342785E+03  0.12500000000E+03 0.  0.
</event>
<event>
 4    0  0.2205135E-002  0.2513234E+03  0.7546771E-02  0.1112471E+00
         21   -1    0    0  502  501  0.00000000000E+00  0.00000000000E+00  0.49274621707E+03  0.49274621707E+03  0.00000000000E+00 0.  1.
         21   -1    0    0  501  502 -0.00000000000E+00 -0.00000000000E+00 -0.12818658182E+03  0.12818658182E+03  0.00000000000E+00 0. -1.
         25    1    1    2    0    0  0.43169078251E+02  0.19257257768E+03  0.29677721156E+03  0.37768966136E+03  0.12500000000E+03 0.  0.
         25    1    1    2    0    0 -0.43169078251E+02 -0.19257257768E+03  0.67782423688E+02  0.24324313753E+03  0.12500000000E+03 0.  0.
</event>
<event>
 4    0  0.2205135E-002  0.2180615E+03  0.7546771E-02  0.1135337E+00
         21   -1    0    0  502  501  0.00000000000E+00  0.00000000000E+00  0.15562977271E+03  0.15562977271E+03  0.00000000000E+00 0. -1.
         21   -1    0    0  501  502 -0.00000000000E+00 -0.00000000000E+00 -0.30553812984E+03  0.30553812984E+03  0.00000000000E+00 0. -1.
         25    1    1    2    0    0  0.81779610233E+02  0.14907020637E+03 -0.16882337225E+02  0.21170697765E+03  0.12500000000E+03 0.  0.
         25    1    1    2    0    0 -0.81779610233E+02 -0.14907020637E+03 -0.13302601990E+03  0.24946092489E+03  0.12500000000E+03 0.  0.
</event>
<event>
 4    0  0.2205135E-002  0.1784602E+03  0.7546771E-02  0.1169302E+00
         21   -1    0    0  502  501  0.00000000000E+00  0.00000000000E+00  0.52389750201E+02  0.52389750201E+02  0.00000000000E+00 0. -1.
         21   -1    0    0  501  502 -0.00000000000E+00 -0.00000000000E+00 -0.60790581128E+03  0.60790581128E+03  0.00000000000E+00 0. -1.
         25    1    1    2    0    0  0.76382624155E+02 -0.95588546344E+02 -0.21231060247E+03  0.27508592728E+03  0.12500000000E+03 0.  0.
         25    1    1    2    0    0 -0.76382624155E+02  0.95588546344E+02 -0.34320545861E+03  0.38520963420E+03  0.12500000000E+03 0.  0.
</event>
<event>
 4    0  0.2205135E-002  0.1597135E+03  0.7546771E-02  0.1189021E+00
         21   -1    0    0  502  501  0.00000000000E+00  0.00000000000E+00  0.27989098428E+03  0.27989098428E+03  0.00000000000E+00 0. -1.
         21   -1    0    0  501  502 -0.00000000000E+00 -0.00000000000E+00 -0.91136878115E+02  0.91136878115E+02  0.00000000000E+00 0. -1.
         25    1    1    2    0    0  0.16500842643E+02 -0.48708814686E+02 -0.44466700777E+01  0.13523904507E+03  0.12500000000E+03 0.  0.
         25    1    1    2    0    0 -0.16500842643E+02  0.48708814686E+02  0.19320077624E+03  0.23578881733E+03  0.12500000000E+03 0.  0.
</event>
<event>
 4    0  0.2205135E-002  0.1925216E+03  0.7546771E-02  0.1156206E+00
         21   -1    0    0  502  501  0.00000000000E+00  0.00000000000E+00  0.13883007956E+03  0.13883007956E+03  0.00000000000E+00 0. -1.
         21   -1    0    0  501  502 -0.00000000000E+00 -0.00000000000E+00 -0.26697801229E+03  0.26697801229E+03  0.00000000000E+00 0. -1.
         25    1    1    2    0    0  0.85723969355E+01  0.11081926550E+03 -0.16453045993E+03  0.23462665629E+03  0.12500000000E+03 0.  0.
         25    1    1    2    0    0 -0.85723969355E+01 -0.11081926550E+03  0.36382527201E+02  0.17118143556E+03  0.12500000000E+03 0.  0.
</event>
<event>
 4    0  0.2205135E-002  0.2533367E+03  0.7546771E-02  0.1111214E+00
         21   -1    0    0  502  501  0.00000000000E+00  0.00000000000E+00  0.10560255022E+04  0.10560255022E+04  0.00000000000E+00 0. -1.
         21   -1    0    0  501  502 -0.00000000000E+00 -0.00000000000E+00 -0.60774564197E+02  0.60774564197E+02  0.00000000000E+00 0. -1.
         25    1    1    2    0    0  0.61006557263E+02  0.20719152356E+03  0.40143720565E+03  0.47268060839E+03  0.12500000000E+03 0.  0.
         25    1    1    2    0    0 -0.61006557263E+02 -0.20719152356E+03  0.59381373240E+03  0.64411945806E+03  0.12500000000E+03 0.  0.
</event>
<event>
 4    0  0.2205135E-002  0.2330035E+03  0.7546771E-02  0.1124543E+00
         21   -1    0    0  502  501  0.00000000000E+00  0.00000000000E+00  0.89583309280E+03  0.89583309280E+03  0.00000000000E+00 0.  1.
         21   -1    0    0  501  502 -0.00000000000E+00 -0.00000000000E+00 -0.60603513003E+02  0.60603513003E+02  0.00000000000E+00 0.  1.
         25    1    1    2    0    0 -0.16773188043E+03 -0.97958685038E+02  0.48039784637E+03  0.53304500606E+03  0.12500000000E+03 0.  0.
         25    1    1    2    0    0  0.16773188043E+03  0.97958685038E+02  0.35483173343E+03  0.42339159974E+03  0.12500000000E+03 0.  0.
</event>
<event>
 4    0  0.2205135E-002  0.2678479E+03  0.7546771E-02  0.1102518E+00
         21   -1    0    0  502  501  0.00000000000E+00  0.00000000000E+00  0.24234984736E+03  0.24234984736E+03  0.00000000000E+00 0. -1.
         21   -1    0    0  501  502 -0.00000000000E+00 -0.00000000000E+00 -0.29602864697E+03  0.29602864697E+03  0.00000000000E+00 0. -1.
         25    1    1    2    0    0  0.69780743431E+02 -0.27494854207E+01 -0.25433683494E+03  0.29187178252E+03  0.12500000000E+03 0.  0.
         25    1    1    2    0    0 -0.69780743431E+02  0.27494854207E+01  0.20065803533E+03  0.24650671181E+03  0.12500000000E+03 0.  0.
</event>
<event>
 4    0  0.2205135E-002  0.4484077E+03  0.7546771E-02  0.1028198E+00
         21   -1    0    0  502  501  0.00000000000E+00  0.00000000000E+00  0.72767939127E+03  0.72767939127E+03  0.00000000000E+00 0.  1.
         21   -1    0    0  501  502 -0.00000000000E+00 -0.00000000000E+00 -0.27631603902E+03  0.27631603902E+03  0.00000000000E+00 0.  1.
         25    1    1    2    0    0 -0.51249037248E+02 -0.28546251440E+03  0.58204738797E+03  0.66220802833E+03  0.12500000000E+03 0.  0.
         25    1    1    2    0    0  0.51249037248E+02  0.28546251440E+03 -0.13068403571E+03  0.34178740196E+03  0.12500000000E+03 0.  0.
</event>
<event>
 4    0  0.2205135E-002  0.4863753E+03  0.7546771E-02  0.1017398E+00
         21   -1    0    0  502  501  0.00000000000E+00  0.00000000000E+00  0.77185027946E+03  0.77185027946E+03  0.00000000000E+00 0. -1.
         21   -1    0    0  501  502 -0.00000000000E+00 -0.00000000000E+00 -0.30648545821E+03  0.30648545821E+03  0.00000000000E+00 0. -1.
         25    1    1    2    0    0  0.20265788277E+02 -0.41132147917E+03 -0.18494506714E+02  0.43077036595E+03  0.12500000000E+03 0.  0.
         25    1    1    2    0    0 -0.20265788277E+02  0.41132147917E+03  0.48385932796E+03  0.64756537172E+03  0.12500000000E+03 0.  0.
</event>
<event>
 4    0  0.2205135E-002  0.2887631E+03  0.7546771E-02  0.1090997E+00
         21   -1    0    0  502  501  0.00000000000E+00  0.00000000000E+00  0.41168935894E+02  0.41168935894E+02  0.00000000000E+00 0. -1.
         21   -1    0    0  501  502 -0.00000000000E+00 -0.00000000000E+00 -0.20254131585E+04  0.20254131585E+04  0.00000000000E+00 0. -1.
         25    1    1    2    0    0 -0.21244211694E+03 -0.83180490338E+02 -0.54363723529E+03  0.60267494607E+03  0.12500000000E+03 0.  0.
         25    1    1    2    0    0  0.21244211694E+03  0.83180490338E+02 -0.14406069874E+04  0.14639071484E+04  0.12500000000E+03 0.  0.
</event>
<event>
 4    0  0.2205135E-002  0.1488434E+03  0.7546771E-02  0.1201901E+00
         21   -1    0    0  502  501  0.00000000000E+00  0.00000000000E+00  0.49650767196E+02  0.49650767196E+02  0.00000000000E+00 0.  1.
         21   -1    0    0  501  502 -0.00000000000E+00 -0.00000000000E+00 -0.44620363611E+03  0.44620363611E+03  0.00000000000E+00 0.  1.
         25    1    1    2    0    0  0.26249647875E+02  0.11952536837E+01 -0.32555621772E+03  0.34971749105E+03  0.12500000000E+03 0.  0.
         25    1    1    2    0    0 -0.26249647875E+02 -0.11952536837E+01 -0.70996651191E+02  0.14613691226E+03  0.12500000000E+03 0.  0.
</event>
<event>
 4    0  0.2205135E-002  0.1702088E+03  0.7546771E-02  0.1177630E+00
         21   -1    0    0  502  501  0.00000000000E+00  0.00000000000E+00  0.37477620128E+02  0.37477620128E+02  0.00000000000E+00 0.  1.
         21   -1    0    0  501  502 -0.00000000000E+00 -0.00000000000E+00 -0.77302203298E+03  0.77302203298E+03  0.00000000000E+00 0.  1.
         25    1    1    2    0    0  0.36689883753E+02 -0.91286963426E+02 -0.51194085276E+03  0.53608571515E+03  0.12500000000E+03 0.  0.
         25    1    1    2    0    0 -0.36689883753E+02  0.91286963426E+02 -0.22360356009E+03  0.27441393796E+03  0.12500000000E+03 0.  0.
</event>
<event>
 4    0  0.2205135E-002  0.2116916E+03  0.7546771E-02  0.1140233E+00
         21   -1    0    0  502  501  0.00000000000E+00  0.00000000000E+00  0.48914667665E+03  0.48914667665E+03  0.00000000000E+00 0.  1.
         21   -1    0    0  501  502 -0.00000000000E+00 -0.00000000000E+00 -0.91615361744E+02  0.91615361744E+02  0.00000000000E+00 0.  1.
         25    1    1    2    0    0 -0.12829095475E+03  0.39449295494E+02  0.53768398074E+02  0.19113047015E+03  0.12500000000E+03 0.  0.
         25    1    1    2    0    0  0.12829095475E+03 -0.39449295494E+02  0.34376291684E+03  0.38963156825E+03  0.12500000000E+03 0.  0.
</event>
<event>
 4    0  0.2205135E-002  0.2300175E+03  0.7546771E-02  0.1126627E+00
         21   -1    0    0  502  501  0.00000000000E+00  0.00000000000E+00  0.20142992630E+02  0.20142992630E+02  0.00000000000E+00 0.  1.
         21   -1    0    0  501  502 -0.00000000000E+00 -0.00000000000E+00 -0.26266232268E+04  0.26266232268E+04  0.00000000000E+00 0.  1.
         25    1    1    2    0    0 -0.63724714117E+02 -0.23038244633E+02 -0.26298033553E+03  0.29895694804E+03  0.12500000000E+03 0.  0.
         25    1    1    2    0    0  0.63724714117E+02  0.23038244633E+02 -0.23434998986E+04  0.23478092714E+04  0.12500000000E+03 0.  0.
</event>
<event>
 4    0  0.2205135E-002  0.2091138E+03  0.7546771E-02  0.1142270E+00
         21   -1    0    0  502  501  0.00000000000E+00  0.00000000000E+00  0.57527271655E+03  0.57527271655E+03  0.00000000000E+00 0. -1.
         21   -1    0    0  501  502 -0.00000000000E+00 -0.00000000000E+00 -0.76013624984E+02  0.76013624984E+02  0.00000000000E+00 0. -1.
         25    1    1    2    0    0  0.91245620383E+02  0.13908721210E+03  0.21724208610E+03  0.30081579045E+03  0.12500000000E+03 0.  0.
         25    1    1    2    0    0 -0.91245620383E+02 -0.13908721210E+03  0.28201700546E+03  0.35047055109E+03  0.12500000000E+03 0.  0.
</event>
<event>
 4    0  0.2205135E-002  0.3233047E+03  0.7546771E-02  0.1074138E+00
         21   -1    0    0  502  501  0.00000000000E+00  0.00000000000E+00  0.82857257580E+02  0.82857257580E+02  0.00000000000E+00 0. -1.
         21   -1    0    0  501  502 -0.00000000000E+00 -0.00000000000E+00 -0.12615179939E+04  0.12615179939E+04  0.00000000000E+00 0.  1.
         25    1    1    2    0    0 -0.19212044707E+03  0.12364162588E+03 -0.98764997114E+03  0.10214083333E+04  0.12500000000E+03 0.  0.
         25    1    1    2    0    0  0.19212044707E+03 -0.12364162588E+03 -0.19101076521E+03  0.32296691821E+03  0.12500000000E+03 0.  0.
</event>
<event>
 4    0  0.2205135E-002  0.1458432E+03  0.7546771E-02  0.1205676E+00
         21   -1    0    0  502  501  0.00000000000E+00  0.00000000000E+00  0.77279869453E+03  0.77279869453E+03  0.00000000000E+00 0. -1.
         21   -1    0    0  501  502 -0.00000000000E+00 -0.00000000000E+00 -0.27523645856E+02  0.27523645856E+02  0.00000000000E+00 0. -1.
         25    1    1    2    0    0 -0.29434436732E+02 -0.63051860633E+02  0.45040384423E+03  0.47257861367E+03  0.12500000000E+03 0.  0.
         25    1    1    2    0    0  0.29434436732E+02  0.63051860633E+02  0.29487120444E+03  0.32774372672E+03  0.12500000000E+03 0.  0.
</event>
<event>
 4    0  0.2205135E-002  0.2344334E+03  0.7546771E-02  0.1123558E+00
         21   -1    0    0  502  501  0.00000000000E+00  0.00000000000E+00  0.38219781457E+02  0.38219781457E+02  0.00000000000E+00 0. -1.
         21   -1    0    0  501  502 -0.00000000000E+00 -0.00000000000E+00 -0.14379728733E+04  0.14379728733E+04  0.00000000000E+00 0. -1.
         25    1    1    2    0    0 -0.18823271984E+03 -0.62329424250E+02 -0.68670760860E+03  0.72560929822E+03  0.12500000000E+03 0.  0.
         25    1    1    2    0    0  0.18823271984E+03  0.62329424250E+02 -0.71304548327E+03  0.75058335657E+03  0.12500000000E+03 0.  0.
</event>
<event>
 4    0  0.2205135E-002  0.3106093E+03  0.7546771E-02  0.1080054E+00
         21   -1    0    0  502  501  0.00000000000E+00  0.00000000000E+00  0.26518516400E+03  0.26518516400E+03  0.00000000000E+00 0.  1.
         21   -1    0    0  501  502 -0.00000000000E+00 -0.00000000000E+00 -0.36381424020E+03  0.36381424020E+03  0.00000000000E+00 0.  1.
         25    1    1    2    0    0  0.20017713945E+02  0.15522119643E+02  0.23744910039E+03  0.26953426562E+03  0.12500000000E+03 0.  0.
         25    1    1    2    0    0 -0.20017713945E+02 -0.15522119643E+02 -0.33607817659E+03  0.35946513858E+03  0.12500000000E+03 0.  0.
</event>
<event>
 4    0  0.2205135E-002  0.2703838E+03  0.7546771E-02  0.1101060E+00
         21   -1    0    0  502  501  0.00000000000E+00  0.00000000000E+00  0.45752287627E+02  0.45752287627E+02  0.00000000000E+00 0.  1.
         21   -1    0    0  501  502 -0.00000000000E+00 -0.00000000000E+00 -0.15978957330E+04  0.15978957330E+04  0.00000000000E+00 0.  1.
         25    1    1    2    0    0  0.95888809205E+02 -0.28254027029E+02 -0.11370777654E+03  0.19633494905E+03  0.12500000000E+03 0.  0.
         25    1    1    2    0    0 -0.95888809205E+02  0.28254027029E+02 -0.14384356688E+04  0.14473130716E+04  0.12500000000E+03 0.  0.
</event>
<event>
 4    0  0.2205135E-002  0.1756103E+03  0.7546771E-02  0.1172120E+00
         21   -1    0    0  502  501  0.00000000000E+00  0.00000000000E+00  0.21004733953E+03  0.21004733953E+03  0.00000000000E+00 0.  1.
         21   -1    0    0  501  502 -0.00000000000E+00 -0.00000000000E+00 -0.14681925279E+03  0.14681925279E+03  0.00000000000E+00 0.  1.
         25    1    1    2    0    0 -0.57938705425E+02 -0.10243018892E+03  0.69156006755E+02  0.18508481964E+03  0.12500000000E+03 0.  0.
         25    1    1    2    0    0  0.57938705425E+02  0.10243018892E+03 -0.59279200130E+01  0.17178177268E+03  0.12500000000E+03 0.  0.
</event>
<event>
 4    0  0.2205135E-002  0.2599622E+03  0.7546771E-02  0.1107166E+00
         21   -1    0    0  502  501  0.00000000000E+00  0.00000000000E+00  0.52740777376E+02  0.52740777376E+02  0.00000000000E+00 0.  1.
         21   -1    0    0  501  502 -0.00000000000E+00 -0.00000000000E+00 -0.12813675909E+04  0.12813675909E+04  0.00000000000E+00 0.  1.
         25    1    1    2    0    0 -0.16035005082E+03 -0.50814577500E+02 -0.21961251706E+03  0.30356040212E+03  0.12500000000E+03 0.  0.
         25    1    1    2    0    0  0.16035005082E+03  0.50814577500E+02 -0.10090142964E+04  0.10305479661E+04  0.12500000000E+03 0.  0.
</event>
<event>
 4    0  0.2205135E-002  0.1927521E+03  0.7546771E-02  0.1156002E+00
         21   -1    0    0  502  501  0.00000000000E+00  0.00000000000E+00  0.78531144938E+02  0.78531144938E+02  0.00000000000E+00 0. -1.
         21   -1    0    0  501  502 -0.00000000000E+00 -0.00000000000E+00 -0.47310379007E+03  0.47310379007E+03  0.00000000000E+00 0. -1.
         25    1    1    2    0    0  0.10475081643E+02  0.11306687950E+03 -0.64319869511E+02  0.18070941367E+03  0.12500000000E+03 0.  0.
         25    1    1    2    0    0 -0.10475081643E+02 -0.11306687950E+03 -0.33025277562E+03  0.37092552134E+03  0.12500000000E+03 0.  0.
</event>
<event>
 4    0  0.2205135E-002  0.2725217E+03  0.7546771E-02  0.1099845E+00
         21   -1    0    0  502  501  0.00000000000E+00  0.00000000000E+00  0.10007213323E+04  0.10007213323E+04  0.00000000000E+00 0.  1.
         21   -1    0    0  501  502 -0.00000000000E+00 -0.00000000000E+00 -0.74214531910E+02  0.74214531910E+02  0.00000000000E+00 0.  1.
         25    1    1    2    0    0 -0.13372432511E+03 -0.87163715947E+02  0.82240742979E+03  0.84702933189E+03  0.12500000000E+03 0.  0.
         25    1    1    2    0    0  0.13372432511E+03  0.87163715947E+02  0.10409937056E+03  0.22790653228E+03  0.12500000000E+03 0.  0.
</event>
<event>
 4    0  0.2205135E-002  0.2167057E+03  0.7546771E-02  0.1136363E+00
         21   -1    0    0  502  501  0.00000000000E+00  0.00000000000E+00  0.22614633164E+03  0.22614633164E+03  0.00000000000E+00 0. -1.
         21   -1    0    0  501  502 -0.00000000000E+00 -0.00000000000E+00 -0.20765916236E+03  0.20765916236E+03  0.00000000000E+00 0. -1.
         25    1    1    2    0    0  0.54334139309E+02  0.60908387617E+02 -0.14797989050E+03  0.21020246994E+03  0.12500000000E+03 0.  0.
         25    1    1    2    0    0 -0.54334139309E+02 -0.60908387617E+02  0.16646705978E+03  0.22360302406E+03  0.12500000000E+03 0.  0.
</event>
<event>
 4    0  0.2205135E-002  0.1960862E+03  0.7546771E-02  0.1153084E+00
         21   -1    0    0  502  501  0.00000000000E+00  0.00000000000E+00  0.29790425655E+03  0.29790425655E+03  0.00000000000E+00 0.  1.
         21   -1    0    0  501  502 -0.00000000000E+00 -0.00000000000E+00 -0.12906762459E+03  0.12906762459E+03  0.00000000000E+00 0.  1.
         25    1    1    2    0    0  0.11586253701E+03  0.29077046981E+02 -0.16283467453E+02  0.17366563694E+03  0.12500000000E+03 0.  0.
         25    1    1    2    0    0 -0.11586253701E+03 -0.29077046981E+02  0.18512009941E+03  0.25330624420E+03  0.12500000000E+03 0.  0.
</event>
<event>
 4    0  0.2205135E-002  0.2580303E+03  0.7546771E-02  0.1108332E+00
         21   -1    0    0  502  501  0.00000000000E+00  0.00000000000E+00  0.40683080763E+03  0.40683080763E+03  0.00000000000E+00 0. -1.
         21   -1    0    0  501  502 -0.00000000000E+00 -0.00000000000E+00 -0.16365433530E+03  0.16365433530E+03  0.00000000000E+00 0. -1.
         25    1    1    2    0    0 -0.10637156573E+03  0.48301829838E+02 -0.91930892123E+02  0.19422735566E+03  0.12500000000E+03 0.  0.
         25    1    1    2    0    0  0.10637156573E+03 -0.48301829838E+02  0.33510736445E+03  0.37625778726E+03  0.12500000000E+03 0.  0.
</event>
<event>
 4    0  0.2205135E-002  0.2084449E+03  0.7546771E-02  0.1142803E+00
         21   -1    0    0  502  501  0.00000000000E+00  0.00000000000E+00  0.37842247408E+03  0.37842247408E+03  0.00000000000E+00 0.  1.
         21   -1    0    0  501  502 -0.00000000000E+00 -0.00000000000E+00 -0.11481687242E+03  0.11481687242E+03  0.00000000000E+00 0.  1.
         25    1    1    2    0    0 -0.95332012679E+02 -0.20954669947E+02  0.29184196527E+03  0.33215060368E+03  0.12500000000E+03 0.  0.
         25    1    1    2    0    0  0.95332012679E+02  0.20954669947E+02 -0.28236363610E+02  0.16108874282E+03  0.12500000000E+03 0.  0.
</event>
<event>
 4    0  0.2205135E-002  0.2406235E+03  0.7546771E-02  0.1119378E+00
         21   -1    0    0  502  501  0.00000000000E+00  0.00000000000E+00  0.64272674592E+02  0.64272674592E+02  0.00000000000E+00 0.  1.
         21   -1    0    0  501  502 -0.00000000000E+00 -0.00000000000E+00 -0.90084417490E+03  0.90084417490E+03  0.00000000000E+00 0.  1.
         25    1    1    2    0    0  0.14058394737E+03  0.46493593536E+02 -0.13220728664E+03  0.23458317744E+03  0.12500000000E+03 0.  0.
         25    1    1    2    0    0 -0.14058394737E+03 -0.46493593536E+02 -0.70436421366E+03  0.73053367204E+03  0.12500000000E+03 0.  0.
</event>
<event>
 4    0  0.2205135E-002  0.1860333E+03  0.7546771E-02  0.1162088E+00
         21   -1    0    0  502  501  0.00000000000E+00  0.00000000000E+00  0.54390076845E+03  0.54390076845E+03  0.00000000000E+00 0.  1.
         21   -1    0    0  501  502 -0.00000000000E+00 -0.00000000000E+00 -0.63629973423E+02  0.63629973423E+02  0.00000000000E+00 0.  1.
         25    1    1    2    0    0  0.10160006388E+03 -0.49427172923E+02  0.11138013503E+03  0.20198057551E+03  0.12500000000E+03 0.  0.
         25    1    1    2    0    0 -0.10160006388E+03  0.49427172923E+02  0.36889066000E+03  0.40555016637E+03  0.12500000000E+03 0.  0.
</event>
<event>
 4    0  0.2205135E-002  0.2218007E+03  0.7546771E-02  0.1132548E+00
         21   -1    0    0  502  501  0.00000000000E+00  0.00000000000E+00  0.49130545272E+02  0.49130545272E+02  0.00000000000E+00 0.  1.
         21   -1    0    0  501  502 -0.00000000000E+00 -0.00000000000E+00 -0.10013226761E+04  0.10013226761E+04  0.00000000000E+00 0.  1.
         25    1    1    2    0    0  0.61709809268E+02  0.71604454277E+02 -0.84777009829E+03  0.86213365437E+03  0.12500000000E+03 0.  0.
         25    1    1    2    0    0 -0.61709809268E+02 -0.71604454277E+02 -0.10442203250E+03  0.18831956697E+03  0.12500000000E+03 0.  0.
</event>
<event>
 4    0  0.2205135E-002  0.2390687E+03  0.7546771E-02  0.1120415E+00
         21   -1    0    0  502  501  0.00000000000E+00  0.00000000000E+00  0.18958681951E+03  0.18958681951E+03  0.00000000000E+00 0.  1.
         21   -1    0    0  501  502 -0.00000000000E+00 -0.00000000000E+00 -0.30146539732E+03  0.30146539732E+03  0.00000000000E+00 0.  1.
         25    1    1    2    0    0  0.99171109801E+02 -0.56846449412E+02 -0.22920432117E+03  0.28500183977E+03  0.12500000000E+03 0.  0.
         25    1    1    2    0    0 -0.99171109801E+02  0.56846449412E+02  0.11732574337E+03  0.20605037706E+03  0.12500000000E+03 0.  0.
</event>
<event>
 4    0  0.2205135E-002  0.1637135E+03  0.7546771E-02  0.1184567E+00
         21   -1    0    0  502  501  0.00000000000E+00  0.00000000000E+00  0.67276731104E+02  0.67276731104E+02  0.00000000000E+00 0. -1.
         21   -1    0    0  501  502 -0.00000000000E+00 -0.00000000000E+00 -0.39838585096E+03  0.39838585096E+03  0.00000000000E+00 0. -1.
         25    1    1    2    0    0  0.48608284054E+02  0.36881985721E+02 -0.28834177542E+03  0.32013907228E+03  0.12500000000E+03 0.  0.
         25    1    1    2    0    0 -0.48608284054E+02 -0.36881985721E+02 -0.42767344436E+02  0.14552350978E+03  0.12500000000E+03 0.  0.
</event>
<event>
 4    0  0.2205135E-002  0.2192094E+03  0.7546771E-02  0.1134474E+00
         21   -1    0    0  502  501  0.00000000000E+00  0.00000000000E+00  0.36754387441E+02  0.36754387441E+02  0.00000000000E+00 0.  1.
         21   -1    0    0  501  502 -0.00000000000E+00 -0.00000000000E+00 -0.13074015319E+04  0.13074015319E+04  0.00000000000E+00 0.  1.
         25    1    1    2    0    0 -0.52677295468E+02 -0.32800179081E+02 -0.11536087991E+04  0.11620193676E+04  0.12500000000E+03 0.  0.
         25    1    1    2    0    0  0.52677295468E+02  0.32800179081E+02 -0.11703834530E+03  0.18213655173E+03  0.12500000000E+03 0.  0.
</event>
<event>
 4    0  0.2205135E-002  0.2314995E+03  0.7546771E-02  0.1125589E+00
         21   -1    0    0  502  501  0.00000000000E+00  0.00000000000E+00  0.72187976914E+03  0.72187976914E+03  0.00000000000E+00 0.  1.
         21   -1    0    0  501  502 -0.00000000000E+00 -0.00000000000E+00 -0.74239554559E+02  0.74239554559E+02  0.00000000000E+00 0.  1.
         25    1    1    2    0    0  0.19157415739E+03  0.27965128278E+02  0.36166149838E+03  0.42884349779E+03  0.12500000000E+03 0.  0.
         25    1    1    2    0    0 -0.19157415739E+03 -0.27965128278E+02  0.28597871620E+03  0.36727582591E+03  0.12500000000E+03 0.  0.
</event>
<event>
 4    0  0.2205135E-002  0.2054765E+03  0.7546771E-02  0.1145199E+00
         21   -1    0    0  502  501  0.00000000000E+00  0.00000000000E+00  0.15702967380E+03  0.15702967380E+03  0.00000000000E+00 0. -1.
         21   -1    0    0  501  502 -0.00000000000E+00 -0.00000000000E+00 -0.26887008976E+03  0.26887008976E+03  0.00000000000E+00 0. -1.
         25    1    1    2    0    0  0.12088944624E+03  0.99682402607E+02 -0.90567160575E+01  0.20064362364E+03  0.12500000000E+03 0.  0.
         25    1    1    2    0    0 -0.12088944624E+03 -0.99682402607E+02 -0.10278369991E+03  0.22525613991E+03  0.12500000000E+03 0.  0.
</event>
<event>
 4    0  0.2205135E-002  0.2180885E+03  0.7546771E-02  0.1135316E+00
         21   -1    0    0  502  501  0.00000000000E+00  0.00000000000E+00  0.88843044490E+02  0.88843044490E+02  0.00000000000E+00 0. -1.
         21   -1    0    0  501  502 -0.00000000000E+00 -0.00000000000E+00 -0.53535511013E+03  0.53535511013E+03  0.00000000000E+00 0. -1.
         25    1    1    2    0    0 -0.34877239406E+02 -0.15134176711E+03 -0.96731424207E+02  0.22159133722E+03  0.12500000000E+03 0.  0.
         25    1    1    2    0    0  0.34877239406E+02  0.15134176711E+03 -0.34978064143E+03  0.40260681740E+03  0.12500000000E+03 0.  0.
</event>
<event>
 4    0  0.2205135E-002  0.3039891E+03  0.7546771E-02  0.1083263E+00
         21   -1    0    0  502  501  0.00000000000E+00  0.00000000000E+00  0.27699250888E+03  0.27699250888E+03  0.00000000000E+00 0. -1.
         21   -1    0    0  501  502 -0.00000000000E+00 -0.00000000000E+00 -0.33361685698E+03  0.33361685698E+03  0.00000000000E+00 0. -1.
         25    1    1    2    0    0  0.85874016801E+02  0.11948720558E+03  0.20750781124E+03  0.28343611411E+03  0.12500000000E+03 0.  0.
         25    1    1    2    0    0 -0.85874016801E+02 -0.11948720558E+03 -0.26413215934E+03  0.32717325175E+03  0.12500000000E+03 0.  0.
</event>
<event>
 4    0  0.2205135E-002  0.1592115E+03  0.7546771E-02  0.1189590E+00
         21   -1    0    0  502  501  0.00000000000E+00  0.00000000000E+00  0.71454286892E+03  0.71454286892E+03  0.00000000000E+00 0.  1.
         21   -1    0    0  501  502 -0.00000000000E+00 -0.00000000000E+00 -0.35474834650E+02  0.35474834650E+02  0.00000000000E+00 0.  1.
         25    1    1    2    0    0 -0.42653813049E+02 -0.79108429953E+02  0.43508948377E+03  0.46152502678E+03  0.12500000000E+03 0.  0.
         25    1    1    2    0    0  0.42653813049E+02  0.79108429953E+02  0.24397855050E+03  0.28849267679E+03  0.12500000000E+03 0.  0.
</event>
<event>
 4    0  0.2205135E-002  0.2060537E+03  0.7546771E-02  0.1144730E+00
         21   -1    0    0  502  501  0.00000000000E+00  0.00000000000E+00  0.39590397668E+03  0.39590397668E+03  0.00000000000E+00 0. -1.
         21   -1    0    0  501  502 -0.00000000000E+00 -0.00000000000E+00 -0.10724354931E+03  0.10724354931E+03  0.00000000000E+00 0. -1.
         25    1    1    2    0    0 -0.98739981911E+02 -0.73063888256E+02  0.12013221038E+02  0.17566227049E+03  0.12500000000E+03 0.  0.
         25    1    1    2    0    0  0.98739981911E+02  0.73063888256E+02  0.27664720633E+03  0.32748525549E+03  0.12500000000E+03 0.  0.
</event>
<event>
 4    0  0.2205135E-002  0.5868833E+03  0.7546771E-02  0.9932999E-01
         21   -1    0    0  502  501  0.00000000000E+00  0.00000000000E+00  0.10545506048E+04  0.10545506048E+04  0.00000000000E+00 0. -1.
         21   -1    0    0  501  502 -0.00000000000E+00 -0.00000000000E+00 -0.32661498414E+03  0.32661498414E+03  0.00000000000E+00 0. -1.
         25    1    1    2    0    0  0.94829554571E+02 -0.55853729209E+03  0.25970917428E+03  0.63563386181E+03  0.12500000000E+03 0.  0.
         25    1    1    2    0    0 -0.94829554571E+02  0.55853729209E+03  0.46822644637E+03  0.74553172712E+03  0.12500000000E+03 0.  0.
</event>
<event>
 4    0  0.2205135E-002  0.2094217E+03  0.7546771E-02  0.1142025E+00
         21   -1    0    0  502  501  0.00000000000E+00  0.00000000000E+00  0.79465817440E+02  0.79465817440E+02  0.00000000000E+00 0.  1.
         21   -1    0    0  501  502 -0.00000000000E+00 -0.00000000000E+00 -0.55190335637E+03  0.55190335637E+03  0.00000000000E+00 0.  1.
         25    1    1    2    0    0  0.36917859246E+01 -0.41182572886E+01  0.16926942281E+02  0.12626207151E+03  0.12500000000E+03 0.  0.
         25    1    1    2    0    0 -0.36917859246E+01  0.41182572886E+01 -0.48936448121E+03  0.50510710231E+03  0.12500000000E+03 0.  0.
</event>
<event>
 4    0  0.2205135E-002  0.2353623E+03  0.7546771E-02  0.1122921E+00
         21   -1    0    0  502  501  0.00000000000E+00  0.00000000000E+00  0.16128426772E+03  0.16128426772E+03  0.00000000000E+00 0.  1.
         21   -1    0    0  501  502 -0.00000000000E+00 -0.00000000000E+00 -0.34346449031E+03  0.34346449031E+03  0.00000000000E+00 0.  1.
         25    1    1    2    0    0 -0.19055507130E+03  0.22606298153E+02 -0.32868756324E+02  0.23136040080E+03  0.12500000000E+03 0.  0.
         25    1    1    2    0    0  0.19055507130E+03 -0.22606298153E+02 -0.14931146627E+03  0.27338835724E+03  0.12500000000E+03 0.  0.
</event>
<event>
 4    0  0.2205135E-002  0.2115211E+03  0.7546771E-02  0.1140367E+00
         21   -1    0    0  502  501  0.00000000000E+00  0.00000000000E+00  0.18392479123E+03  0.18392479123E+03  0.00000000000E+00 0. -1.
         21   -1    0    0  501  502 -0.00000000000E+00 -0.00000000000E+00 -0.24325797480E+03  0.24325797480E+03  0.00000000000E+00 0. -1.
         25    1    1    2    0    0  0.15008799847E+03 -0.12914265527E+02 -0.11059454558E+03  0.22483180168E+03  0.12500000000E+03 0.  0.
         25    1    1    2    0    0 -0.15008799847E+03  0.12914265527E+02  0.51261362004E+02  0.20235096435E+03  0.12500000000E+03 0.  0.
</event>
<event>
 4    0  0.2205135E-002  0.2751824E+03  0.7546771E-02  0.1098350E+00
         21   -1    0    0  502  501  0.00000000000E+00  0.00000000000E+00  0.92127592985E+02  0.92127592985E+02  0.00000000000E+00 0. -1.
         21   -1    0    0  501  502 -0.00000000000E+00 -0.00000000000E+00 -0.82196141340E+03  0.82196141340E+03  0.00000000000E+00 0. -1.
         25    1    1    2    0    0 -0.72151659179E+01 -0.24409807053E+03 -0.40070874528E+03  0.48562168939E+03  0.12500000000E+03 0.  0.
         25    1    1    2    0    0  0.72151659179E+01  0.24409807053E+03 -0.32912507513E+03  0.42846731700E+03  0.12500000000E+03 0.  0.
</event>
<event>
 4    0  0.2205135E-002  0.1857554E+03  0.7546771E-02  0.1162346E+00
         21   -1    0    0  502  501  0.00000000000E+00  0.00000000000E+00  0.43287872538E+03  0.43287872538E+03  0.00000000000E+00 0. -1.
         21   -1    0    0  501  502 -0.00000000000E+00 -0.00000000000E+00 -0.79710729536E+02  0.79710729536E+02  0.00000000000E+00 0. -1.
         25    1    1    2    0    0  0.12543744031E+03 -0.46654900209E+02  0.13363767850E+03  0.22670522769E+03  0.12500000000E+03 0.  0.
         25    1    1    2    0    0 -0.12543744031E+03  0.46654900209E+02  0.21953031734E+03  0.28588422723E+03  0.12500000000E+03 0.  0.
</event>
<event>
 4    0  0.2205135E-002  0.1941115E+03  0.7546771E-02  0.1154804E+00
         21   -1    0    0  502  501  0.00000000000E+00  0.00000000000E+00  0.95910721745E+02  0.95910721745E+02  0.00000000000E+00 0. -1.
         21   -1    0    0  501  502 -0.00000000000E+00 -0.00000000000E+00 -0.39285767464E+03  0.39285767464E+03  0.00000000000E+00 0. -1.
         25    1    1    2    0    0 -0.91318516682E+02  0.10571463293E+03 -0.21191962519E+03  0.28293034946E+03  0.12500000000E+03 0.  0.
         25    1    1    2    0    0  0.91318516682E+02 -0.10571463293E+03 -0.85027327699E+02  0.20583804692E+03  0.12500000000E+03 0.  0.
</event>
<event>
 4    0  0.2205135E-002  0.1976340E+03  0.7546771E-02  0.1151751E+00
         21   -1    0    0  502  501  0.00000000000E+00  0.00000000000E+00  0.10598057656E+04  0.10598057656E+04  0.00000000000E+00 0. -1.
         21   -1    0    0  501  502 -0.00000000000E+00 -0.00000000000E+00 -0.36855068692E+02  0.36855068692E+02  0.00000000000E+00 0. -1.
         25    1    1    2    0    0 -0.11777356540E+03  0.66170151790E+02  0.71125887840E+03  0.73468584701E+03  0.12500000000E+03 0.  0.
         25    1    1    2    0    0  0.11777356540E+03 -0.66170151790E+02  0.31169181851E+03  0.36197498729E+03  0.12500000000E+03 0.  0.
</event>
<event>
 4    0  0.2205135E-002  0.2211165E+03  0.7546771E-02  0.1133053E+00
         21   -1    0    0  502  501  0.00000000000E+00  0.00000000000E+00  0.52360262548E+02  0.52360262548E+02  0.00000000000E+00 0.  1.
         21   -1    0    0  501  502 -0.00000000000E+00 -0.00000000000E+00 -0.93377134964E+03  0.93377134964E+03  0.00000000000E+00 0.  1.
         25    1    1    2    0    0 -0.17820895238E+03 -0.17193574681E+02 -0.51838336379E+03  0.56249476582E+03  0.12500000000E+03 0.  0.
         25    1    1    2    0    0  0.17820895238E+03  0.17193574681E+02 -0.36302772330E+03  0.42363684637E+03  0.12500000000E+03 0.  0.
</event>
<event>
 4    0  0.2205135E-002  0.1799452E+03  0.7546771E-02  0.1167856E+00
         21   -1    0    0  502  501  0.00000000000E+00  0.00000000000E+00  0.15928932106E+03  0.15928932106E+03  0.00000000000E+00 0.  1.
         21   -1    0    0  501  502 -0.00000000000E+00 -0.00000000000E+00 -0.20327970251E+03  0.20327970251E+03  0.00000000000E+00 0.  1.
         25    1    1    2    0    0  0.10168338796E+03  0.54042419623E+02  0.37564966735E+02  0.17405809729E+03  0.12500000000E+03 0.  0.
         25    1    1    2    0    0 -0.10168338796E+03 -0.54042419623E+02 -0.81555348187E+02  0.18851092627E+03  0.12500000000E+03 0.  0.
</event>
<event>
 4    0  0.2205135E-002  0.2757433E+03  0.7546771E-02  0.1098037E+00
         21   -1    0    0  502  501  0.00000000000E+00  0.00000000000E+00  0.57745042957E+02  0.57745042957E+02  0.00000000000E+00 0. -1.
         21   -1    0    0  501  502 -0.00000000000E+00 -0.00000000000E+00 -0.13167253560E+04  0.13167253560E+04  0.00000000000E+00 0. -1.
         25    1    1    2    0    0 -0.24402657381E+03  0.94916569461E+00 -0.70255719647E+03  0.75416277020E+03  0.12500000000E+03 0.  0.
         25    1    1    2    0    0  0.24402657381E+03 -0.94916569461E+00 -0.55642311662E+03  0.62030762880E+03  0.12500000000E+03 0.  0.
</event>
<event>
 4    0  0.2205135E-002  0.1882335E+03  0.7546771E-02  0.1160064E+00
         21   -1    0    0  502  501  0.00000000000E+00  0.00000000000E+00  0.87626883412E+02  0.87626883412E+02  0.00000000000E+00 0. -1.
         21   -1    0    0  501  502 -0.00000000000E+00 -0.00000000000E+00 -0.40434927968E+03  0.40434927968E+03  0.00000000000E+00 0. -1.
         25    1    1    2    0    0 -0.40239923085E+02 -0.11956676709E+03 -0.23988233087E+03  0.29846942199E+03  0.12500000000E+03 0.  0.
         25    1    1    2    0    0  0.40239923085E+02  0.11956676709E+03 -0.76840065399E+02  0.19350674110E+03  0.12500000000E+03 0.  0.
</event>
<event>
 4    0  0.2205135E-002  0.4098605E+03  0.7546771E-02  0.1040418E+00
         21   -1    0    0  502  501  0.00000000000E+00  0.00000000000E+00  0.19938294148E+03  0.19938294148E+03  0.00000000000E+00 0. -1.
         21   -1    0    0  501  502 -0.00000000000E+00 -0.00000000000E+00 -0.84252753818E+03  0.84252753818E+03  0.00000000000E+00 0. -1.
         25    1    1    2    0    0  0.36089259522E+03  0.42765250415E+02 -0.14052708467E+03  0.40920067626E+03  0.12500000000E+03 0.  0.
         25    1    1    2    0    0 -0.36089259522E+03 -0.42765250415E+02 -0.50261751203E+03  0.63270980340E+03  0.12500000000E+03 0.  0.
</event>
<event>
 4    0  0.2205135E-002  0.1805709E+03  0.7546771E-02  0.1167252E+00
         21   -1    0    0  502  501  0.00000000000E+00  0.00000000000E+00  0.44467030067E+03  0.44467030067E+03  0.00000000000E+00 0.  1.
         21   -1    0    0  501  502 -0.00000000000E+00 -0.00000000000E+00 -0.73325872840E+02  0.73325872840E+02  0.00000000000E+00 0.  1.
         25    1    1    2    0    0  0.63391762436E+02  0.82838879846E+02  0.29769730321E+03  0.33930735314E+03  0.12500000000E+03 0.  0.
         25    1    1    2    0    0 -0.63391762436E+02 -0.82838879846E+02  0.73647124618E+02  0.17868882036E+03  0.12500000000E+03 0.  0.
</event>
<event>
 4    0  0.2205135E-002  0.2446569E+03  0.7546771E-02  0.1116729E+00
         21   -1    0    0  502  501  0.00000000000E+00  0.00000000000E+00  0.38444170316E+02  0.38444170316E+02  0.00000000000E+00 0.  1.
         21   -1    0    0  501  502 -0.00000000000E+00 -0.00000000000E+00 -0.15569848703E+04  0.15569848703E+04  0.00000000000E+00 0.  1.
         25    1    1    2    0    0 -0.19633208530E+03  0.59450970256E+02 -0.91050075834E+03  0.94165669781E+03  0.12500000000E+03 0.  0.
         25    1    1    2    0    0  0.19633208530E+03 -0.59450970256E+02 -0.60803994160E+03  0.65377234277E+03  0.12500000000E+03 0.  0.
</event>
<event>
 4    0  0.2205135E-002  0.2929034E+03  0.7546771E-02  0.1088843E+00
         21   -1    0    0  502  501  0.00000000000E+00  0.00000000000E+00  0.98286273189E+03  0.98286273189E+03  0.00000000000E+00 0. -1.
         21   -1    0    0  501  502 -0.00000000000E+00 -0.00000000000E+00 -0.87288280088E+02  0.87288280088E+02  0.00000000000E+00 0. -1.
         25    1    1    2    0    0  0.24618294126E+03  0.18150930606E+02  0.62331111302E+03  0.68196571796E+03  0.12500000000E+03 0.  0.
         25    1    1    2    0    0 -0.24618294126E+03 -0.18150930606E+02  0.27226333878E+03  0.38818529402E+03  0.12500000000E+03 0.  0.
</event>
<event>
 4    0  0.2205135E-002  0.1611598E+03  0.7546771E-02  0.1187394E+00
         21   -1    0    0  502  501  0.00000000000E+00  0.00000000000E+00  0.59567467670E+03  0.59567467670E+03  0.00000000000E+00 0.  1.
         21   -1    0    0  501  502 -0.00000000000E+00 -0.00000000000E+00 -0.43601803874E+02  0.43601803874E+02  0.00000000000E+00 0.  1.
         25    1    1    2    0    0  0.38253073817E+02 -0.63110301024E+02  0.13718294355E+03  0.19972573132E+03  0.12500000000E+03 0.  0.
         25    1    1    2    0    0 -0.38253073817E+02  0.63110301024E+02  0.41488992928E+03  0.43955074925E+03  0.12500000000E+03 0.  0.
</event>
<event>
 4    0  0.2205135E-002  0.2141148E+03  0.7546771E-02  0.1138348E+00
         21   -1    0    0  502  501  0.00000000000E+00  0.00000000000E+00  0.37521220801E+02  0.37521220801E+02  0.00000000000E+00 0. -1.
         21   -1    0    0  501  502 -0.00000000000E+00 -0.00000000000E+00 -0.12218457409E+04  0.12218457409E+04  0.00000000000E+00 0. -1.
         25    1    1    2    0    0 -0.92290284659E+02  0.14705642547E+03 -0.61797747837E+03  0.65396043664E+03  0.12500000000E+03 0.  0.
         25    1    1    2    0    0  0.92290284659E+02 -0.14705642547E+03 -0.56634704173E+03  0.60540652506E+03  0.12500000000E+03 0.  0.
</event>
<event>
 4    0  0.2205135E-002  0.1987387E+03  0.7546771E-02  0.1150808E+00
         21   -1    0    0  502  501  0.00000000000E+00  0.00000000000E+00  0.17002785733E+04  0.17002785733E+04  0.00000000000E+00 0. -1.
         21   -1    0    0  501  502 -0.00000000000E+00 -0.00000000000E+00 -0.23229756697E+02  0.23229756697E+02  0.00000000000E+00 0. -1.
         25    1    1    2    0    0  0.91229785527E+02  0.22233003771E+01  0.29791229009E+03  0.33571498242E+03  0.12500000000E+03 0.  0.
         25    1    1    2    0    0 -0.91229785527E+02 -0.22233003771E+01  0.13791365265E+04  0.13877933476E+04  0.12500000000E+03 0.  0.
</event>
<event>
 4    0  0.2205135E-002  0.2143316E+03  0.7546771E-02  0.1138181E+00
         21   -1    0    0  502  501  0.00000000000E+00  0.00000000000E+00  0.13619058534E+04  0.13619058534E+04  0.00000000000E+00 0. -1.
         21   -1    0    0  501  502 -0.00000000000E+00 -0.00000000000E+00 -0.33730701898E+02  0.33730701898E+02  0.00000000000E+00 0. -1.
         25    1    1    2    0    0  0.57112169411E+02  0.48174721905E+01  0.11993457688E+04  0.12072034961E+04  0.12500000000E+03 0.  0.
         25    1    1    2    0    0 -0.57112169411E+02 -0.48174721905E+01  0.12882938264E+03  0.18843305911E+03  0.12500000000E+03 0.  0.
</event>
<event>
 4    0  0.2205135E-002  0.1746332E+03  0.7546771E-02  0.1173100E+00
         21   -1    0    0  502  501  0.00000000000E+00  0.00000000000E+00  0.24057974012E+02  0.24057974012E+02  0.00000000000E+00 0. -1.
         21   -1    0    0  501  502 -0.00000000000E+00 -0.00000000000E+00 -0.12676361684E+04  0.12676361684E+04  0.00000000000E+00 0. -1.
         25    1    1    2    0    0  0.47814779599E+02  0.93935427810E+02 -0.39496380073E+03  0.42747107696E+03  0.12500000000E+03 0.  0.
         25    1    1    2    0    0 -0.47814779599E+02 -0.93935427810E+02 -0.84861439365E+03  0.86422306545E+03  0.12500000000E+03 0.  0.
</event>
<event>
 4    0  0.2205135E-002  0.1751400E+03  0.7546771E-02  0.1172591E+00
         21   -1    0    0  502  501  0.00000000000E+00  0.00000000000E+00  0.13131262555E+03  0.13131262555E+03  0.00000000000E+00 0. -1.
         21   -1    0    0  501  502 -0.00000000000E+00 -0.00000000000E+00 -0.23359541352E+03  0.23359541352E+03  0.00000000000E+00 0. -1.
         25    1    1    2    0    0 -0.73693523355E+02  0.94951157546E+02 -0.25568989786E+02  0.17528614019E+03  0.12500000000E+03 0.  0.
         25    1    1    2    0    0  0.73693523355E+02 -0.94951157546E+02 -0.76713798178E+02  0.18962189888E+03  0.12500000000E+03 0.  0.
</event>
<event>
 4    0  0.2205135E-002  0.3248897E+03  0.7546771E-02  0.1073421E+00
         21   -1    0    0  502  501  0.00000000000E+00  0.00000000000E+00  0.88657212426E+02  0.88657212426E+02  0.00000000000E+00 0.  1.
         21   -1    0    0  501  502 -0.00000000000E+00 -0.00000000000E+00 -0.11905780267E+04  0.11905780267E+04  0.00000000000E+00 0. -1.
         25    1    1    2    0    0  0.12121812540E+03  0.26976058954E+03 -0.64867964605E+03  0.72379202316E+03  0.12500000000E+03 0.  0.
         25    1    1    2    0    0 -0.12121812540E+03 -0.26976058954E+03 -0.45324116824E+03  0.55544321598E+03  0.12500000000E+03 0.  0.
</event>
<event>
 4    0  0.2205135E-002  0.1964663E+03  0.7546771E-02  0.1152755E+00
         21   -1    0    0  502  501  0.00000000000E+00  0.00000000000E+00  0.90271374873E+02  0.90271374873E+02  0.00000000000E+00 0. -1.
         21   -1    0    0  501  502 -0.00000000000E+00 -0.00000000000E+00 -0.42758840046E+03  0.42758840046E+03  0.00000000000E+00 0. -1.
         25    1    1    2    0    0  0.65617740878E+02 -0.10846430521E+03 -0.27816460411E+03  0.33025859626E+03  0.12500000000E+03 0.  0.
         25    1    1    2    0    0 -0.65617740878E+02  0.10846430521E+03 -0.59152421477E+02  0.18760117907E+03  0.12500000000E+03 0.  0.
</event>
<event>
 4    0  0.2205135E-002  0.1958741E+03  0.7546771E-02  0.1153267E+00
         21   -1    0    0  502  501  0.00000000000E+00  0.00000000000E+00  0.10649190745E+04  0.10649190745E+04  0.00000000000E+00 0. -1.
         21   -1    0    0  501  502 -0.00000000000E+00 -0.00000000000E+00 -0.36027760568E+02  0.36027760568E+02  0.00000000000E+00 0. -1.
         25    1    1    2    0    0  0.12182066723E+03 -0.78741399465E+02  0.63035883791E+03  0.65880023337E+03  0.12500000000E+03 0.  0.
         25    1    1    2    0    0 -0.12182066723E+03  0.78741399465E+02  0.39853247603E+03  0.44214660171E+03  0.12500000000E+03 0.  0.
</event>
<event>
 4    0  0.2205135E-002  0.2368489E+03  0.7546771E-02  0.1121910E+00
         21   -1    0    0  502  501  0.00000000000E+00  0.00000000000E+00  0.30976677128E+03  0.30976677128E+03  0.00000000000E+00 0. -1.
         21   -1    0    0  501  502 -0.00000000000E+00 -0.00000000000E+00 -0.18109564861E+03  0.18109564861E+03  0.00000000000E+00 0. -1.
         25    1    1    2    0    0  0.15845559239E+02 -0.12224545822E+03  0.22908517307E+03  0.28861748097E+03  0.12500000000E+03 0.  0.
         25    1    1    2    0    0 -0.15845559239E+02  0.12224545822E+03 -0.10041405040E+03  0.20224493892E+03  0.12500000000E+03 0.  0.
</event>
<event>
 4    0  0.2205135E-002  0.2558628E+03  0.7546771E-02  0.1109655E+00
         21   -1    0    0  502  501  0.00000000000E+00  0.00000000000E+00  0.33184031992E+03  0.33184031992E+03  0.00000000000E+00 0. -1.
         21   -1    0    0  501  502 -0.00000000000E+00 -0.00000000000E+00 -0.19728096827E+03  0.19728096827E+03  0.00000000000E+00 0. -1.
         25    1    1    2    0    0 -0.54467392603E+02  0.58617813866E+02  0.28278259177E+03  0.31936458659E+03  0.12500000000E+03 0.  0.
         25    1    1    2    0    0  0.54467392603E+02 -0.58617813866E+02 -0.14822324012E+03  0.20975670161E+03  0.12500000000E+03 0.  0.
</event>
<event>
 4    0  0.2205135E-002  0.1817496E+03  0.7546771E-02  0.1166120E+00
         21   -1    0    0  502  501  0.00000000000E+00  0.00000000000E+00  0.75355117688E+03  0.75355117688E+03  0.00000000000E+00 0.  1.
         21   -1    0    0  501  502 -0.00000000000E+00 -0.00000000000E+00 -0.43836345957E+02  0.43836345957E+02  0.00000000000E+00 0. -1.
         25    1    1    2    0    0 -0.10035836051E+03 -0.80458587351E+02  0.29043205703E+03  0.34135196580E+03  0.12500000000E+03 0.  0.
         25    1    1    2    0    0  0.10035836051E+03  0.80458587351E+02  0.41928277390E+03  0.45603555704E+03  0.12500000000E+03 0.  0.
</event>
<event>
 4    0  0.2205135E-002  0.2011300E+03  0.7546771E-02  0.1148789E+00
         21   -1    0    0  502  501  0.00000000000E+00  0.00000000000E+00  0.72289138444E+03  0.72289138444E+03  0.00000000000E+00 0. -1.
         21   -1    0    0  501  502 -0.00000000000E+00 -0.00000000000E+00 -0.55960357811E+02  0.55960357811E+02  0.00000000000E+00 0. -1.
         25    1    1    2    0    0 -0.18288908444E+02 -0.12875355255E+03  0.16119572076E+03  0.24191118589E+03  0.12500000000E+03 0.  0.
         25    1    1    2    0    0  0.18288908444E+02  0.12875355255E+03  0.50573530587E+03  0.53694055636E+03  0.12500000000E+03 0.  0.
</event>
<event>
 4    0  0.2205135E-002  0.2257678E+03  0.7546771E-02  0.1129655E+00
         21   -1    0    0  502  501  0.00000000000E+00  0.00000000000E+00  0.13453992035E+03  0.13453992035E+03  0.00000000000E+00 0.  1.
         21   -1    0    0  501  502 -0.00000000000E+00 -0.00000000000E+00 -0.37885495994E+03  0.37885495994E+03  0.00000000000E+00 0.  1.
         25    1    1    2    0    0  0.88240782010E+01 -0.16721807085E+03 -0.21934498471E+03  0.30294714042E+03  0.12500000000E+03 0.  0.
         25    1    1    2    0    0 -0.88240782010E+01  0.16721807085E+03 -0.24970054883E+02  0.21044773987E+03  0.12500000000E+03 0.  0.
</event>
<event>
 4    0  0.2205135E-002  0.2841965E+03  0.7546771E-02  0.1093419E+00
         21   -1    0    0  502  501  0.00000000000E+00  0.00000000000E+00  0.13747848236E+03  0.13747848236E+03  0.00000000000E+00 0. -1.
         21   -1    0    0  501  502 -0.00000000000E+00 -0.00000000000E+00 -0.58749315387E+03  0.58749315387E+03  0.00000000000E+00 0. -1.
         25    1    1    2    0    0  0.69090980766E+02 -0.10517747149E+03  0.58213808213E+02  0.18668077459E+03  0.12500000000E+03 0.  0.
         25    1    1    2    0    0 -0.69090980766E+02  0.10517747149E+03 -0.50822847972E+03  0.53829086164E+03  0.12500000000E+03 0.  0.
</event>
<event>
 4    0  0.2205135E-002  0.2380791E+03  0.7546771E-02  0.1121079E+00
         21   -1    0    0  502  501  0.00000000000E+00  0.00000000000E+00  0.29459079948E+02  0.29459079948E+02  0.00000000000E+00 0. -1.
         21   -1    0    0  501  502 -0.00000000000E+00 -0.00000000000E+00 -0.19240810200E+04  0.19240810200E+04  0.00000000000E+00 0. -1.
         25    1    1    2    0    0  0.16701794561E+02 -0.19985264620E+02 -0.17717244044E+04  0.17763194324E+04  0.12500000000E+03 0.  0.
         25    1    1    2    0    0 -0.16701794561E+02  0.19985264620E+02 -0.12289753568E+03  0.17722066759E+03  0.12500000000E+03 0.  0.
</event>
<event>
 4    0  0.2205135E-002  0.2455113E+03  0.7546771E-02  0.1116175E+00
         21   -1    0    0  502  501  0.00000000000E+00  0.00000000000E+00  0.65283288875E+03  0.65283288875E+03  0.00000000000E+00 0. -1.
         21   -1    0    0  501  502 -0.00000000000E+00 -0.00000000000E+00 -0.92329598237E+02  0.92329598237E+02  0.00000000000E+00 0. -1.
         25    1    1    2    0    0 -0.96007908533E+02 -0.42372217579E+02  0.19192362489E+01  0.16322256827E+03  0.12500000000E+03 0.  0.
         25    1    1    2    0    0  0.96007908533E+02  0.42372217579E+02  0.55858405427E+03  0.58193991873E+03  0.12500000000E+03 0.  0.
</event>
<event>
 4    0  0.2205135E-002  0.3447563E+03  0.7546771E-02  0.1064788E+00
         21   -1    0    0  502  501  0.00000000000E+00  0.00000000000E+00  0.13843830423E+03  0.13843830423E+03  0.00000000000E+00 0. -1.
         21   -1    0    0  501  502 -0.00000000000E+00 -0.00000000000E+00 -0.85855528354E+03  0.85855528354E+03  0.00000000000E+00 0. -1.
         25    1    1    2    0    0  0.17384476851E+03 -0.31975534052E+02 -0.74801107006E+03  0.77871047203E+03  0.12500000000E+03 0.  0.
         25    1    1    2    0    0 -0.17384476851E+03  0.31975534052E+02  0.27894090748E+02  0.21828311573E+03  0.12500000000E+03 0.  0.
</event>
<event>
 4    0  0.2205135E-002  0.2163144E+03  0.7546771E-02  0.1136661E+00
         21   -1    0    0  502  501  0.00000000000E+00  0.00000000000E+00  0.99436907546E+02  0.99436907546E+02  0.00000000000E+00 0.  1.
         21   -1    0    0  501  502 -0.00000000000E+00 -0.00000000000E+00 -0.47056899110E+03  0.47056899110E+03  0.00000000000E+00 0.  1.
         25    1    1    2    0    0  0.58083092846E+02  0.63358519504E+02  0.17604381677E+02  0.15271824358E+03  0.12500000000E+03 0.  0.
         25    1    1    2    0    0 -0.58083092846E+02 -0.63358519504E+02 -0.38873646523E+03  0.41728765507E+03  0.12500000000E+03 0.  0.
</event>
<event>
 4    0  0.2205135E-002  0.2089708E+03  0.7546771E-02  0.1142384E+00
         21   -1    0    0  502  501  0.00000000000E+00  0.00000000000E+00  0.26628816418E+03  0.26628816418E+03  0.00000000000E+00 0. -1.
         21   -1    0    0  501  502 -0.00000000000E+00 -0.00000000000E+00 -0.16399073249E+03  0.16399073249E+03  0.00000000000E+00 0. -1.
         25    1    1    2    0    0  0.53791717594E+02  0.46039951420E+02 -0.10508931731E+03  0.17799435559E+03  0.12500000000E+03 0.  0.
         25    1    1    2    0    0 -0.53791717594E+02 -0.46039951420E+02  0.20738674900E+03  0.25228454108E+03  0.12500000000E+03 0.  0.
</event>
<event>
 4    0  0.2205135E-002  0.2735022E+03  0.7546771E-02  0.1099292E+00
         21   -1    0    0  502  501  0.00000000000E+00  0.00000000000E+00  0.46441256789E+03  0.46441256789E+03  0.00000000000E+00 0. -1.
         21   -1    0    0  501  502 -0.00000000000E+00 -0.00000000000E+00 -0.16107114715E+03  0.16107114715E+03  0.00000000000E+00 0. -1.
         25    1    1    2    0    0 -0.10982987879E+03 -0.21663632402E+03  0.13613608138E+03  0.30520801400E+03  0.12500000000E+03 0.  0.
         25    1    1    2    0    0  0.10982987879E+03  0.21663632402E+03  0.16720533936E+03  0.32027570103E+03  0.12500000000E+03 0.  0.
</event>
<event>
 4    0  0.2205135E-002  0.2674739E+03  0.7546771E-02  0.1102734E+00
         21   -1    0    0  502  501  0.00000000000E+00  0.00000000000E+00  0.53770001351E+02  0.53770001351E+02  0.00000000000E+00 0.  1.
         21   -1    0    0  501  502 -0.00000000000E+00 -0.00000000000E+00 -0.13305246410E+04  0.13305246410E+04  0.00000000000E+00 0.  1.
         25    1    1    2    0    0 -0.12829317429E+03  0.19164284247E+03 -0.50314100093E+03  0.56741694058E+03  0.12500000000E+03 0.  0.
         25    1    1    2    0    0  0.12829317429E+03 -0.19164284247E+03 -0.77361363868E+03  0.81687770173E+03  0.12500000000E+03 0.  0.
</event>
<event>
 4    0  0.2205135E-002  0.2765510E+03  0.7546771E-02  0.1097588E+00
         21   -1    0    0  502  501  0.00000000000E+00  0.00000000000E+00  0.10940950568E+04  0.10940950568E+04  0.00000000000E+00 0.  1.
         21   -1    0    0  501  502 -0.00000000000E+00 -0.00000000000E+00 -0.69902927083E+02  0.69902927083E+02  0.00000000000E+00 0.  1.
         25    1    1    2    0    0  0.23494427979E+03 -0.54734237095E+02  0.62065180325E+03  0.67751628186E+03  0.12500000000E+03 0.  0.
         25    1    1    2    0    0 -0.23494427979E+03  0.54734237095E+02  0.40354032650E+03  0.48648170205E+03  0.12500000000E+03 0.  0.
</event>
<event>
 4    0  0.2205135E-002  0.2688263E+03  0.7546771E-02  0.1101953E+00
         21   -1    0    0  502  501  0.00000000000E+00  0.00000000000E+00  0.15488702720E+03  0.15488702720E+03  0.00000000000E+00 0. -1.
         21   -1    0    0  501  502 -0.00000000000E+00 -0.00000000000E+00 -0.46658238751E+03  0.46658238751E+03  0.00000000000E+00 0. -1.
         25    1    1    2    0    0  0.13471199787E+03  0.18588646784E+03 -0.83279454595E+02  0.27433842030E+03  0.12500000000E+03 0.  0.
         25    1    1    2    0    0 -0.13471199787E+03 -0.18588646784E+03 -0.22841590571E+03  0.34713099441E+03  0.12500000000E+03 0.  0.
</event>
<event>
 4    0  0.2205135E-002  0.2711727E+03  0.7546771E-02  0.1100610E+00
         21   -1    0    0  502  501  0.00000000000E+00  0.00000000000E+00  0.23645080281E+04  0.23645080281E+04  0.00000000000E+00 0. -1.
         21   -1    0    0  501  502 -0.00000000000E+00 -0.00000000000E+00 -0.31099341845E+02  0.31099341845E+02  0.00000000000E+00 0. -1.
         25    1    1    2    0    0  0.79309757761E+02  0.20487098420E+03  0.16005614533E+04  0.16203962860E+04  0.12500000000E+03 0.  0.
         25    1    1    2    0    0 -0.79309757761E+02 -0.20487098420E+03  0.73284723293E+03  0.77521108394E+03  0.12500000000E+03 0.  0.
</event>
<event>
 4    0  0.2205135E-002  0.2465044E+03  0.7546771E-02  0.1115534E+00
         21   -1    0    0  502  501  0.00000000000E+00  0.00000000000E+00  0.94382971909E+03  0.94382971909E+03  0.00000000000E+00 0.  1.
         21   -1    0    0  501  502 -0.00000000000E+00 -0.00000000000E+00 -0.64380704428E+02  0.64380704428E+02  0.00000000000E+00 0. -1.
         25    1    1    2    0    0 -0.15577208234E+03 -0.10503510337E+03  0.23684389099E+03  0.32713505357E+03  0.12500000000E+03 0.  0.
         25    1    1    2    0    0  0.15577208234E+03  0.10503510337E+03  0.64260512367E+03  0.68107536994E+03  0.12500000000E+03 0.  0.
</event>
<event>
 4    0  0.2205135E-002  0.2046980E+03  0.7546771E-02  0.1145835E+00
         21   -1    0    0  502  501  0.00000000000E+00  0.00000000000E+00  0.11209895918E+04  0.11209895918E+04  0.00000000000E+00 0. -1.
         21   -1    0    0  501  502 -0.00000000000E+00 -0.00000000000E+00 -0.37378811622E+02  0.37378811622E+02  0.00000000000E+00 0. -1.
         25    1    1    2    0    0  0.20950186720E+02  0.15872429181E+03  0.61360605280E+03  0.64635106496E+03  0.12500000000E+03 0.  0.
         25    1    1    2    0    0 -0.20950186720E+02 -0.15872429181E+03  0.47000472733E+03  0.51201733843E+03  0.12500000000E+03 0.  0.
</event>
<event>
 4    0  0.2205135E-002  0.3076879E+03  0.7546771E-02  0.1081459E+00
         21   -1    0    0  502  501  0.00000000000E+00  0.00000000000E+00  0.27044787037E+03  0.27044787037E+03  0.00000000000E+00 0.  1.
         21   -1    0    0  501  502 -0.00000000000E+00 -0.00000000000E+00 -0.35005583777E+03  0.35005583777E+03  0.00000000000E+00 0.  1.
         25    1    1    2    0    0  0.19413202573E+03 -0.19523148037E+03 -0.97237208867E+02  0.31762029080E+03  0.12500000000E+03 0.  0.
         25    1    1    2    0    0 -0.19413202573E+03  0.19523148037E+03  0.17629241467E+02  0.30288341733E+03  0.12500000000E+03 0.  0.
</event>
<event>
 4    0  0.2205135E-002  0.2428014E+03  0.7546771E-02  0.1117941E+00
         21   -1    0    0  502  501  0.00000000000E+00  0.00000000000E+00  0.40079270903E+03  0.40079270903E+03  0.00000000000E+00 0.  1.
         21   -1    0    0  501  502 -0.00000000000E+00 -0.00000000000E+00 -0.14708978915E+03  0.14708978915E+03  0.00000000000E+00 0.  1.
         25    1    1    2    0    0  0.17651686172E+03 -0.19081421860E+02  0.24943810424E+03  0.33070632135E+03  0.12500000000E+03 0.  0.
         25    1    1    2    0    0 -0.17651686172E+03  0.19081421860E+02  0.42648156410E+01  0.21717617683E+03  0.12500000000E+03 0.  0.
</event>
<event>
 4    0  0.2205135E-002  0.2838093E+03  0.7546771E-02  0.1093626E+00
         21   -1    0    0  502  501  0.00000000000E+00  0.00000000000E+00  0.12103023294E+03  0.12103023294E+03  0.00000000000E+00 0.  1.
         21   -1    0    0  501  502 -0.00000000000E+00 -0.00000000000E+00 -0.66551741248E+03  0.66551741248E+03  0.00000000000E+00 0.  1.
         25    1    1    2    0    0  0.18634147865E+03 -0.61032344559E+02 -0.46776388618E+02  0.23719427540E+03  0.12500000000E+03 0.  0.
         25    1    1    2    0    0 -0.18634147865E+03  0.61032344559E+02 -0.49771079093E+03  0.54935337002E+03  0.12500000000E+03 0.  0.
</event>
<event>
 4    0  0.2205135E-002  0.2310862E+03  0.7546771E-02  0.1125878E+00
         21   -1    0    0  502  501  0.00000000000E+00  0.00000000000E+00  0.97772249756E+03  0.97772249756E+03  0.00000000000E+00 0. -1.
         21   -1    0    0  501  502 -0.00000000000E+00 -0.00000000000E+00 -0.54617598067E+02  0.54617598067E+02  0.00000000000E+00 0. -1.
         25    1    1    2    0    0 -0.55067059945E+02 -0.18172300150E+03  0.36890975012E+03  0.43333016754E+03  0.12500000000E+03 0.  0.
         25    1    1    2    0    0  0.55067059945E+02  0.18172300150E+03  0.55419514937E+03  0.59900992809E+03  0.12500000000E+03 0.  0.
</event>
<event>
 4    0  0.2205135E-002  0.2086212E+03  0.7546771E-02  0.1142663E+00
         21   -1    0    0  502  501  0.00000000000E+00  0.00000000000E+00  0.77028381001E+02  0.77028381001E+02  0.00000000000E+00 0.  1.
         21   -1    0    0  501  502 -0.00000000000E+00 -0.00000000000E+00 -0.56502306870E+03  0.56502306870E+03  0.00000000000E+00 0.  1.
         25    1    1    2    0    0 -0.15601521143E+03 -0.55199215452E+02 -0.27875211214E+03  0.34744127505E+03  0.12500000000E+03 0.  0.
         25    1    1    2    0    0  0.15601521143E+03  0.55199215452E+02 -0.20924257556E+03  0.29461017465E+03  0.12500000000E+03 0.  0.
</event>
<event>
 4    0  0.2205135E-002  0.2510046E+03  0.7546771E-02  0.1112672E+00
         21   -1    0    0  502  501  0.00000000000E+00  0.00000000000E+00  0.98910207740E+02  0.98910207740E+02  0.00000000000E+00 0. -1.
         21   -1    0    0  501  502 -0.00000000000E+00 -0.00000000000E+00 -0.63697475286E+03  0.63697475286E+03  0.00000000000E+00 0. -1.
         25    1    1    2    0    0 -0.14865599766E+03 -0.11914338579E+03 -0.42336476126E+03  0.48078734706E+03  0.12500000000E+03 0.  0.
         25    1    1    2    0    0  0.14865599766E+03  0.11914338579E+03 -0.11469978386E+03  0.25509761354E+03  0.12500000000E+03 0.  0.
</event>
<event>
 4    0  0.2205135E-002  0.2205825E+03  0.7546771E-02  0.1133449E+00
         21   -1    0    0  502  501  0.00000000000E+00  0.00000000000E+00  0.16760082163E+03  0.16760082163E+03  0.00000000000E+00 0. -1.
         21   -1    0    0  501  502 -0.00000000000E+00 -0.00000000000E+00 -0.29031276152E+03  0.29031276152E+03  0.00000000000E+00 0. -1.
         25    1    1    2    0    0 -0.79096825335E+02  0.14375635989E+03  0.19774456279E+02  0.20721541427E+03  0.12500000000E+03 0.  0.
         25    1    1    2    0    0  0.79096825335E+02 -0.14375635989E+03 -0.14248639617E+03  0.25069816889E+03  0.12500000000E+03 0.  0.
</event>
<event>
 4    0  0.2205135E-002  0.2344866E+03  0.7546771E-02  0.1123521E+00
         21   -1    0    0  502  501  0.00000000000E+00  0.00000000000E+00  0.45776476846E+02  0.45776476846E+02  0.00000000000E+00 0. -1.
         21   -1    0    0  501  502 -0.00000000000E+00 -0.00000000000E+00 -0.12011398759E+04  0.12011398759E+04  0.00000000000E+00 0.  1.
         25    1    1    2    0    0  0.13635412909E+03 -0.14163590664E+03 -0.64831701929E+03  0.68890720425E+03  0.12500000000E+03 0.  0.
         25    1    1    2    0    0 -0.13635412909E+03  0.14163590664E+03 -0.50704637975E+03  0.55800914848E+03  0.12500000000E+03 0.  0.
</event>
<event>
 4    0  0.2205135E-002  0.1578502E+03  0.7546771E-02  0.1191145E+00
         21   -1    0    0  502  501  0.00000000000E+00  0.00000000000E+00  0.15600082850E+03  0.15600082850E+03  0.00000000000E+00 0. -1.
         21   -1    0    0  501  502 -0.00000000000E+00 -0.00000000000E+00 -0.15972146572E+03  0.15972146572E+03  0.00000000000E+00 0. -1.
         25    1    1    2    0    0 -0.90858690071E+02 -0.23128455303E+02  0.20534404521E+02  0.15759723594E+03  0.12500000000E+03 0.  0.
         25    1    1    2    0    0  0.90858690071E+02  0.23128455303E+02 -0.24255041749E+02  0.15812505828E+03  0.12500000000E+03 0.  0.
</event>
<event>
 4    0  0.2205135E-002  0.2226954E+03  0.7546771E-02  0.1131889E+00
         21   -1    0    0  502  501  0.00000000000E+00  0.00000000000E+00  0.95041097281E+02  0.95041097281E+02  0.00000000000E+00 0.  1.
         21   -1    0    0  501  502 -0.00000000000E+00 -0.00000000000E+00 -0.52180853465E+03  0.52180853465E+03  0.00000000000E+00 0. -1.
         25    1    1    2    0    0 -0.13128662199E+03  0.10595621129E+03 -0.31614531951E+03  0.37952043275E+03  0.12500000000E+03 0.  0.
         25    1    1    2    0    0  0.13128662199E+03 -0.10595621129E+03 -0.11062211786E+03  0.23732919918E+03  0.12500000000E+03 0.  0.
</event>
<event>
 4    0  0.2205135E-002  0.2536163E+03  0.7546771E-02  0.1111040E+00
         21   -1    0    0  502  501  0.00000000000E+00  0.00000000000E+00  0.16460465008E+04  0.16460465008E+04  0.00000000000E+00 0.  1.
         21   -1    0    0  501  502 -0.00000000000E+00 -0.00000000000E+00 -0.39076200065E+02  0.39076200065E+02  0.00000000000E+00 0.  1.
         25    1    1    2    0    0  0.15784658709E+03  0.15420221598E+03  0.80860381479E+03  0.84744262211E+03  0.12500000000E+03 0.  0.
         25    1    1    2    0    0 -0.15784658709E+03 -0.15420221598E+03  0.79836648597E+03  0.83768007878E+03  0.12500000000E+03 0.  0.
</event>
<event>
 4    0  0.2205135E-002  0.2443688E+03  0.7546771E-02  0.1116916E+00
         21   -1    0    0  502  501  0.00000000000E+00  0.00000000000E+00  0.26650151853E+04  0.26650151853E+04  0.00000000000E+00 0.  1.
         21   -1    0    0  501  502 -0.00000000000E+00 -0.00000000000E+00 -0.22407413422E+02  0.22407413422E+02  0.00000000000E+00 0.  1.
         25    1    1    2    0    0  0.20446062046E+03  0.35715173891E+02  0.14961745774E+04  0.15156658883E+04  0.12500000000E+03 0.  0.
         25    1    1    2    0    0 -0.20446062046E+03 -0.35715173891E+02  0.11464331945E+04  0.11717567104E+04  0.12500000000E+03 0.  0.
</event>
<event>
 4    0  0.2205135E-002  0.1663531E+03  0.7546771E-02  0.1181705E+00
         21   -1    0    0  502  501  0.00000000000E+00  0.00000000000E+00  0.43539851323E+03  0.43539851323E+03  0.00000000000E+00 0.  1.
         21   -1    0    0  501  502 -0.00000000000E+00 -0.00000000000E+00 -0.63558673438E+02  0.63558673438E+02  0.00000000000E+00 0.  1.
         25    1    1    2    0    0  0.57563200983E+02 -0.60402911991E+02  0.29287567536E+03  0.32918565446E+03  0.12500000000E+03 0.  0.
         25    1    1    2    0    0 -0.57563200983E+02  0.60402911991E+02  0.78964164435E+02  0.16977153221E+03  0.12500000000E+03 0.  0.
</event>
<event>
 4    0  0.2205135E-002  0.2483093E+03  0.7546771E-02  0.1114378E+00
         21   -1    0    0  502  501  0.00000000000E+00  0.00000000000E+00  0.34523399998E+03  0.34523399998E+03  0.00000000000E+00 0.  1.
         21   -1    0    0  501  502 -0.00000000000E+00 -0.00000000000E+00 -0.17859633265E+03  0.17859633265E+03  0.00000000000E+00 0. -1.
         25    1    1    2    0    0 -0.14554203996E+03  0.40746519578E+02  0.24394479686E+03  0.31301250481E+03  0.12500000000E+03 0.  0.
         25    1    1    2    0    0  0.14554203996E+03 -0.40746519578E+02 -0.77307129527E+02  0.21081782783E+03  0.12500000000E+03 0.  0.
</event>
<event>
 4    0  0.2205135E-002  0.1705326E+03  0.7546771E-02  0.1177294E+00
         21   -1    0    0  502  501  0.00000000000E+00  0.00000000000E+00  0.11251199671E+03  0.11251199671E+03  0.00000000000E+00 0. -1.
         21   -1    0    0  501  502 -0.00000000000E+00 -0.00000000000E+00 -0.25847356403E+03  0.25847356403E+03  0.00000000000E+00 0. -1.
         25    1    1    2    0    0 -0.47339765647E+02 -0.89655092248E+02 -0.13429311182E+03  0.20961566940E+03  0.12500000000E+03 0.  0.
         25    1    1    2    0    0  0.47339765647E+02  0.89655092248E+02 -0.11668455502E+02  0.16136989134E+03  0.12500000000E+03 0.  0.
</event>
<event>
 4    0  0.2205135E-002  0.1879831E+03  0.7546771E-02  0.1160293E+00
         21   -1    0    0  502  501  0.00000000000E+00  0.00000000000E+00  0.18645664025E+03  0.18645664025E+03  0.00000000000E+00 0.  1.
         21   -1    0    0  501  502 -0.00000000000E+00 -0.00000000000E+00 -0.18952197744E+03  0.18952197744E+03  0.00000000000E+00 0.  1.
         25    1    1    2    0    0 -0.11076240057E+03 -0.19678835267E+02  0.82476463934E+02  0.18730438607E+03  0.12500000000E+03 0.  0.
         25    1    1    2    0    0  0.11076240057E+03  0.19678835267E+02 -0.85541801125E+02  0.18867423162E+03  0.12500000000E+03 0.  0.
</event>
<event>
 4    0  0.2205135E-002  0.2412220E+03  0.7546771E-02  0.1118981E+00
         21   -1    0    0  502  501  0.00000000000E+00  0.00000000000E+00  0.60064949963E+02  0.60064949963E+02  0.00000000000E+00 0. -1.
         21   -1    0    0  501  502 -0.00000000000E+00 -0.00000000000E+00 -0.96875254267E+03  0.96875254267E+03  0.00000000000E+00 0. -1.
         25    1    1    2    0    0 -0.37735869836E+02  0.17859198229E+03 -0.24931215965E+03  0.33331763374E+03  0.12500000000E+03 0.  0.
         25    1    1    2    0    0  0.37735869836E+02 -0.17859198229E+03 -0.65937543306E+03  0.69549985890E+03  0.12500000000E+03 0.  0.
</event>
<event>
 4    0  0.2205135E-002  0.2077098E+03  0.7546771E-02  0.1143392E+00
         21   -1    0    0  502  501  0.00000000000E+00  0.00000000000E+00  0.39319281848E+03  0.39319281848E+03  0.00000000000E+00 0. -1.
         21   -1    0    0  501  502 -0.00000000000E+00 -0.00000000000E+00 -0.10972574951E+03  0.10972574951E+03  0.00000000000E+00 0. -1.
         25    1    1    2    0    0  0.83137529033E+02  0.54498716049E+02  0.30250752778E+03  0.34207859206E+03  0.12500000000E+03 0.  0.
         25    1    1    2    0    0 -0.83137529033E+02 -0.54498716049E+02 -0.19040458804E+02  0.16083997593E+03  0.12500000000E+03 0.  0.
</event>
<event>
 4    0  0.2205135E-002  0.2060275E+03  0.7546771E-02  0.1144751E+00
         21   -1    0    0  502  501  0.00000000000E+00  0.00000000000E+00  0.17440173968E+04  0.17440173968E+04  0.00000000000E+00 0.  1.
         21   -1    0    0  501  502 -0.00000000000E+00 -0.00000000000E+00 -0.24338829124E+02  0.24338829124E+02  0.00000000000E+00 0.  1.
         25    1    1    2    0    0  0.13315039412E+03  0.71732185096E+01  0.45176110208E+03  0.48733312618E+03  0.12500000000E+03 0.  0.
         25    1    1    2    0    0 -0.13315039412E+03 -0.71732185096E+01  0.12679174656E+04  0.12810230998E+04  0.12500000000E+03 0.  0.
</event>
<event>
 4    0  0.2205135E-002  0.1949263E+03  0.7546771E-02  0.1154092E+00
         21   -1    0    0  502  501  0.00000000000E+00  0.00000000000E+00  0.46185594365E+03  0.46185594365E+03  0.00000000000E+00 0.  1.
         21   -1    0    0  501  502 -0.00000000000E+00 -0.00000000000E+00 -0.82268644333E+02  0.82268644333E+02  0.00000000000E+00 0.  1.
         25    1    1    2    0    0  0.86665845904E+02  0.82208967096E+02  0.31542368441E+03  0.35970318848E+03  0.12500000000E+03 0.  0.
         25    1    1    2    0    0 -0.86665845904E+02 -0.82208967096E+02  0.64163614912E+02  0.18442139951E+03  0.12500000000E+03 0.  0.
</event>
<event>
 4    0  0.2205135E-002  0.2304335E+03  0.7546771E-02  0.1126335E+00
         21   -1    0    0  502  501  0.00000000000E+00  0.00000000000E+00  0.39304881790E+02  0.39304881790E+02  0.00000000000E+00 0.  1.
         21   -1    0    0  501  502 -0.00000000000E+00 -0.00000000000E+00 -0.13509675497E+04  0.13509675497E+04  0.00000000000E+00 0.  1.
         25    1    1    2    0    0  0.67479915305E+01  0.11954178618E+03 -0.19695563880E+03  0.26220659353E+03  0.12500000000E+03 0.  0.
         25    1    1    2    0    0 -0.67479915305E+01 -0.11954178618E+03 -0.11147070291E+04  0.11280658380E+04  0.12500000000E+03 0.  0.
</event>
<event>
 4    0  0.2205135E-002  0.2340618E+03  0.7546771E-02  0.1123813E+00
         21   -1    0    0  502  501  0.00000000000E+00  0.00000000000E+00  0.37653721577E+03  0.37653721577E+03  0.00000000000E+00 0. -1.
         21   -1    0    0  501  502 -0.00000000000E+00 -0.00000000000E+00 -0.14549666434E+03  0.14549666434E+03  0.00000000000E+00 0. -1.
         25    1    1    2    0    0 -0.75876022419E+02 -0.17691124895E+03  0.64354501426E+02  0.23837210960E+03  0.12500000000E+03 0.  0.
         25    1    1    2    0    0  0.75876022419E+02  0.17691124895E+03  0.16668605000E+03  0.28366177051E+03  0.12500000000E+03 0.  0.
</event>
<event>
 4    0  0.2205135E-002  0.1654555E+03  0.7546771E-02  0.1182672E+00
         21   -1    0    0  502  501  0.00000000000E+00  0.00000000000E+00  0.11279923400E+03  0.11279923400E+03  0.00000000000E+00 0.  1.
         21   -1    0    0  501  502 -0.00000000000E+00 -0.00000000000E+00 -0.24269259646E+03  0.24269259646E+03  0.00000000000E+00 0.  1.
         25    1    1    2    0    0 -0.17116861649E+02  0.87028696248E+02  0.20006379015E+01  0.15328399615E+03  0.12500000000E+03 0.  0.
         25    1    1    2    0    0  0.17116861649E+02 -0.87028696248E+02 -0.13189400037E+03  0.20220783431E+03  0.12500000000E+03 0.  0.
</event>
<event>
 4    0  0.2205135E-002  0.2906740E+03  0.7546771E-02  0.1089998E+00
         21   -1    0    0  502  501  0.00000000000E+00  0.00000000000E+00  0.15298607362E+03  0.15298607362E+03  0.00000000000E+00 0. -1.
         21   -1    0    0  501  502 -0.00000000000E+00 -0.00000000000E+00 -0.55228139541E+03  0.55228139541E+03  0.00000000000E+00 0. -1.
         25    1    1    2    0    0  0.20390421645E+03  0.40063724260E+01 -0.39999666863E+03  0.46606363881E+03  0.12500000000E+03 0.  0.
         25    1    1    2    0    0 -0.20390421645E+03 -0.40063724260E+01  0.70134683162E+00  0.23920383022E+03  0.12500000000E+03 0.  0.
</event>
<event>
 4    0  0.2205135E-002  0.4598616E+03  0.7546771E-02  0.1024821E+00
         21   -1    0    0  502  501  0.00000000000E+00  0.00000000000E+00  0.30607570280E+03  0.30607570280E+03  0.00000000000E+00 0.  1.
         21   -1    0    0  501  502 -0.00000000000E+00 -0.00000000000E+00 -0.69091639365E+03  0.69091639365E+03  0.00000000000E+00 0.  1.
         25    1    1    2    0    0 -0.66707647027E+02  0.31671041007E+03  0.13475113643E+03  0.37220728470E+03  0.12500000000E+03 0.  0.
         25    1    1    2    0    0  0.66707647027E+02 -0.31671041007E+03 -0.51959182728E+03  0.62478481175E+03  0.12500000000E+03 0.  0.
</event>
<event>
 4    0  0.2205135E-002  0.2101232E+03  0.7546771E-02  0.1141468E+00
         21   -1    0    0  502  501  0.00000000000E+00  0.00000000000E+00  0.44877945593E+03  0.44877945593E+03  0.00000000000E+00 0.  1.
         21   -1    0    0  501  502 -0.00000000000E+00 -0.00000000000E+00 -0.98381831304E+02  0.98381831304E+02  0.00000000000E+00 0.  1.
         25    1    1    2    0    0  0.15850194743E+03 -0.55445334207E+02  0.15155781280E+03  0.25844114039E+03  0.12500000000E+03 0.  0.
         25    1    1    2    0    0 -0.15850194743E+03  0.55445334207E+02  0.19883981182E+03  0.28872014684E+03  0.12500000000E+03 0.  0.
</event>
<event>
 4    0  0.2205135E-002  0.1718664E+03  0.7546771E-02  0.1175915E+00
         21   -1    0    0  502  501  0.00000000000E+00  0.00000000000E+00  0.52924392117E+03  0.52924392117E+03  0.00000000000E+00 0.  1.
         21   -1    0    0  501  502 -0.00000000000E+00 -0.00000000000E+00 -0.55811823970E+02  0.55811823970E+02  0.00000000000E+00 0.  1.
         25    1    1    2    0    0 -0.28714778741E+01  0.96366408251E+02  0.12104648737E+03  0.19892707742E+03  0.12500000000E+03 0.  0.
         25    1    1    2    0    0  0.28714778741E+01 -0.96366408251E+02  0.35238560983E+03  0.38612866773E+03  0.12500000000E+03 0.  0.
</event>
<event>
 4    0  0.2205135E-002  0.2625817E+03  0.7546771E-02  0.1105602E+00
         21   -1    0    0  502  501  0.00000000000E+00  0.00000000000E+00  0.74698031341E+02  0.74698031341E+02  0.00000000000E+00 0. -1.
         21   -1    0    0  501  502 -0.00000000000E+00 -0.00000000000E+00 -0.92303818461E+03  0.92303818461E+03  0.00000000000E+00 0. -1.
         25    1    1    2    0    0 -0.18347066913E+03 -0.21377334445E+02 -0.68746102506E+03  0.72273517822E+03  0.12500000000E+03 0.  0.
         25    1    1    2    0    0  0.18347066913E+03  0.21377334445E+02 -0.16087912821E+03  0.27500103773E+03  0.12500000000E+03 0.  0.
</event>
<event>
 4    0  0.2205135E-002  0.4327192E+03  0.7546771E-02  0.1033004E+00
         21   -1    0    0  502  501  0.00000000000E+00  0.00000000000E+00  0.19321750838E+03  0.19321750838E+03  0.00000000000E+00 0.  1.
         21   -1    0    0  501  502 -0.00000000000E+00 -0.00000000000E+00 -0.96909375989E+03  0.96909375989E+03  0.00000000000E+00 0.  1.
         25    1    1    2    0    0 -0.24098316521E+02  0.27672115888E+03  0.24846060362E+02  0.30561029981E+03  0.12500000000E+03 0.  0.
         25    1    1    2    0    0  0.24098316521E+02 -0.27672115888E+03 -0.80072231188E+03  0.85670096847E+03  0.12500000000E+03 0.  0.
</event>
<event>
 4    0  0.2205135E-002  0.3247116E+03  0.7546771E-02  0.1073501E+00
         21   -1    0    0  502  501  0.00000000000E+00  0.00000000000E+00  0.25676324657E+03  0.25676324657E+03  0.00000000000E+00 0. -1.
         21   -1    0    0  501  502 -0.00000000000E+00 -0.00000000000E+00 -0.41064152266E+03  0.41064152266E+03  0.00000000000E+00 0. -1.
         25    1    1    2    0    0 -0.14000332619E+03 -0.26274326061E+03 -0.11220694496E+03  0.34183380588E+03  0.12500000000E+03 0.  0.
         25    1    1    2    0    0  0.14000332619E+03  0.26274326061E+03 -0.41671331127E+02  0.32557096336E+03  0.12500000000E+03 0.  0.
</event>
<event>
 4    0  0.2205135E-002  0.4083326E+03  0.7546771E-02  0.1040932E+00
         21   -1    0    0  502  501  0.00000000000E+00  0.00000000000E+00  0.70578221896E+03  0.70578221896E+03  0.00000000000E+00 0.  1.
         21   -1    0    0  501  502 -0.00000000000E+00 -0.00000000000E+00 -0.23624213968E+03  0.23624213968E+03  0.00000000000E+00 0.  1.
         25    1    1    2    0    0 -0.12436287037E+02  0.38663432936E+03  0.27899197200E+03  0.49305403995E+03  0.12500000000E+03 0.  0.
         25    1    1    2    0    0  0.12436287037E+02 -0.38663432936E+03  0.19054810727E+03  0.44897031869E+03  0.12500000000E+03 0.  0.
</event>
<event>
 4    0  0.2205135E-002  0.2244548E+03  0.7546771E-02  0.1130605E+00
         21   -1    0    0  502  501  0.00000000000E+00  0.00000000000E+00  0.48510065257E+03  0.48510065257E+03  0.00000000000E+00 0.  1.
         21   -1    0    0  501  502 -0.00000000000E+00 -0.00000000000E+00 -0.10385467030E+03  0.10385467030E+03  0.00000000000E+00 0.  1.
         25    1    1    2    0    0 -0.14143330822E+03 -0.12134251336E+03  0.19751327546E+03  0.29893792032E+03  0.12500000000E+03 0.  0.
         25    1    1    2    0    0  0.14143330822E+03  0.12134251336E+03  0.18373270681E+03  0.29001740254E+03  0.12500000000E+03 0.  0.
</event>
<event>
 4    0  0.2205135E-002  0.3610795E+03  0.7546771E-02  0.1058157E+00
         21   -1    0    0  502  501  0.00000000000E+00  0.00000000000E+00  0.83634882900E+03  0.83634882900E+03  0.00000000000E+00 0. -1.
         21   -1    0    0  501  502 -0.00000000000E+00 -0.00000000000E+00 -0.15589001828E+03  0.15589001828E+03  0.00000000000E+00 0. -1.
         25    1    1    2    0    0 -0.27133470194E+03 -0.29526343536E+02  0.64542950720E+02  0.30705881835E+03  0.12500000000E+03 0.  0.
         25    1    1    2    0    0  0.27133470194E+03  0.29526343536E+02  0.61591586000E+03  0.68518002893E+03  0.12500000000E+03 0.  0.
</event>
<event>
 4    0  0.2205135E-002  0.1860343E+03  0.7546771E-02  0.1162088E+00
         21   -1    0    0  502  501  0.00000000000E+00  0.00000000000E+00  0.54198669087E+02  0.54198669087E+02  0.00000000000E+00 0. -1.
         21   -1    0    0  501  502 -0.00000000000E+00 -0.00000000000E+00 -0.63855357571E+03  0.63855357571E+03  0.00000000000E+00 0. -1.
         25    1    1    2    0    0  0.50252302812E+02 -0.32728752622E+01 -0.53096308466E+03  0.54779814067E+03  0.12500000000E+03 0.  0.
         25    1    1    2    0    0 -0.50252302812E+02  0.32728752622E+01 -0.53391821962E+02  0.14495410413E+03  0.12500000000E+03 0.  0.
</event>
<event>
 4    0  0.2205135E-002  0.3120559E+03  0.7546771E-02  0.1079365E+00
         21   -1    0    0  502  501  0.00000000000E+00  0.00000000000E+00  0.35366734324E+03  0.35366734324E+03  0.00000000000E+00 0. -1.
         21   -1    0    0  501  502 -0.00000000000E+00 -0.00000000000E+00 -0.27534030302E+03  0.27534030302E+03  0.00000000000E+00 0. -1.
         25    1    1    2    0    0  0.18829629802E+03 -0.15918529873E+03  0.18506940468E+03  0.33267272165E+03  0.12500000000E+03 0.  0.
         25    1    1    2    0    0 -0.18829629802E+03  0.15918529873E+03 -0.10674236446E+03  0.29633492462E+03  0.12500000000E+03 0.  0.
</event>
<event>
 4    0  0.2205135E-002  0.1892027E+03  0.7546771E-02  0.1159182E+00
         21   -1    0    0  502  501  0.00000000000E+00  0.00000000000E+00  0.12412624893E+03  0.12412624893E+03  0.00000000000E+00 0.  1.
         21   -1    0    0  501  502 -0.00000000000E+00 -0.00000000000E+00 -0.28839712045E+03  0.28839712045E+03  0.00000000000E+00 0.  1.
         25    1    1    2    0    0 -0.11985348882E+03 -0.64605714922E+01  0.64556555449E+00  0.17329747407E+03  0.12500000000E+03 0.  0.
         25    1    1    2    0    0  0.11985348882E+03  0.64605714922E+01 -0.16491643707E+03  0.23922589530E+03  0.12500000000E+03 0.  0.
</event>
<event>
 4    0  0.2205135E-002  0.2037705E+03  0.7546771E-02  0.1146596E+00
         21   -1    0    0  502  501  0.00000000000E+00  0.00000000000E+00  0.95528278470E+03  0.95528278470E+03  0.00000000000E+00 0.  1.
         21   -1    0    0  501  502 -0.00000000000E+00 -0.00000000000E+00 -0.43466080253E+02  0.43466080253E+02  0.00000000000E+00 0.  1.
         25    1    1    2    0    0 -0.21654346345E+02 -0.64774577805E+02  0.81300693391E+03  0.82539077486E+03  0.12500000000E+03 0.  0.
         25    1    1    2    0    0  0.21654346345E+02  0.64774577805E+02  0.98809770536E+02  0.17335809009E+03  0.12500000000E+03 0.  0.
</event>
<event>
 4    0  0.2205135E-002  0.2244324E+03  0.7546771E-02  0.1130621E+00
         21   -1    0    0  502  501  0.00000000000E+00  0.00000000000E+00  0.14004148307E+03  0.14004148307E+03  0.00000000000E+00 0. -1.
         21   -1    0    0  501  502 -0.00000000000E+00 -0.00000000000E+00 -0.35967854513E+03  0.35967854513E+03  0.00000000000E+00 0. -1.
         25    1    1    2    0    0  0.10408198716E+03  0.55471294512E+02  0.50877714794E+02  0.17923076306E+03  0.12500000000E+03 0.  0.
         25    1    1    2    0    0 -0.10408198716E+03 -0.55471294512E+02 -0.27051477685E+03  0.32048926513E+03  0.12500000000E+03 0.  0.
</event>
<event>
 4    0  0.2205135E-002  0.3080376E+03  0.7546771E-02  0.1081290E+00
         21   -1    0    0  502  501  0.00000000000E+00  0.00000000000E+00  0.20073610036E+03  0.20073610036E+03  0.00000000000E+00 0.  1.
         21   -1    0    0  501  502 -0.00000000000E+00 -0.00000000000E+00 -0.47269606867E+03  0.47269606867E+03  0.00000000000E+00 0.  1.
         25    1    1    2    0    0  0.24613039294E+03 -0.60739785110E+02 -0.26982421917E+03  0.39076796322E+03  0.12500000000E+03 0.  0.
         25    1    1    2    0    0 -0.24613039294E+03  0.60739785110E+02 -0.21357491362E+01  0.28266420582E+03  0.12500000000E+03 0.  0.
</event>
<event>
 4    0  0.2205135E-002  0.3842728E+03  0.7546771E-02  0.1049366E+00
         21   -1    0    0  502  501  0.00000000000E+00  0.00000000000E+00  0.10322694328E+04  0.10322694328E+04  0.00000000000E+00 0.  1.
         21   -1    0    0  501  502 -0.00000000000E+00 -0.00000000000E+00 -0.14304943185E+03  0.14304943185E+03  0.00000000000E+00 0. -1.
         25    1    1    2    0    0 -0.69818994472E+02  0.17426118406E+03  0.92040659372E+03  0.94763650733E+03  0.12500000000E+03 0.  0.
         25    1    1    2    0    0  0.69818994472E+02 -0.17426118406E+03 -0.31186592778E+02  0.22768235731E+03  0.12500000000E+03 0.  0.
</event>
<event>
 4    0  0.2205135E-002  0.2502823E+03  0.7546771E-02  0.1113127E+00
         21   -1    0    0  502  501  0.00000000000E+00  0.00000000000E+00  0.27938866446E+03  0.27938866446E+03  0.00000000000E+00 0. -1.
         21   -1    0    0  501  502 -0.00000000000E+00 -0.00000000000E+00 -0.22420823552E+03  0.22420823552E+03  0.00000000000E+00 0. -1.
         25    1    1    2    0    0 -0.81312427524E+02  0.20098416949E+03  0.30754458361E+02  0.25214516447E+03  0.12500000000E+03 0.  0.
         25    1    1    2    0    0  0.81312427524E+02 -0.20098416949E+03  0.24425970579E+02  0.25145173552E+03  0.12500000000E+03 0.  0.
</event>
<event>
 4    0  0.2205135E-002  0.2119722E+03  0.7546771E-02  0.1140014E+00
         21   -1    0    0  502  501  0.00000000000E+00  0.00000000000E+00  0.16425353376E+03  0.16425353376E+03  0.00000000000E+00 0.  1.
         21   -1    0    0  501  502 -0.00000000000E+00 -0.00000000000E+00 -0.27355390360E+03  0.27355390360E+03  0.00000000000E+00 0.  1.
         25    1    1    2    0    0 -0.14205766869E+03 -0.56112172166E+02 -0.13449761254E+03  0.23883794689E+03  0.12500000000E+03 0.  0.
         25    1    1    2    0    0  0.14205766869E+03  0.56112172166E+02  0.25197242704E+02  0.19896949047E+03  0.12500000000E+03 0.  0.
</event>
<event>
 4    0  0.2205135E-002  0.1750783E+03  0.7546771E-02  0.1172653E+00
         21   -1    0    0  502  501  0.00000000000E+00  0.00000000000E+00  0.28402559385E+03  0.28402559385E+03  0.00000000000E+00 0. -1.
         21   -1    0    0  501  502 -0.00000000000E+00 -0.00000000000E+00 -0.10792129811E+03  0.10792129811E+03  0.00000000000E+00 0. -1.
         25    1    1    2    0    0  0.13518178550E+02  0.10840647029E+02  0.22389108224E+03  0.25700676545E+03  0.12500000000E+03 0.  0.
         25    1    1    2    0    0 -0.13518178550E+02 -0.10840647029E+02 -0.47786786504E+02  0.13494012651E+03  0.12500000000E+03 0.  0.
</event>
<event>
 4    0  0.2205135E-002  0.1893195E+03  0.7546771E-02  0.1159077E+00
         21   -1    0    0  502  501  0.00000000000E+00  0.00000000000E+00  0.12542495793E+04  0.12542495793E+04  0.00000000000E+00 0.  1.
         21   -1    0    0  501  502 -0.00000000000E+00 -0.00000000000E+00 -0.28576342021E+02  0.28576342021E+02  0.00000000000E+00 0.  1.
         25    1    1    2    0    0  0.75606468206E+02  0.91359778089E+02  0.87861416003E+03  0.89534953470E+03  0.12500000000E+03 0.  0.
         25    1    1    2    0    0 -0.75606468206E+02 -0.91359778089E+02  0.34705907726E+03  0.38747638663E+03  0.12500000000E+03 0.  0.
</event>
<event>
 4    0  0.2205135E-002  0.2150783E+03  0.7546771E-02  0.1137606E+00
         21   -1    0    0  502  501  0.00000000000E+00  0.00000000000E+00  0.21248290112E+03  0.21248290112E+03  0.00000000000E+00 0.  1.
         21   -1    0    0  501  502 -0.00000000000E+00 -0.00000000000E+00 -0.21770541531E+03  0.21770541531E+03  0.00000000000E+00 0.  1.
         25    1    1    2    0    0 -0.45765949207E+02 -0.15231757939E+03  0.70459243445E+02  0.21420707758E+03  0.12500000000E+03 0.  0.
         25    1    1    2    0    0  0.45765949207E+02  0.15231757939E+03 -0.75681757643E+02  0.21598123885E+03  0.12500000000E+03 0.  0.
</event>
<event>
 4    0  0.2205135E-002  0.2092347E+03  0.7546771E-02  0.1142173E+00
         21   -1    0    0  502  501  0.00000000000E+00  0.00000000000E+00  0.11370304371E+03  0.11370304371E+03  0.00000000000E+00 0.  1.
         21   -1    0    0  501  502 -0.00000000000E+00 -0.00000000000E+00 -0.38503082306E+03  0.38503082306E+03  0.00000000000E+00 0.  1.
         25    1    1    2    0    0 -0.30845018669E+02 -0.16196783927E+03 -0.98561030754E+02  0.22918174647E+03  0.12500000000E+03 0.  0.
         25    1    1    2    0    0  0.30845018669E+02  0.16196783927E+03 -0.17276674860E+03  0.26955212030E+03  0.12500000000E+03 0.  0.
</event>
<event>
 4    0  0.2205135E-002  0.3294118E+03  0.7546771E-02  0.1071397E+00
         21   -1    0    0  502  501  0.00000000000E+00  0.00000000000E+00  0.24121852328E+03  0.24121852328E+03  0.00000000000E+00 0. -1.
         21   -1    0    0  501  502 -0.00000000000E+00 -0.00000000000E+00 -0.44985003243E+03  0.44985003243E+03  0.00000000000E+00 0. -1.
         25    1    1    2    0    0  0.29016845829E+03  0.79949314996E+02 -0.15459431624E+03  0.36071322372E+03  0.12500000000E+03 0.  0.
         25    1    1    2    0    0 -0.29016845829E+03 -0.79949314996E+02 -0.54037192910E+02  0.33035533199E+03  0.12500000000E+03 0.  0.
</event>
<event>
 4    0  0.2205135E-002  0.3121128E+03  0.7546771E-02  0.1079338E+00
         21   -1    0    0  502  501  0.00000000000E+00  0.00000000000E+00  0.97288225427E+03  0.97288225427E+03  0.00000000000E+00 0.  1.
         21   -1    0    0  501  502 -0.00000000000E+00 -0.00000000000E+00 -0.10012967899E+03  0.10012967899E+03  0.00000000000E+00 0.  1.
         25    1    1    2    0    0 -0.18941177165E+03 -0.19280200950E+03  0.27567566120E+03  0.40579736850E+03  0.12500000000E+03 0.  0.
         25    1    1    2    0    0  0.18941177165E+03  0.19280200950E+03  0.59707691407E+03  0.66721456476E+03  0.12500000000E+03 0.  0.
</event>
<event>
 4    0  0.2205135E-002  0.1664312E+03  0.7546771E-02  0.1181621E+00
         21   -1    0    0  502  501  0.00000000000E+00  0.00000000000E+00  0.10586782686E+03  0.10586782686E+03  0.00000000000E+00 0.  1.
         21   -1    0    0  501  502 -0.00000000000E+00 -0.00000000000E+00 -0.26164071859E+03  0.26164071859E+03  0.00000000000E+00 0.  1.
         25    1    1    2    0    0 -0.49369022026E+02 -0.97927921010E+02 -0.70304644739E+02  0.18054063565E+03  0.12500000000E+03 0.  0.
         25    1    1    2    0    0  0.49369022026E+02  0.97927921010E+02 -0.85468246997E+02  0.18696790980E+03  0.12500000000E+03 0.  0.
</event>
<event>
 4    0  0.2205135E-002  0.1602773E+03  0.7546771E-02  0.1188384E+00
         21   -1    0    0  502  501  0.00000000000E+00  0.00000000000E+00  0.20696917785E+02  0.20696917785E+02  0.00000000000E+00 0.  1.
         21   -1    0    0  501  502 -0.00000000000E+00 -0.00000000000E+00 -0.12411895211E+04  0.12411895211E+04  0.00000000000E+00 0.  1.
         25    1    1    2    0    0  0.22770450868E+02  0.97658005363E+02 -0.62153131844E+03  0.64185805225E+03  0.12500000000E+03 0.  0.
         25    1    1    2    0    0 -0.22770450868E+02 -0.97658005363E+02 -0.59896128483E+03  0.62002838659E+03  0.12500000000E+03 0.  0.
</event>
<event>
 4    0  0.2205135E-002  0.2603300E+03  0.7546771E-02  0.1106945E+00
         21   -1    0    0  502  501  0.00000000000E+00  0.00000000000E+00  0.11840302496E+04  0.11840302496E+04  0.00000000000E+00 0.  1.
         21   -1    0    0  501  502 -0.00000000000E+00 -0.00000000000E+00 -0.57238157266E+02  0.57238157266E+02  0.00000000000E+00 0.  1.
         25    1    1    2    0    0 -0.11162706705E+03 -0.13981721733E+03  0.90170352725E+03  0.92774118557E+03  0.12500000000E+03 0.  0.
         25    1    1    2    0    0  0.11162706705E+03  0.13981721733E+03  0.22508856508E+03  0.31352722129E+03  0.12500000000E+03 0.  0.
</event>
<event>
 4    0  0.2205135E-002  0.3186958E+03  0.7546771E-02  0.1076251E+00
         21   -1    0    0  502  501  0.00000000000E+00  0.00000000000E+00  0.28253303652E+03  0.28253303652E+03  0.00000000000E+00 0. -1.
         21   -1    0    0  501  502 -0.00000000000E+00 -0.00000000000E+00 -0.35948725884E+03  0.35948725884E+03  0.00000000000E+00 0. -1.
         25    1    1    2    0    0  0.44000729038E+02  0.19676014428E+03 -0.25284034697E+03  0.34670428262E+03  0.12500000000E+03 0.  0.
         25    1    1    2    0    0 -0.44000729038E+02 -0.19676014428E+03  0.17588612466E+03  0.29531601274E+03  0.12500000000E+03 0.  0.
</event>
<event>
 4    0  0.2205135E-002  0.2618026E+03  0.7546771E-02  0.1106065E+00
         21   -1    0    0  502  501  0.00000000000E+00  0.00000000000E+00  0.13300966308E+03  0.13300966308E+03  0.00000000000E+00 0. -1.
         21   -1    0    0  501  502 -0.00000000000E+00 -0.00000000000E+00 -0.51530557850E+03  0.51530557850E+03  0.00000000000E+00 0. -1.
         25    1    1    2    0    0  0.20608114396E+03  0.96406077631E+02 -0.14912194400E+03  0.29937589062E+03  0.12500000000E+03 0.  0.
         25    1    1    2    0    0 -0.20608114396E+03 -0.96406077631E+02 -0.23317397142E+03  0.34893935096E+03  0.12500000000E+03 0.  0.
</event>
<event>
 4    0  0.2205135E-002  0.2127282E+03  0.7546771E-02  0.1139424E+00
         21   -1    0    0  502  501  0.00000000000E+00  0.00000000000E+00  0.32221910586E+03  0.32221910586E+03  0.00000000000E+00 0.  1.
         21   -1    0    0  501  502 -0.00000000000E+00 -0.00000000000E+00 -0.14044260141E+03  0.14044260141E+03  0.00000000000E+00 0.  1.
         25    1    1    2    0    0 -0.72688554965E+02 -0.15526188994E+03  0.10767898960E+03  0.23792781530E+03  0.12500000000E+03 0.  0.
         25    1    1    2    0    0  0.72688554965E+02  0.15526188994E+03  0.74097514845E+02  0.22473389197E+03  0.12500000000E+03 0.  0.
</event>
<event>
 4    0  0.2205135E-002  0.1985425E+03  0.7546771E-02  0.1150975E+00
         21   -1    0    0  502  501  0.00000000000E+00  0.00000000000E+00  0.35279747354E+02  0.35279747354E+02  0.00000000000E+00 0.  1.
         21   -1    0    0  501  502 -0.00000000000E+00 -0.00000000000E+00 -0.11173305453E+04  0.11173305453E+04  0.00000000000E+00 0.  1.
         25    1    1    2    0    0  0.87116039616E+02 -0.90650466591E+02 -0.80044477136E+03  0.81984360914E+03  0.12500000000E+03 0.  0.
         25    1    1    2    0    0 -0.87116039616E+02  0.90650466591E+02 -0.28160602663E+03  0.33276668356E+03  0.12500000000E+03 0.  0.
</event>
<event>
 4    0  0.2205135E-002  0.2070495E+03  0.7546771E-02  0.1143924E+00
         21   -1    0    0  502  501  0.00000000000E+00  0.00000000000E+00  0.39846312665E+03  0.39846312665E+03  0.00000000000E+00 0. -1.
         21   -1    0    0  501  502 -0.00000000000E+00 -0.00000000000E+00 -0.10758706205E+03  0.10758706205E+03  0.00000000000E+00 0. -1.
         25    1    1    2    0    0  0.15393177915E+03  0.39418629889E+02  0.90845611117E+02  0.22164554152E+03  0.12500000000E+03 0.  0.
         25    1    1    2    0    0 -0.15393177915E+03 -0.39418629889E+02  0.20003045349E+03  0.28440464718E+03  0.12500000000E+03 0.  0.
</event>
<event>
 4    0  0.2205135E-002  0.2470522E+03  0.7546771E-02  0.1115182E+00
         21   -1    0    0  502  501  0.00000000000E+00  0.00000000000E+00  0.24949959924E+03  0.24949959924E+03  0.00000000000E+00 0. -1.
         21   -1    0    0  501  502 -0.00000000000E+00 -0.00000000000E+00 -0.24462870961E+03  0.24462870961E+03  0.00000000000E+00 0. -1.
         25    1    1    2    0    0 -0.91345545838E+02 -0.14688773497E+03 -0.12202842497E+03  0.24583724684E+03  0.12500000000E+03 0.  0.
         25    1    1    2    0    0  0.91345545838E+02  0.14688773497E+03  0.12689931460E+03  0.24829106201E+03  0.12500000000E+03 0.  0.
</event>
<event>
 4    0  0.2205135E-002  0.1809151E+03  0.7546771E-02  0.1166920E+00
         21   -1    0    0  502  501  0.00000000000E+00  0.00000000000E+00  0.42012849580E+02  0.42012849580E+02  0.00000000000E+00 0.  1.
         21   -1    0    0  501  502 -0.00000000000E+00 -0.00000000000E+00 -0.77905377353E+03  0.77905377353E+03  0.00000000000E+00 0.  1.
         25    1    1    2    0    0 -0.37514793236E+02 -0.10333260397E+03 -0.52930255665E+03  0.55486140903E+03  0.12500000000E+03 0.  0.
         25    1    1    2    0    0  0.37514793236E+02  0.10333260397E+03 -0.20773836729E+03  0.26620521407E+03  0.12500000000E+03 0.  0.
</event>
<event>
 4    0  0.2205135E-002  0.1885478E+03  0.7546771E-02  0.1159778E+00
         21   -1    0    0  502  501  0.00000000000E+00  0.00000000000E+00  0.12799075000E+03  0.12799075000E+03  0.00000000000E+00 0. -1.
         21   -1    0    0  501  502 -0.00000000000E+00 -0.00000000000E+00 -0.27775668076E+03  0.27775668076E+03  0.00000000000E+00 0. -1.
         25    1    1    2    0    0  0.46913636849E+02  0.10620177450E+03 -0.16126734608E+03  0.23475915986E+03  0.12500000000E+03 0.  0.
         25    1    1    2    0    0 -0.46913636849E+02 -0.10620177450E+03  0.11501415326E+02  0.17098827089E+03  0.12500000000E+03 0.  0.
</event>
<event>
 4    0  0.2205135E-002  0.1848354E+03  0.7546771E-02  0.1163204E+00
         21   -1    0    0  502  501  0.00000000000E+00  0.00000000000E+00  0.21677622075E+03  0.21677622075E+03  0.00000000000E+00 0.  1.
         21   -1    0    0  501  502 -0.00000000000E+00 -0.00000000000E+00 -0.15760096205E+03  0.15760096205E+03  0.00000000000E+00 0.  1.
         25    1    1    2    0    0 -0.69803244324E+02 -0.63672323735E+02 -0.69703836203E+02  0.17149426378E+03  0.12500000000E+03 0.  0.
         25    1    1    2    0    0  0.69803244324E+02  0.63672323735E+02  0.12887909490E+03  0.20288291902E+03  0.12500000000E+03 0.  0.
</event>
<event>
 4    0  0.2205135E-002  0.3285963E+03  0.7546771E-02  0.1071760E+00
         21   -1    0    0  502  501  0.00000000000E+00  0.00000000000E+00  0.49355388885E+03  0.49355388885E+03  0.00000000000E+00 0. -1.
         21   -1    0    0  501  502 -0.00000000000E+00 -0.00000000000E+00 -0.21877156604E+03  0.21877156604E+03  0.00000000000E+00 0. -1.
         25    1    1    2    0    0  0.23656977052E+03  0.13406457664E+03 -0.96829077909E+01  0.29942833155E+03  0.12500000000E+03 0.  0.
         25    1    1    2    0    0 -0.23656977052E+03 -0.13406457664E+03  0.28446523061E+03  0.41289712333E+03  0.12500000000E+03 0.  0.
</event>
<event>
 4    0  0.2205135E-002  0.1921363E+03  0.7546771E-02  0.1156549E+00
         21   -1    0    0  502  501  0.00000000000E+00  0.00000000000E+00  0.50037381057E+03  0.50037381057E+03  0.00000000000E+00 0. -1.
         21   -1    0    0  501  502 -0.00000000000E+00 -0.00000000000E+00 -0.73777556379E+02  0.73777556379E+02  0.00000000000E+00 0. -1.
         25    1    1    2    0    0  0.17970937628E+02  0.18579132944E+02 -0.12699986065E+01  0.12765089767E+03  0.12500000000E+03 0.  0.
         25    1    1    2    0    0 -0.17970937628E+02 -0.18579132944E+02  0.42786625280E+03  0.44650046927E+03  0.12500000000E+03 0.  0.
</event>
<event>
 4    0  0.2205135E-002  0.4613715E+03  0.7546771E-02  0.1024384E+00
         21   -1    0    0  502  501  0.00000000000E+00  0.00000000000E+00  0.26878224825E+03  0.26878224825E+03  0.00000000000E+00 0.  1.
         21   -1    0    0  501  502 -0.00000000000E+00 -0.00000000000E+00 -0.79195569266E+03  0.79195569266E+03  0.00000000000E+00 0. -1.
         25    1    1    2    0    0 -0.36045229436E+03 -0.71257630409E+01 -0.55972123753E+03  0.67741382976E+03  0.12500000000E+03 0.  0.
         25    1    1    2    0    0  0.36045229436E+03  0.71257630409E+01  0.36547793123E+02  0.38332411115E+03  0.12500000000E+03 0.  0.
</event>
<event>
 4    0  0.2205135E-002  0.1657664E+03  0.7546771E-02  0.1182336E+00
         21   -1    0    0  502  501  0.00000000000E+00  0.00000000000E+00  0.10477285493E+03  0.10477285493E+03  0.00000000000E+00 0. -1.
         21   -1    0    0  501  502 -0.00000000000E+00 -0.00000000000E+00 -0.26226725612E+03  0.26226725612E+03  0.00000000000E+00 0. -1.
         25    1    1    2    0    0  0.93668597563E+02  0.53409500337E+02 -0.95431331699E+02  0.19067910207E+03  0.12500000000E+03 0.  0.
         25    1    1    2    0    0 -0.93668597563E+02 -0.53409500337E+02 -0.62063069492E+02  0.17636100899E+03  0.12500000000E+03 0.  0.
</event>
<event>
 4    0  0.2205135E-002  0.2437506E+03  0.7546771E-02  0.1117319E+00
         21   -1    0    0  502  501  0.00000000000E+00  0.00000000000E+00  0.10156716002E+04  0.10156716002E+04  0.00000000000E+00 0. -1.
         21   -1    0    0  501  502 -0.00000000000E+00 -0.00000000000E+00 -0.58497591511E+02  0.58497591511E+02  0.00000000000E+00 0. -1.
         25    1    1    2    0    0  0.25127070653E+02  0.12616085260E+03  0.11491333681E+03  0.21302113835E+03  0.12500000000E+03 0.  0.
         25    1    1    2    0    0 -0.25127070653E+02 -0.12616085260E+03  0.84226067187E+03  0.86114805335E+03  0.12500000000E+03 0.  0.
</event>
<event>
 4    0  0.2205135E-002  0.4702655E+03  0.7546771E-02  0.1021845E+00
         21   -1    0    0  502  501  0.00000000000E+00  0.00000000000E+00  0.11879358310E+03  0.11879358310E+03  0.00000000000E+00 0.  1.
         21   -1    0    0  501  502 -0.00000000000E+00 -0.00000000000E+00 -0.18616294782E+04  0.18616294782E+04  0.00000000000E+00 0.  1.
         25    1    1    2    0    0 -0.29968051941E+03 -0.60733651711E+01 -0.15875823981E+04  0.16204592467E+04  0.12500000000E+03 0.  0.
         25    1    1    2    0    0  0.29968051941E+03  0.60733651711E+01 -0.15525349701E+03  0.35996381459E+03  0.12500000000E+03 0.  0.
</event>
<event>
 4    0  0.2205135E-002  0.2987549E+03  0.7546771E-02  0.1085865E+00
         21   -1    0    0  502  501  0.00000000000E+00  0.00000000000E+00  0.14962099726E+03  0.14962099726E+03  0.00000000000E+00 0.  1.
         21   -1    0    0  501  502 -0.00000000000E+00 -0.00000000000E+00 -0.59653723314E+03  0.59653723314E+03  0.00000000000E+00 0.  1.
         25    1    1    2    0    0 -0.60196297944E+02  0.13847233176E+03 -0.50500554271E+03  0.54171374278E+03  0.12500000000E+03 0.  0.
         25    1    1    2    0    0  0.60196297944E+02 -0.13847233176E+03  0.58089306831E+02  0.20444448762E+03  0.12500000000E+03 0.  0.
</event>
<event>
 4    0  0.2205135E-002  0.1599116E+03  0.7546771E-02  0.1188797E+00
         21   -1    0    0  502  501  0.00000000000E+00  0.00000000000E+00  0.44851143973E+03  0.44851143973E+03  0.00000000000E+00 0. -1.
         21   -1    0    0  501  502 -0.00000000000E+00 -0.00000000000E+00 -0.57014656605E+02  0.57014656605E+02  0.00000000000E+00 0. -1.
         25    1    1    2    0    0 -0.67172427489E+02 -0.15940841532E+02  0.81980796524E+02  0.16465751256E+03  0.12500000000E+03 0.  0.
         25    1    1    2    0    0  0.67172427489E+02  0.15940841532E+02  0.30951598660E+03  0.34086858377E+03  0.12500000000E+03 0.  0.
</event>
<event>
 4    0  0.2205135E-002  0.2191834E+03  0.7546771E-02  0.1134493E+00
         21   -1    0    0  502  501  0.00000000000E+00  0.00000000000E+00  0.83566627592E+02  0.83566627592E+02  0.00000000000E+00 0. -1.
         21   -1    0    0  501  502 -0.00000000000E+00 -0.00000000000E+00 -0.57488713760E+03  0.57488713760E+03  0.00000000000E+00 0. -1.
         25    1    1    2    0    0  0.16827888891E+03 -0.25280416478E+02 -0.33400768815E+03  0.39514936372E+03  0.12500000000E+03 0.  0.
         25    1    1    2    0    0 -0.16827888891E+03  0.25280416478E+02 -0.15731282186E+03  0.26330440146E+03  0.12500000000E+03 0.  0.
</event>
<event>
 4    0  0.2205135E-002  0.2376206E+03  0.7546771E-02  0.1121388E+00
         21   -1    0    0  502  501  0.00000000000E+00  0.00000000000E+00  0.41951469137E+02  0.41951469137E+02  0.00000000000E+00 0. -1.
         21   -1    0    0  501  502 -0.00000000000E+00 -0.00000000000E+00 -0.13459259397E+04  0.13459259397E+04  0.00000000000E+00 0. -1.
         25    1    1    2    0    0 -0.73686064527E+02 -0.17153704785E+03 -0.42607911071E+03  0.48168766174E+03  0.12500000000E+03 0.  0.
         25    1    1    2    0    0  0.73686064527E+02  0.17153704785E+03 -0.87789535984E+03  0.90618974708E+03  0.12500000000E+03 0.  0.
</event>
<event>
 4    0  0.2205135E-002  0.1906103E+03  0.7546771E-02  0.1157912E+00
         21   -1    0    0  502  501  0.00000000000E+00  0.00000000000E+00  0.89238745728E+03  0.89238745728E+03  0.00000000000E+00 0.  1.
         21   -1    0    0  501  502 -0.00000000000E+00 -0.00000000000E+00 -0.40713564991E+02  0.40713564991E+02  0.00000000000E+00 0.  1.
         25    1    1    2    0    0  0.81121014642E+02  0.90946282561E+02  0.23853954573E+03  0.29559763227E+03  0.12500000000E+03 0.  0.
         25    1    1    2    0    0 -0.81121014642E+02 -0.90946282561E+02  0.61313434656E+03  0.63750339000E+03  0.12500000000E+03 0.  0.
</event>
<event>
 4    0  0.2205135E-002  0.2917811E+03  0.7546771E-02  0.1089423E+00
         21   -1    0    0  502  501  0.00000000000E+00  0.00000000000E+00  0.28771432756E+03  0.28771432756E+03  0.00000000000E+00 0.  1.
         21   -1    0    0  501  502 -0.00000000000E+00 -0.00000000000E+00 -0.29590537719E+03  0.29590537719E+03  0.00000000000E+00 0. -1.
         25    1    1    2    0    0 -0.63364971463E+02 -0.23962522082E+03  0.85779063579E+02  0.29054847068E+03  0.12500000000E+03 0.  0.
         25    1    1    2    0    0  0.63364971463E+02  0.23962522082E+03 -0.93970113209E+02  0.29307123407E+03  0.12500000000E+03 0.  0.
</event>
<event>
 4    0  0.2205135E-002  0.1831140E+03  0.7546771E-02  0.1164823E+00
         21   -1    0    0  502  501  0.00000000000E+00  0.00000000000E+00  0.11016735348E+03  0.11016735348E+03  0.00000000000E+00 0.  1.
         21   -1    0    0  501  502 -0.00000000000E+00 -0.00000000000E+00 -0.30436174322E+03  0.30436174322E+03  0.00000000000E+00 0.  1.
         25    1    1    2    0    0  0.94393646097E+01  0.10344084181E+03 -0.16110468549E+01  0.16253216553E+03  0.12500000000E+03 0.  0.
         25    1    1    2    0    0 -0.94393646097E+01 -0.10344084181E+03 -0.19258334288E+03  0.25199693116E+03  0.12500000000E+03 0.  0.
</event>
<event>
 4    0  0.2205135E-002  0.3109976E+03  0.7546771E-02  0.1079869E+00
         21   -1    0    0  502  501  0.00000000000E+00  0.00000000000E+00  0.48247667520E+03  0.48247667520E+03  0.00000000000E+00 0.  1.
         21   -1    0    0  501  502 -0.00000000000E+00 -0.00000000000E+00 -0.20046456478E+03  0.20046456478E+03  0.00000000000E+00 0.  1.
         25    1    1    2    0    0 -0.19381823033E+03 -0.29032129779E+02 -0.85844393150E+02  0.24779554234E+03  0.12500000000E+03 0.  0.
         25    1    1    2    0    0  0.19381823033E+03  0.29032129779E+02  0.36785650357E+03  0.43514569765E+03  0.12500000000E+03 0.  0.
</event>
<event>
 4    0  0.2205135E-002  0.1671135E+03  0.7546771E-02  0.1180892E+00
         21   -1    0    0  502  501  0.00000000000E+00  0.00000000000E+00  0.63823523961E+02  0.63823523961E+02  0.00000000000E+00 0.  1.
         21   -1    0    0  501  502 -0.00000000000E+00 -0.00000000000E+00 -0.43756488574E+03  0.43756488574E+03  0.00000000000E+00 0.  1.
         25    1    1    2    0    0 -0.36875325072E+02  0.10192621891E+03 -0.15158735249E+03  0.22439355859E+03  0.12500000000E+03 0.  0.
         25    1    1    2    0    0  0.36875325072E+02 -0.10192621891E+03 -0.22215400929E+03  0.27699485111E+03  0.12500000000E+03 0.  0.
</event>
<event>
 4    0  0.2205135E-002  0.2217486E+03  0.7546771E-02  0.1132586E+00
         21   -1    0    0  502  501  0.00000000000E+00  0.00000000000E+00  0.23573662576E+03  0.23573662576E+03  0.00000000000E+00 0. -1.
         21   -1    0    0  501  502 -0.00000000000E+00 -0.00000000000E+00 -0.20859066951E+03  0.20859066951E+03  0.00000000000E+00 0. -1.
         25    1    1    2    0    0 -0.93623404170E+02  0.20982355386E+02  0.16988374831E+03  0.23171337680E+03  0.12500000000E+03 0.  0.
         25    1    1    2    0    0  0.93623404170E+02 -0.20982355386E+02 -0.14273779206E+03  0.21261391847E+03  0.12500000000E+03 0.  0.
</event>
<event>
 4    0  0.2205135E-002  0.1764007E+03  0.7546771E-02  0.1171333E+00
         21   -1    0    0  502  501  0.00000000000E+00  0.00000000000E+00  0.34385340404E+03  0.34385340404E+03  0.00000000000E+00 0. -1.
         21   -1    0    0  501  502 -0.00000000000E+00 -0.00000000000E+00 -0.90495545622E+02  0.90495545622E+02  0.00000000000E+00 0. -1.
         25    1    1    2    0    0 -0.39886680589E+02 -0.11784375450E+03  0.13130246529E+03  0.21987140595E+03  0.12500000000E+03 0.  0.
         25    1    1    2    0    0  0.39886680589E+02  0.11784375450E+03  0.12205539312E+03  0.21447754371E+03  0.12500000000E+03 0.  0.
</event>
<event>
 4    0  0.2205135E-002  0.5399707E+03  0.7546771E-02  0.1003842E+00
         21   -1    0    0  502  501  0.00000000000E+00  0.00000000000E+00  0.10148499754E+04  0.10148499754E+04  0.00000000000E+00 0. -1.
         21   -1    0    0  501  502 -0.00000000000E+00 -0.00000000000E+00 -0.28730194276E+03  0.28730194276E+03  0.00000000000E+00 0. -1.
         25    1    1    2    0    0  0.44937960794E+03  0.22034133295E+03  0.17141427905E+03  0.54359929185E+03  0.12500000000E+03 0.  0.
         25    1    1    2    0    0 -0.44937960794E+03 -0.22034133295E+03  0.55613375362E+03  0.75855262636E+03  0.12500000000E+03 0.  0.
</event>
<event>
 4    0  0.2205135E-002  0.2162855E+03  0.7546771E-02  0.1136683E+00
         21   -1    0    0  502  501  0.00000000000E+00  0.00000000000E+00  0.30433295625E+04  0.30433295625E+04  0.00000000000E+00 0. -1.
         21   -1    0    0  501  502 -0.00000000000E+00 -0.00000000000E+00 -0.15371132411E+02  0.15371132411E+02  0.00000000000E+00 0. -1.
         25    1    1    2    0    0 -0.72566386024E+02  0.16077951805E+03  0.14701118544E+04  0.14859238871E+04  0.12500000000E+03 0.  0.
         25    1    1    2    0    0  0.72566386024E+02 -0.16077951805E+03  0.15578465756E+04  0.15727768078E+04  0.12500000000E+03 0.  0.
</event>
<event>
 4    0  0.2205135E-002  0.4057830E+03  0.7546771E-02  0.1041795E+00
         21   -1    0    0  502  501  0.00000000000E+00  0.00000000000E+00  0.25956956854E+03  0.25956956854E+03  0.00000000000E+00 0.  1.
         21   -1    0    0  501  502 -0.00000000000E+00 -0.00000000000E+00 -0.63435730014E+03  0.63435730014E+03  0.00000000000E+00 0. -1.
         25    1    1    2    0    0 -0.36115942286E+03 -0.12434405638E+03 -0.12569820616E+03  0.42109691534E+03  0.12500000000E+03 0.  0.
         25    1    1    2    0    0  0.36115942286E+03  0.12434405638E+03 -0.24908952544E+03  0.47282995333E+03  0.12500000000E+03 0.  0.
</event>
<event>
 4    0  0.2205135E-002  0.2276501E+03  0.7546771E-02  0.1128305E+00
         21   -1    0    0  502  501  0.00000000000E+00  0.00000000000E+00  0.14188843309E+03  0.14188843309E+03  0.00000000000E+00 0. -1.
         21   -1    0    0  501  502 -0.00000000000E+00 -0.00000000000E+00 -0.36524877279E+03  0.36524877279E+03  0.00000000000E+00 0. -1.
         25    1    1    2    0    0 -0.42184745856E+02 -0.14921054193E+03  0.11127979309E+02  0.19947974967E+03  0.12500000000E+03 0.  0.
         25    1    1    2    0    0  0.42184745856E+02  0.14921054193E+03 -0.23448831902E+03  0.30765745621E+03  0.12500000000E+03 0.  0.
</event>
<event>
 4    0  0.2205135E-002  0.1752741E+03  0.7546771E-02  0.1172457E+00
         21   -1    0    0  502  501  0.00000000000E+00  0.00000000000E+00  0.48832086059E+03  0.48832086059E+03  0.00000000000E+00 0.  1.
         21   -1    0    0  501  502 -0.00000000000E+00 -0.00000000000E+00 -0.62911516615E+02  0.62911516615E+02  0.00000000000E+00 0.  1.
         25    1    1    2    0    0 -0.68201765075E+02 -0.19726635083E+02  0.37038821126E+03  0.39730724626E+03  0.12500000000E+03 0.  0.
         25    1    1    2    0    0  0.68201765075E+02  0.19726635083E+02  0.55021132717E+02  0.15392513095E+03  0.12500000000E+03 0.  0.
</event>
<event>
 4    0  0.2205135E-002  0.2117562E+03  0.7546771E-02  0.1140183E+00
         21   -1    0    0  502  501  0.00000000000E+00  0.00000000000E+00  0.78865731970E+02  0.78865731970E+02  0.00000000000E+00 0.  1.
         21   -1    0    0  501  502 -0.00000000000E+00 -0.00000000000E+00 -0.56857015262E+03  0.56857015262E+03  0.00000000000E+00 0.  1.
         25    1    1    2    0    0  0.11558155271E+02  0.16174389929E+03 -0.16222978504E+03  0.26122439217E+03  0.12500000000E+03 0.  0.
         25    1    1    2    0    0 -0.11558155271E+02 -0.16174389929E+03 -0.32747463561E+03  0.38621149242E+03  0.12500000000E+03 0.  0.
</event>
<event>
 4    0  0.2205135E-002  0.2635194E+03  0.7546771E-02  0.1105047E+00
         21   -1    0    0  502  501  0.00000000000E+00  0.00000000000E+00  0.76215483691E+02  0.76215483691E+02  0.00000000000E+00 0.  1.
         21   -1    0    0  501  502 -0.00000000000E+00 -0.00000000000E+00 -0.91113349394E+03  0.91113349394E+03  0.00000000000E+00 0.  1.
         25    1    1    2    0    0 -0.17944690395E+03 -0.12422637888E+03 -0.56478051609E+03  0.61825190328E+03  0.12500000000E+03 0.  0.
         25    1    1    2    0    0  0.17944690395E+03  0.12422637888E+03 -0.27013749416E+03  0.36909707435E+03  0.12500000000E+03 0.  0.
</event>
<event>
 4    0  0.2205135E-002  0.2388329E+03  0.7546771E-02  0.1120573E+00
         21   -1    0    0  502  501  0.00000000000E+00  0.00000000000E+00  0.10001783963E+03  0.10001783963E+03  0.00000000000E+00 0. -1.
         21   -1    0    0  501  502 -0.00000000000E+00 -0.00000000000E+00 -0.57030969966E+03  0.57030969966E+03  0.00000000000E+00 0. -1.
         25    1    1    2    0    0 -0.15181519975E+03  0.34928218496E+02 -0.51376359758E+02  0.20623376461E+03  0.12500000000E+03 0.  0.
         25    1    1    2    0    0  0.15181519975E+03 -0.34928218496E+02 -0.41891550028E+03  0.46409377468E+03  0.12500000000E+03 0.  0.
</event>
<event>
 4    0  0.2205135E-002  0.2111906E+03  0.7546771E-02  0.1140627E+00
         21   -1    0    0  502  501  0.00000000000E+00  0.00000000000E+00  0.70801540333E+02  0.70801540333E+02  0.00000000000E+00 0.  1.
         21   -1    0    0  501  502 -0.00000000000E+00 -0.00000000000E+00 -0.62995077731E+03  0.62995077731E+03  0.00000000000E+00 0.  1.
         25    1    1    2    0    0  0.11434979850E+03 -0.61558155810E+02 -0.96994486341E+02  0.20469053067E+03  0.12500000000E+03 0.  0.
         25    1    1    2    0    0 -0.11434979850E+03  0.61558155810E+02 -0.46215475063E+03  0.49606178698E+03  0.12500000000E+03 0.  0.
</event>
<event>
 4    0  0.2205135E-002  0.1964910E+03  0.7546771E-02  0.1152734E+00
         21   -1    0    0  502  501  0.00000000000E+00  0.00000000000E+00  0.12310478158E+03  0.12310478158E+03  0.00000000000E+00 0. -1.
         21   -1    0    0  501  502 -0.00000000000E+00 -0.00000000000E+00 -0.31362481060E+03  0.31362481060E+03  0.00000000000E+00 0. -1.
         25    1    1    2    0    0  0.10704984975E+03  0.97045990695E+01 -0.21407206561E+03  0.27019566770E+03  0.12500000000E+03 0.  0.
         25    1    1    2    0    0 -0.10704984975E+03 -0.97045990695E+01  0.23552036587E+02  0.16653392447E+03  0.12500000000E+03 0.  0.
</event>
<event>
 4    0  0.2205135E-002  0.2033708E+03  0.7546771E-02  0.1146926E+00
         21   -1    0    0  502  501  0.00000000000E+00  0.00000000000E+00  0.45574596876E+03  0.45574596876E+03  0.00000000000E+00 0.  1.
         21   -1    0    0  501  502 -0.00000000000E+00 -0.00000000000E+00 -0.90751585037E+02  0.90751585037E+02  0.00000000000E+00 0.  1.
         25    1    1    2    0    0 -0.75625940079E+02 -0.15420773121E+02  0.37145130057E+03  0.39944730785E+03  0.12500000000E+03 0.  0.
         25    1    1    2    0    0  0.75625940079E+02  0.15420773121E+02 -0.64569168469E+01  0.14705024594E+03  0.12500000000E+03 0.  0.
</event>
<event>
 4    0  0.2205135E-002  0.1825644E+03  0.7546771E-02  0.1165344E+00
         21   -1    0    0  502  501  0.00000000000E+00  0.00000000000E+00  0.15172629349E+03  0.15172629349E+03  0.00000000000E+00 0. -1.
         21   -1    0    0  501  502 -0.00000000000E+00 -0.00000000000E+00 -0.21967020241E+03  0.21967020241E+03  0.00000000000E+00 0. -1.
         25    1    1    2    0    0 -0.30910374972E+02 -0.12651877473E+02 -0.16498207512E+03  0.20966546305E+03  0.12500000000E+03 0.  0.
         25    1    1    2    0    0  0.30910374972E+02  0.12651877473E+02  0.97038166212E+02  0.16173103285E+03  0.12500000000E+03 0.  0.
</event>
<event>
 4    0  0.2205135E-002  0.2821746E+03  0.7546771E-02  0.1094507E+00
         21   -1    0    0  502  501  0.00000000000E+00  0.00000000000E+00  0.56180871381E+02  0.56180871381E+02  0.00000000000E+00 0. -1.
         21   -1    0    0  501  502 -0.00000000000E+00 -0.00000000000E+00 -0.14172529611E+04  0.14172529611E+04  0.00000000000E+00 0. -1.
         25    1    1    2    0    0 -0.21280783964E+03 -0.98902098999E+02 -0.92724047353E+03  0.96460805385E+03  0.12500000000E+03 0.  0.
         25    1    1    2    0    0  0.21280783964E+03  0.98902098999E+02 -0.43383161622E+03  0.50882577866E+03  0.12500000000E+03 0.  0.
</event>
<event>
 4    0  0.2205135E-002  0.2056574E+03  0.7546771E-02  0.1145052E+00
         21   -1    0    0  502  501  0.00000000000E+00  0.00000000000E+00  0.10682100475E+03  0.10682100475E+03  0.00000000000E+00 0. -1.
         21   -1    0    0  501  502 -0.00000000000E+00 -0.00000000000E+00 -0.39594225056E+03  0.39594225056E+03  0.00000000000E+00 0. -1.
         25    1    1    2    0    0  0.15642571271E+03 -0.13262414541E+02 -0.19956630607E+03  0.28301343741E+03  0.12500000000E+03 0.  0.
         25    1    1    2    0    0 -0.15642571271E+03  0.13262414541E+02 -0.89554939737E+02  0.21974981790E+03  0.12500000000E+03 0.  0.
</event>
<event>
 4    0  0.2205135E-002  0.1555296E+03  0.7546771E-02  0.1193838E+00
         21   -1    0    0  502  501  0.00000000000E+00  0.00000000000E+00  0.29499506629E+03  0.29499506629E+03  0.00000000000E+00 0.  1.
         21   -1    0    0  501  502 -0.00000000000E+00 -0.00000000000E+00 -0.81999540298E+02  0.81999540298E+02  0.00000000000E+00 0.  1.
         25    1    1    2    0    0 -0.70100870498E+02 -0.27994053129E+02  0.41607399351E+02  0.15183535404E+03  0.12500000000E+03 0.  0.
         25    1    1    2    0    0  0.70100870498E+02  0.27994053129E+02  0.17138812664E+03  0.22515925255E+03  0.12500000000E+03 0.  0.
</event>
<event>
 4    0  0.2205135E-002  0.3131188E+03  0.7546771E-02  0.1078861E+00
         21   -1    0    0  502  501  0.00000000000E+00  0.00000000000E+00  0.76360647493E+02  0.76360647493E+02  0.00000000000E+00 0.  1.
         21   -1    0    0  501  502 -0.00000000000E+00 -0.00000000000E+00 -0.12839519288E+04  0.12839519288E+04  0.00000000000E+00 0.  1.
         25    1    1    2    0    0  0.67682230556E+02 -0.26270063300E+03 -0.80786550749E+03  0.86131538075E+03  0.12500000000E+03 0.  0.
         25    1    1    2    0    0 -0.67682230556E+02  0.26270063300E+03 -0.39972577383E+03  0.49899719556E+03  0.12500000000E+03 0.  0.
</event>
<event>
 4    0  0.2205135E-002  0.2568526E+03  0.7546771E-02  0.1109049E+00
         21   -1    0    0  502  501  0.00000000000E+00  0.00000000000E+00  0.10867513166E+04  0.10867513166E+04  0.00000000000E+00 0. -1.
         21   -1    0    0  501  502 -0.00000000000E+00 -0.00000000000E+00 -0.60706872828E+02  0.60706872828E+02  0.00000000000E+00 0. -1.
         25    1    1    2    0    0 -0.16210768859E+03  0.64524686047E+02  0.82816993451E+03  0.85553069977E+03  0.12500000000E+03 0.  0.
         25    1    1    2    0    0  0.16210768859E+03 -0.64524686047E+02  0.19787450928E+03  0.29192748968E+03  0.12500000000E+03 0.  0.
</event>
<event>
 4    0  0.2205135E-002  0.1860731E+03  0.7546771E-02  0.1162052E+00
         21   -1    0    0  502  501  0.00000000000E+00  0.00000000000E+00  0.12421423143E+04  0.12421423143E+04  0.00000000000E+00 0.  1.
         21   -1    0    0  501  502 -0.00000000000E+00 -0.00000000000E+00 -0.27873771814E+02  0.27873771814E+02  0.00000000000E+00 0.  1.
         25    1    1    2    0    0 -0.81455895985E+01  0.99531316658E+02  0.93134538022E+03  0.94498785753E+03  0.12500000000E+03 0.  0.
         25    1    1    2    0    0  0.81455895985E+01 -0.99531316658E+02  0.28292316223E+03  0.32502822855E+03  0.12500000000E+03 0.  0.
</event>
<event>
 4    0  0.2205135E-002  0.2113109E+03  0.7546771E-02  0.1140532E+00
         21   -1    0    0  502  501  0.00000000000E+00  0.00000000000E+00  0.63569674962E+03  0.63569674962E+03  0.00000000000E+00 0.  1.
         21   -1    0    0  501  502 -0.00000000000E+00 -0.00000000000E+00 -0.70241502655E+02  0.70241502655E+02  0.00000000000E+00 0.  1.
         25    1    1    2    0    0  0.90649044143E+02  0.89789769927E+02  0.47132392837E+03  0.50403442089E+03  0.12500000000E+03 0.  0.
         25    1    1    2    0    0 -0.90649044143E+02 -0.89789769927E+02  0.94131318594E+02  0.20190383138E+03  0.12500000000E+03 0.  0.
</event>
<event>
 4    0  0.2205135E-002  0.2117908E+03  0.7546771E-02  0.1140156E+00
         21   -1    0    0  502  501  0.00000000000E+00  0.00000000000E+00  0.24215940900E+03  0.24215940900E+03  0.00000000000E+00 0. -1.
         21   -1    0    0  501  502 -0.00000000000E+00 -0.00000000000E+00 -0.18523067533E+03  0.18523067533E+03  0.00000000000E+00 0. -1.
         25    1    1    2    0    0 -0.81638040871E+02  0.43953029319E+01 -0.12303980665E+03  0.19351455352E+03  0.12500000000E+03 0.  0.
         25    1    1    2    0    0  0.81638040871E+02 -0.43953029319E+01  0.17996854032E+03  0.23387553081E+03  0.12500000000E+03 0.  0.
</event>
<event>
 4    0  0.2205135E-002  0.5105199E+03  0.7546771E-02  0.1011069E+00
         21   -1    0    0  502  501  0.00000000000E+00  0.00000000000E+00  0.42108911513E+03  0.42108911513E+03  0.00000000000E+00 0. -1.
         21   -1    0    0  501  502 -0.00000000000E+00 -0.00000000000E+00 -0.61894394178E+03  0.61894394178E+03  0.00000000000E+00 0. -1.
         25    1    1    2    0    0  0.14136793098E+03  0.20783444026E+03  0.33541464923E+03  0.43738773804E+03  0.12500000000E+03 0.  0.
         25    1    1    2    0    0 -0.14136793098E+03 -0.20783444026E+03 -0.53326947588E+03  0.60264531888E+03  0.12500000000E+03 0.  0.
</event>
<event>
 4    0  0.2205135E-002  0.1874096E+03  0.7546771E-02  0.1160819E+00
         21   -1    0    0  502  501  0.00000000000E+00  0.00000000000E+00  0.48417377278E+03  0.48417377278E+03  0.00000000000E+00 0. -1.
         21   -1    0    0  501  502 -0.00000000000E+00 -0.00000000000E+00 -0.72540814030E+02  0.72540814030E+02  0.00000000000E+00 0. -1.
         25    1    1    2    0    0  0.70266837347E+01  0.11713553373E+03  0.31822103448E+03  0.36146885665E+03  0.12500000000E+03 0.  0.
         25    1    1    2    0    0 -0.70266837347E+01 -0.11713553373E+03  0.93411924273E+02  0.19524573016E+03  0.12500000000E+03 0.  0.
</event>
<event>
 4    0  0.2205135E-002  0.4100266E+03  0.7546771E-02  0.1040362E+00
         21   -1    0    0  502  501  0.00000000000E+00  0.00000000000E+00  0.29523483059E+03  0.29523483059E+03  0.00000000000E+00 0.  1.
         21   -1    0    0  501  502 -0.00000000000E+00 -0.00000000000E+00 -0.56945122856E+03  0.56945122856E+03  0.00000000000E+00 0. -1.
         25    1    1    2    0    0  0.47548432577E+02  0.35485596192E+03  0.27305396178E+02  0.38020282983E+03  0.12500000000E+03 0.  0.
         25    1    1    2    0    0 -0.47548432577E+02 -0.35485596192E+03 -0.30152179415E+03  0.48448322933E+03  0.12500000000E+03 0.  0.
</event>
<event>
 4    0  0.2205135E-002  0.1716413E+03  0.7546771E-02  0.1176147E+00
         21   -1    0    0  502  501  0.00000000000E+00  0.00000000000E+00  0.60775144420E+02  0.60775144420E+02  0.00000000000E+00 0.  1.
         21   -1    0    0  501  502 -0.00000000000E+00 -0.00000000000E+00 -0.48474988232E+03  0.48474988232E+03  0.00000000000E+00 0.  1.
         25    1    1    2    0    0 -0.18046958810E+02  0.35075173449E+01 -0.27361098468E+02  0.12927345091E+03  0.12500000000E+03 0.  0.
         25    1    1    2    0    0  0.18046958810E+02 -0.35075173449E+01 -0.39661363943E+03  0.41625157583E+03  0.12500000000E+03 0.  0.
</event>
<event>
 4    0  0.2205135E-002  0.2325718E+03  0.7546771E-02  0.1124843E+00
         21   -1    0    0  502  501  0.00000000000E+00  0.00000000000E+00  0.86079202783E+02  0.86079202783E+02  0.00000000000E+00 0. -1.
         21   -1    0    0  501  502 -0.00000000000E+00 -0.00000000000E+00 -0.62837063187E+03  0.62837063187E+03  0.00000000000E+00 0. -1.
         25    1    1    2    0    0  0.16317913410E+02  0.19457947721E+03 -0.29935069219E+03  0.37863344301E+03  0.12500000000E+03 0.  0.
         25    1    1    2    0    0 -0.16317913410E+02 -0.19457947721E+03 -0.24294073689E+03  0.33581639164E+03  0.12500000000E+03 0.  0.
</event>
<event>
 4    0  0.2205135E-002  0.5560904E+03  0.7546771E-02  0.1000094E+00
         21   -1    0    0  502  501  0.00000000000E+00  0.00000000000E+00  0.10519906774E+04  0.10519906774E+04  0.00000000000E+00 0. -1.
         21   -1    0    0  501  502 -0.00000000000E+00 -0.00000000000E+00 -0.29395372342E+03  0.29395372342E+03  0.00000000000E+00 0. -1.
         25    1    1    2    0    0  0.30229725284E+03  0.40200447754E+03  0.13511189867E+03  0.53560382205E+03  0.12500000000E+03 0.  0.
         25    1    1    2    0    0 -0.30229725284E+03 -0.40200447754E+03  0.62292505526E+03  0.81034057871E+03  0.12500000000E+03 0.  0.
</event>
<event>
 4    0  0.2205135E-002  0.2222310E+03  0.7546771E-02  0.1132231E+00
         21   -1    0    0  502  501  0.00000000000E+00  0.00000000000E+00  0.92409860429E+02  0.92409860429E+02  0.00000000000E+00 0.  1.
         21   -1    0    0  501  502 -0.00000000000E+00 -0.00000000000E+00 -0.53443034018E+03  0.53443034018E+03  0.00000000000E+00 0.  1.
         25    1    1    2    0    0 -0.18037329114E+02  0.17797179010E+03 -0.16180423840E+03  0.27167059995E+03  0.12500000000E+03 0.  0.
         25    1    1    2    0    0  0.18037329114E+02 -0.17797179010E+03 -0.28021624136E+03  0.35516960066E+03  0.12500000000E+03 0.  0.
</event>
<event>
 4    0  0.2205135E-002  0.2227673E+03  0.7546771E-02  0.1131837E+00
         21   -1    0    0  502  501  0.00000000000E+00  0.00000000000E+00  0.15644064182E+04  0.15644064182E+04  0.00000000000E+00 0.  1.
         21   -1    0    0  501  502 -0.00000000000E+00 -0.00000000000E+00 -0.31721460746E+02  0.31721460746E+02  0.00000000000E+00 0.  1.
         25    1    1    2    0    0 -0.13678173197E+03  0.13335449411E+02  0.12067596437E+04  0.12209753945E+04  0.12500000000E+03 0.  0.
         25    1    1    2    0    0  0.13678173197E+03 -0.13335449411E+02  0.32592531380E+03  0.37515248444E+03  0.12500000000E+03 0.  0.
</event>
<event>
 4    0  0.2205135E-002  0.1826140E+03  0.7546771E-02  0.1165297E+00
         21   -1    0    0  502  501  0.00000000000E+00  0.00000000000E+00  0.25742910830E+02  0.25742910830E+02  0.00000000000E+00 0. -1.
         21   -1    0    0  501  502 -0.00000000000E+00 -0.00000000000E+00 -0.12954198815E+04  0.12954198815E+04  0.00000000000E+00 0. -1.
         25    1    1    2    0    0 -0.10210332411E+03  0.29530074553E+02 -0.34486744121E+03  0.38191054725E+03  0.12500000000E+03 0.  0.
         25    1    1    2    0    0  0.10210332411E+03 -0.29530074553E+02 -0.92480952951E+03  0.93925224512E+03  0.12500000000E+03 0.  0.
</event>
<event>
 4    0  0.2205135E-002  0.2600859E+03  0.7546771E-02  0.1107092E+00
         21   -1    0    0  502  501  0.00000000000E+00  0.00000000000E+00  0.45368107154E+03  0.45368107154E+03  0.00000000000E+00 0.  1.
         21   -1    0    0  501  502 -0.00000000000E+00 -0.00000000000E+00 -0.14910187365E+03  0.14910187365E+03  0.00000000000E+00 0.  1.
         25    1    1    2    0    0 -0.16036122739E+03 -0.66528426118E+02  0.32369216679E+03  0.38799919275E+03  0.12500000000E+03 0.  0.
         25    1    1    2    0    0  0.16036122739E+03  0.66528426118E+02 -0.19112968905E+02  0.21478375244E+03  0.12500000000E+03 0.  0.
</event>
<event>
 4    0  0.2205135E-002  0.1591551E+03  0.7546771E-02  0.1189654E+00
         21   -1    0    0  502  501  0.00000000000E+00  0.00000000000E+00  0.23680415129E+02  0.23680415129E+02  0.00000000000E+00 0.  1.
         21   -1    0    0  501  502 -0.00000000000E+00 -0.00000000000E+00 -0.10696749786E+04  0.10696749786E+04  0.00000000000E+00 0.  1.
         25    1    1    2    0    0 -0.40771397450E+02 -0.63852168060E+02 -0.30668363226E+03  0.33973409678E+03  0.12500000000E+03 0.  0.
         25    1    1    2    0    0  0.40771397450E+02  0.63852168060E+02 -0.73931093126E+03  0.75362129700E+03  0.12500000000E+03 0.  0.
</event>
<event>
 4    0  0.2205135E-002  0.1586928E+03  0.7546771E-02  0.1190181E+00
         21   -1    0    0  502  501  0.00000000000E+00  0.00000000000E+00  0.14995465038E+03  0.14995465038E+03  0.00000000000E+00 0. -1.
         21   -1    0    0  501  502 -0.00000000000E+00 -0.00000000000E+00 -0.16794003507E+03  0.16794003507E+03  0.00000000000E+00 0. -1.
         25    1    1    2    0    0  0.56701169034E+02  0.55634078559E+02  0.48091864218E+02  0.15571769543E+03  0.12500000000E+03 0.  0.
         25    1    1    2    0    0 -0.56701169034E+02 -0.55634078559E+02 -0.66077248909E+02  0.16217699002E+03  0.12500000000E+03 0.  0.
</event>
<event>
 4    0  0.2205135E-002  0.2041502E+03  0.7546771E-02  0.1146284E+00
         21   -1    0    0  502  501  0.00000000000E+00  0.00000000000E+00  0.21229950885E+03  0.21229950885E+03  0.00000000000E+00 0.  1.
         21   -1    0    0  501  502 -0.00000000000E+00 -0.00000000000E+00 -0.19631372624E+03  0.19631372624E+03  0.00000000000E+00 0.  1.
         25    1    1    2    0    0  0.12725832183E+03  0.45357920149E+02 -0.80394003477E+02  0.20084874207E+03  0.12500000000E+03 0.  0.
         25    1    1    2    0    0 -0.12725832183E+03 -0.45357920149E+02  0.96379786086E+02  0.20776449303E+03  0.12500000000E+03 0.  0.
</event>
<event>
 4    0  0.2205135E-002  0.2886544E+03  0.7546771E-02  0.1091054E+00
         21   -1    0    0  502  501  0.00000000000E+00  0.00000000000E+00  0.23096894780E+03  0.23096894780E+03  0.00000000000E+00 0.  1.
         21   -1    0    0  501  502 -0.00000000000E+00 -0.00000000000E+00 -0.36074715081E+03  0.36074715081E+03  0.00000000000E+00 0.  1.
         25    1    1    2    0    0 -0.13279479878E+03 -0.17921962244E+03  0.72402410398E+02  0.26574657229E+03  0.12500000000E+03 0.  0.
         25    1    1    2    0    0  0.13279479878E+03  0.17921962244E+03 -0.20218061341E+03  0.32596952632E+03  0.12500000000E+03 0.  0.
</event>
<event>
 4    0  0.2205135E-002  0.3319382E+03  0.7546771E-02  0.1070282E+00
         21   -1    0    0  502  501  0.00000000000E+00  0.00000000000E+00  0.12477957021E+03  0.12477957021E+03  0.00000000000E+00 0. -1.
         21   -1    0    0  501  502 -0.00000000000E+00 -0.00000000000E+00 -0.88302094090E+03  0.88302094090E+03  0.00000000000E+00 0. -1.
         25    1    1    2    0    0  0.12827337929E+03 -0.27281249098E+03 -0.47117611522E+03  0.57316022770E+03  0.12500000000E+03 0.  0.
         25    1    1    2    0    0 -0.12827337929E+03  0.27281249098E+03 -0.28706525547E+03  0.43464028341E+03  0.12500000000E+03 0.  0.
</event>
<event>
 4    0  0.2205135E-002  0.1630841E+03  0.7546771E-02  0.1185258E+00
         21   -1    0    0  502  501  0.00000000000E+00  0.00000000000E+00  0.46856565096E+03  0.46856565096E+03  0.00000000000E+00 0.  1.
         21   -1    0    0  501  502 -0.00000000000E+00 -0.00000000000E+00 -0.56761333708E+02  0.56761333708E+02  0.00000000000E+00 0.  1.
         25    1    1    2    0    0 -0.67659621812E+02 -0.10184601053E+02  0.78167512310E+02  0.16253218298E+03  0.12500000000E+03 0.  0.
         25    1    1    2    0    0  0.67659621812E+02  0.10184601053E+02  0.33363680494E+03  0.36279480169E+03  0.12500000000E+03 0.  0.
</event>
<event>
 4    0  0.2205135E-002  0.1884723E+03  0.7546771E-02  0.1159846E+00
         21   -1    0    0  502  501  0.00000000000E+00  0.00000000000E+00  0.73953477812E+02  0.73953477812E+02  0.00000000000E+00 0. -1.
         21   -1    0    0  501  502 -0.00000000000E+00 -0.00000000000E+00 -0.48032644558E+03  0.48032644558E+03  0.00000000000E+00 0. -1.
         25    1    1    2    0    0  0.12225715225E+02 -0.20520978907E+02 -0.40760733942E+03  0.42701208629E+03  0.12500000000E+03 0.  0.
         25    1    1    2    0    0 -0.12225715225E+02  0.20520978907E+02  0.12343716497E+01  0.12726783711E+03  0.12500000000E+03 0.  0.
</event>
<event>
 4    0  0.2205135E-002  0.2310066E+03  0.7546771E-02  0.1125933E+00
         21   -1    0    0  502  501  0.00000000000E+00  0.00000000000E+00  0.19761181454E+03  0.19761181454E+03  0.00000000000E+00 0.  1.
         21   -1    0    0  501  502 -0.00000000000E+00 -0.00000000000E+00 -0.27004493992E+03  0.27004493992E+03  0.00000000000E+00 0.  1.
         25    1    1    2    0    0  0.10494191903E+03 -0.15061561378E+03  0.28130388127E+02  0.22386198476E+03  0.12500000000E+03 0.  0.
         25    1    1    2    0    0 -0.10494191903E+03  0.15061561378E+03 -0.10056351350E+03  0.24379476970E+03  0.12500000000E+03 0.  0.
</event>
<event>
 4    0  0.2205135E-002  0.3483131E+03  0.7546771E-02  0.1063310E+00
         21   -1    0    0  502  501  0.00000000000E+00  0.00000000000E+00  0.51740453653E+03  0.51740453653E+03  0.00000000000E+00 0. -1.
         21   -1    0    0  501  502 -0.00000000000E+00 -0.00000000000E+00 -0.23448186950E+03  0.23448186950E+03  0.00000000000E+00 0. -1.
         25    1    1    2    0    0  0.15293250866E+03 -0.32958621121E+02 -0.16614147013E+03  0.26019725404E+03  0.12500000000E+03 0.  0.
         25    1    1    2    0    0 -0.15293250866E+03  0.32958621121E+02  0.44906413716E+03  0.49168915200E+03  0.12500000000E+03 0.  0.
</event>
<event>
 4    0  0.2205135E-002  0.2106398E+03  0.7546771E-02  0.1141060E+00
         21   -1    0    0  502  501  0.00000000000E+00  0.00000000000E+00  0.45147359019E+03  0.45147359019E+03  0.00000000000E+00 0. -1.
         21   -1    0    0  501  502 -0.00000000000E+00 -0.00000000000E+00 -0.98276253512E+02  0.98276253512E+02  0.00000000000E+00 0. -1.
         25    1    1    2    0    0  0.14162709645E+03 -0.79890333230E+02  0.11396866142E+03  0.23463707205E+03  0.12500000000E+03 0.  0.
         25    1    1    2    0    0 -0.14162709645E+03  0.79890333230E+02  0.23922867526E+03  0.31511277166E+03  0.12500000000E+03 0.  0.
</event>
<event>
 4    0  0.2205135E-002  0.5496082E+03  0.7546771E-02  0.1001585E+00
         21   -1    0    0  502  501  0.00000000000E+00  0.00000000000E+00  0.51325071706E+03  0.51325071706E+03  0.00000000000E+00 0. -1.
         21   -1    0    0  501  502 -0.00000000000E+00 -0.00000000000E+00 -0.58854121315E+03  0.58854121315E+03  0.00000000000E+00 0. -1.
         25    1    1    2    0    0  0.25747159792E+03  0.28826471236E+03  0.33343295545E+03  0.52553848946E+03  0.12500000000E+03 0.  0.
         25    1    1    2    0    0 -0.25747159792E+03 -0.28826471236E+03 -0.40872345154E+03  0.57625344074E+03  0.12500000000E+03 0.  0.
</event>
<event>
 4    0  0.2205135E-002  0.1661732E+03  0.7546771E-02  0.1181898E+00
         21   -1    0    0  502  501  0.00000000000E+00  0.00000000000E+00  0.27516880111E+03  0.27516880111E+03  0.00000000000E+00 0.  1.
         21   -1    0    0  501  502 -0.00000000000E+00 -0.00000000000E+00 -0.10035120418E+03  0.10035120418E+03  0.00000000000E+00 0.  1.
         25    1    1    2    0    0  0.83655772511E+02 -0.49774072564E+02  0.14404823249E+03  0.21412762516E+03  0.12500000000E+03 0.  0.
         25    1    1    2    0    0 -0.83655772511E+02  0.49774072564E+02  0.30769364442E+02  0.16139238012E+03  0.12500000000E+03 0.  0.
</event>
<event>
 4    0  0.2205135E-002  0.1730858E+03  0.7546771E-02  0.1174668E+00
         21   -1    0    0  502  501  0.00000000000E+00  0.00000000000E+00  0.11503092760E+03  0.11503092760E+03  0.00000000000E+00 0. -1.
         21   -1    0    0  501  502 -0.00000000000E+00 -0.00000000000E+00 -0.26044022812E+03  0.26044022812E+03  0.00000000000E+00 0. -1.
         25    1    1    2    0    0 -0.91283750406E+02  0.23253212380E+02 -0.15285240232E+03  0.21877452290E+03  0.12500000000E+03 0.  0.
         25    1    1    2    0    0  0.91283750406E+02 -0.23253212380E+02  0.74431017934E+01  0.15669663282E+03  0.12500000000E+03 0.  0.
</event>
<event>
 4    0  0.2205135E-002  0.2406604E+03  0.7546771E-02  0.1119354E+00
         21   -1    0    0  502  501  0.00000000000E+00  0.00000000000E+00  0.28976971916E+02  0.28976971916E+02  0.00000000000E+00 0.  1.
         21   -1    0    0  501  502 -0.00000000000E+00 -0.00000000000E+00 -0.19987399477E+04  0.19987399477E+04  0.00000000000E+00 0.  1.
         25    1    1    2    0    0 -0.16632985571E+03 -0.29249064323E+02 -0.49050228287E+03  0.53360904993E+03  0.12500000000E+03 0.  0.
         25    1    1    2    0    0  0.16632985571E+03  0.29249064323E+02 -0.14792606929E+04  0.14941078697E+04  0.12500000000E+03 0.  0.
</event>
<event>
 4    0  0.2205135E-002  0.1812928E+03  0.7546771E-02  0.1166558E+00
         21   -1    0    0  502  501  0.00000000000E+00  0.00000000000E+00  0.15249013159E+04  0.15249013159E+04  0.00000000000E+00 0.  1.
         21   -1    0    0  501  502 -0.00000000000E+00 -0.00000000000E+00 -0.21553569442E+02  0.21553569442E+02  0.00000000000E+00 0.  1.
         25    1    1    2    0    0 -0.12391528918E+03 -0.42310268911E+02  0.79366021863E+03  0.81404342660E+03  0.12500000000E+03 0.  0.
         25    1    1    2    0    0  0.12391528918E+03  0.42310268911E+02  0.70968752781E+03  0.73241145873E+03  0.12500000000E+03 0.  0.
</event>
<event>
 4    0  0.2205135E-002  0.2153474E+03  0.7546771E-02  0.1137400E+00
         21   -1    0    0  502  501  0.00000000000E+00  0.00000000000E+00  0.44148438767E+03  0.44148438767E+03  0.00000000000E+00 0.  1.
         21   -1    0    0  501  502 -0.00000000000E+00 -0.00000000000E+00 -0.10504221912E+03  0.10504221912E+03  0.00000000000E+00 0.  1.
         25    1    1    2    0    0 -0.75683743777E+02  0.47373807752E+02 -0.23289065705E+02  0.15536951861E+03  0.12500000000E+03 0.  0.
         25    1    1    2    0    0  0.75683743777E+02 -0.47373807752E+02  0.35973123425E+03  0.39115708817E+03  0.12500000000E+03 0.  0.
</event>
<event>
 4    0  0.2205135E-002  0.2279000E+03  0.7546771E-02  0.1128127E+00
         21   -1    0    0  502  501  0.00000000000E+00  0.00000000000E+00  0.41260083681E+03  0.41260083681E+03  0.00000000000E+00 0.  1.
         21   -1    0    0  501  502 -0.00000000000E+00 -0.00000000000E+00 -0.12588047503E+03  0.12588047503E+03  0.00000000000E+00 0.  1.
         25    1    1    2    0    0  0.22730465385E+02 -0.10415194575E+03  0.32996537755E+03  0.36860066772E+03  0.12500000000E+03 0.  0.
         25    1    1    2    0    0 -0.22730465385E+02  0.10415194575E+03 -0.43245015773E+02  0.16988064413E+03  0.12500000000E+03 0.  0.
</event>
<event>
 4    0  0.2205135E-002  0.2518715E+03  0.7546771E-02  0.1112128E+00
         21   -1    0    0  502  501  0.00000000000E+00  0.00000000000E+00  0.51459303579E+03  0.51459303579E+03  0.00000000000E+00 0.  1.
         21   -1    0    0  501  502 -0.00000000000E+00 -0.00000000000E+00 -0.12328043575E+03  0.12328043575E+03  0.00000000000E+00 0.  1.
         25    1    1    2    0    0 -0.11856793217E+03 -0.82151120961E+02 -0.12440033395E+02  0.19127706513E+03  0.12500000000E+03 0.  0.
         25    1    1    2    0    0  0.11856793217E+03  0.82151120961E+02  0.40375263343E+03  0.44659640641E+03  0.12500000000E+03 0.  0.
</event>
<event>
 4    0  0.2205135E-002  0.1915126E+03  0.7546771E-02  0.1157104E+00
         21   -1    0    0  502  501  0.00000000000E+00  0.00000000000E+00  0.38855796576E+02  0.38855796576E+02  0.00000000000E+00 0. -1.
         21   -1    0    0  501  502 -0.00000000000E+00 -0.00000000000E+00 -0.94392808834E+03  0.94392808834E+03  0.00000000000E+00 0. -1.
         25    1    1    2    0    0 -0.98876099295E+02 -0.75800450389E+00 -0.18008456509E+03  0.24048390417E+03  0.12500000000E+03 0.  0.
         25    1    1    2    0    0  0.98876099295E+02  0.75800450389E+00 -0.72498772668E+03  0.74229998075E+03  0.12500000000E+03 0.  0.
</event>
<event>
 4    0  0.2205135E-002  0.3829552E+03  0.7546771E-02  0.1049847E+00
         21   -1    0    0  502  501  0.00000000000E+00  0.00000000000E+00  0.25276492242E+03  0.25276492242E+03  0.00000000000E+00 0.  1.
         21   -1    0    0  501  502 -0.00000000000E+00 -0.00000000000E+00 -0.58020193160E+03  0.58020193160E+03  0.00000000000E+00 0.  1.
         25    1    1    2    0    0  0.30012271030E+02 -0.12763721607E+03 -0.53065659373E+03  0.56072579377E+03  0.12500000000E+03 0.  0.
         25    1    1    2    0    0 -0.30012271030E+02  0.12763721607E+03  0.20321958454E+03  0.27224106024E+03  0.12500000000E+03 0.  0.
</event>
<event>
 4    0  0.2205135E-002  0.2221315E+03  0.7546771E-02  0.1132304E+00
         21   -1    0    0  502  501  0.00000000000E+00  0.00000000000E+00  0.66039203584E+03  0.66039203584E+03  0.00000000000E+00 0. -1.
         21   -1    0    0  501  502 -0.00000000000E+00 -0.00000000000E+00 -0.74716864451E+02  0.74716864451E+02  0.00000000000E+00 0. -1.
         25    1    1    2    0    0 -0.41434420739E+02  0.98032784928E+02  0.54043168186E+03  0.56481735180E+03  0.12500000000E+03 0.  0.
         25    1    1    2    0    0  0.41434420739E+02 -0.98032784928E+02  0.45243489536E+02  0.17029154849E+03  0.12500000000E+03 0.  0.
</event>
<event>
 4    0  0.2205135E-002  0.2188166E+03  0.7546771E-02  0.1134768E+00
         21   -1    0    0  502  501  0.00000000000E+00  0.00000000000E+00  0.16478577265E+04  0.16478577265E+04  0.00000000000E+00 0. -1.
         21   -1    0    0  501  502 -0.00000000000E+00 -0.00000000000E+00 -0.29056343257E+02  0.29056343257E+02  0.00000000000E+00 0. -1.
         25    1    1    2    0    0  0.93636865736E+02  0.13166362945E+03  0.11099584239E+04  0.11285990771E+04  0.12500000000E+03 0.  0.
         25    1    1    2    0    0 -0.93636865736E+02 -0.13166362945E+03  0.50884295929E+03  0.54831499264E+03  0.12500000000E+03 0.  0.
</event>
<event>
 4    0  0.2205135E-002  0.2808936E+03  0.7546771E-02  0.1095202E+00
         21   -1    0    0  502  501  0.00000000000E+00  0.00000000000E+00  0.24899290409E+03  0.24899290409E+03  0.00000000000E+00 0. -1.
         21   -1    0    0  501  502 -0.00000000000E+00 -0.00000000000E+00 -0.31688127704E+03  0.31688127704E+03  0.00000000000E+00 0. -1.
         25    1    1    2    0    0  0.13045075691E+03  0.17185833672E+03  0.96316006021E+02  0.26730967227E+03  0.12500000000E+03 0.  0.
         25    1    1    2    0    0 -0.13045075691E+03 -0.17185833672E+03 -0.16420437897E+03  0.29856450886E+03  0.12500000000E+03 0.  0.
</event>
<event>
 4    0  0.2205135E-002  0.2343079E+03  0.7546771E-02  0.1123644E+00
         21   -1    0    0  502  501  0.00000000000E+00  0.00000000000E+00  0.33788886238E+03  0.33788886238E+03  0.00000000000E+00 0.  1.
         21   -1    0    0  501  502 -0.00000000000E+00 -0.00000000000E+00 -0.16248008227E+03  0.16248008227E+03  0.00000000000E+00 0.  1.
         25    1    1    2    0    0 -0.59547971336E+02  0.18185243372E+03  0.14276331776E+03  0.26948586872E+03  0.12500000000E+03 0.  0.
         25    1    1    2    0    0  0.59547971336E+02 -0.18185243372E+03  0.32645462356E+02  0.23088307593E+03  0.12500000000E+03 0.  0.
</event>
<event>
 4    0  0.2205135E-002  0.2895443E+03  0.7546771E-02  0.1090587E+00
         21   -1    0    0  502  501  0.00000000000E+00  0.00000000000E+00  0.57613337868E+02  0.57613337868E+02  0.00000000000E+00 0. -1.
         21   -1    0    0  501  502 -0.00000000000E+00 -0.00000000000E+00 -0.14551469491E+04  0.14551469491E+04  0.00000000000E+00 0. -1.
         25    1    1    2    0    0 -0.87125585427E+02  0.17868079781E+03 -0.25626555956E+03  0.34758413680E+03  0.12500000000E+03 0.  0.
         25    1    1    2    0    0  0.87125585427E+02 -0.17868079781E+03 -0.11412680516E+04  0.11651761501E+04  0.12500000000E+03 0.  0.
</event>
<event>
 4    0  0.2205135E-002  0.2227665E+03  0.7546771E-02  0.1131837E+00
         21   -1    0    0  502  501  0.00000000000E+00  0.00000000000E+00  0.18575577384E+04  0.18575577384E+04  0.00000000000E+00 0. -1.
         21   -1    0    0  501  502 -0.00000000000E+00 -0.00000000000E+00 -0.26715146008E+02  0.26715146008E+02  0.00000000000E+00 0. -1.
         25    1    1    2    0    0 -0.78040767654E+02  0.19682323371E+02  0.21379604659E+03  0.26040642236E+03  0.12500000000E+03 0.  0.
         25    1    1    2    0    0  0.78040767654E+02 -0.19682323371E+02  0.16170465458E+04  0.16238664620E+04  0.12500000000E+03 0.  0.
</event>
<event>
 4    0  0.2205135E-002  0.2480636E+03  0.7546771E-02  0.1114535E+00
         21   -1    0    0  502  501  0.00000000000E+00  0.00000000000E+00  0.62638814059E+03  0.62638814059E+03  0.00000000000E+00 0. -1.
         21   -1    0    0  501  502 -0.00000000000E+00 -0.00000000000E+00 -0.98238698606E+02  0.98238698606E+02  0.00000000000E+00 0. -1.
         25    1    1    2    0    0 -0.98031073160E+02 -0.33019731431E+02  0.53814085060E+03  0.56206847363E+03  0.12500000000E+03 0.  0.
         25    1    1    2    0    0  0.98031073160E+02  0.33019731431E+02 -0.99914086142E+01  0.16255836556E+03  0.12500000000E+03 0.  0.
</event>
<event>
 4    0  0.2205135E-002  0.2128330E+03  0.7546771E-02  0.1139342E+00
         21   -1    0    0  502  501  0.00000000000E+00  0.00000000000E+00  0.82294499610E+02  0.82294499610E+02  0.00000000000E+00 0. -1.
         21   -1    0    0  501  502 -0.00000000000E+00 -0.00000000000E+00 -0.55043628196E+03  0.55043628196E+03  0.00000000000E+00 0. -1.
         25    1    1    2    0    0 -0.82867863283E+02 -0.71773400866E+02 -0.43157503165E+03  0.46249379647E+03  0.12500000000E+03 0.  0.
         25    1    1    2    0    0  0.82867863283E+02  0.71773400866E+02 -0.36566750702E+02  0.17023698509E+03  0.12500000000E+03 0.  0.
</event>
<event>
 4    0  0.2205135E-002  0.1313099E+03  0.7546771E-02  0.1225525E+00
         21   -1    0    0  502  501  0.00000000000E+00  0.00000000000E+00  0.62524353220E+03  0.62524353220E+03  0.00000000000E+00 0.  1.
         21   -1    0    0  501  502 -0.00000000000E+00 -0.00000000000E+00 -0.27576919340E+02  0.27576919340E+02  0.00000000000E+00 0.  1.
         25    1    1    2    0    0 -0.20709177027E+02  0.19855080976E+02  0.22877975127E+03  0.26227517772E+03  0.12500000000E+03 0.  0.
         25    1    1    2    0    0  0.20709177027E+02 -0.19855080976E+02  0.36888686158E+03  0.39054527382E+03  0.12500000000E+03 0.  0.
</event>
<event>
 4    0  0.2205135E-002  0.1852752E+03  0.7546771E-02  0.1162793E+00
         21   -1    0    0  502  501  0.00000000000E+00  0.00000000000E+00  0.26878360548E+04  0.26878360548E+04  0.00000000000E+00 0.  1.
         21   -1    0    0  501  502 -0.00000000000E+00 -0.00000000000E+00 -0.12771197750E+02  0.12771197750E+02  0.00000000000E+00 0.  1.
         25    1    1    2    0    0 -0.19227022899E+02  0.53649465790E+02  0.22435442684E+04  0.22477463887E+04  0.12500000000E+03 0.  0.
         25    1    1    2    0    0  0.19227022899E+02 -0.53649465790E+02  0.43152058865E+03  0.45286086387E+03  0.12500000000E+03 0.  0.
</event>
<event>
 4    0  0.2205135E-002  0.2085935E+03  0.7546771E-02  0.1142685E+00
         21   -1    0    0  502  501  0.00000000000E+00  0.00000000000E+00  0.16962298806E+03  0.16962298806E+03  0.00000000000E+00 0. -1.
         21   -1    0    0  501  502 -0.00000000000E+00 -0.00000000000E+00 -0.25651728282E+03  0.25651728282E+03  0.00000000000E+00 0. -1.
         25    1    1    2    0    0 -0.93753703355E+02 -0.11262125488E+03 -0.12524651764E+03  0.22974985120E+03  0.12500000000E+03 0.  0.
         25    1    1    2    0    0  0.93753703355E+02  0.11262125488E+03  0.38352222884E+02  0.19639041968E+03  0.12500000000E+03 0.  0.
</event>
<event>
 4    0  0.2205135E-002  0.2767261E+03  0.7546771E-02  0.1097491E+00
         21   -1    0    0  502  501  0.00000000000E+00  0.00000000000E+00  0.16633988410E+03  0.16633988410E+03  0.00000000000E+00 0.  1.
         21   -1    0    0  501  502 -0.00000000000E+00 -0.00000000000E+00 -0.46036664448E+03  0.46036664448E+03  0.00000000000E+00 0.  1.
         25    1    1    2    0    0  0.57932177299E+02 -0.23786891331E+03 -0.18308176135E+03  0.33027517077E+03  0.12500000000E+03 0.  0.
         25    1    1    2    0    0 -0.57932177299E+02  0.23786891331E+03 -0.11094499903E+03  0.29643135782E+03  0.12500000000E+03 0.  0.
</event>
<event>
 4    0  0.2205135E-002  0.2371302E+03  0.7546771E-02  0.1121720E+00
         21   -1    0    0  502  501  0.00000000000E+00  0.00000000000E+00  0.40155893091E+02  0.40155893091E+02  0.00000000000E+00 0.  1.
         21   -1    0    0  501  502 -0.00000000000E+00 -0.00000000000E+00 -0.14003104521E+04  0.14003104521E+04  0.00000000000E+00 0.  1.
         25    1    1    2    0    0 -0.42763405035E+02  0.76199234540E+02 -0.12857121401E+03  0.19947578606E+03  0.12500000000E+03 0.  0.
         25    1    1    2    0    0  0.42763405035E+02 -0.76199234540E+02 -0.12315833450E+04  0.12409905591E+04  0.12500000000E+03 0.  0.
</event>
<event>
 4    0  0.2205135E-002  0.1786982E+03  0.7546771E-02  0.1169069E+00
         21   -1    0    0  502  501  0.00000000000E+00  0.00000000000E+00  0.57947949500E+02  0.57947949500E+02  0.00000000000E+00 0. -1.
         21   -1    0    0  501  502 -0.00000000000E+00 -0.00000000000E+00 -0.55106438594E+03  0.55106438594E+03  0.00000000000E+00 0. -1.
         25    1    1    2    0    0 -0.59948841510E+02  0.78262876079E+02 -0.38487958080E+03  0.41650478159E+03  0.12500000000E+03 0.  0.
         25    1    1    2    0    0  0.59948841510E+02 -0.78262876079E+02 -0.10823685564E+03  0.19250755385E+03  0.12500000000E+03 0.  0.
</event>
<event>
 4    0  0.2205135E-002  0.2159964E+03  0.7546771E-02  0.1136904E+00
         21   -1    0    0  502  501  0.00000000000E+00  0.00000000000E+00  0.48542296163E+02  0.48542296163E+02  0.00000000000E+00 0.  1.
         21   -1    0    0  501  502 -0.00000000000E+00 -0.00000000000E+00 -0.96110900951E+03  0.96110900951E+03  0.00000000000E+00 0.  1.
         25    1    1    2    0    0  0.17105162775E+03 -0.27414008945E+02 -0.53089996322E+03  0.57226738348E+03  0.12500000000E+03 0.  0.
         25    1    1    2    0    0 -0.17105162775E+03  0.27414008945E+02 -0.38166675013E+03  0.43738392220E+03  0.12500000000E+03 0.  0.
</event>
<event>
 4    0  0.2205135E-002  0.2488320E+03  0.7546771E-02  0.1114045E+00
         21   -1    0    0  502  501  0.00000000000E+00  0.00000000000E+00  0.28243569213E+03  0.28243569213E+03  0.00000000000E+00 0. -1.
         21   -1    0    0  501  502 -0.00000000000E+00 -0.00000000000E+00 -0.21922638100E+03  0.21922638100E+03  0.00000000000E+00 0. -1.
         25    1    1    2    0    0 -0.75939729488E+02  0.92819302630E+02  0.21167371051E+03  0.27351969797E+03  0.12500000000E+03 0.  0.
         25    1    1    2    0    0  0.75939729488E+02 -0.92819302630E+02 -0.14846439939E+03  0.22814237516E+03  0.12500000000E+03 0.  0.
</event>
<event>
 4    0  0.2205135E-002  0.3421561E+03  0.7546771E-02  0.1065881E+00
         21   -1    0    0  502  501  0.00000000000E+00  0.00000000000E+00  0.13855523277E+03  0.13855523277E+03  0.00000000000E+00 0. -1.
         21   -1    0    0  501  502 -0.00000000000E+00 -0.00000000000E+00 -0.84493967071E+03  0.84493967071E+03  0.00000000000E+00 0. -1.
         25    1    1    2    0    0 -0.16367263929E+03  0.52018925721E+02  0.32318585553E+02  0.21485854057E+03  0.12500000000E+03 0.  0.
         25    1    1    2    0    0  0.16367263929E+03 -0.52018925721E+02 -0.73870302349E+03  0.76863636292E+03  0.12500000000E+03 0.  0.
</event>
<event>
 4    0  0.2205135E-002  0.2802212E+03  0.7546771E-02  0.1095568E+00
         21   -1    0    0  502  501  0.00000000000E+00  0.00000000000E+00  0.29256821762E+03  0.29256821762E+03  0.00000000000E+00 0.  1.
         21   -1    0    0  501  502 -0.00000000000E+00 -0.00000000000E+00 -0.26839518794E+03  0.26839518794E+03  0.00000000000E+00 0.  1.
         25    1    1    2    0    0 -0.44095520478E+02  0.40452010312E+02 -0.23169304868E+03  0.26997675617E+03  0.12500000000E+03 0.  0.
         25    1    1    2    0    0  0.44095520478E+02 -0.40452010312E+02  0.25586607836E+03  0.29098664939E+03  0.12500000000E+03 0.  0.
</event>
<event>
 4    0  0.2205135E-002  0.1903715E+03  0.7546771E-02  0.1158127E+00
         21   -1    0    0  502  501  0.00000000000E+00  0.00000000000E+00  0.25719741864E+03  0.25719741864E+03  0.00000000000E+00 0. -1.
         21   -1    0    0  501  502 -0.00000000000E+00 -0.00000000000E+00 -0.14090856817E+03  0.14090856817E+03  0.00000000000E+00 0. -1.
         25    1    1    2    0    0 -0.48385009076E+02  0.93443948255E+02 -0.44001058622E+02  0.16921576088E+03  0.12500000000E+03 0.  0.
         25    1    1    2    0    0  0.48385009076E+02 -0.93443948255E+02  0.16028990910E+03  0.22889022593E+03  0.12500000000E+03 0.  0.
</event>
<event>
 4    0  0.2205135E-002  0.2257071E+03  0.7546771E-02  0.1129698E+00
         21   -1    0    0  502  501  0.00000000000E+00  0.00000000000E+00  0.31728284029E+03  0.31728284029E+03  0.00000000000E+00 0.  1.
         21   -1    0    0  501  502 -0.00000000000E+00 -0.00000000000E+00 -0.16056236502E+03  0.16056236502E+03  0.00000000000E+00 0.  1.
         25    1    1    2    0    0 -0.47931163510E+02 -0.12188432650E+02 -0.11356405358E+03  0.17597655694E+03  0.12500000000E+03 0.  0.
         25    1    1    2    0    0  0.47931163510E+02  0.12188432650E+02  0.27028452886E+03  0.30186864837E+03  0.12500000000E+03 0.  0.
</event>
<event>
 4    0  0.2205135E-002  0.3452277E+03  0.7546771E-02  0.1064591E+00
         21   -1    0    0  502  501  0.00000000000E+00  0.00000000000E+00  0.70477639237E+03  0.70477639237E+03  0.00000000000E+00 0. -1.
         21   -1    0    0  501  502 -0.00000000000E+00 -0.00000000000E+00 -0.16910639579E+03  0.16910639579E+03  0.00000000000E+00 0.  1.
         25    1    1    2    0    0 -0.57566158555E+02  0.27832746665E+03  0.45884989177E+03  0.55402911880E+03  0.12500000000E+03 0.  0.
         25    1    1    2    0    0  0.57566158555E+02 -0.27832746665E+03  0.76820104808E+02  0.31985366936E+03  0.12500000000E+03 0.  0.
</event>
<event>
 4    0  0.2205135E-002  0.2398836E+03  0.7546771E-02  0.1119870E+00
         21   -1    0    0  502  501  0.00000000000E+00  0.00000000000E+00  0.62491438459E+02  0.62491438459E+02  0.00000000000E+00 0.  1.
         21   -1    0    0  501  502 -0.00000000000E+00 -0.00000000000E+00 -0.92083255747E+03  0.92083255747E+03  0.00000000000E+00 0.  1.
         25    1    1    2    0    0  0.14180753192E+03 -0.12584698202E+03 -0.58756403760E+03  0.62992327888E+03  0.12500000000E+03 0.  0.
         25    1    1    2    0    0 -0.14180753192E+03  0.12584698202E+03 -0.27077708141E+03  0.35340071705E+03  0.12500000000E+03 0.  0.
</event>
<event>
 4    0  0.2205135E-002  0.3222810E+03  0.7546771E-02  0.1074604E+00
         21   -1    0    0  502  501  0.00000000000E+00  0.00000000000E+00  0.14970482755E+03  0.14970482755E+03  0.00000000000E+00 0.  1.
         21   -1    0    0  501  502 -0.00000000000E+00 -0.00000000000E+00 -0.69379908720E+03  0.69379908720E+03  0.00000000000E+00 0.  1.
         25    1    1    2    0    0  0.29767974662E+02 -0.32928102475E+02  0.11232459877E+03  0.17381659224E+03  0.12500000000E+03 0.  0.
         25    1    1    2    0    0 -0.29767974662E+02  0.32928102475E+02 -0.65641885842E+03  0.66968732252E+03  0.12500000000E+03 0.  0.
</event>
<event>
 4    0  0.2205135E-002  0.2325136E+03  0.7546771E-02  0.1124883E+00
         21   -1    0    0  502  501  0.00000000000E+00  0.00000000000E+00  0.44523619114E+03  0.44523619114E+03  0.00000000000E+00 0.  1.
         21   -1    0    0  501  502 -0.00000000000E+00 -0.00000000000E+00 -0.12142445935E+03  0.12142445935E+03  0.00000000000E+00 0.  1.
         25    1    1    2    0    0  0.19407552176E+03  0.24266792738E+02  0.14540453976E+03  0.27390083161E+03  0.12500000000E+03 0.  0.
         25    1    1    2    0    0 -0.19407552176E+03 -0.24266792738E+02  0.17840719204E+03  0.29275981888E+03  0.12500000000E+03 0.  0.
</event>
<event>
 4    0  0.2205135E-002  0.1948759E+03  0.7546771E-02  0.1154136E+00
         21   -1    0    0  502  501  0.00000000000E+00  0.00000000000E+00  0.72190973612E+03  0.72190973612E+03  0.00000000000E+00 0. -1.
         21   -1    0    0  501  502 -0.00000000000E+00 -0.00000000000E+00 -0.52605789469E+02  0.52605789469E+02  0.00000000000E+00 0. -1.
         25    1    1    2    0    0 -0.11319206513E+03  0.89904841200E+02  0.41048675774E+03  0.45279101400E+03  0.12500000000E+03 0.  0.
         25    1    1    2    0    0  0.11319206513E+03 -0.89904841200E+02  0.25881718891E+03  0.32172451159E+03  0.12500000000E+03 0.  0.
</event>
<event>
 4    0  0.2205135E-002  0.2130904E+03  0.7546771E-02  0.1139142E+00
         21   -1    0    0  502  501  0.00000000000E+00  0.00000000000E+00  0.11388983029E+04  0.11388983029E+04  0.00000000000E+00 0. -1.
         21   -1    0    0  501  502 -0.00000000000E+00 -0.00000000000E+00 -0.39869701771E+02  0.39869701771E+02  0.00000000000E+00 0. -1.
         25    1    1    2    0    0  0.33179523374E+02  0.10555607583E+03  0.18320845834E+03  0.24785742903E+03  0.12500000000E+03 0.  0.
         25    1    1    2    0    0 -0.33179523374E+02 -0.10555607583E+03  0.91582014275E+03  0.93091057561E+03  0.12500000000E+03 0.  0.
</event>
<event>
 4    0  0.2205135E-002  0.2352669E+03  0.7546771E-02  0.1122987E+00
         21   -1    0    0  502  501  0.00000000000E+00  0.00000000000E+00  0.16803191970E+02  0.16803191970E+02  0.00000000000E+00 0.  1.
         21   -1    0    0  501  502 -0.00000000000E+00 -0.00000000000E+00 -0.32940472747E+04  0.32940472747E+04  0.00000000000E+00 0.  1.
         25    1    1    2    0    0  0.13615253694E+02  0.13209959131E+03 -0.59283088601E+03  0.62024925358E+03  0.12500000000E+03 0.  0.
         25    1    1    2    0    0 -0.13615253694E+02 -0.13209959131E+03 -0.26844131967E+04  0.26906012130E+04  0.12500000000E+03 0.  0.
</event>
<event>
 4    0  0.2205135E-002  0.2338674E+03  0.7546771E-02  0.1123947E+00
         21   -1    0    0  502  501  0.00000000000E+00  0.00000000000E+00  0.19396049113E+03  0.19396049113E+03  0.00000000000E+00 0.  1.
         21   -1    0    0  501  502 -0.00000000000E+00 -0.00000000000E+00 -0.28198497774E+03  0.28198497774E+03  0.00000000000E+00 0.  1.
         25    1    1    2    0    0 -0.49792948286E+02 -0.97615036195E+02  0.12337747935E+03  0.20701457775E+03  0.12500000000E+03 0.  0.
         25    1    1    2    0    0  0.49792948286E+02  0.97615036195E+02 -0.21140196595E+03  0.26893089112E+03  0.12500000000E+03 0.  0.
</event>
<event>
 4    0  0.2205135E-002  0.2831849E+03  0.7546771E-02  0.1093962E+00
         21   -1    0    0  502  501  0.00000000000E+00  0.00000000000E+00  0.47234580511E+02  0.47234580511E+02  0.00000000000E+00 0.  1.
         21   -1    0    0  501  502 -0.00000000000E+00 -0.00000000000E+00 -0.16977748749E+04  0.16977748749E+04  0.00000000000E+00 0.  1.
         25    1    1    2    0    0 -0.63584472381E+01  0.23972865458E+03 -0.56641807268E+03  0.62766606626E+03  0.12500000000E+03 0.  0.
         25    1    1    2    0    0  0.63584472381E+01 -0.23972865458E+03 -0.10841222217E+04  0.11173433891E+04  0.12500000000E+03 0.  0.
</event>
<event>
 4    0  0.2205135E-002  0.2034049E+03  0.7546771E-02  0.1146898E+00
         21   -1    0    0  502  501  0.00000000000E+00  0.00000000000E+00  0.23237530550E+03  0.23237530550E+03  0.00000000000E+00 0. -1.
         21   -1    0    0  501  502 -0.00000000000E+00 -0.00000000000E+00 -0.17804628030E+03  0.17804628030E+03  0.00000000000E+00 0. -1.
         25    1    1    2    0    0 -0.66296011141E+02  0.10794713188E+03 -0.72202642694E+02  0.19205719457E+03  0.12500000000E+03 0.  0.
         25    1    1    2    0    0  0.66296011141E+02 -0.10794713188E+03  0.12653166790E+03  0.21836439123E+03  0.12500000000E+03 0.  0.
</event>
<event>
 4    0  0.2205135E-002  0.2427247E+03  0.7546771E-02  0.1117991E+00
         21   -1    0    0  502  501  0.00000000000E+00  0.00000000000E+00  0.17678855128E+03  0.17678855128E+03  0.00000000000E+00 0.  1.
         21   -1    0    0  501  502 -0.00000000000E+00 -0.00000000000E+00 -0.33325283952E+03  0.33325283952E+03  0.00000000000E+00 0.  1.
         25    1    1    2    0    0 -0.18754335210E+03 -0.88734018275E+02 -0.61818597649E+02  0.24998554744E+03  0.12500000000E+03 0.  0.
         25    1    1    2    0    0  0.18754335210E+03  0.88734018275E+02 -0.94645690593E+02  0.26005584335E+03  0.12500000000E+03 0.  0.
</event>
<event>
 4    0  0.2205135E-002  0.2644099E+03  0.7546771E-02  0.1104522E+00
         21   -1    0    0  502  501  0.00000000000E+00  0.00000000000E+00  0.14573208799E+04  0.14573208799E+04  0.00000000000E+00 0. -1.
         21   -1    0    0  501  502 -0.00000000000E+00 -0.00000000000E+00 -0.47973357147E+02  0.47973357147E+02  0.00000000000E+00 0.  1.
         25    1    1    2    0    0  0.45757201973E+02  0.22697425888E+03  0.63063480691E+03  0.68332737060E+03  0.12500000000E+03 0.  0.
         25    1    1    2    0    0 -0.45757201973E+02 -0.22697425888E+03  0.77871271588E+03  0.82196686649E+03  0.12500000000E+03 0.  0.
</event>
<event>
 4    0  0.2205135E-002  0.2465416E+03  0.7546771E-02  0.1115510E+00
         21   -1    0    0  502  501  0.00000000000E+00  0.00000000000E+00  0.20724836289E+03  0.20724836289E+03  0.00000000000E+00 0.  1.
         21   -1    0    0  501  502 -0.00000000000E+00 -0.00000000000E+00 -0.29328469540E+03  0.29328469540E+03  0.00000000000E+00 0.  1.
         25    1    1    2    0    0 -0.52743873629E+02 -0.17247860834E+03 -0.15708578438E+03  0.26987354482E+03  0.12500000000E+03 0.  0.
         25    1    1    2    0    0  0.52743873629E+02  0.17247860834E+03  0.71049451873E+02  0.23065951347E+03  0.12500000000E+03 0.  0.
</event>
<event>
 4    0  0.2205135E-002  0.2786229E+03  0.7546771E-02  0.1096443E+00
         21   -1    0    0  502  501  0.00000000000E+00  0.00000000000E+00  0.54589705599E+02  0.54589705599E+02  0.00000000000E+00 0. -1.
         21   -1    0    0  501  502 -0.00000000000E+00 -0.00000000000E+00 -0.14220762784E+04  0.14220762784E+04  0.00000000000E+00 0.  1.
         25    1    1    2    0    0  0.22105392669E+02 -0.22346553082E+03 -0.39857967136E+03  0.47425335663E+03  0.12500000000E+03 0.  0.
         25    1    1    2    0    0 -0.22105392669E+02  0.22346553082E+03 -0.96890690144E+03  0.10024126274E+04  0.12500000000E+03 0.  0.
</event>
<event>
 4    0  0.2205135E-002  0.2109264E+03  0.7546771E-02  0.1140834E+00
         21   -1    0    0  502  501  0.00000000000E+00  0.00000000000E+00  0.10873669781E+04  0.10873669781E+04  0.00000000000E+00 0.  1.
         21   -1    0    0  501  502 -0.00000000000E+00 -0.00000000000E+00 -0.40915308960E+02  0.40915308960E+02  0.00000000000E+00 0.  1.
         25    1    1    2    0    0 -0.13708012366E+02 -0.37556464623E+02  0.96486944126E+03  0.97375378629E+03  0.12500000000E+03 0.  0.
         25    1    1    2    0    0  0.13708012366E+02  0.37556464623E+02  0.81582227839E+02  0.15452850073E+03  0.12500000000E+03 0.  0.
</event>
<event>
 4    0  0.2205135E-002  0.3384975E+03  0.7546771E-02  0.1067438E+00
         21   -1    0    0  502  501  0.00000000000E+00  0.00000000000E+00  0.72372773552E+03  0.72372773552E+03  0.00000000000E+00 0. -1.
         21   -1    0    0  501  502 -0.00000000000E+00 -0.00000000000E+00 -0.15831999366E+03  0.15831999366E+03  0.00000000000E+00 0. -1.
         25    1    1    2    0    0  0.22852144397E+03  0.21389653742E+03  0.32352793319E+03  0.46719278957E+03  0.12500000000E+03 0.  0.
         25    1    1    2    0    0 -0.22852144397E+03 -0.21389653742E+03  0.24187980867E+03  0.41485493961E+03  0.12500000000E+03 0.  0.
</event>
<event>
 4    0  0.2205135E-002  0.1510343E+03  0.7546771E-02  0.1199208E+00
         21   -1    0    0  502  501  0.00000000000E+00  0.00000000000E+00  0.34427273473E+02  0.34427273473E+02  0.00000000000E+00 0.  1.
         21   -1    0    0  501  502 -0.00000000000E+00 -0.00000000000E+00 -0.66259571567E+03  0.66259571567E+03  0.00000000000E+00 0.  1.
         25    1    1    2    0    0  0.54286808319E+02 -0.27643727117E+02 -0.17805661610E+03  0.22592120694E+03  0.12500000000E+03 0.  0.
         25    1    1    2    0    0 -0.54286808319E+02  0.27643727117E+02 -0.45011182610E+03  0.47110178221E+03  0.12500000000E+03 0.  0.
</event>
<event>
 4    0  0.2205135E-002  0.1846219E+03  0.7546771E-02  0.1163403E+00
         21   -1    0    0  502  501  0.00000000000E+00  0.00000000000E+00  0.11729888440E+03  0.11729888440E+03  0.00000000000E+00 0.  1.
         21   -1    0    0  501  502 -0.00000000000E+00 -0.00000000000E+00 -0.29058449356E+03  0.29058449356E+03  0.00000000000E+00 0.  1.
         25    1    1    2    0    0 -0.17899989054E+02 -0.64865562594E+02 -0.21702973019E+03  0.25933540947E+03  0.12500000000E+03 0.  0.
         25    1    1    2    0    0  0.17899989054E+02  0.64865562594E+02  0.43744121028E+02  0.14854796849E+03  0.12500000000E+03 0.  0.
</event>
<event>
 4    0  0.2205135E-002  0.1670237E+03  0.7546771E-02  0.1180988E+00
         21   -1    0    0  502  501  0.00000000000E+00  0.00000000000E+00  0.13704871019E+03  0.13704871019E+03  0.00000000000E+00 0. -1.
         21   -1    0    0  501  502 -0.00000000000E+00 -0.00000000000E+00 -0.20355470527E+03  0.20355470527E+03  0.00000000000E+00 0. -1.
         25    1    1    2    0    0 -0.51577732418E+02  0.23170639837E+02  0.63878198807E+02  0.15133593531E+03  0.12500000000E+03 0.  0.
         25    1    1    2    0    0  0.51577732418E+02 -0.23170639837E+02 -0.13038419389E+03  0.18926748016E+03  0.12500000000E+03 0.  0.
</event>
<event>
 4    0  0.2205135E-002  0.1813162E+03  0.7546771E-02  0.1166535E+00
         21   -1    0    0  502  501  0.00000000000E+00  0.00000000000E+00  0.21605277299E+02  0.21605277299E+02  0.00000000000E+00 0.  1.
         21   -1    0    0  501  502 -0.00000000000E+00 -0.00000000000E+00 -0.15216450714E+04  0.15216450714E+04  0.00000000000E+00 0.  1.
         25    1    1    2    0    0 -0.98075196503E+02  0.58125147583E+02 -0.47247572240E+03  0.50185215473E+03  0.12500000000E+03 0.  0.
         25    1    1    2    0    0  0.98075196503E+02 -0.58125147583E+02 -0.10275640717E+04  0.10413981940E+04  0.12500000000E+03 0.  0.
</event>
<event>
 4    0  0.2205135E-002  0.1740513E+03  0.7546771E-02  0.1173688E+00
         21   -1    0    0  502  501  0.00000000000E+00  0.00000000000E+00  0.25202457675E+03  0.25202457675E+03  0.00000000000E+00 0.  1.
         21   -1    0    0  501  502 -0.00000000000E+00 -0.00000000000E+00 -0.12020202877E+03  0.12020202877E+03  0.00000000000E+00 0.  1.
         25    1    1    2    0    0  0.12236383589E+02  0.90734812798E+02 -0.18869750662E+02  0.15608844553E+03  0.12500000000E+03 0.  0.
         25    1    1    2    0    0 -0.12236383589E+02 -0.90734812798E+02  0.15069229865E+03  0.21613816000E+03  0.12500000000E+03 0.  0.
</event>
<event>
 4    0  0.2205135E-002  0.1829530E+03  0.7546771E-02  0.1164975E+00
         21   -1    0    0  502  501  0.00000000000E+00  0.00000000000E+00  0.13511283597E+03  0.13511283597E+03  0.00000000000E+00 0. -1.
         21   -1    0    0  501  502 -0.00000000000E+00 -0.00000000000E+00 -0.24773221052E+03  0.24773221052E+03  0.00000000000E+00 0. -1.
         25    1    1    2    0    0 -0.69829898956E+02 -0.76293225009E+02  0.32162019274E+02  0.16539729881E+03  0.12500000000E+03 0.  0.
         25    1    1    2    0    0  0.69829898956E+02  0.76293225009E+02 -0.14478139383E+03  0.21744774768E+03  0.12500000000E+03 0.  0.
</event>
<event>
 4    0  0.2205135E-002  0.1825744E+03  0.7546771E-02  0.1165335E+00
         21   -1    0    0  502  501  0.00000000000E+00  0.00000000000E+00  0.49019551661E+02  0.49019551661E+02  0.00000000000E+00 0.  1.
         21   -1    0    0  501  502 -0.00000000000E+00 -0.00000000000E+00 -0.68000257367E+03  0.68000257367E+03  0.00000000000E+00 0.  1.
         25    1    1    2    0    0 -0.59860506614E+01 -0.61660593943E+02 -0.55062677136E+03  0.56802526615E+03  0.12500000000E+03 0.  0.
         25    1    1    2    0    0  0.59860506614E+01  0.61660593943E+02 -0.80356250652E+02  0.16099685918E+03  0.12500000000E+03 0.  0.
</event>
<event>
 4    0  0.2205135E-002  0.2297578E+03  0.7546771E-02  0.1126810E+00
         21   -1    0    0  502  501  0.00000000000E+00  0.00000000000E+00  0.37324290199E+02  0.37324290199E+02  0.00000000000E+00 0. -1.
         21   -1    0    0  501  502 -0.00000000000E+00 -0.00000000000E+00 -0.14143243106E+04  0.14143243106E+04  0.00000000000E+00 0. -1.
         25    1    1    2    0    0 -0.80858167364E+01 -0.11711197380E+03 -0.11715720025E+04  0.11840551305E+04  0.12500000000E+03 0.  0.
         25    1    1    2    0    0  0.80858167364E+01  0.11711197380E+03 -0.20542801782E+03  0.26759347029E+03  0.12500000000E+03 0.  0.
</event>
<event>
 4    0  0.2205135E-002  0.2071271E+03  0.7546771E-02  0.1143861E+00
         21   -1    0    0  502  501  0.00000000000E+00  0.00000000000E+00  0.12498642440E+03  0.12498642440E+03  0.00000000000E+00 0.  1.
         21   -1    0    0  501  502 -0.00000000000E+00 -0.00000000000E+00 -0.34325050114E+03  0.34325050114E+03  0.00000000000E+00 0. -1.
         25    1    1    2    0    0  0.10157425172E+03 -0.12420659963E+03 -0.15337400107E+03  0.25474142225E+03  0.12500000000E+03 0.  0.
         25    1    1    2    0    0 -0.10157425172E+03  0.12420659963E+03 -0.64890075674E+02  0.21349550329E+03  0.12500000000E+03 0.  0.
</event>
<event>
 4    0  0.2205135E-002  0.2243016E+03  0.7546771E-02  0.1130716E+00
         21   -1    0    0  502  501  0.00000000000E+00  0.00000000000E+00  0.12786502578E+04  0.12786502578E+04  0.00000000000E+00 0. -1.
         21   -1    0    0  501  502 -0.00000000000E+00 -0.00000000000E+00 -0.39347121661E+02  0.39347121661E+02  0.00000000000E+00 0. -1.
         25    1    1    2    0    0  0.11826290966E+03  0.40563872259E+02  0.10252094312E+04  0.10403417330E+04  0.12500000000E+03 0.  0.
         25    1    1    2    0    0 -0.11826290966E+03 -0.40563872259E+02  0.21409370493E+03  0.27765564649E+03  0.12500000000E+03 0.  0.
</event>
<event>
 4    0  0.2205135E-002  0.1915592E+03  0.7546771E-02  0.1157062E+00
         21   -1    0    0  502  501  0.00000000000E+00  0.00000000000E+00  0.23239119230E+03  0.23239119230E+03  0.00000000000E+00 0.  1.
         21   -1    0    0  501  502 -0.00000000000E+00 -0.00000000000E+00 -0.15790158313E+03  0.15790158313E+03  0.00000000000E+00 0.  1.
         25    1    1    2    0    0 -0.99204904213E+02 -0.75568615972E+02 -0.38427474848E+02  0.18070390024E+03  0.12500000000E+03 0.  0.
         25    1    1    2    0    0  0.99204904213E+02  0.75568615972E+02  0.11291708402E+03  0.20958887519E+03  0.12500000000E+03 0.  0.
</event>
<event>
 4    0  0.2205135E-002  0.2346064E+03  0.7546771E-02  0.1123439E+00
         21   -1    0    0  502  501  0.00000000000E+00  0.00000000000E+00  0.12448822944E+04  0.12448822944E+04  0.00000000000E+00 0.  1.
         21   -1    0    0  501  502 -0.00000000000E+00 -0.00000000000E+00 -0.44213131207E+02  0.44213131207E+02  0.00000000000E+00 0.  1.
         25    1    1    2    0    0 -0.17307190428E+03  0.96173969246E+02  0.64032047224E+03  0.68179074765E+03  0.12500000000E+03 0.  0.
         25    1    1    2    0    0  0.17307190428E+03 -0.96173969246E+02  0.56034869094E+03  0.60730467794E+03  0.12500000000E+03 0.  0.
</event>
<event>
 4    0  0.2205135E-002  0.1817823E+03  0.7546771E-02  0.1166089E+00
         21   -1    0    0  502  501  0.00000000000E+00  0.00000000000E+00  0.31324424231E+02  0.31324424231E+02  0.00000000000E+00 0. -1.
         21   -1    0    0  501  502 -0.00000000000E+00 -0.00000000000E+00 -0.10549219485E+04  0.10549219485E+04  0.00000000000E+00 0. -1.
         25    1    1    2    0    0 -0.37787731322E+02  0.85454938701E+02 -0.79030864624E+03  0.80557011831E+03  0.12500000000E+03 0.  0.
         25    1    1    2    0    0  0.37787731322E+02 -0.85454938701E+02 -0.23328887805E+03  0.28067625444E+03  0.12500000000E+03 0.  0.
</event>
<event>
 4    0  0.2205135E-002  0.2472992E+03  0.7546771E-02  0.1115024E+00
         21   -1    0    0  502  501  0.00000000000E+00  0.00000000000E+00  0.76087219805E+02  0.76087219805E+02  0.00000000000E+00 0. -1.
         21   -1    0    0  501  502 -0.00000000000E+00 -0.00000000000E+00 -0.80377327711E+03  0.80377327711E+03  0.00000000000E+00 0. -1.
         25    1    1    2    0    0 -0.40783183330E+01  0.19822684611E+03 -0.50415793457E+03  0.55597728208E+03  0.12500000000E+03 0.  0.
         25    1    1    2    0    0  0.40783183330E+01 -0.19822684611E+03 -0.22352812273E+03  0.32388321483E+03  0.12500000000E+03 0.  0.
</event>
<event>
 4    0  0.2205135E-002  0.2017727E+03  0.7546771E-02  0.1148252E+00
         21   -1    0    0  502  501  0.00000000000E+00  0.00000000000E+00  0.26145190806E+03  0.26145190806E+03  0.00000000000E+00 0.  1.
         21   -1    0    0  501  502 -0.00000000000E+00 -0.00000000000E+00 -0.15571597513E+03  0.15571597513E+03  0.00000000000E+00 0.  1.
         25    1    1    2    0    0  0.88156062752E+02  0.12927479028E+03  0.27466645363E+02  0.20214568857E+03  0.12500000000E+03 0.  0.
         25    1    1    2    0    0 -0.88156062752E+02 -0.12927479028E+03  0.78269287572E+02  0.21502219462E+03  0.12500000000E+03 0.  0.
</event>
<event>
 4    0  0.2205135E-002  0.2362649E+03  0.7546771E-02  0.1122306E+00
         21   -1    0    0  502  501  0.00000000000E+00  0.00000000000E+00  0.75801183783E+02  0.75801183783E+02  0.00000000000E+00 0. -1.
         21   -1    0    0  501  502 -0.00000000000E+00 -0.00000000000E+00 -0.73641495534E+03  0.73641495534E+03  0.00000000000E+00 0. -1.
         25    1    1    2    0    0  0.52898420384E+02 -0.17821598190E+03 -0.20125502420E+03  0.30114409150E+03  0.12500000000E+03 0.  0.
         25    1    1    2    0    0 -0.52898420384E+02  0.17821598190E+03 -0.45935874736E+03  0.51107204762E+03  0.12500000000E+03 0.  0.
</event>
<event>
 4    0  0.2205135E-002  0.1717066E+03  0.7546771E-02  0.1176080E+00
         21   -1    0    0  502  501  0.00000000000E+00  0.00000000000E+00  0.32168871192E+02  0.32168871192E+02  0.00000000000E+00 0. -1.
         21   -1    0    0  501  502 -0.00000000000E+00 -0.00000000000E+00 -0.91651207866E+03  0.91651207866E+03  0.00000000000E+00 0. -1.
         25    1    1    2    0    0 -0.19087011928E+02  0.64585902097E+02 -0.70890016225E+03  0.72298000859E+03  0.12500000000E+03 0.  0.
         25    1    1    2    0    0  0.19087011928E+02 -0.64585902097E+02 -0.17544304522E+03  0.22570094127E+03  0.12500000000E+03 0.  0.
</event>
<event>
 4    0  0.2205135E-002  0.1896160E+03  0.7546771E-02  0.1158808E+00
         21   -1    0    0  502  501  0.00000000000E+00  0.00000000000E+00  0.30855938492E+02  0.30855938492E+02  0.00000000000E+00 0. -1.
         21   -1    0    0  501  502 -0.00000000000E+00 -0.00000000000E+00 -0.11652283555E+04  0.11652283555E+04  0.00000000000E+00 0. -1.
         25    1    1    2    0    0  0.49042247778E+02 -0.11012835508E+03 -0.32707399462E+03  0.37031850429E+03  0.12500000000E+03 0.  0.
         25    1    1    2    0    0 -0.49042247778E+02  0.11012835508E+03 -0.80729842242E+03  0.82576578974E+03  0.12500000000E+03 0.  0.
</event>
<event>
 4    0  0.2205135E-002  0.1917090E+03  0.7546771E-02  0.1156929E+00
         21   -1    0    0  502  501  0.00000000000E+00  0.00000000000E+00  0.32503524725E+02  0.32503524725E+02  0.00000000000E+00 0.  1.
         21   -1    0    0  501  502 -0.00000000000E+00 -0.00000000000E+00 -0.11307180508E+04  0.11307180508E+04  0.00000000000E+00 0.  1.
         25    1    1    2    0    0  0.74393990069E+02  0.40919950073E+02 -0.19118811167E+03  0.24369407485E+03  0.12500000000E+03 0.  0.
         25    1    1    2    0    0 -0.74393990069E+02 -0.40919950073E+02 -0.90702641441E+03  0.91952750069E+03  0.12500000000E+03 0.  0.
</event>
<event>
 4    0  0.2205135E-002  0.3000796E+03  0.7546771E-02  0.1085201E+00
         21   -1    0    0  502  501  0.00000000000E+00  0.00000000000E+00  0.27458811768E+03  0.27458811768E+03  0.00000000000E+00 0.  1.
         21   -1    0    0  501  502 -0.00000000000E+00 -0.00000000000E+00 -0.32793763489E+03  0.32793763489E+03  0.00000000000E+00 0.  1.
         25    1    1    2    0    0  0.23228991243E+03 -0.99143642331E+02  0.76856620207E+02  0.29209588375E+03  0.12500000000E+03 0.  0.
         25    1    1    2    0    0 -0.23228991243E+03  0.99143642331E+02 -0.13020613742E+03  0.31042986882E+03  0.12500000000E+03 0.  0.
</event>
<event>
 4    0  0.2205135E-002  0.2272207E+03  0.7546771E-02  0.1128611E+00
         21   -1    0    0  502  501  0.00000000000E+00  0.00000000000E+00  0.94112067950E+02  0.94112067950E+02  0.00000000000E+00 0. -1.
         21   -1    0    0  501  502 -0.00000000000E+00 -0.00000000000E+00 -0.54859307565E+03  0.54859307565E+03  0.00000000000E+00 0. -1.
         25    1    1    2    0    0  0.18344779000E+03 -0.48213079575E+02 -0.23453960514E+03  0.32651404116E+03  0.12500000000E+03 0.  0.
         25    1    1    2    0    0 -0.18344779000E+03  0.48213079575E+02 -0.21994140256E+03  0.31619110243E+03  0.12500000000E+03 0.  0.
</event>
<event>
 4    0  0.2205135E-002  0.4824714E+03  0.7546771E-02  0.1018458E+00
         21   -1    0    0  502  501  0.00000000000E+00  0.00000000000E+00  0.91942614617E+03  0.91942614617E+03  0.00000000000E+00 0.  1.
         21   -1    0    0  501  502 -0.00000000000E+00 -0.00000000000E+00 -0.25317816375E+03  0.25317816375E+03  0.00000000000E+00 0.  1.
         25    1    1    2    0    0  0.77469978989E+02 -0.94283694178E+01  0.89140921243E+03  0.90350754053E+03  0.12500000000E+03 0.  0.
         25    1    1    2    0    0 -0.77469978989E+02  0.94283694178E+01 -0.22516123001E+03  0.26909676939E+03  0.12500000000E+03 0.  0.
</event>
<event>
 4    0  0.2205135E-002  0.2298496E+03  0.7546771E-02  0.1126746E+00
         21   -1    0    0  502  501  0.00000000000E+00  0.00000000000E+00  0.44944645593E+02  0.44944645593E+02  0.00000000000E+00 0.  1.
         21   -1    0    0  501  502 -0.00000000000E+00 -0.00000000000E+00 -0.11754647681E+04  0.11754647681E+04  0.00000000000E+00 0.  1.
         25    1    1    2    0    0  0.17542233330E+03  0.42892076484E+02 -0.38533744263E+03  0.44353429398E+03  0.12500000000E+03 0.  0.
         25    1    1    2    0    0 -0.17542233330E+03 -0.42892076484E+02 -0.74518267992E+03  0.77687511976E+03  0.12500000000E+03 0.  0.
</event>
<event>
 4    0  0.2205135E-002  0.1894408E+03  0.7546771E-02  0.1158967E+00
         21   -1    0    0  502  501  0.00000000000E+00  0.00000000000E+00  0.42679182529E+03  0.42679182529E+03  0.00000000000E+00 0. -1.
         21   -1    0    0  501  502 -0.00000000000E+00 -0.00000000000E+00 -0.84087406804E+02  0.84087406804E+02  0.00000000000E+00 0. -1.
         25    1    1    2    0    0 -0.84568679299E+01  0.14067459633E+03  0.14431856370E+03  0.23730509581E+03  0.12500000000E+03 0.  0.
         25    1    1    2    0    0  0.84568679299E+01 -0.14067459633E+03  0.19838585479E+03  0.27357413629E+03  0.12500000000E+03 0.  0.
</event>
<event>
 4    0  0.2205135E-002  0.1894642E+03  0.7546771E-02  0.1158945E+00
         21   -1    0    0  502  501  0.00000000000E+00  0.00000000000E+00  0.14670462760E+03  0.14670462760E+03  0.00000000000E+00 0.  1.
         21   -1    0    0  501  502 -0.00000000000E+00 -0.00000000000E+00 -0.24468683603E+03  0.24468683603E+03  0.00000000000E+00 0.  1.
         25    1    1    2    0    0 -0.20745030573E+02  0.71842047549E+02 -0.17413739636E+03  0.22702526049E+03  0.12500000000E+03 0.  0.
         25    1    1    2    0    0  0.20745030573E+02 -0.71842047549E+02  0.76155187929E+02  0.16436620315E+03  0.12500000000E+03 0.  0.
</event>
<event>
 4    0  0.2205135E-002  0.2243175E+03  0.7546771E-02  0.1130705E+00
         21   -1    0    0  502  501  0.00000000000E+00  0.00000000000E+00  0.31300085734E+03  0.31300085734E+03  0.00000000000E+00 0.  1.
         21   -1    0    0  501  502 -0.00000000000E+00 -0.00000000000E+00 -0.16076099022E+03  0.16076099022E+03  0.00000000000E+00 0.  1.
         25    1    1    2    0    0  0.10174028770E+03  0.37208393722E+01 -0.88591495442E+02  0.18395212380E+03  0.12500000000E+03 0.  0.
         25    1    1    2    0    0 -0.10174028770E+03 -0.37208393722E+01  0.24083136257E+03  0.28980972376E+03  0.12500000000E+03 0.  0.
</event>
<event>
 4    0  0.2205135E-002  0.2546711E+03  0.7546771E-02  0.1110388E+00
         21   -1    0    0  502  501  0.00000000000E+00  0.00000000000E+00  0.37535790950E+03  0.37535790950E+03  0.00000000000E+00 0. -1.
         21   -1    0    0  501  502 -0.00000000000E+00 -0.00000000000E+00 -0.17278810909E+03  0.17278810909E+03  0.00000000000E+00 0. -1.
         25    1    1    2    0    0  0.17719063995E+03  0.10382276122E+03  0.19168881210E+03  0.30748217723E+03  0.12500000000E+03 0.  0.
         25    1    1    2    0    0 -0.17719063995E+03 -0.10382276122E+03  0.10880988308E+02  0.24066384136E+03  0.12500000000E+03 0.  0.
</event>
<event>
 4    0  0.2205135E-002  0.1803268E+03  0.7546771E-02  0.1167487E+00
         21   -1    0    0  502  501  0.00000000000E+00  0.00000000000E+00  0.97995485449E+02  0.97995485449E+02  0.00000000000E+00 0.  1.
         21   -1    0    0  501  502 -0.00000000000E+00 -0.00000000000E+00 -0.33182893934E+03  0.33182893934E+03  0.00000000000E+00 0.  1.
         25    1    1    2    0    0 -0.12405036357E+03 -0.33255296657E+02 -0.93130654695E+02  0.20197209288E+03  0.12500000000E+03 0.  0.
         25    1    1    2    0    0  0.12405036357E+03  0.33255296657E+02 -0.14070279919E+03  0.22785233191E+03  0.12500000000E+03 0.  0.
</event>
<event>
 4    0  0.2205135E-002  0.1910478E+03  0.7546771E-02  0.1157520E+00
         21   -1    0    0  502  501  0.00000000000E+00  0.00000000000E+00  0.13884190431E+03  0.13884190431E+03  0.00000000000E+00 0. -1.
         21   -1    0    0  501  502 -0.00000000000E+00 -0.00000000000E+00 -0.26288373909E+03  0.26288373909E+03  0.00000000000E+00 0. -1.
         25    1    1    2    0    0 -0.71335257739E+02  0.79492152424E+02  0.40273859383E+02  0.16927700684E+03  0.12500000000E+03 0.  0.
         25    1    1    2    0    0  0.71335257739E+02 -0.79492152424E+02 -0.16431569416E+03  0.23244863656E+03  0.12500000000E+03 0.  0.
</event>
<event>
 4    0  0.2205135E-002  0.2223398E+03  0.7546771E-02  0.1132151E+00
         21   -1    0    0  502  501  0.00000000000E+00  0.00000000000E+00  0.56391136893E+03  0.56391136893E+03  0.00000000000E+00 0.  1.
         21   -1    0    0  501  502 -0.00000000000E+00 -0.00000000000E+00 -0.87664476703E+02  0.87664476703E+02  0.00000000000E+00 0.  1.
         25    1    1    2    0    0 -0.16972094871E+03 -0.63912114394E+02  0.28256816940E+03  0.35827326045E+03  0.12500000000E+03 0.  0.
         25    1    1    2    0    0  0.16972094871E+03  0.63912114394E+02  0.19367872282E+03  0.29330258518E+03  0.12500000000E+03 0.  0.
</event>
<event>
 4    0  0.2205135E-002  0.1927311E+03  0.7546771E-02  0.1156021E+00
         21   -1    0    0  502  501  0.00000000000E+00  0.00000000000E+00  0.53914425267E+02  0.53914425267E+02  0.00000000000E+00 0. -1.
         21   -1    0    0  501  502 -0.00000000000E+00 -0.00000000000E+00 -0.68896718084E+03  0.68896718084E+03  0.00000000000E+00 0. -1.
         25    1    1    2    0    0 -0.29700942294E+02 -0.25736320288E+01 -0.59435006861E+03  0.60808368965E+03  0.12500000000E+03 0.  0.
         25    1    1    2    0    0  0.29700942294E+02  0.25736320288E+01 -0.40702686955E+02  0.13479791645E+03  0.12500000000E+03 0.  0.
</event>
<event>
 4    0  0.2205135E-002  0.2219464E+03  0.7546771E-02  0.1132440E+00
         21   -1    0    0  502  501  0.00000000000E+00  0.00000000000E+00  0.16935248346E+04  0.16935248346E+04  0.00000000000E+00 0. -1.
         21   -1    0    0  501  502 -0.00000000000E+00 -0.00000000000E+00 -0.29087395303E+02  0.29087395303E+02  0.00000000000E+00 0. -1.
         25    1    1    2    0    0  0.76701006083E+02 -0.16609960325E+03  0.88177986685E+03  0.90919351962E+03  0.12500000000E+03 0.  0.
         25    1    1    2    0    0 -0.76701006083E+02  0.16609960325E+03  0.78265757246E+03  0.81341871029E+03  0.12500000000E+03 0.  0.
</event>
<event>
 4    0  0.2205135E-002  0.1787514E+03  0.7546771E-02  0.1169017E+00
         21   -1    0    0  502  501  0.00000000000E+00  0.00000000000E+00  0.13222500890E+04  0.13222500890E+04  0.00000000000E+00 0.  1.
         21   -1    0    0  501  502 -0.00000000000E+00 -0.00000000000E+00 -0.24164925479E+02  0.24164925479E+02  0.00000000000E+00 0.  1.
         25    1    1    2    0    0  0.76206926016E+01  0.11237564429E+03  0.42179842316E+03  0.45412032565E+03  0.12500000000E+03 0.  0.
         25    1    1    2    0    0 -0.76206926016E+01 -0.11237564429E+03  0.87628674039E+03  0.89229468886E+03  0.12500000000E+03 0.  0.
</event>
<event>
 4    0  0.2205135E-002  0.4714300E+03  0.7546771E-02  0.1021517E+00
         21   -1    0    0  502  501  0.00000000000E+00  0.00000000000E+00  0.94897578830E+03  0.94897578830E+03  0.00000000000E+00 0. -1.
         21   -1    0    0  501  502 -0.00000000000E+00 -0.00000000000E+00 -0.23419595475E+03  0.23419595475E+03  0.00000000000E+00 0. -1.
         25    1    1    2    0    0  0.50608795141E+02 -0.39144306902E+03  0.74465331522E+02  0.42066496411E+03  0.12500000000E+03 0.  0.
         25    1    1    2    0    0 -0.50608795141E+02  0.39144306902E+03  0.64031450202E+03  0.76250677894E+03  0.12500000000E+03 0.  0.
</event>
<event>
 4    0  0.2205135E-002  0.2446287E+03  0.7546771E-02  0.1116747E+00
         21   -1    0    0  502  501  0.00000000000E+00  0.00000000000E+00  0.67744956952E+03  0.67744956952E+03  0.00000000000E+00 0.  1.
         21   -1    0    0  501  502 -0.00000000000E+00 -0.00000000000E+00 -0.88336043257E+02  0.88336043257E+02  0.00000000000E+00 0.  1.
         25    1    1    2    0    0  0.11119410045E+03 -0.34332643115E+01  0.15256104587E+02  0.16802875946E+03  0.12500000000E+03 0.  0.
         25    1    1    2    0    0 -0.11119410045E+03  0.34332643115E+01  0.57385742168E+03  0.59775685332E+03  0.12500000000E+03 0.  0.
</event>
<event>
 4    0  0.2205135E-002  0.2019188E+03  0.7546771E-02  0.1148130E+00
         21   -1    0    0  502  501  0.00000000000E+00  0.00000000000E+00  0.12494938740E+03  0.12494938740E+03  0.00000000000E+00 0. -1.
         21   -1    0    0  501  502 -0.00000000000E+00 -0.00000000000E+00 -0.32630159864E+03  0.32630159864E+03  0.00000000000E+00 0. -1.
         25    1    1    2    0    0 -0.63174108860E+02  0.12037577745E+00 -0.26320107527E+03  0.29814558280E+03  0.12500000000E+03 0.  0.
         25    1    1    2    0    0  0.63174108860E+02 -0.12037577745E+00  0.61848864021E+02  0.15310540324E+03  0.12500000000E+03 0.  0.
</event>
<event>
 4    0  0.2205135E-002  0.2115732E+03  0.7546771E-02  0.1140326E+00
         21   -1    0    0  502  501  0.00000000000E+00  0.00000000000E+00  0.15278302580E+03  0.15278302580E+03  0.00000000000E+00 0. -1.
         21   -1    0    0  501  502 -0.00000000000E+00 -0.00000000000E+00 -0.29298563640E+03  0.29298563640E+03  0.00000000000E+00 0. -1.
         25    1    1    2    0    0  0.10306921726E+03 -0.74429517020E+02 -0.19009988613E+03  0.26062613694E+03  0.12500000000E+03 0.  0.
         25    1    1    2    0    0 -0.10306921726E+03  0.74429517020E+02  0.49897275540E+02  0.18514252525E+03  0.12500000000E+03 0.  0.
</event>
<event>
 4    0  0.2205135E-002  0.2436582E+03  0.7546771E-02  0.1117380E+00
         21   -1    0    0  502  501  0.00000000000E+00  0.00000000000E+00  0.13197542500E+04  0.13197542500E+04  0.00000000000E+00 0. -1.
         21   -1    0    0  501  502 -0.00000000000E+00 -0.00000000000E+00 -0.44985120270E+02  0.44985120270E+02  0.00000000000E+00 0. -1.
         25    1    1    2    0    0  0.86978920115E+02  0.18504072510E+03  0.76069975702E+03  0.79755534154E+03  0.12500000000E+03 0.  0.
         25    1    1    2    0    0 -0.86978920115E+02 -0.18504072510E+03  0.51406937275E+03  0.56718402877E+03  0.12500000000E+03 0.  0.
</event>
<event>
 4    0  0.2205135E-002  0.2363914E+03  0.7546771E-02  0.1122220E+00
         21   -1    0    0  502  501  0.00000000000E+00  0.00000000000E+00  0.35820108167E+03  0.35820108167E+03  0.00000000000E+00 0. -1.
         21   -1    0    0  501  502 -0.00000000000E+00 -0.00000000000E+00 -0.15600427408E+03  0.15600427408E+03  0.00000000000E+00 0. -1.
         25    1    1    2    0    0  0.18800077877E+03  0.24432638544E+02  0.17253945660E+03  0.28519486448E+03  0.12500000000E+03 0.  0.
         25    1    1    2    0    0 -0.18800077877E+03 -0.24432638544E+02  0.29657350992E+02  0.22901049127E+03  0.12500000000E+03 0.  0.
</event>
<event>
 4    0  0.2205135E-002  0.6307176E+03  0.7546771E-02  0.9843649E-01
         21   -1    0    0  502  501  0.00000000000E+00  0.00000000000E+00  0.10922961144E+04  0.10922961144E+04  0.00000000000E+00 0. -1.
         21   -1    0    0  501  502 -0.00000000000E+00 -0.00000000000E+00 -0.36419129036E+03  0.36419129036E+03  0.00000000000E+00 0. -1.
         25    1    1    2    0    0  0.92535306554E+02 -0.47243856040E+03 -0.83756529005E+02  0.50438193114E+03  0.12500000000E+03 0.  0.
         25    1    1    2    0    0 -0.92535306554E+02  0.47243856040E+03  0.81186135304E+03  0.95210547361E+03  0.12500000000E+03 0.  0.
</event>
<event>
 4    0  0.2205135E-002  0.3037371E+03  0.7546771E-02  0.1083387E+00
         21   -1    0    0  502  501  0.00000000000E+00  0.00000000000E+00  0.76853159708E+03  0.76853159708E+03  0.00000000000E+00 0.  1.
         21   -1    0    0  501  502 -0.00000000000E+00 -0.00000000000E+00 -0.12004217032E+03  0.12004217032E+03  0.00000000000E+00 0.  1.
         25    1    1    2    0    0 -0.42513107266E+01  0.23983650988E+03  0.52635415237E+03  0.59178823817E+03  0.12500000000E+03 0.  0.
         25    1    1    2    0    0  0.42513107266E+01 -0.23983650988E+03  0.12213527439E+03  0.29678552924E+03  0.12500000000E+03 0.  0.
</event>
<event>
 4    0  0.2205135E-002  0.1967435E+03  0.7546771E-02  0.1152516E+00
         21   -1    0    0  502  501  0.00000000000E+00  0.00000000000E+00  0.22089483343E+03  0.22089483343E+03  0.00000000000E+00 0. -1.
         21   -1    0    0  501  502 -0.00000000000E+00 -0.00000000000E+00 -0.17523264237E+03  0.17523264237E+03  0.00000000000E+00 0. -1.
         25    1    1    2    0    0  0.11716324542E+03  0.59321470866E+02  0.99742227747E+02  0.20692939612E+03  0.12500000000E+03 0.  0.
         25    1    1    2    0    0 -0.11716324542E+03 -0.59321470866E+02 -0.54080036684E+02  0.18919807967E+03  0.12500000000E+03 0.  0.
</event>
<event>
 4    0  0.2205135E-002  0.1987892E+03  0.7546771E-02  0.1150765E+00
         21   -1    0    0  502  501  0.00000000000E+00  0.00000000000E+00  0.20948371003E+03  0.20948371003E+03  0.00000000000E+00 0. -1.
         21   -1    0    0  501  502 -0.00000000000E+00 -0.00000000000E+00 -0.18864073259E+03  0.18864073259E+03  0.00000000000E+00 0. -1.
         25    1    1    2    0    0  0.63699850793E+02  0.10554579566E+03 -0.82951260967E+02  0.19417388513E+03  0.12500000000E+03 0.  0.
         25    1    1    2    0    0 -0.63699850793E+02 -0.10554579566E+03  0.10379423841E+03  0.20395055749E+03  0.12500000000E+03 0.  0.
</event>
<event>
 4    0  0.2205135E-002  0.3056788E+03  0.7546771E-02  0.1082436E+00
         21   -1    0    0  502  501  0.00000000000E+00  0.00000000000E+00  0.47971773727E+03  0.47971773727E+03  0.00000000000E+00 0.  1.
         21   -1    0    0  501  502 -0.00000000000E+00 -0.00000000000E+00 -0.19478028014E+03  0.19478028014E+03  0.00000000000E+00 0. -1.
         25    1    1    2    0    0  0.20394308562E+03 -0.15440453639E+03  0.19706892111E+02  0.28538904083E+03  0.12500000000E+03 0.  0.
         25    1    1    2    0    0 -0.20394308562E+03  0.15440453639E+03  0.26523056502E+03  0.38910897657E+03  0.12500000000E+03 0.  0.
</event>
<event>
 4    0  0.2205135E-002  0.1723391E+03  0.7546771E-02  0.1175430E+00
         21   -1    0    0  502  501  0.00000000000E+00  0.00000000000E+00  0.42451885222E+03  0.42451885222E+03  0.00000000000E+00 0. -1.
         21   -1    0    0  501  502 -0.00000000000E+00 -0.00000000000E+00 -0.69963321414E+02  0.69963321414E+02  0.00000000000E+00 0. -1.
         25    1    1    2    0    0  0.22230302109E+02  0.40351079705E+02  0.20428743324E+02  0.13477659114E+03  0.12500000000E+03 0.  0.
         25    1    1    2    0    0 -0.22230302109E+02 -0.40351079705E+02  0.33412678749E+03  0.35970558250E+03  0.12500000000E+03 0.  0.
</event>
<event>
 4    0  0.2205135E-002  0.2414410E+03  0.7546771E-02  0.1118837E+00
         21   -1    0    0  502  501  0.00000000000E+00  0.00000000000E+00  0.13089908872E+04  0.13089908872E+04  0.00000000000E+00 0.  1.
         21   -1    0    0  501  502 -0.00000000000E+00 -0.00000000000E+00 -0.44533358724E+02  0.44533358724E+02  0.00000000000E+00 0.  1.
         25    1    1    2    0    0  0.16256679587E+03  0.11547523079E+03  0.48111887418E+03  0.53559580202E+03  0.12500000000E+03 0.  0.
         25    1    1    2    0    0 -0.16256679587E+03 -0.11547523079E+03  0.78333865434E+03  0.81792844395E+03  0.12500000000E+03 0.  0.
</event>
<event>
 4    0  0.2205135E-002  0.1318302E+03  0.7546771E-02  0.1224765E+00
         21   -1    0    0  502  501  0.00000000000E+00  0.00000000000E+00  0.41890368281E+02  0.41890368281E+02  0.00000000000E+00 0.  1.
         21   -1    0    0  501  502 -0.00000000000E+00 -0.00000000000E+00 -0.41487360987E+03  0.41487360987E+03  0.00000000000E+00 0.  1.
         25    1    1    2    0    0  0.36510447865E+01  0.30101883177E+01 -0.11439783212E+03  0.16951181480E+03  0.12500000000E+03 0.  0.
         25    1    1    2    0    0 -0.36510447865E+01 -0.30101883177E+01 -0.25858540946E+03  0.28725216335E+03  0.12500000000E+03 0.  0.
</event>
<event>
 4    0  0.2205135E-002  0.2023433E+03  0.7546771E-02  0.1147777E+00
         21   -1    0    0  502  501  0.00000000000E+00  0.00000000000E+00  0.41190089944E+02  0.41190089944E+02  0.00000000000E+00 0. -1.
         21   -1    0    0  501  502 -0.00000000000E+00 -0.00000000000E+00 -0.99399651718E+03  0.99399651718E+03  0.00000000000E+00 0. -1.
         25    1    1    2    0    0 -0.26719504097E+02  0.13271078637E+03 -0.26251251479E+03  0.32072403268E+03  0.12500000000E+03 0.  0.
         25    1    1    2    0    0  0.26719504097E+02 -0.13271078637E+03 -0.69029391244E+03  0.71446257444E+03  0.12500000000E+03 0.  0.
</event>
<event>
 4    0  0.2205135E-002  0.2130560E+03  0.7546771E-02  0.1139169E+00
         21   -1    0    0  502  501  0.00000000000E+00  0.00000000000E+00  0.19017100834E+03  0.19017100834E+03  0.00000000000E+00 0.  1.
         21   -1    0    0  501  502 -0.00000000000E+00 -0.00000000000E+00 -0.23869499615E+03  0.23869499615E+03  0.00000000000E+00 0.  1.
         25    1    1    2    0    0  0.12065626877E+03 -0.48066240160E+02  0.90048321189E+02  0.20149937664E+03  0.12500000000E+03 0.  0.
         25    1    1    2    0    0 -0.12065626877E+03  0.48066240160E+02 -0.13857230901E+03  0.22736662785E+03  0.12500000000E+03 0.  0.
</event>
<event>
 4    0  0.2205135E-002  0.2856775E+03  0.7546771E-02  0.1092628E+00
         21   -1    0    0  502  501  0.00000000000E+00  0.00000000000E+00  0.71899330422E+02  0.71899330422E+02  0.00000000000E+00 0. -1.
         21   -1    0    0  501  502 -0.00000000000E+00 -0.00000000000E+00 -0.11350822524E+04  0.11350822524E+04  0.00000000000E+00 0. -1.
         25    1    1    2    0    0 -0.10654035377E+03 -0.14451092159E+03 -0.14348855847E+03  0.26162610698E+03  0.12500000000E+03 0.  0.
         25    1    1    2    0    0  0.10654035377E+03  0.14451092159E+03 -0.91969436346E+03  0.94535547580E+03  0.12500000000E+03 0.  0.
</event>
<event>
 4    0  0.2205135E-002  0.2012387E+03  0.7546771E-02  0.1148698E+00
         21   -1    0    0  502  501  0.00000000000E+00  0.00000000000E+00  0.16435536731E+03  0.16435536731E+03  0.00000000000E+00 0.  1.
         21   -1    0    0  501  502 -0.00000000000E+00 -0.00000000000E+00 -0.24639920981E+03  0.24639920981E+03  0.00000000000E+00 0.  1.
         25    1    1    2    0    0  0.15353106867E+03  0.95234664132E+01 -0.76515698596E+02  0.21246679174E+03  0.12500000000E+03 0.  0.
         25    1    1    2    0    0 -0.15353106867E+03 -0.95234664132E+01 -0.55281438965E+01  0.19828778539E+03  0.12500000000E+03 0.  0.
</event>
<event>
 4    0  0.2205135E-002  0.2028945E+03  0.7546771E-02  0.1147320E+00
         21   -1    0    0  502  501  0.00000000000E+00  0.00000000000E+00  0.31878867262E+03  0.31878867262E+03  0.00000000000E+00 0. -1.
         21   -1    0    0  501  502 -0.00000000000E+00 -0.00000000000E+00 -0.12913318497E+03  0.12913318497E+03  0.00000000000E+00 0. -1.
         25    1    1    2    0    0 -0.88936773121E+02 -0.81779834768E+02  0.21030065659E+03  0.27285354524E+03  0.12500000000E+03 0.  0.
         25    1    1    2    0    0  0.88936773121E+02  0.81779834768E+02 -0.20645168939E+02  0.17506831235E+03  0.12500000000E+03 0.  0.
</event>
<event>
 4    0  0.2205135E-002  0.1942119E+03  0.7546771E-02  0.1154716E+00
         21   -1    0    0  502  501  0.00000000000E+00  0.00000000000E+00  0.75193786544E+02  0.75193786544E+02  0.00000000000E+00 0. -1.
         21   -1    0    0  501  502 -0.00000000000E+00 -0.00000000000E+00 -0.50161389113E+03  0.50161389113E+03  0.00000000000E+00 0. -1.
         25    1    1    2    0    0  0.83543298752E+02 -0.11390348024E+03 -0.28190235032E+03  0.33918640995E+03  0.12500000000E+03 0.  0.
         25    1    1    2    0    0 -0.83543298752E+02  0.11390348024E+03 -0.14451775426E+03  0.23762126772E+03  0.12500000000E+03 0.  0.
</event>
<event>
 4    0  0.2205135E-002  0.1906165E+03  0.7546771E-02  0.1157907E+00
         21   -1    0    0  502  501  0.00000000000E+00  0.00000000000E+00  0.94993489197E+02  0.94993489197E+02  0.00000000000E+00 0. -1.
         21   -1    0    0  501  502 -0.00000000000E+00 -0.00000000000E+00 -0.38249605873E+03  0.38249605873E+03  0.00000000000E+00 0. -1.
         25    1    1    2    0    0  0.43697556162E+02  0.66135818719E+02 -0.29418654130E+03  0.32932376777E+03  0.12500000000E+03 0.  0.
         25    1    1    2    0    0 -0.43697556162E+02 -0.66135818719E+02  0.66839717688E+01  0.14816578016E+03  0.12500000000E+03 0.  0.
</event>
<event>
 4    0  0.2205135E-002  0.2880242E+03  0.7546771E-02  0.1091385E+00
         21   -1    0    0  502  501  0.00000000000E+00  0.00000000000E+00  0.48356589289E+02  0.48356589289E+02  0.00000000000E+00 0. -1.
         21   -1    0    0  501  502 -0.00000000000E+00 -0.00000000000E+00 -0.17155457659E+04  0.17155457659E+04  0.00000000000E+00 0. -1.
         25    1    1    2    0    0 -0.15009072700E+03  0.18575575028E+03 -0.52282030800E+03  0.58821637137E+03  0.12500000000E+03 0.  0.
         25    1    1    2    0    0  0.15009072700E+03 -0.18575575028E+03 -0.11443688686E+04  0.11756859838E+04  0.12500000000E+03 0.  0.
</event>
<event>
 4    0  0.2205135E-002  0.1707639E+03  0.7546771E-02  0.1177054E+00
         21   -1    0    0  502  501  0.00000000000E+00  0.00000000000E+00  0.25543464715E+02  0.25543464715E+02  0.00000000000E+00 0.  1.
         21   -1    0    0  501  502 -0.00000000000E+00 -0.00000000000E+00 -0.11415956744E+04  0.11415956744E+04  0.00000000000E+00 0.  1.
         25    1    1    2    0    0 -0.11391822759E+03  0.21544191666E+02 -0.59112277012E+03  0.61521755837E+03  0.12500000000E+03 0.  0.
         25    1    1    2    0    0  0.11391822759E+03 -0.21544191666E+02 -0.52492943961E+03  0.55192158079E+03  0.12500000000E+03 0.  0.
</event>
<event>
 4    0  0.2205135E-002  0.1816540E+03  0.7546771E-02  0.1166212E+00
         21   -1    0    0  502  501  0.00000000000E+00  0.00000000000E+00  0.82938973326E+03  0.82938973326E+03  0.00000000000E+00 0.  1.
         21   -1    0    0  501  502 -0.00000000000E+00 -0.00000000000E+00 -0.39786108593E+02  0.39786108593E+02  0.00000000000E+00 0.  1.
         25    1    1    2    0    0  0.11344275206E+03 -0.66106508886E+02  0.42248145033E+03  0.45973351453E+03  0.12500000000E+03 0.  0.
         25    1    1    2    0    0 -0.11344275206E+03  0.66106508886E+02  0.36712217434E+03  0.40944232732E+03  0.12500000000E+03 0.  0.
</event>
<event>
 4    0  0.2205135E-002  0.3008493E+03  0.7546771E-02  0.1084817E+00
         21   -1    0    0  502  501  0.00000000000E+00  0.00000000000E+00  0.78276810372E+03  0.78276810372E+03  0.00000000000E+00 0.  1.
         21   -1    0    0  501  502 -0.00000000000E+00 -0.00000000000E+00 -0.11562847916E+03  0.11562847916E+03  0.00000000000E+00 0.  1.
         25    1    1    2    0    0 -0.50153382637E+02  0.21284667959E+03  0.57921196164E+03  0.63160950540E+03  0.12500000000E+03 0.  0.
         25    1    1    2    0    0  0.50153382637E+02 -0.21284667959E+03  0.87927662916E+02  0.26678707748E+03  0.12500000000E+03 0.  0.
</event>
<event>
 4    0  0.2205135E-002  0.2643164E+03  0.7546771E-02  0.1104577E+00
         21   -1    0    0  502  501  0.00000000000E+00  0.00000000000E+00  0.31081492723E+02  0.31081492723E+02  0.00000000000E+00 0. -1.
         21   -1    0    0  501  502 -0.00000000000E+00 -0.00000000000E+00 -0.22477410022E+04  0.22477410022E+04  0.00000000000E+00 0. -1.
         25    1    1    2    0    0  0.11255675069E+03  0.96297003551E+02 -0.18830249699E+04  0.18929738964E+04  0.12500000000E+03 0.  0.
         25    1    1    2    0    0 -0.11255675069E+03 -0.96297003551E+02 -0.33363453959E+03  0.38584859858E+03  0.12500000000E+03 0.  0.
</event>
<event>
 4    0  0.2205135E-002  0.2113748E+03  0.7546771E-02  0.1140482E+00
         21   -1    0    0  502  501  0.00000000000E+00  0.00000000000E+00  0.43230616429E+03  0.43230616429E+03  0.00000000000E+00 0.  1.
         21   -1    0    0  501  502 -0.00000000000E+00 -0.00000000000E+00 -0.10335111813E+03  0.10335111813E+03  0.00000000000E+00 0.  1.
         25    1    1    2    0    0 -0.11437359934E+03  0.86909561656E+02  0.28074356350E+03  0.33922933331E+03  0.12500000000E+03 0.  0.
         25    1    1    2    0    0  0.11437359934E+03 -0.86909561656E+02  0.48211482662E+02  0.19642794911E+03  0.12500000000E+03 0.  0.
</event>
<event>
 4    0  0.2205135E-002  0.1521626E+03  0.7546771E-02  0.1197841E+00
         21   -1    0    0  502  501  0.00000000000E+00  0.00000000000E+00  0.11664895945E+02  0.11664895945E+02  0.00000000000E+00 0. -1.
         21   -1    0    0  501  502 -0.00000000000E+00 -0.00000000000E+00 -0.19848820335E+04  0.19848820335E+04  0.00000000000E+00 0. -1.
         25    1    1    2    0    0  0.12640749227E+02 -0.32657001084E+02 -0.46578942238E+03  0.48354012684E+03  0.12500000000E+03 0.  0.
         25    1    1    2    0    0 -0.12640749227E+02  0.32657001084E+02 -0.15074277152E+04  0.15130068026E+04  0.12500000000E+03 0.  0.
</event>
<event>
 4    0  0.2205135E-002  0.2232851E+03  0.7546771E-02  0.1131457E+00
         21   -1    0    0  502  501  0.00000000000E+00  0.00000000000E+00  0.20962951983E+03  0.20962951983E+03  0.00000000000E+00 0. -1.
         21   -1    0    0  501  502 -0.00000000000E+00 -0.00000000000E+00 -0.23783015799E+03  0.23783015799E+03  0.00000000000E+00 0. -1.
         25    1    1    2    0    0  0.28219072745E+01 -0.35948116154E+02 -0.19593077684E+03  0.23518949706E+03  0.12500000000E+03 0.  0.
         25    1    1    2    0    0 -0.28219072745E+01  0.35948116154E+02  0.16773013868E+03  0.21227018075E+03  0.12500000000E+03 0.  0.
</event>
<event>
 4    0  0.2205135E-002  0.2533951E+03  0.7546771E-02  0.1111178E+00
         21   -1    0    0  502  501  0.00000000000E+00  0.00000000000E+00  0.46971554662E+02  0.46971554662E+02  0.00000000000E+00 0. -1.
         21   -1    0    0  501  502 -0.00000000000E+00 -0.00000000000E+00 -0.13669783103E+04  0.13669783103E+04  0.00000000000E+00 0. -1.
         25    1    1    2    0    0 -0.10271127599E+03  0.19358584285E+03 -0.59403798290E+03  0.64539229148E+03  0.12500000000E+03 0.  0.
         25    1    1    2    0    0  0.10271127599E+03 -0.19358584285E+03 -0.72596877270E+03  0.76855757345E+03  0.12500000000E+03 0.  0.
</event>
<event>
 4    0  0.2205135E-002  0.1693082E+03  0.7546771E-02  0.1178571E+00
         21   -1    0    0  502  501  0.00000000000E+00  0.00000000000E+00  0.58905113644E+02  0.58905113644E+02  0.00000000000E+00 0. -1.
         21   -1    0    0  501  502 -0.00000000000E+00 -0.00000000000E+00 -0.48663477641E+03  0.48663477641E+03  0.00000000000E+00 0. -1.
         25    1    1    2    0    0  0.34154558357E+01  0.11384398936E+03 -0.20056410219E+03  0.26234152996E+03  0.12500000000E+03 0.  0.
         25    1    1    2    0    0 -0.34154558357E+01 -0.11384398936E+03 -0.22716556057E+03  0.28319836009E+03  0.12500000000E+03 0.  0.
</event>
<event>
 4    0  0.2205135E-002  0.1843826E+03  0.7546771E-02  0.1163628E+00
         21   -1    0    0  502  501  0.00000000000E+00  0.00000000000E+00  0.41124047956E+03  0.41124047956E+03  0.00000000000E+00 0. -1.
         21   -1    0    0  501  502 -0.00000000000E+00 -0.00000000000E+00 -0.82669246560E+02  0.82669246560E+02  0.00000000000E+00 0. -1.
         25    1    1    2    0    0 -0.43304449435E+00 -0.12024503449E+02 -0.16538861376E+02  0.12666218910E+03  0.12500000000E+03 0.  0.
         25    1    1    2    0    0  0.43304449435E+00  0.12024503449E+02  0.34511009438E+03  0.36724753703E+03  0.12500000000E+03 0.  0.
</event>
<event>
 4    0  0.2205135E-002  0.1897767E+03  0.7546771E-02  0.1158663E+00
         21   -1    0    0  502  501  0.00000000000E+00  0.00000000000E+00  0.15231910191E+04  0.15231910191E+04  0.00000000000E+00 0.  1.
         21   -1    0    0  501  502 -0.00000000000E+00 -0.00000000000E+00 -0.23644570314E+02  0.23644570314E+02  0.00000000000E+00 0.  1.
         25    1    1    2    0    0  0.96626356836E+02  0.51623513152E+02  0.11230361855E+04  0.11352695336E+04  0.12500000000E+03 0.  0.
         25    1    1    2    0    0 -0.96626356836E+02 -0.51623513152E+02  0.37651026322E+03  0.41156605576E+03  0.12500000000E+03 0.  0.
</event>
<event>
 4    0  0.2205135E-002  0.2150344E+03  0.7546771E-02  0.1137640E+00
         21   -1    0    0  502  501  0.00000000000E+00  0.00000000000E+00  0.25792273121E+03  0.25792273121E+03  0.00000000000E+00 0. -1.
         21   -1    0    0  501  502 -0.00000000000E+00 -0.00000000000E+00 -0.17927767369E+03  0.17927767369E+03  0.00000000000E+00 0. -1.
         25    1    1    2    0    0  0.14537688367E+03  0.78184844563E+02  0.98314797046E+02  0.22921192714E+03  0.12500000000E+03 0.  0.
         25    1    1    2    0    0 -0.14537688367E+03 -0.78184844563E+02 -0.19669739526E+02  0.20798847775E+03  0.12500000000E+03 0.  0.
</event>
<event>
 4    0  0.2205135E-002  0.2619549E+03  0.7546771E-02  0.1105974E+00
         21   -1    0    0  502  501  0.00000000000E+00  0.00000000000E+00  0.17285831378E+03  0.17285831378E+03  0.00000000000E+00 0. -1.
         21   -1    0    0  501  502 -0.00000000000E+00 -0.00000000000E+00 -0.39697460883E+03  0.39697460883E+03  0.00000000000E+00 0. -1.
         25    1    1    2    0    0 -0.17225147723E+03 -0.10722191435E+03 -0.23034904041E+03  0.33144047843E+03  0.12500000000E+03 0.  0.
         25    1    1    2    0    0  0.17225147723E+03  0.10722191435E+03  0.62327453551E+01  0.23839244418E+03  0.12500000000E+03 0.  0.
</event>
<event>
 4    0  0.2205135E-002  0.2543880E+03  0.7546771E-02  0.1110563E+00
         21   -1    0    0  502  501  0.00000000000E+00  0.00000000000E+00  0.23047409419E+03  0.23047409419E+03  0.00000000000E+00 0. -1.
         21   -1    0    0  501  502 -0.00000000000E+00 -0.00000000000E+00 -0.28078311142E+03  0.28078311142E+03  0.00000000000E+00 0. -1.
         25    1    1    2    0    0 -0.21550842487E+03  0.70359111898E+01  0.26033573896E+02  0.25059156451E+03  0.12500000000E+03 0.  0.
         25    1    1    2    0    0  0.21550842487E+03 -0.70359111898E+01 -0.76342591127E+02  0.26066564111E+03  0.12500000000E+03 0.  0.
</event>
<event>
 4    0  0.2205135E-002  0.2475678E+03  0.7546771E-02  0.1114852E+00
         21   -1    0    0  502  501  0.00000000000E+00  0.00000000000E+00  0.11420143683E+03  0.11420143683E+03  0.00000000000E+00 0. -1.
         21   -1    0    0  501  502 -0.00000000000E+00 -0.00000000000E+00 -0.53668143449E+03  0.53668143449E+03  0.00000000000E+00 0. -1.
         25    1    1    2    0    0 -0.85867448444E+02 -0.42184097108E+02 -0.46242692402E+03  0.48848375286E+03  0.12500000000E+03 0.  0.
         25    1    1    2    0    0  0.85867448444E+02  0.42184097108E+02  0.39946926359E+02  0.16239911846E+03  0.12500000000E+03 0.  0.
</event>
<event>
 4    0  0.2205135E-002  0.4856073E+03  0.7546771E-02  0.1017605E+00
         21   -1    0    0  502  501  0.00000000000E+00  0.00000000000E+00  0.21043185056E+03  0.21043185056E+03  0.00000000000E+00 0. -1.
         21   -1    0    0  501  502 -0.00000000000E+00 -0.00000000000E+00 -0.11206214105E+04  0.11206214105E+04  0.00000000000E+00 0.  1.
         25    1    1    2    0    0 -0.27376803885E+03 -0.38462592799E+02  0.64543309590E+02  0.31019211620E+03  0.12500000000E+03 0.  0.
         25    1    1    2    0    0  0.27376803885E+03  0.38462592799E+02 -0.97473286953E+03  0.10208611449E+04  0.12500000000E+03 0.  0.
</event>
<event>
 4    0  0.2205135E-002  0.1420964E+03  0.7546771E-02  0.1210536E+00
         21   -1    0    0  502  501  0.00000000000E+00  0.00000000000E+00  0.44844802250E+02  0.44844802250E+02  0.00000000000E+00 0. -1.
         21   -1    0    0  501  502 -0.00000000000E+00 -0.00000000000E+00 -0.45025043856E+03  0.45025043856E+03  0.00000000000E+00 0. -1.
         25    1    1    2    0    0 -0.45243991340E+02 -0.34916346091E+02 -0.13988478044E+03  0.19610946376E+03  0.12500000000E+03 0.  0.
         25    1    1    2    0    0  0.45243991340E+02  0.34916346091E+02 -0.26552085587E+03  0.29898577705E+03  0.12500000000E+03 0.  0.
</event>
<event>
 4    0  0.2205135E-002  0.2053483E+03  0.7546771E-02  0.1145303E+00
         21   -1    0    0  502  501  0.00000000000E+00  0.00000000000E+00  0.51924664048E+02  0.51924664048E+02  0.00000000000E+00 0.  1.
         21   -1    0    0  501  502 -0.00000000000E+00 -0.00000000000E+00 -0.81209827569E+03  0.81209827569E+03  0.00000000000E+00 0.  1.
         25    1    1    2    0    0 -0.11195361696E+03 -0.10065306110E+03 -0.51110260321E+03  0.54728011298E+03  0.12500000000E+03 0.  0.
         25    1    1    2    0    0  0.11195361696E+03  0.10065306110E+03 -0.24907100844E+03  0.31674282676E+03  0.12500000000E+03 0.  0.
</event>
<event>
 4    0  0.2205135E-002  0.2120897E+03  0.7546771E-02  0.1139922E+00
         21   -1    0    0  502  501  0.00000000000E+00  0.00000000000E+00  0.55899740563E+02  0.55899740563E+02  0.00000000000E+00 0.  1.
         21   -1    0    0  501  502 -0.00000000000E+00 -0.00000000000E+00 -0.80469157101E+03  0.80469157101E+03  0.00000000000E+00 0.  1.
         25    1    1    2    0    0  0.33319600804E+02  0.15170763575E+03 -0.52114201817E+03  0.55797796162E+03  0.12500000000E+03 0.  0.
         25    1    1    2    0    0 -0.33319600804E+02 -0.15170763575E+03 -0.22764981227E+03  0.30261334996E+03  0.12500000000E+03 0.  0.
</event>
<event>
 4    0  0.2205135E-002  0.1831004E+03  0.7546771E-02  0.1164836E+00
         21   -1    0    0  502  501  0.00000000000E+00  0.00000000000E+00  0.44955464704E+03  0.44955464704E+03  0.00000000000E+00 0. -1.
         21   -1    0    0  501  502 -0.00000000000E+00 -0.00000000000E+00 -0.74575497892E+02  0.74575497892E+02  0.00000000000E+00 0. -1.
         25    1    1    2    0    0 -0.60776112515E+02  0.11549457116E+03  0.22965797594E+03  0.29223366974E+03  0.12500000000E+03 0.  0.
         25    1    1    2    0    0  0.60776112515E+02 -0.11549457116E+03  0.14532117321E+03  0.23189647519E+03  0.12500000000E+03 0.  0.
</event>
<event>
 4    0  0.2205135E-002  0.2650736E+03  0.7546771E-02  0.1104133E+00
         21   -1    0    0  502  501  0.00000000000E+00  0.00000000000E+00  0.67672248813E+02  0.67672248813E+02  0.00000000000E+00 0.  1.
         21   -1    0    0  501  502 -0.00000000000E+00 -0.00000000000E+00 -0.10382991428E+04  0.10382991428E+04  0.00000000000E+00 0.  1.
         25    1    1    2    0    0 -0.11003505700E+03 -0.94001323906E+01 -0.91509739011E+03  0.93017434368E+03  0.12500000000E+03 0.  0.
         25    1    1    2    0    0  0.11003505700E+03  0.94001323906E+01 -0.55529503862E+02  0.17579704792E+03  0.12500000000E+03 0.  0.
</event>
<event>
 4    0  0.2205135E-002  0.2308812E+03  0.7546771E-02  0.1126021E+00
         21   -1    0    0  502  501  0.00000000000E+00  0.00000000000E+00  0.86528456670E+02  0.86528456670E+02  0.00000000000E+00 0. -1.
         21   -1    0    0  501  502 -0.00000000000E+00 -0.00000000000E+00 -0.61605325250E+03  0.61605325250E+03  0.00000000000E+00 0. -1.
         25    1    1    2    0    0  0.58772868671E+02  0.82246851868E+02 -0.12619333655E+02  0.16125458851E+03  0.12500000000E+03 0.  0.
         25    1    1    2    0    0 -0.58772868671E+02 -0.82246851868E+02 -0.51690546217E+03  0.54132712065E+03  0.12500000000E+03 0.  0.
</event>
<event>
 4    0  0.2205135E-002  0.3095664E+03  0.7546771E-02  0.1080554E+00
         21   -1    0    0  502  501  0.00000000000E+00  0.00000000000E+00  0.10903313331E+04  0.10903313331E+04  0.00000000000E+00 0. -1.
         21   -1    0    0  501  502 -0.00000000000E+00 -0.00000000000E+00 -0.87891936981E+02  0.87891936981E+02  0.00000000000E+00 0. -1.
         25    1    1    2    0    0 -0.15623495821E+03 -0.20446813521E+02  0.94905259471E+03  0.97013053857E+03  0.12500000000E+03 0.  0.
         25    1    1    2    0    0  0.15623495821E+03  0.20446813521E+02  0.53386801444E+02  0.20809273154E+03  0.12500000000E+03 0.  0.
</event>
<event>
 4    0  0.2205135E-002  0.2016695E+03  0.7546771E-02  0.1148338E+00
         21   -1    0    0  502  501  0.00000000000E+00  0.00000000000E+00  0.24576969003E+03  0.24576969003E+03  0.00000000000E+00 0. -1.
         21   -1    0    0  501  502 -0.00000000000E+00 -0.00000000000E+00 -0.16548255154E+03  0.16548255154E+03  0.00000000000E+00 0. -1.
         25    1    1    2    0    0 -0.15752393980E+03 -0.62733525877E+01  0.54288331759E+02  0.20838754648E+03  0.12500000000E+03 0.  0.
         25    1    1    2    0    0  0.15752393980E+03  0.62733525877E+01  0.25998806730E+02  0.20286469509E+03  0.12500000000E+03 0.  0.
</event>
<event>
 4    0  0.2205135E-002  0.1604058E+03  0.7546771E-02  0.1188239E+00
         21   -1    0    0  502  501  0.00000000000E+00  0.00000000000E+00  0.37025483574E+03  0.37025483574E+03  0.00000000000E+00 0. -1.
         21   -1    0    0  501  502 -0.00000000000E+00 -0.00000000000E+00 -0.69492766277E+02  0.69492766277E+02  0.00000000000E+00 0. -1.
         25    1    1    2    0    0 -0.93521860282E+02  0.36801265932E+02  0.14751845090E+03  0.21791595830E+03  0.12500000000E+03 0.  0.
         25    1    1    2    0    0  0.93521860282E+02 -0.36801265932E+02  0.15324361857E+03  0.22183164372E+03  0.12500000000E+03 0.  0.
</event>
<event>
 4    0  0.2205135E-002  0.2274107E+03  0.7546771E-02  0.1128476E+00
         21   -1    0    0  502  501  0.00000000000E+00  0.00000000000E+00  0.16703829254E+04  0.16703829254E+04  0.00000000000E+00 0. -1.
         21   -1    0    0  501  502 -0.00000000000E+00 -0.00000000000E+00 -0.30960353388E+02  0.30960353388E+02  0.00000000000E+00 0. -1.
         25    1    1    2    0    0  0.22518321898E+02  0.17937998624E+03  0.10380336630E+04  0.10610481326E+04  0.12500000000E+03 0.  0.
         25    1    1    2    0    0 -0.22518321898E+02 -0.17937998624E+03  0.60138890905E+03  0.64029514617E+03  0.12500000000E+03 0.  0.
</event>
<event>
 4    0  0.2205135E-002  0.1926878E+03  0.7546771E-02  0.1156059E+00
         21   -1    0    0  502  501  0.00000000000E+00  0.00000000000E+00  0.50253316174E+03  0.50253316174E+03  0.00000000000E+00 0.  1.
         21   -1    0    0  501  502 -0.00000000000E+00 -0.00000000000E+00 -0.73882887418E+02  0.73882887418E+02  0.00000000000E+00 0.  1.
         25    1    1    2    0    0 -0.30485269429E+02  0.13798796635E+03  0.15575130353E+03  0.24464974773E+03  0.12500000000E+03 0.  0.
         25    1    1    2    0    0  0.30485269429E+02 -0.13798796635E+03  0.27289897079E+03  0.33176630144E+03  0.12500000000E+03 0.  0.
</event>
<event>
 4    0  0.2205135E-002  0.2355894E+03  0.7546771E-02  0.1122766E+00
         21   -1    0    0  502  501  0.00000000000E+00  0.00000000000E+00  0.11758846601E+04  0.11758846601E+04  0.00000000000E+00 0.  1.
         21   -1    0    0  501  502 -0.00000000000E+00 -0.00000000000E+00 -0.47200500799E+02  0.47200500799E+02  0.00000000000E+00 0.  1.
         25    1    1    2    0    0  0.50839884701E+02  0.62662852503E+02  0.90183924112E+02  0.17398122637E+03  0.12500000000E+03 0.  0.
         25    1    1    2    0    0 -0.50839884701E+02 -0.62662852503E+02  0.10385002352E+04  0.10491039345E+04  0.12500000000E+03 0.  0.
</event>
<event>
 4    0  0.2205135E-002  0.2534007E+03  0.7546771E-02  0.1111174E+00
         21   -1    0    0  502  501  0.00000000000E+00  0.00000000000E+00  0.87367560119E+03  0.87367560119E+03  0.00000000000E+00 0.  1.
         21   -1    0    0  501  502 -0.00000000000E+00 -0.00000000000E+00 -0.73496302263E+02  0.73496302263E+02  0.00000000000E+00 0.  1.
         25    1    1    2    0    0 -0.21737550017E+03 -0.36522460245E+02  0.40188992379E+03  0.47510683959E+03  0.12500000000E+03 0.  0.
         25    1    1    2    0    0  0.21737550017E+03  0.36522460245E+02  0.39828937514E+03  0.47206506387E+03  0.12500000000E+03 0.  0.
</event>
<event>
 4    0  0.2205135E-002  0.1904210E+03  0.7546771E-02  0.1158082E+00
         21   -1    0    0  502  501  0.00000000000E+00  0.00000000000E+00  0.19206594233E+03  0.19206594233E+03  0.00000000000E+00 0. -1.
         21   -1    0    0  501  502 -0.00000000000E+00 -0.00000000000E+00 -0.18879019982E+03  0.18879019982E+03  0.00000000000E+00 0. -1.
         25    1    1    2    0    0 -0.74113275238E+02 -0.12280159235E+03 -0.62465171313E+01  0.19036025748E+03  0.12500000000E+03 0.  0.
         25    1    1    2    0    0  0.74113275238E+02  0.12280159235E+03  0.95222596437E+01  0.19049588468E+03  0.12500000000E+03 0.  0.
</event>
<event>
 4    0  0.2205135E-002  0.2402532E+03  0.7546771E-02  0.1119624E+00
         21   -1    0    0  502  501  0.00000000000E+00  0.00000000000E+00  0.15247387192E+03  0.15247387192E+03  0.00000000000E+00 0. -1.
         21   -1    0    0  501  502 -0.00000000000E+00 -0.00000000000E+00 -0.37856702754E+03  0.37856702754E+03  0.00000000000E+00 0. -1.
         25    1    1    2    0    0  0.19254862395E+03  0.11522465457E+02 -0.19032029605E+03  0.29842009799E+03  0.12500000000E+03 0.  0.
         25    1    1    2    0    0 -0.19254862395E+03 -0.11522465457E+02 -0.35772859568E+02  0.23262080147E+03  0.12500000000E+03 0.  0.
</event>
