<event>
 5    0  0.7611831E-005  0.2925961E+03  0.7546771E-02  0.1089001E+00
         21   -1    0    0  502  501  0.00000000000E+00  0.00000000000E+00  0.66489614869E+03  0.66489614869E+03  0.00000000000E+00 0.  1.
         21   -1    0    0  501  502 -0.00000000000E+00 -0.00000000000E+00 -0.12876071280E+03  0.12876071280E+03  0.00000000000E+00 0.  1.
         25    1    1    2    0    0 -0.13552353370E+03 -0.41522072867E+02  0.11447380440E+03  0.22095239898E+03  0.12500000000E+03 0.  0.
         25    1    1    2    0    0 -0.37609611388E+02 -0.22542866986E+02  0.27670264858E+03  0.30677682352E+03  0.12500000000E+03 0.  0.
         25    1    1    2    0    0  0.17313314509E+03  0.64064939853E+02  0.14495898291E+03  0.26592763898E+03  0.12500000000E+03 0.  0.
</event>
<event>
 5    0  0.5583350E-005  0.5299094E+03  0.7546771E-02  0.1006254E+00
         21   -1    0    0  502  501  0.00000000000E+00  0.00000000000E+00  0.18928190936E+03  0.18928190936E+03  0.00000000000E+00 0. -1.
         21   -1    0    0  501  502 -0.00000000000E+00 -0.00000000000E+00 -0.14835223208E+04  0.14835223208E+04  0.00000000000E+00 0.  1.
         25    1    1    2    0    0 -0.33645299772E+03 -0.29334900101E+03 -0.45955242109E+03  0.65273860297E+03  0.12500000000E+03 0.  0.
         25    1    1    2    0    0  0.34303814809E+03  0.24440052030E+03 -0.71958919847E+03  0.84311351544E+03  0.12500000000E+03 0.  0.
         25    1    1    2    0    0 -0.65851503621E+01  0.48948480711E+02 -0.11509879192E+03  0.17695211180E+03  0.12500000000E+03 0.  0.
</event>
<event>
 5    0  0.5583350E-005  0.3246736E+03  0.7546771E-02  0.1073518E+00
         21   -1    0    0  502  501  0.00000000000E+00  0.00000000000E+00  0.12756915450E+03  0.12756915450E+03  0.00000000000E+00 0.  1.
         21   -1    0    0  501  502 -0.00000000000E+00 -0.00000000000E+00 -0.82632023787E+03  0.82632023787E+03  0.00000000000E+00 0.  1.
         25    1    1    2    0    0  0.45244007737E+02 -0.13444176318E+03 -0.48159579245E+02  0.19510497942E+03  0.12500000000E+03 0.  0.
         25    1    1    2    0    0 -0.10306731183E+03  0.10738565182E+03 -0.55736966246E+03  0.59028847999E+03  0.12500000000E+03 0.  0.
         25    1    1    2    0    0  0.57823304094E+02  0.27056111359E+02 -0.93221841669E+02  0.16849593295E+03  0.12500000000E+03 0.  0.
</event>
<event>
 5    0  0.5720918E-005  0.3816674E+03  0.7546771E-02  0.1050319E+00
         21   -1    0    0  502  501  0.00000000000E+00  0.00000000000E+00  0.62341352493E+03  0.62341352493E+03  0.00000000000E+00 0. -1.
         21   -1    0    0  501  502 -0.00000000000E+00 -0.00000000000E+00 -0.23366518119E+03  0.23366518119E+03  0.00000000000E+00 0. -1.
         25    1    1    2    0    0  0.87180073958E+02  0.28035362501E+03  0.11342632580E+03  0.33865772062E+03  0.12500000000E+03 0.  0.
         25    1    1    2    0    0 -0.82329173915E+02 -0.19886363663E+03  0.60758496557E+02  0.25620584254E+03  0.12500000000E+03 0.  0.
         25    1    1    2    0    0 -0.48509000437E+01 -0.81489988385E+02  0.21556352139E+03  0.26221514295E+03  0.12500000000E+03 0.  0.
</event>
<event>
 5    0  0.6472258E-005  0.2846178E+03  0.7546771E-02  0.1093193E+00
         21   -1    0    0  502  501  0.00000000000E+00  0.00000000000E+00  0.65348934871E+03  0.65348934871E+03  0.00000000000E+00 0. -1.
         21   -1    0    0  501  502 -0.00000000000E+00 -0.00000000000E+00 -0.12396112709E+03  0.12396112709E+03  0.00000000000E+00 0. -1.
         25    1    1    2    0    0  0.10346432073E+03  0.14565188922E+02  0.49121903999E+01  0.16299122678E+03  0.12500000000E+03 0.  0.
         25    1    1    2    0    0 -0.89090211403E+02 -0.93427397132E+01  0.13375879148E+03  0.20381552161E+03  0.12500000000E+03 0.  0.
         25    1    1    2    0    0 -0.14374109326E+02 -0.52224492086E+01  0.39085723975E+03  0.41064372741E+03  0.12500000000E+03 0.  0.
</event>
<event>
 5    0  0.5583350E-005  0.2209705E+03  0.7546771E-02  0.1133162E+00
         21   -1    0    0  502  501  0.00000000000E+00  0.00000000000E+00  0.13217361839E+03  0.13217361839E+03  0.00000000000E+00 0. -1.
         21   -1    0    0  501  502 -0.00000000000E+00 -0.00000000000E+00 -0.36942276578E+03  0.36942276578E+03  0.00000000000E+00 0. -1.
         25    1    1    2    0    0  0.25530316167E+02 -0.51995263952E+02 -0.17264732052E+03  0.22087870382E+03  0.12500000000E+03 0.  0.
         25    1    1    2    0    0 -0.47101828866E+02  0.14485363255E+02 -0.63075191765E+02  0.14843142473E+03  0.12500000000E+03 0.  0.
         25    1    1    2    0    0  0.21571512699E+02  0.37509900698E+02 -0.15266351068E+01  0.13228625562E+03  0.12500000000E+03 0.  0.
</event>
<event>
 5    0  0.5583350E-005  0.2702706E+03  0.7546771E-02  0.1101125E+00
         21   -1    0    0  502  501  0.00000000000E+00  0.00000000000E+00  0.70298821490E+03  0.70298821490E+03  0.00000000000E+00 0.  1.
         21   -1    0    0  501  502 -0.00000000000E+00 -0.00000000000E+00 -0.10390812494E+03  0.10390812494E+03  0.00000000000E+00 0.  1.
         25    1    1    2    0    0 -0.56857274559E+02  0.12337866562E+03  0.15334436123E+03  0.23998862040E+03  0.12500000000E+03 0.  0.
         25    1    1    2    0    0  0.10778774692E+02 -0.24537649370E+02  0.35610452623E+03  0.37835659347E+03  0.12500000000E+03 0.  0.
         25    1    1    2    0    0  0.46078499868E+02 -0.98841016247E+02  0.89631202509E+02  0.18855112597E+03  0.12500000000E+03 0.  0.
</event>
<event>
 5    0  0.6500258E-005  0.5950803E+03  0.7546771E-02  0.9915666E-01
         21   -1    0    0  502  501  0.00000000000E+00  0.00000000000E+00  0.83974685960E+03  0.83974685960E+03  0.00000000000E+00 0. -1.
         21   -1    0    0  501  502 -0.00000000000E+00 -0.00000000000E+00 -0.42169918075E+03  0.42169918075E+03  0.00000000000E+00 0. -1.
         25    1    1    2    0    0 -0.41038565778E+03  0.12465333157E+03 -0.28007471871E+02  0.44762066492E+03  0.12500000000E+03 0.  0.
         25    1    1    2    0    0  0.15564926121E+03 -0.19455457731E+03 -0.21544372345E+01  0.27876121980E+03  0.12500000000E+03 0.  0.
         25    1    1    2    0    0  0.25473639658E+03  0.69901245741E+02  0.44820958796E+03  0.53506415562E+03  0.12500000000E+03 0.  0.
</event>
<event>
 5    0  0.5583350E-005  0.3234335E+03  0.7546771E-02  0.1074080E+00
         21   -1    0    0  502  501  0.00000000000E+00  0.00000000000E+00  0.93557218343E+02  0.93557218343E+02  0.00000000000E+00 0.  1.
         21   -1    0    0  501  502 -0.00000000000E+00 -0.00000000000E+00 -0.11181310563E+04  0.11181310563E+04  0.00000000000E+00 0.  1.
         25    1    1    2    0    0  0.34234433563E+02 -0.77050969112E+02 -0.20372973759E+03  0.25345542855E+03  0.12500000000E+03 0.  0.
         25    1    1    2    0    0  0.78677918113E+02  0.45118909327E+02 -0.41030557664E+02  0.15979498565E+03  0.12500000000E+03 0.  0.
         25    1    1    2    0    0 -0.11291235168E+03  0.31932059785E+02 -0.77981354271E+03  0.79843786045E+03  0.12500000000E+03 0.  0.
</event>
<event>
 5    0  0.5583350E-005  0.2507740E+03  0.7546771E-02  0.1112817E+00
         21   -1    0    0  502  501  0.00000000000E+00  0.00000000000E+00  0.32444719853E+03  0.32444719853E+03  0.00000000000E+00 0. -1.
         21   -1    0    0  501  502 -0.00000000000E+00 -0.00000000000E+00 -0.19383000939E+03  0.19383000939E+03  0.00000000000E+00 0. -1.
         25    1    1    2    0    0  0.29087218373E+02  0.11391193514E+03  0.68020431244E+02  0.18459082942E+03  0.12500000000E+03 0.  0.
         25    1    1    2    0    0 -0.53285951160E+01 -0.14991667106E+03  0.43877555005E+02  0.20013406012E+03  0.12500000000E+03 0.  0.
         25    1    1    2    0    0 -0.23758623257E+02  0.36004735913E+02  0.18719202886E+02  0.13355231838E+03  0.12500000000E+03 0.  0.
</event>
<event>
 5    0  0.5583350E-005  0.2971257E+03  0.7546771E-02  0.1086686E+00
         21   -1    0    0  502  501  0.00000000000E+00  0.00000000000E+00  0.17690848853E+03  0.17690848853E+03  0.00000000000E+00 0. -1.
         21   -1    0    0  501  502 -0.00000000000E+00 -0.00000000000E+00 -0.49903600276E+03  0.49903600276E+03  0.00000000000E+00 0. -1.
         25    1    1    2    0    0 -0.55126152814E+02  0.78313000030E+01 -0.14656386053E+03  0.20051480543E+03  0.12500000000E+03 0.  0.
         25    1    1    2    0    0 -0.98747156532E+02 -0.13287227012E+03 -0.82770414036E+02  0.22334274676E+03  0.12500000000E+03 0.  0.
         25    1    1    2    0    0  0.15387330935E+03  0.12504097011E+03 -0.92793239664E+02  0.25208693910E+03  0.12500000000E+03 0.  0.
</event>
<event>
 5    0  0.5583350E-005  0.2529566E+03  0.7546771E-02  0.1111450E+00
         21   -1    0    0  502  501  0.00000000000E+00  0.00000000000E+00  0.10930801420E+03  0.10930801420E+03  0.00000000000E+00 0.  1.
         21   -1    0    0  501  502 -0.00000000000E+00 -0.00000000000E+00 -0.58538309384E+03  0.58538309384E+03  0.00000000000E+00 0.  1.
         25    1    1    2    0    0 -0.13793160399E+03  0.77895946793E+01 -0.79985533693E+02  0.20275228918E+03  0.12500000000E+03 0.  0.
         25    1    1    2    0    0  0.62327815085E+02  0.19020461978E+02 -0.22347551848E+03  0.26422119874E+03  0.12500000000E+03 0.  0.
         25    1    1    2    0    0  0.75603788908E+02 -0.26810056657E+02 -0.17261402747E+03  0.22771762012E+03  0.12500000000E+03 0.  0.
</event>
<event>
 5    0  0.5583350E-005  0.2219442E+03  0.7546771E-02  0.1132442E+00
         21   -1    0    0  502  501  0.00000000000E+00  0.00000000000E+00  0.19766383936E+03  0.19766383936E+03  0.00000000000E+00 0.  1.
         21   -1    0    0  501  502 -0.00000000000E+00 -0.00000000000E+00 -0.24920712941E+03  0.24920712941E+03  0.00000000000E+00 0.  1.
         25    1    1    2    0    0  0.21289386100E+02 -0.31833734673E+02  0.48929710487E+02  0.13959133638E+03  0.12500000000E+03 0.  0.
         25    1    1    2    0    0 -0.59564312404E+02 -0.36053137460E+02 -0.50061704343E+02  0.15158796217E+03  0.12500000000E+03 0.  0.
         25    1    1    2    0    0  0.38274926304E+02  0.67886872133E+02 -0.50411296198E+02  0.15569167022E+03  0.12500000000E+03 0.  0.
</event>
<event>
 5    0  0.5583350E-005  0.5044219E+03  0.7546771E-02  0.1012631E+00
         21   -1    0    0  502  501  0.00000000000E+00  0.00000000000E+00  0.11133032032E+04  0.11133032032E+04  0.00000000000E+00 0. -1.
         21   -1    0    0  501  502 -0.00000000000E+00 -0.00000000000E+00 -0.22854642669E+03  0.22854642669E+03  0.00000000000E+00 0. -1.
         25    1    1    2    0    0  0.30674698797E+03  0.58238538031E+02  0.32138682185E+03  0.46518806003E+03  0.12500000000E+03 0.  0.
         25    1    1    2    0    0  0.38836717793E+02 -0.16054989148E+03  0.42152244447E+03  0.46967087359E+03  0.12500000000E+03 0.  0.
         25    1    1    2    0    0 -0.34558370576E+03  0.10231135345E+03  0.14184751023E+03  0.40699069632E+03  0.12500000000E+03 0.  0.
</event>
<event>
 5    0  0.5583350E-005  0.3836847E+03  0.7546771E-02  0.1049580E+00
         21   -1    0    0  502  501  0.00000000000E+00  0.00000000000E+00  0.29271725309E+03  0.29271725309E+03  0.00000000000E+00 0. -1.
         21   -1    0    0  501  502 -0.00000000000E+00 -0.00000000000E+00 -0.50292209618E+03  0.50292209618E+03  0.00000000000E+00 0. -1.
         25    1    1    2    0    0  0.19318556822E+03  0.50383695992E+02  0.76708309699E+01  0.23567567172E+03  0.12500000000E+03 0.  0.
         25    1    1    2    0    0 -0.26952614041E+03 -0.14966693519E+03 -0.18275977125E+03  0.37956641822E+03  0.12500000000E+03 0.  0.
         25    1    1    2    0    0  0.76340572182E+02  0.99283239195E+02 -0.35115902801E+02  0.18039725933E+03  0.12500000000E+03 0.  0.
</event>
<event>
 5    0  0.5583350E-005  0.2878971E+03  0.7546771E-02  0.1091452E+00
         21   -1    0    0  502  501  0.00000000000E+00  0.00000000000E+00  0.11416692308E+03  0.11416692308E+03  0.00000000000E+00 0. -1.
         21   -1    0    0  501  502 -0.00000000000E+00 -0.00000000000E+00 -0.72599611396E+03  0.72599611396E+03  0.00000000000E+00 0. -1.
         25    1    1    2    0    0  0.52290266923E+02 -0.24673902665E+02 -0.79278925051E+02  0.15891262204E+03  0.12500000000E+03 0.  0.
         25    1    1    2    0    0  0.27113667165E+02 -0.63352453229E+02 -0.24548164790E+02  0.14483196012E+03  0.12500000000E+03 0.  0.
         25    1    1    2    0    0 -0.79403934088E+02  0.88026355894E+02 -0.50800210104E+03  0.53641845488E+03  0.12500000000E+03 0.  0.
</event>
<event>
 5    0  0.5583350E-005  0.2381736E+03  0.7546771E-02  0.1121016E+00
         21   -1    0    0  502  501  0.00000000000E+00  0.00000000000E+00  0.18100372638E+04  0.18100372638E+04  0.00000000000E+00 0. -1.
         21   -1    0    0  501  502 -0.00000000000E+00 -0.00000000000E+00 -0.31340060445E+02  0.31340060445E+02  0.00000000000E+00 0. -1.
         25    1    1    2    0    0  0.56811027650E+01 -0.83677332541E+02  0.39513962540E+03  0.42284098012E+03  0.12500000000E+03 0.  0.
         25    1    1    2    0    0  0.47843480171E+02  0.10870984724E+03  0.67993492489E+03  0.70145800414E+03  0.12500000000E+03 0.  0.
         25    1    1    2    0    0 -0.53524582936E+02 -0.25032514700E+02  0.70362265303E+03  0.71707833995E+03  0.12500000000E+03 0.  0.
</event>
<event>
 5    0  0.5583350E-005  0.3617358E+03  0.7546771E-02  0.1057899E+00
         21   -1    0    0  502  501  0.00000000000E+00  0.00000000000E+00  0.37427333482E+03  0.37427333482E+03  0.00000000000E+00 0.  1.
         21   -1    0    0  501  502 -0.00000000000E+00 -0.00000000000E+00 -0.34961826036E+03  0.34961826036E+03  0.00000000000E+00 0.  1.
         25    1    1    2    0    0 -0.36595419645E+02  0.18030416830E+03  0.20201463830E+03  0.30047251443E+03  0.12500000000E+03 0.  0.
         25    1    1    2    0    0  0.11408638985E+03 -0.13447786693E+03 -0.15888262083E+03  0.26826980495E+03  0.12500000000E+03 0.  0.
         25    1    1    2    0    0 -0.77490970210E+02 -0.45826301364E+02 -0.18476943012E+02  0.15514927581E+03  0.12500000000E+03 0.  0.
</event>
<event>
 5    0  0.5583350E-005  0.2569501E+03  0.7546771E-02  0.1108990E+00
         21   -1    0    0  502  501  0.00000000000E+00  0.00000000000E+00  0.54601803135E+03  0.54601803135E+03  0.00000000000E+00 0.  1.
         21   -1    0    0  501  502 -0.00000000000E+00 -0.00000000000E+00 -0.12091789009E+03  0.12091789009E+03  0.00000000000E+00 0.  1.
         25    1    1    2    0    0 -0.17525091325E+02  0.32094030678E+02  0.15937704363E+03  0.20582321946E+03  0.12500000000E+03 0.  0.
         25    1    1    2    0    0  0.10531556161E+03 -0.95715477943E+02  0.21822126461E+03  0.28896079416E+03  0.12500000000E+03 0.  0.
         25    1    1    2    0    0 -0.87790470285E+02  0.63621447266E+02  0.47501833022E+02  0.17215190782E+03  0.12500000000E+03 0.  0.
</event>
<event>
 5    0  0.5583350E-005  0.4861714E+03  0.7546771E-02  0.1017453E+00
         21   -1    0    0  502  501  0.00000000000E+00  0.00000000000E+00  0.11734913049E+04  0.11734913049E+04  0.00000000000E+00 0.  1.
         21   -1    0    0  501  502 -0.00000000000E+00 -0.00000000000E+00 -0.20141827675E+03  0.20141827675E+03  0.00000000000E+00 0.  1.
         25    1    1    2    0    0  0.36834201790E+02 -0.26292909249E+03  0.39983771885E+02  0.29616240158E+03  0.12500000000E+03 0.  0.
         25    1    1    2    0    0 -0.19163496219E+03  0.25075413294E+03  0.65049557211E+03  0.73373774828E+03  0.12500000000E+03 0.  0.
         25    1    1    2    0    0  0.15480076040E+03  0.12174959547E+02  0.28159368417E+03  0.34500943180E+03  0.12500000000E+03 0.  0.
</event>
<event>
 5    0  0.5583350E-005  0.4678439E+03  0.7546771E-02  0.1022531E+00
         21   -1    0    0  502  501  0.00000000000E+00  0.00000000000E+00  0.77926725777E+03  0.77926725777E+03  0.00000000000E+00 0. -1.
         21   -1    0    0  501  502 -0.00000000000E+00 -0.00000000000E+00 -0.28087660255E+03  0.28087660255E+03  0.00000000000E+00 0. -1.
         25    1    1    2    0    0 -0.24256203589E+03  0.11294830002E+03  0.52184663182E+03  0.59961868456E+03  0.12500000000E+03 0.  0.
         25    1    1    2    0    0  0.20344745987E+03 -0.62132687423E+02  0.10688226429E+03  0.26888688736E+03  0.12500000000E+03 0.  0.
         25    1    1    2    0    0  0.39114576021E+02 -0.50815612601E+02 -0.13033824088E+03  0.19163828839E+03  0.12500000000E+03 0.  0.
</event>
<event>
 5    0  0.5583350E-005  0.4630548E+03  0.7546771E-02  0.1023899E+00
         21   -1    0    0  502  501  0.00000000000E+00  0.00000000000E+00  0.40769649651E+03  0.40769649651E+03  0.00000000000E+00 0. -1.
         21   -1    0    0  501  502 -0.00000000000E+00 -0.00000000000E+00 -0.52592981092E+03  0.52592981092E+03  0.00000000000E+00 0. -1.
         25    1    1    2    0    0 -0.25855966228E+03 -0.24262376732E+03 -0.14192661668E+03  0.40185514299E+03  0.12500000000E+03 0.  0.
         25    1    1    2    0    0 -0.34657060096E+02  0.14023066993E+03  0.45163508054E+02  0.19629186194E+03  0.12500000000E+03 0.  0.
         25    1    1    2    0    0  0.29321672238E+03  0.10239309739E+03 -0.21470205782E+02  0.33547930251E+03  0.12500000000E+03 0.  0.
</event>
<event>
 5    0  0.5583350E-005  0.2907888E+03  0.7546771E-02  0.1089938E+00
         21   -1    0    0  502  501  0.00000000000E+00  0.00000000000E+00  0.18597758908E+04  0.18597758908E+04  0.00000000000E+00 0. -1.
         21   -1    0    0  501  502 -0.00000000000E+00 -0.00000000000E+00 -0.45466821671E+02  0.45466821671E+02  0.00000000000E+00 0. -1.
         25    1    1    2    0    0  0.14337214233E+03  0.73457902347E+02  0.63136571688E+03  0.66347517140E+03  0.12500000000E+03 0.  0.
         25    1    1    2    0    0 -0.12024824669E+03  0.68765035702E+02  0.55903898867E+03  0.58935376628E+03  0.12500000000E+03 0.  0.
         25    1    1    2    0    0 -0.23123895641E+02 -0.14222293805E+03  0.62390436361E+03  0.65241377483E+03  0.12500000000E+03 0.  0.
</event>
<event>
 5    0  0.5583350E-005  0.5425887E+03  0.7546771E-02  0.1003224E+00
         21   -1    0    0  502  501  0.00000000000E+00  0.00000000000E+00  0.14187347758E+04  0.14187347758E+04  0.00000000000E+00 0. -1.
         21   -1    0    0  501  502 -0.00000000000E+00 -0.00000000000E+00 -0.20751062817E+03  0.20751062817E+03  0.00000000000E+00 0. -1.
         25    1    1    2    0    0 -0.25378992461E+03 -0.31071146751E+03  0.39462845331E+03  0.57646123724E+03  0.12500000000E+03 0.  0.
         25    1    1    2    0    0  0.17779073515E+03  0.15867411777E+02  0.64037721648E+03  0.67643868876E+03  0.12500000000E+03 0.  0.
         25    1    1    2    0    0  0.75999189459E+02  0.29484405574E+03  0.17621847786E+03  0.37334547800E+03  0.12500000000E+03 0.  0.
</event>
<event>
 5    0  0.5583350E-005  0.2555134E+03  0.7546771E-02  0.1109869E+00
         21   -1    0    0  502  501  0.00000000000E+00  0.00000000000E+00  0.33453392235E+03  0.33453392235E+03  0.00000000000E+00 0. -1.
         21   -1    0    0  501  502 -0.00000000000E+00 -0.00000000000E+00 -0.19515841920E+03  0.19515841920E+03  0.00000000000E+00 0. -1.
         25    1    1    2    0    0 -0.38610854702E+02  0.10623450263E+03  0.27769168095E+02  0.17080015910E+03  0.12500000000E+03 0.  0.
         25    1    1    2    0    0 -0.58604608434E+02  0.11614867980E+02  0.15692726471E+02  0.13942979220E+03  0.12500000000E+03 0.  0.
         25    1    1    2    0    0  0.97215463136E+02 -0.11784937061E+03  0.95913608581E+02  0.21946239026E+03  0.12500000000E+03 0.  0.
</event>
<event>
 5    0  0.5583350E-005  0.2622748E+03  0.7546771E-02  0.1105784E+00
         21   -1    0    0  502  501  0.00000000000E+00  0.00000000000E+00  0.74347775560E+02  0.74347775560E+02  0.00000000000E+00 0. -1.
         21   -1    0    0  501  502 -0.00000000000E+00 -0.00000000000E+00 -0.92522039898E+03  0.92522039898E+03  0.00000000000E+00 0. -1.
         25    1    1    2    0    0 -0.62561935891E+02 -0.10609592732E+03 -0.43367621046E+03  0.46783586559E+03  0.12500000000E+03 0.  0.
         25    1    1    2    0    0 -0.49804301984E+01 -0.10103069955E+02 -0.26528451722E+03  0.29347530012E+03  0.12500000000E+03 0.  0.
         25    1    1    2    0    0  0.67542366089E+02  0.11619899728E+03 -0.15191189574E+03  0.23825700882E+03  0.12500000000E+03 0.  0.
</event>
<event>
 5    0  0.5583350E-005  0.2912551E+03  0.7546771E-02  0.1089696E+00
         21   -1    0    0  502  501  0.00000000000E+00  0.00000000000E+00  0.12693350575E+03  0.12693350575E+03  0.00000000000E+00 0. -1.
         21   -1    0    0  501  502 -0.00000000000E+00 -0.00000000000E+00 -0.66829879775E+03  0.66829879775E+03  0.00000000000E+00 0. -1.
         25    1    1    2    0    0 -0.73244023849E+02 -0.22595491356E+02 -0.37952937497E+03  0.40686949963E+03  0.12500000000E+03 0.  0.
         25    1    1    2    0    0  0.14268679717E+03  0.69785984123E+02 -0.84396759072E+02  0.21903748220E+03  0.12500000000E+03 0.  0.
         25    1    1    2    0    0 -0.69442773321E+02 -0.47190492768E+02 -0.77439157948E+02  0.16932532167E+03  0.12500000000E+03 0.  0.
</event>
<event>
 5    0  0.5583350E-005  0.2202593E+03  0.7546771E-02  0.1133690E+00
         21   -1    0    0  502  501  0.00000000000E+00  0.00000000000E+00  0.70891307801E+03  0.70891307801E+03  0.00000000000E+00 0.  1.
         21   -1    0    0  501  502 -0.00000000000E+00 -0.00000000000E+00 -0.68434548718E+02  0.68434548718E+02  0.00000000000E+00 0.  1.
         25    1    1    2    0    0  0.42307169230E+02  0.25020023605E+02  0.15439030152E+03  0.20463934947E+03  0.12500000000E+03 0.  0.
         25    1    1    2    0    0 -0.89207763954E+02 -0.18101712838E+02  0.17164364631E+03  0.23102432442E+03  0.12500000000E+03 0.  0.
         25    1    1    2    0    0  0.46900594724E+02 -0.69183107676E+01  0.31444458147E+03  0.34168395283E+03  0.12500000000E+03 0.  0.
</event>
<event>
 5    0  0.5583350E-005  0.2528400E+03  0.7546771E-02  0.1111523E+00
         21   -1    0    0  502  501  0.00000000000E+00  0.00000000000E+00  0.70684785566E+02  0.70684785566E+02  0.00000000000E+00 0.  1.
         21   -1    0    0  501  502 -0.00000000000E+00 -0.00000000000E+00 -0.90441041024E+03  0.90441041024E+03  0.00000000000E+00 0.  1.
         25    1    1    2    0    0 -0.11340666042E+02 -0.23106875463E+02 -0.12084982979E+03  0.17576182680E+03  0.12500000000E+03 0.  0.
         25    1    1    2    0    0  0.72437287398E+02  0.12341652576E+03 -0.36799165057E+03  0.41415172862E+03  0.12500000000E+03 0.  0.
         25    1    1    2    0    0 -0.61096621356E+02 -0.10030965030E+03 -0.34488414433E+03  0.38518164039E+03  0.12500000000E+03 0.  0.
</event>
<event>
 5    0  0.6002246E-005  0.2857597E+03  0.7546771E-02  0.1092584E+00
         21   -1    0    0  502  501  0.00000000000E+00  0.00000000000E+00  0.50065675136E+03  0.50065675136E+03  0.00000000000E+00 0. -1.
         21   -1    0    0  501  502 -0.00000000000E+00 -0.00000000000E+00 -0.16310297483E+03  0.16310297483E+03  0.00000000000E+00 0. -1.
         25    1    1    2    0    0  0.65480600572E+02  0.80493644150E+02  0.32118397348E+03  0.35993205000E+03  0.12500000000E+03 0.  0.
         25    1    1    2    0    0 -0.50097338976E+02  0.26310244135E+02 -0.50954198388E+01  0.13730599267E+03  0.12500000000E+03 0.  0.
         25    1    1    2    0    0 -0.15383261596E+02 -0.10680388829E+03  0.21465222885E+02  0.16652168352E+03  0.12500000000E+03 0.  0.
</event>
<event>
 5    0  0.5583350E-005  0.2230285E+03  0.7546771E-02  0.1131645E+00
         21   -1    0    0  502  501  0.00000000000E+00  0.00000000000E+00  0.37043772512E+02  0.37043772512E+02  0.00000000000E+00 0.  1.
         21   -1    0    0  501  502 -0.00000000000E+00 -0.00000000000E+00 -0.13427824293E+04  0.13427824293E+04  0.00000000000E+00 0.  1.
         25    1    1    2    0    0 -0.90550725047E+01  0.71028250452E+01 -0.24289238703E+03  0.27341206290E+03  0.12500000000E+03 0.  0.
         25    1    1    2    0    0 -0.66999741078E+02  0.16035517388E+02 -0.70166322509E+03  0.71603239073E+03  0.12500000000E+03 0.  0.
         25    1    1    2    0    0  0.76054813583E+02 -0.23138342433E+02 -0.36118304462E+03  0.39038174814E+03  0.12500000000E+03 0.  0.
</event>
<event>
 5    0  0.5583350E-005  0.3437895E+03  0.7546771E-02  0.1065193E+00
         21   -1    0    0  502  501  0.00000000000E+00  0.00000000000E+00  0.16011411800E+03  0.16011411800E+03  0.00000000000E+00 0. -1.
         21   -1    0    0  501  502 -0.00000000000E+00 -0.00000000000E+00 -0.73816844802E+03  0.73816844802E+03  0.00000000000E+00 0. -1.
         25    1    1    2    0    0 -0.15976722518E+03  0.21950196000E+02 -0.18974937082E+03  0.27863452957E+03  0.12500000000E+03 0.  0.
         25    1    1    2    0    0  0.11377195879E+03  0.13574397505E+03 -0.34698147082E+03  0.40913521782E+03  0.12500000000E+03 0.  0.
         25    1    1    2    0    0  0.45995266385E+02 -0.15769417105E+03 -0.41323488386E+02  0.21051281863E+03  0.12500000000E+03 0.  0.
</event>
<event>
 5    0  0.5583350E-005  0.2758526E+03  0.7546771E-02  0.1097976E+00
         21   -1    0    0  502  501  0.00000000000E+00  0.00000000000E+00  0.78852629965E+03  0.78852629965E+03  0.00000000000E+00 0. -1.
         21   -1    0    0  501  502 -0.00000000000E+00 -0.00000000000E+00 -0.96502396528E+02  0.96502396528E+02  0.00000000000E+00 0. -1.
         25    1    1    2    0    0 -0.27084623834E+02  0.34742165418E+01 -0.63046472357E+01  0.12810306634E+03  0.12500000000E+03 0.  0.
         25    1    1    2    0    0  0.24084702988E+02 -0.50065301746E+02  0.49632570597E+03  0.51483085938E+03  0.12500000000E+03 0.  0.
         25    1    1    2    0    0  0.29999208459E+01  0.46591085204E+02  0.20200284438E+03  0.24209477046E+03  0.12500000000E+03 0.  0.
</event>
<event>
 5    0  0.5583350E-005  0.2988736E+03  0.7546771E-02  0.1085805E+00
         21   -1    0    0  502  501  0.00000000000E+00  0.00000000000E+00  0.21088369637E+03  0.21088369637E+03  0.00000000000E+00 0. -1.
         21   -1    0    0  501  502 -0.00000000000E+00 -0.00000000000E+00 -0.42357685257E+03  0.42357685257E+03  0.00000000000E+00 0. -1.
         25    1    1    2    0    0 -0.21129117730E+03 -0.28821957123E+02 -0.29972995845E+02  0.24899407081E+03  0.12500000000E+03 0.  0.
         25    1    1    2    0    0  0.11510186724E+03  0.46864457089E+02 -0.65164021476E+02  0.18792569509E+03  0.12500000000E+03 0.  0.
         25    1    1    2    0    0  0.96189310061E+02 -0.18042499966E+02 -0.11755613888E+03  0.19754078304E+03  0.12500000000E+03 0.  0.
</event>
<event>
 5    0  0.5583350E-005  0.3603987E+03  0.7546771E-02  0.1058426E+00
         21   -1    0    0  502  501  0.00000000000E+00  0.00000000000E+00  0.81421773843E+03  0.81421773843E+03  0.00000000000E+00 0.  1.
         21   -1    0    0  501  502 -0.00000000000E+00 -0.00000000000E+00 -0.15952397140E+03  0.15952397140E+03  0.00000000000E+00 0.  1.
         25    1    1    2    0    0  0.68869886164E+02  0.12863049730E+03 -0.26365398442E+02  0.19393040064E+03  0.12500000000E+03 0.  0.
         25    1    1    2    0    0  0.12987664476E+02 -0.17346413190E+03  0.47755000867E+03  0.52339038515E+03  0.12500000000E+03 0.  0.
         25    1    1    2    0    0 -0.81857550640E+02  0.44833634599E+02  0.20350915680E+03  0.25642092404E+03  0.12500000000E+03 0.  0.
</event>
<event>
 5    0  0.5583350E-005  0.3102880E+03  0.7546771E-02  0.1080208E+00
         21   -1    0    0  502  501  0.00000000000E+00  0.00000000000E+00  0.93260310356E+02  0.93260310356E+02  0.00000000000E+00 0. -1.
         21   -1    0    0  501  502 -0.00000000000E+00 -0.00000000000E+00 -0.10323646432E+04  0.10323646432E+04  0.00000000000E+00 0. -1.
         25    1    1    2    0    0  0.87198190067E+02 -0.15992826365E+03 -0.36800283110E+03  0.42922215409E+03  0.12500000000E+03 0.  0.
         25    1    1    2    0    0 -0.11788488028E+03 -0.10403931592E+01 -0.37234769261E+03  0.41008015266E+03  0.12500000000E+03 0.  0.
         25    1    1    2    0    0  0.30686690208E+02  0.16096865681E+03 -0.19875380917E+03  0.28632264683E+03  0.12500000000E+03 0.  0.
</event>
<event>
 5    0  0.5583350E-005  0.3024583E+03  0.7546771E-02  0.1084018E+00
         21   -1    0    0  502  501  0.00000000000E+00  0.00000000000E+00  0.20820437106E+04  0.20820437106E+04  0.00000000000E+00 0. -1.
         21   -1    0    0  501  502 -0.00000000000E+00 -0.00000000000E+00 -0.43938093914E+02  0.43938093914E+02  0.00000000000E+00 0. -1.
         25    1    1    2    0    0 -0.33819913421E+02  0.48376512962E+02  0.33771214610E+03  0.36490898478E+03  0.12500000000E+03 0.  0.
         25    1    1    2    0    0  0.71209285562E+02  0.92676654531E+02  0.13555758754E+04  0.13663347608E+04  0.12500000000E+03 0.  0.
         25    1    1    2    0    0 -0.37389372141E+02 -0.14105316749E+03  0.34481759518E+03  0.39473805892E+03  0.12500000000E+03 0.  0.
</event>
<event>
 5    0  0.5583350E-005  0.2653352E+03  0.7546771E-02  0.1103979E+00
         21   -1    0    0  502  501  0.00000000000E+00  0.00000000000E+00  0.10697698594E+04  0.10697698594E+04  0.00000000000E+00 0. -1.
         21   -1    0    0  501  502 -0.00000000000E+00 -0.00000000000E+00 -0.65811130213E+02  0.65811130213E+02  0.00000000000E+00 0. -1.
         25    1    1    2    0    0 -0.11723233524E+02 -0.81104447604E+02  0.29618052035E+03  0.33175784280E+03  0.12500000000E+03 0.  0.
         25    1    1    2    0    0  0.59660683171E+02 -0.75423073633E+02  0.19219203879E+03  0.24861781298E+03  0.12500000000E+03 0.  0.
         25    1    1    2    0    0 -0.47937449647E+02  0.15652752124E+03  0.51558617009E+03  0.55520533388E+03  0.12500000000E+03 0.  0.
</event>
<event>
 5    0  0.5583350E-005  0.3498424E+03  0.7546771E-02  0.1062680E+00
         21   -1    0    0  502  501  0.00000000000E+00  0.00000000000E+00  0.30600145184E+03  0.30600145184E+03  0.00000000000E+00 0.  1.
         21   -1    0    0  501  502 -0.00000000000E+00 -0.00000000000E+00 -0.39996444307E+03  0.39996444307E+03  0.00000000000E+00 0.  1.
         25    1    1    2    0    0 -0.50663900960E+02 -0.41952872211E+02 -0.10364216241E+03  0.17519581095E+03  0.12500000000E+03 0.  0.
         25    1    1    2    0    0  0.38903839696E+02 -0.56165384787E+02  0.22293292303E+03  0.26456029060E+03  0.12500000000E+03 0.  0.
         25    1    1    2    0    0  0.11760061265E+02  0.98118256998E+02 -0.21325375185E+03  0.26620979335E+03  0.12500000000E+03 0.  0.
</event>
<event>
 5    0  0.5583350E-005  0.2847788E+03  0.7546771E-02  0.1093107E+00
         21   -1    0    0  502  501  0.00000000000E+00  0.00000000000E+00  0.38406591141E+03  0.38406591141E+03  0.00000000000E+00 0. -1.
         21   -1    0    0  501  502 -0.00000000000E+00 -0.00000000000E+00 -0.21115900018E+03  0.21115900018E+03  0.00000000000E+00 0. -1.
         25    1    1    2    0    0 -0.10478965500E+03  0.12526826287E+03 -0.37050127296E+02  0.20897540862E+03  0.12500000000E+03 0.  0.
         25    1    1    2    0    0  0.11149939082E+03 -0.10350435614E+03  0.12028930902E+03  0.23073747801E+03  0.12500000000E+03 0.  0.
         25    1    1    2    0    0 -0.67097358194E+01 -0.21763906729E+02  0.89667729508E+02  0.15551202496E+03  0.12500000000E+03 0.  0.
</event>
<event>
 5    0  0.5868955E-005  0.2920257E+03  0.7546771E-02  0.1089296E+00
         21   -1    0    0  502  501  0.00000000000E+00  0.00000000000E+00  0.11901604738E+03  0.11901604738E+03  0.00000000000E+00 0. -1.
         21   -1    0    0  501  502 -0.00000000000E+00 -0.00000000000E+00 -0.71653375680E+03  0.71653375680E+03  0.00000000000E+00 0. -1.
         25    1    1    2    0    0 -0.12996821187E+03  0.74258589012E+02 -0.20859371232E+03  0.28555631837E+03  0.12500000000E+03 0.  0.
         25    1    1    2    0    0  0.58144625679E+02 -0.11383278006E+03 -0.35382703444E+03  0.39643066180E+03  0.12500000000E+03 0.  0.
         25    1    1    2    0    0  0.71823586195E+02  0.39574191048E+02 -0.35096962648E+02  0.15356282401E+03  0.12500000000E+03 0.  0.
</event>
<event>
 5    0  0.5583350E-005  0.2094742E+03  0.7546771E-02  0.1141983E+00
         21   -1    0    0  502  501  0.00000000000E+00  0.00000000000E+00  0.42848893735E+02  0.42848893735E+02  0.00000000000E+00 0. -1.
         21   -1    0    0  501  502 -0.00000000000E+00 -0.00000000000E+00 -0.10240508370E+04  0.10240508370E+04  0.00000000000E+00 0. -1.
         25    1    1    2    0    0  0.28720410314E+01 -0.62748918752E+00 -0.26185793243E+03  0.29017790946E+03  0.12500000000E+03 0.  0.
         25    1    1    2    0    0  0.71177981503E+01  0.64678348761E+02 -0.46641238604E+03  0.48723656031E+03  0.12500000000E+03 0.  0.
         25    1    1    2    0    0 -0.99898391817E+01 -0.64050859573E+02 -0.25293162484E+03  0.28948526101E+03  0.12500000000E+03 0.  0.
</event>
<event>
 5    0  0.5583350E-005  0.3296269E+03  0.7546771E-02  0.1071302E+00
         21   -1    0    0  502  501  0.00000000000E+00  0.00000000000E+00  0.91516828908E+02  0.91516828908E+02  0.00000000000E+00 0.  1.
         21   -1    0    0  501  502 -0.00000000000E+00 -0.00000000000E+00 -0.11872560642E+04  0.11872560642E+04  0.00000000000E+00 0.  1.
         25    1    1    2    0    0 -0.15271788871E+03 -0.18057381356E+03 -0.51193579099E+03  0.57760965172E+03  0.12500000000E+03 0.  0.
         25    1    1    2    0    0  0.15428359171E+03  0.81357549268E+02 -0.23889964063E+03  0.32112383248E+03  0.12500000000E+03 0.  0.
         25    1    1    2    0    0 -0.15657030080E+01  0.99216264288E+02 -0.34490380366E+03  0.38003940889E+03  0.12500000000E+03 0.  0.
</event>
<event>
 5    0  0.5583350E-005  0.6117706E+03  0.7546771E-02  0.9881282E-01
         21   -1    0    0  502  501  0.00000000000E+00  0.00000000000E+00  0.25363293338E+04  0.25363293338E+04  0.00000000000E+00 0. -1.
         21   -1    0    0  501  502 -0.00000000000E+00 -0.00000000000E+00 -0.14756097395E+03  0.14756097395E+03  0.00000000000E+00 0. -1.
         25    1    1    2    0    0 -0.30364726075E+03  0.42082052173E+03  0.16039133260E+04  0.16904007004E+04  0.12500000000E+03 0.  0.
         25    1    1    2    0    0  0.16541662996E+02 -0.10704156168E+03  0.22998261430E+03  0.28328170683E+03  0.12500000000E+03 0.  0.
         25    1    1    2    0    0  0.28710559776E+03 -0.31377896005E+03  0.55487241952E+03  0.71020790053E+03  0.12500000000E+03 0.  0.
</event>
<event>
 5    0  0.5583350E-005  0.4831556E+03  0.7546771E-02  0.1018271E+00
         21   -1    0    0  502  501  0.00000000000E+00  0.00000000000E+00  0.46798074347E+03  0.46798074347E+03  0.00000000000E+00 0. -1.
         21   -1    0    0  501  502 -0.00000000000E+00 -0.00000000000E+00 -0.49882261825E+03  0.49882261825E+03  0.00000000000E+00 0. -1.
         25    1    1    2    0    0 -0.26381681557E+03  0.63442910164E+02  0.19594615106E+01  0.29875266445E+03  0.12500000000E+03 0.  0.
         25    1    1    2    0    0 -0.11023156276E+03  0.95797240894E+02 -0.12962370114E+03  0.23185213540E+03  0.12500000000E+03 0.  0.
         25    1    1    2    0    0  0.37404837833E+03 -0.15924015106E+03  0.96822364855E+02  0.43619856187E+03  0.12500000000E+03 0.  0.
</event>
<event>
 5    0  0.5583350E-005  0.3075334E+03  0.7546771E-02  0.1081534E+00
         21   -1    0    0  502  501  0.00000000000E+00  0.00000000000E+00  0.12003138265E+03  0.12003138265E+03  0.00000000000E+00 0. -1.
         21   -1    0    0  501  502 -0.00000000000E+00 -0.00000000000E+00 -0.78793395737E+03  0.78793395737E+03  0.00000000000E+00 0. -1.
         25    1    1    2    0    0 -0.19002825401E+02  0.18108586639E+03 -0.43803278019E+03  0.49056183596E+03  0.12500000000E+03 0.  0.
         25    1    1    2    0    0 -0.65029795586E+02 -0.10815386916E+03 -0.14748933202E+03  0.23087710321E+03  0.12500000000E+03 0.  0.
         25    1    1    2    0    0  0.84032620987E+02 -0.72931997232E+02 -0.82380462511E+02  0.18652640085E+03  0.12500000000E+03 0.  0.
</event>
<event>
 5    0  0.5583350E-005  0.2719185E+03  0.7546771E-02  0.1100187E+00
         21   -1    0    0  502  501  0.00000000000E+00  0.00000000000E+00  0.15535079746E+04  0.15535079746E+04  0.00000000000E+00 0.  1.
         21   -1    0    0  501  502 -0.00000000000E+00 -0.00000000000E+00 -0.47595282733E+02  0.47595282733E+02  0.00000000000E+00 0.  1.
         25    1    1    2    0    0  0.52477848106E+02 -0.37647610323E+02  0.66523034757E+03  0.67994682324E+03  0.12500000000E+03 0.  0.
         25    1    1    2    0    0  0.87215574764E+02  0.87670569801E+02  0.31406382642E+03  0.35993578921E+03  0.12500000000E+03 0.  0.
         25    1    1    2    0    0 -0.13969342287E+03 -0.50022959479E+02  0.52661851785E+03  0.56122064485E+03  0.12500000000E+03 0.  0.
</event>
<event>
 5    0  0.5583350E-005  0.2371415E+03  0.7546771E-02  0.1121712E+00
         21   -1    0    0  502  501  0.00000000000E+00  0.00000000000E+00  0.69932767702E+03  0.69932767702E+03  0.00000000000E+00 0.  1.
         21   -1    0    0  501  502 -0.00000000000E+00 -0.00000000000E+00 -0.80414517446E+02  0.80414517446E+02  0.00000000000E+00 0.  1.
         25    1    1    2    0    0 -0.37965482139E+01  0.37914712226E+02  0.30331681571E+03  0.33026963207E+03  0.12500000000E+03 0.  0.
         25    1    1    2    0    0 -0.51742188392E+02  0.26245225717E+02  0.24851525128E+03  0.28416702140E+03  0.12500000000E+03 0.  0.
         25    1    1    2    0    0  0.55538736606E+02 -0.64159937942E+02  0.67081092595E+02  0.16530554100E+03  0.12500000000E+03 0.  0.
</event>
<event>
 5    0  0.5583350E-005  0.2435856E+03  0.7546771E-02  0.1117427E+00
         21   -1    0    0  502  501  0.00000000000E+00  0.00000000000E+00  0.79250220679E+03  0.79250220679E+03  0.00000000000E+00 0. -1.
         21   -1    0    0  501  502 -0.00000000000E+00 -0.00000000000E+00 -0.74869137701E+02  0.74869137701E+02  0.00000000000E+00 0. -1.
         25    1    1    2    0    0 -0.26276296723E+02  0.76535701684E+02  0.31763874432E+03  0.35080981927E+03  0.12500000000E+03 0.  0.
         25    1    1    2    0    0  0.80538414904E+02 -0.59402615165E+02  0.31947208741E+03  0.35735489586E+03  0.12500000000E+03 0.  0.
         25    1    1    2    0    0 -0.54262118181E+02 -0.17133086519E+02  0.80522237364E+02  0.15920662936E+03  0.12500000000E+03 0.  0.
</event>
<event>
 5    0  0.5583350E-005  0.3457742E+03  0.7546771E-02  0.1064363E+00
         21   -1    0    0  502  501  0.00000000000E+00  0.00000000000E+00  0.64931508621E+02  0.64931508621E+02  0.00000000000E+00 0. -1.
         21   -1    0    0  501  502 -0.00000000000E+00 -0.00000000000E+00 -0.18413214770E+04  0.18413214770E+04  0.00000000000E+00 0. -1.
         25    1    1    2    0    0  0.90158029409E+02 -0.96381716242E+01 -0.25318623701E+03  0.29656303753E+03  0.12500000000E+03 0.  0.
         25    1    1    2    0    0 -0.23559223384E+03 -0.39458624463E+02 -0.50538753738E+03  0.57280210076E+03  0.12500000000E+03 0.  0.
         25    1    1    2    0    0  0.14543420443E+03  0.49096796087E+02 -0.10178161940E+04  0.10368878473E+04  0.12500000000E+03 0.  0.
</event>
<event>
 5    0  0.5583350E-005  0.4103231E+03  0.7546771E-02  0.1040263E+00
         21   -1    0    0  502  501  0.00000000000E+00  0.00000000000E+00  0.59861011358E+03  0.59861011358E+03  0.00000000000E+00 0. -1.
         21   -1    0    0  501  502 -0.00000000000E+00 -0.00000000000E+00 -0.28125998149E+03  0.28125998149E+03  0.00000000000E+00 0. -1.
         25    1    1    2    0    0 -0.19038423407E+03  0.25380568701E+03  0.15876080513E+03  0.37615618643E+03  0.12500000000E+03 0.  0.
         25    1    1    2    0    0 -0.17247257593E+02 -0.17852179159E+03  0.34848918808E+02  0.22137512306E+03  0.12500000000E+03 0.  0.
         25    1    1    2    0    0  0.20763149167E+03 -0.75283895420E+02  0.12374040815E+03  0.28233878559E+03  0.12500000000E+03 0.  0.
</event>
<event>
 5    0  0.5583350E-005  0.2766923E+03  0.7546771E-02  0.1097509E+00
         21   -1    0    0  502  501  0.00000000000E+00  0.00000000000E+00  0.24016339642E+03  0.24016339642E+03  0.00000000000E+00 0.  1.
         21   -1    0    0  501  502 -0.00000000000E+00 -0.00000000000E+00 -0.31877717701E+03  0.31877717701E+03  0.00000000000E+00 0.  1.
         25    1    1    2    0    0  0.87069572017E+02 -0.82275432755E+02  0.12152688803E+03  0.21152811095E+03  0.12500000000E+03 0.  0.
         25    1    1    2    0    0 -0.68101328581E+02  0.62851738631E+02 -0.10008149375E+03  0.18501199257E+03  0.12500000000E+03 0.  0.
         25    1    1    2    0    0 -0.18968243436E+02  0.19423694124E+02 -0.10005917486E+03  0.16240046991E+03  0.12500000000E+03 0.  0.
</event>
<event>
 5    0  0.5583350E-005  0.2766679E+03  0.7546771E-02  0.1097523E+00
         21   -1    0    0  502  501  0.00000000000E+00  0.00000000000E+00  0.43238930738E+02  0.43238930738E+02  0.00000000000E+00 0.  1.
         21   -1    0    0  501  502 -0.00000000000E+00 -0.00000000000E+00 -0.17702827207E+04  0.17702827207E+04  0.00000000000E+00 0.  1.
         25    1    1    2    0    0  0.25421884340E+02 -0.78761001407E+02 -0.22044025442E+03  0.26658670881E+03  0.12500000000E+03 0.  0.
         25    1    1    2    0    0 -0.96466011007E+02  0.10067980484E+02 -0.42191115944E+03  0.45060080112E+03  0.12500000000E+03 0.  0.
         25    1    1    2    0    0  0.71044126667E+02  0.68693020923E+02 -0.10846923761E+04  0.10963341415E+04  0.12500000000E+03 0.  0.
</event>
<event>
 5    0  0.5583350E-005  0.3615771E+03  0.7546771E-02  0.1057961E+00
         21   -1    0    0  502  501  0.00000000000E+00  0.00000000000E+00  0.16919191103E+03  0.16919191103E+03  0.00000000000E+00 0.  1.
         21   -1    0    0  501  502 -0.00000000000E+00 -0.00000000000E+00 -0.77272011842E+03  0.77272011842E+03  0.00000000000E+00 0.  1.
         25    1    1    2    0    0  0.64211680633E+02 -0.27382839058E+03 -0.28138503588E+03  0.41702238050E+03  0.12500000000E+03 0.  0.
         25    1    1    2    0    0 -0.56848271497E+02  0.36626893510E+02 -0.14745931497E+03  0.20479869353E+03  0.12500000000E+03 0.  0.
         25    1    1    2    0    0 -0.73634091355E+01  0.23720149708E+03 -0.17468385653E+03  0.32009095542E+03  0.12500000000E+03 0.  0.
</event>
<event>
 5    0  0.5583350E-005  0.3383875E+03  0.7546771E-02  0.1067485E+00
         21   -1    0    0  502  501  0.00000000000E+00  0.00000000000E+00  0.89711001711E+03  0.89711001711E+03  0.00000000000E+00 0.  1.
         21   -1    0    0  501  502 -0.00000000000E+00 -0.00000000000E+00 -0.12763885440E+03  0.12763885440E+03  0.00000000000E+00 0.  1.
         25    1    1    2    0    0 -0.78432297250E+02 -0.13243481046E+03  0.23565346150E+03  0.30797428170E+03  0.12500000000E+03 0.  0.
         25    1    1    2    0    0  0.21227128225E+03  0.12814008394E+03  0.41180371043E+03  0.49667522014E+03  0.12500000000E+03 0.  0.
         25    1    1    2    0    0 -0.13383898500E+03  0.42947265174E+01  0.12201399078E+03  0.22009936967E+03  0.12500000000E+03 0.  0.
</event>
<event>
 5    0  0.5583350E-005  0.3558635E+03  0.7546771E-02  0.1060234E+00
         21   -1    0    0  502  501  0.00000000000E+00  0.00000000000E+00  0.48194974177E+03  0.48194974177E+03  0.00000000000E+00 0. -1.
         21   -1    0    0  501  502 -0.00000000000E+00 -0.00000000000E+00 -0.26276359505E+03  0.26276359505E+03  0.00000000000E+00 0. -1.
         25    1    1    2    0    0  0.75418878926E+02 -0.13358576709E+03 -0.14911356134E+02  0.19844523932E+03  0.12500000000E+03 0.  0.
         25    1    1    2    0    0 -0.75039466715E+02 -0.12207388678E+03  0.22163104055E+02  0.19143969959E+03  0.12500000000E+03 0.  0.
         25    1    1    2    0    0 -0.37941221153E+00  0.25565965387E+03  0.21193439881E+03  0.35482839791E+03  0.12500000000E+03 0.  0.
</event>
<event>
 5    0  0.5583350E-005  0.3504566E+03  0.7546771E-02  0.1062428E+00
         21   -1    0    0  502  501  0.00000000000E+00  0.00000000000E+00  0.47957772416E+03  0.47957772416E+03  0.00000000000E+00 0.  1.
         21   -1    0    0  501  502 -0.00000000000E+00 -0.00000000000E+00 -0.25609997098E+03  0.25609997098E+03  0.00000000000E+00 0.  1.
         25    1    1    2    0    0  0.55659896071E+01  0.14486330004E+03 -0.10271768998E+03  0.21723784149E+03  0.12500000000E+03 0.  0.
         25    1    1    2    0    0 -0.11601393874E+03 -0.32020685356E+02  0.57808115427E+02  0.18289706526E+03  0.12500000000E+03 0.  0.
         25    1    1    2    0    0  0.11044794913E+03 -0.11284261468E+03  0.26838732773E+03  0.33554278839E+03  0.12500000000E+03 0.  0.
</event>
<event>
 5    0  0.5583350E-005  0.2551859E+03  0.7546771E-02  0.1110071E+00
         21   -1    0    0  502  501  0.00000000000E+00  0.00000000000E+00  0.42301861010E+03  0.42301861010E+03  0.00000000000E+00 0.  1.
         21   -1    0    0  501  502 -0.00000000000E+00 -0.00000000000E+00 -0.15394080179E+03  0.15394080179E+03  0.00000000000E+00 0.  1.
         25    1    1    2    0    0  0.14448571510E+02 -0.28044061542E+02  0.24081969177E+02  0.13114942564E+03  0.12500000000E+03 0.  0.
         25    1    1    2    0    0  0.92469805920E+02  0.10802337964E+03  0.11683143934E+03  0.22247314619E+03  0.12500000000E+03 0.  0.
         25    1    1    2    0    0 -0.10691837743E+03 -0.79979318095E+02  0.12816439980E+03  0.22333684007E+03  0.12500000000E+03 0.  0.
</event>
<event>
 5    0  0.5583350E-005  0.3388059E+03  0.7546771E-02  0.1067306E+00
         21   -1    0    0  502  501  0.00000000000E+00  0.00000000000E+00  0.83133853558E+03  0.83133853558E+03  0.00000000000E+00 0. -1.
         21   -1    0    0  501  502 -0.00000000000E+00 -0.00000000000E+00 -0.13807787064E+03  0.13807787064E+03  0.00000000000E+00 0. -1.
         25    1    1    2    0    0  0.71367205526E+02 -0.56198165295E+02 -0.52992211774E+02  0.16335448055E+03  0.12500000000E+03 0.  0.
         25    1    1    2    0    0 -0.48200854117E+02  0.94585165730E+02  0.50107876059E+03  0.52723296581E+03  0.12500000000E+03 0.  0.
         25    1    1    2    0    0 -0.23166351409E+02 -0.38387000435E+02  0.24517411612E+03  0.27882895986E+03  0.12500000000E+03 0.  0.
</event>
<event>
 5    0  0.5583350E-005  0.2593665E+03  0.7546771E-02  0.1107524E+00
         21   -1    0    0  502  501  0.00000000000E+00  0.00000000000E+00  0.77666443720E+02  0.77666443720E+02  0.00000000000E+00 0.  1.
         21   -1    0    0  501  502 -0.00000000000E+00 -0.00000000000E+00 -0.86615221508E+03  0.86615221508E+03  0.00000000000E+00 0.  1.
         25    1    1    2    0    0  0.11729033354E+03  0.27507134888E+02 -0.40479699497E+03  0.44045348443E+03  0.12500000000E+03 0.  0.
         25    1    1    2    0    0  0.31675731416E+02 -0.43169768379E+01 -0.17148379209E+03  0.21460120969E+03  0.12500000000E+03 0.  0.
         25    1    1    2    0    0 -0.14896606495E+03 -0.23190158050E+02 -0.21220498430E+03  0.28876396468E+03  0.12500000000E+03 0.  0.
</event>
<event>
 5    0  0.5583350E-005  0.3600542E+03  0.7546771E-02  0.1058562E+00
         21   -1    0    0  502  501  0.00000000000E+00  0.00000000000E+00  0.28868240672E+04  0.28868240672E+04  0.00000000000E+00 0. -1.
         21   -1    0    0  501  502 -0.00000000000E+00 -0.00000000000E+00 -0.44907148811E+02  0.44907148811E+02  0.00000000000E+00 0. -1.
         25    1    1    2    0    0  0.92590034186E+01 -0.15043914234E+03  0.28389685420E+03  0.34487691793E+03  0.12500000000E+03 0.  0.
         25    1    1    2    0    0 -0.12272939854E+03  0.10341454621E+03  0.16067500753E+04  0.16195764502E+04  0.12500000000E+03 0.  0.
         25    1    1    2    0    0  0.11347039513E+03  0.47024596134E+02  0.95126998892E+03  0.96727784790E+03  0.12500000000E+03 0.  0.
</event>
<event>
 5    0  0.5583350E-005  0.3442042E+03  0.7546771E-02  0.1065019E+00
         21   -1    0    0  502  501  0.00000000000E+00  0.00000000000E+00  0.21958734250E+03  0.21958734250E+03  0.00000000000E+00 0. -1.
         21   -1    0    0  501  502 -0.00000000000E+00 -0.00000000000E+00 -0.53954185311E+03  0.53954185311E+03  0.00000000000E+00 0. -1.
         25    1    1    2    0    0 -0.19413465667E+03 -0.39979294951E+01 -0.49246018400E+02  0.23612373597E+03  0.12500000000E+03 0.  0.
         25    1    1    2    0    0 -0.18019389118E+02  0.26645595653E+02  0.31164782154E+02  0.13278151151E+03  0.12500000000E+03 0.  0.
         25    1    1    2    0    0  0.21215404579E+03 -0.22647666158E+02 -0.30187327436E+03  0.39022394814E+03  0.12500000000E+03 0.  0.
</event>
<event>
 5    0  0.5583350E-005  0.3298903E+03  0.7546771E-02  0.1071185E+00
         21   -1    0    0  502  501  0.00000000000E+00  0.00000000000E+00  0.11041113942E+03  0.11041113942E+03  0.00000000000E+00 0. -1.
         21   -1    0    0  501  502 -0.00000000000E+00 -0.00000000000E+00 -0.98565760461E+03  0.98565760461E+03  0.00000000000E+00 0. -1.
         25    1    1    2    0    0 -0.61236454732E+02 -0.57096513445E+02 -0.39647872125E+03  0.42406401832E+03  0.12500000000E+03 0.  0.
         25    1    1    2    0    0  0.13441643414E+03  0.18863403579E+03 -0.19608756821E+03  0.32821625742E+03  0.12500000000E+03 0.  0.
         25    1    1    2    0    0 -0.73179979410E+02 -0.13153752235E+03 -0.28268017574E+03  0.34378846829E+03  0.12500000000E+03 0.  0.
</event>
<event>
 5    0  0.5583350E-005  0.4978564E+03  0.7546771E-02  0.1014340E+00
         21   -1    0    0  502  501  0.00000000000E+00  0.00000000000E+00  0.33975051476E+03  0.33975051476E+03  0.00000000000E+00 0.  1.
         21   -1    0    0  501  502 -0.00000000000E+00 -0.00000000000E+00 -0.72953812440E+03  0.72953812440E+03  0.00000000000E+00 0.  1.
         25    1    1    2    0    0 -0.31020318677E+02 -0.23104165739E+03  0.19226666484E+03  0.32700761157E+03  0.12500000000E+03 0.  0.
         25    1    1    2    0    0  0.56823582342E+02  0.25234986520E+03 -0.52989412402E+03  0.60276210618E+03  0.12500000000E+03 0.  0.
         25    1    1    2    0    0 -0.25803263665E+02 -0.21308207808E+02 -0.52160150467E+02  0.13951892141E+03  0.12500000000E+03 0.  0.
</event>
<event>
 5    0  0.5583350E-005  0.2296900E+03  0.7546771E-02  0.1126858E+00
         21   -1    0    0  502  501  0.00000000000E+00  0.00000000000E+00  0.18070291825E+03  0.18070291825E+03  0.00000000000E+00 0. -1.
         21   -1    0    0  501  502 -0.00000000000E+00 -0.00000000000E+00 -0.29195708720E+03  0.29195708720E+03  0.00000000000E+00 0. -1.
         25    1    1    2    0    0 -0.11009742345E+02 -0.79390432342E+01  0.34706031064E+01  0.12578270119E+03  0.12500000000E+03 0.  0.
         25    1    1    2    0    0  0.67061390699E+02  0.86851355077E+02 -0.81947413719E+02  0.18542051293E+03  0.12500000000E+03 0.  0.
         25    1    1    2    0    0 -0.56051648354E+02 -0.78912311843E+02 -0.32777358337E+02  0.16145679132E+03  0.12500000000E+03 0.  0.
</event>
<event>
 5    0  0.5583350E-005  0.2689921E+03  0.7546771E-02  0.1101858E+00
         21   -1    0    0  502  501  0.00000000000E+00  0.00000000000E+00  0.88892180315E+03  0.88892180315E+03  0.00000000000E+00 0. -1.
         21   -1    0    0  501  502 -0.00000000000E+00 -0.00000000000E+00 -0.81398311571E+02  0.81398311571E+02  0.00000000000E+00 0.  1.
         25    1    1    2    0    0  0.12309757992E+03  0.10881454248E+03  0.33873387559E+03  0.39668533791E+03  0.12500000000E+03 0.  0.
         25    1    1    2    0    0  0.14219188278E+02 -0.50707881073E+02  0.20627383631E+03  0.24687521152E+03  0.12500000000E+03 0.  0.
         25    1    1    2    0    0 -0.13731676820E+03 -0.58106661409E+02  0.26251577967E+03  0.32675956529E+03  0.12500000000E+03 0.  0.
</event>
<event>
 5    0  0.5583350E-005  0.3073427E+03  0.7546771E-02  0.1081627E+00
         21   -1    0    0  502  501  0.00000000000E+00  0.00000000000E+00  0.78070617867E+02  0.78070617867E+02  0.00000000000E+00 0. -1.
         21   -1    0    0  501  502 -0.00000000000E+00 -0.00000000000E+00 -0.12099240078E+04  0.12099240078E+04  0.00000000000E+00 0. -1.
         25    1    1    2    0    0 -0.10917426166E+03  0.11672049395E+03 -0.35449410301E+03  0.40845288857E+03  0.12500000000E+03 0.  0.
         25    1    1    2    0    0  0.10971585694E+03 -0.19495669730E+03 -0.40764509762E+03  0.48150307237E+03  0.12500000000E+03 0.  0.
         25    1    1    2    0    0 -0.54159528249E+00  0.78236203357E+02 -0.36971418930E+03  0.39803866472E+03  0.12500000000E+03 0.  0.
</event>
<event>
 5    0  0.5583350E-005  0.4082144E+03  0.7546771E-02  0.1040972E+00
         21   -1    0    0  502  501  0.00000000000E+00  0.00000000000E+00  0.71940254767E+03  0.71940254767E+03  0.00000000000E+00 0. -1.
         21   -1    0    0  501  502 -0.00000000000E+00 -0.00000000000E+00 -0.23163527815E+03  0.23163527815E+03  0.00000000000E+00 0. -1.
         25    1    1    2    0    0 -0.55581363479E+02 -0.28527370553E+03  0.64280094524E+01  0.31644382493E+03  0.12500000000E+03 0.  0.
         25    1    1    2    0    0  0.66225970325E+02  0.22840526296E+03  0.25983956722E+03  0.37375987477E+03  0.12500000000E+03 0.  0.
         25    1    1    2    0    0 -0.10644606846E+02  0.56868442570E+02  0.22149969285E+03  0.26083412611E+03  0.12500000000E+03 0.  0.
</event>
<event>
 5    0  0.5583350E-005  0.4626650E+03  0.7546771E-02  0.1024011E+00
         21   -1    0    0  502  501  0.00000000000E+00  0.00000000000E+00  0.13472669388E+03  0.13472669388E+03  0.00000000000E+00 0. -1.
         21   -1    0    0  501  502 -0.00000000000E+00 -0.00000000000E+00 -0.15888384202E+04  0.15888384202E+04  0.00000000000E+00 0. -1.
         25    1    1    2    0    0  0.85541042632E+02 -0.12958301255E+02 -0.40367698649E+03  0.43135286828E+03  0.12500000000E+03 0.  0.
         25    1    1    2    0    0 -0.30160951312E+03  0.19178895661E+03 -0.83578590928E+03  0.91755892914E+03  0.12500000000E+03 0.  0.
         25    1    1    2    0    0  0.21606847049E+03 -0.17883065535E+03 -0.21464883052E+03  0.37465331665E+03  0.12500000000E+03 0.  0.
</event>
<event>
 5    0  0.5583350E-005  0.6606658E+03  0.7546771E-02  0.9786969E-01
         21   -1    0    0  502  501  0.00000000000E+00  0.00000000000E+00  0.64294609979E+03  0.64294609979E+03  0.00000000000E+00 0.  1.
         21   -1    0    0  501  502 -0.00000000000E+00 -0.00000000000E+00 -0.67887384256E+03  0.67887384256E+03  0.00000000000E+00 0.  1.
         25    1    1    2    0    0 -0.51083049354E+02  0.15863601221E+03 -0.25333884867E+03  0.32799456481E+03  0.12500000000E+03 0.  0.
         25    1    1    2    0    0 -0.35438848858E+03 -0.34082051391E+03  0.95349699855E+02  0.51620382486E+03  0.12500000000E+03 0.  0.
         25    1    1    2    0    0  0.40547153793E+03  0.18218450170E+03  0.12206140605E+03  0.47762155267E+03  0.12500000000E+03 0.  0.
</event>
<event>
 5    0  0.5583350E-005  0.7102937E+03  0.7546771E-02  0.9699789E-01
         21   -1    0    0  502  501  0.00000000000E+00  0.00000000000E+00  0.18129534940E+04  0.18129534940E+04  0.00000000000E+00 0. -1.
         21   -1    0    0  501  502 -0.00000000000E+00 -0.00000000000E+00 -0.27828462992E+03  0.27828462992E+03  0.00000000000E+00 0. -1.
         25    1    1    2    0    0  0.30399858506E+03 -0.33062923820E+03  0.38529248484E+03  0.60481909009E+03  0.12500000000E+03 0.  0.
         25    1    1    2    0    0  0.12230739968E+03  0.15932054345E+03 -0.61347627466E+01  0.23665327147E+03  0.12500000000E+03 0.  0.
         25    1    1    2    0    0 -0.42630598475E+03  0.17130869474E+03  0.11555111420E+04  0.12497657624E+04  0.12500000000E+03 0.  0.
</event>
<event>
 5    0  0.5583350E-005  0.3329454E+03  0.7546771E-02  0.1069841E+00
         21   -1    0    0  502  501  0.00000000000E+00  0.00000000000E+00  0.27471986916E+03  0.27471986916E+03  0.00000000000E+00 0.  1.
         21   -1    0    0  501  502 -0.00000000000E+00 -0.00000000000E+00 -0.40351165906E+03  0.40351165906E+03  0.00000000000E+00 0.  1.
         25    1    1    2    0    0  0.10743488091E+03 -0.47267604081E+02 -0.12540916435E+03  0.21243572801E+03  0.12500000000E+03 0.  0.
         25    1    1    2    0    0 -0.12287825797E+02  0.20612138929E+03 -0.16976929827E+02  0.24197155604E+03  0.12500000000E+03 0.  0.
         25    1    1    2    0    0 -0.95147055109E+02 -0.15885378521E+03  0.13594304280E+02  0.22382424417E+03  0.12500000000E+03 0.  0.
</event>
<event>
 5    0  0.5583350E-005  0.3519316E+03  0.7546771E-02  0.1061825E+00
         21   -1    0    0  502  501  0.00000000000E+00  0.00000000000E+00  0.97432140273E+02  0.97432140273E+02  0.00000000000E+00 0.  1.
         21   -1    0    0  501  502 -0.00000000000E+00 -0.00000000000E+00 -0.12712008894E+04  0.12712008894E+04  0.00000000000E+00 0.  1.
         25    1    1    2    0    0  0.10290207897E+03  0.10288067700E+03 -0.25259002770E+03  0.31717502053E+03  0.12500000000E+03 0.  0.
         25    1    1    2    0    0  0.10741466844E+03 -0.17602062514E+03 -0.55409985201E+03  0.60429530650E+03  0.12500000000E+03 0.  0.
         25    1    1    2    0    0 -0.21031674741E+03  0.73139948136E+02 -0.36707886943E+03  0.44716270264E+03  0.12500000000E+03 0.  0.
</event>
<event>
 5    0  0.5583350E-005  0.2369904E+03  0.7546771E-02  0.1121814E+00
         21   -1    0    0  502  501  0.00000000000E+00  0.00000000000E+00  0.58912750094E+03  0.58912750094E+03  0.00000000000E+00 0. -1.
         21   -1    0    0  501  502 -0.00000000000E+00 -0.00000000000E+00 -0.95334997925E+02  0.95334997925E+02  0.00000000000E+00 0. -1.
         25    1    1    2    0    0  0.93123074968E+01 -0.10399489028E+03  0.20582896196E+03  0.26247327074E+03  0.12500000000E+03 0.  0.
         25    1    1    2    0    0 -0.12346007920E+02 -0.21431944043E+02  0.87916984652E+02  0.15481003949E+03  0.12500000000E+03 0.  0.
         25    1    1    2    0    0  0.30337004236E+01  0.12542683432E+03  0.20004655640E+03  0.26717918863E+03  0.12500000000E+03 0.  0.
</event>
<event>
 5    0  0.5811390E-005  0.2997780E+03  0.7546771E-02  0.1085352E+00
         21   -1    0    0  502  501  0.00000000000E+00  0.00000000000E+00  0.59973185458E+03  0.59973185458E+03  0.00000000000E+00 0.  1.
         21   -1    0    0  501  502 -0.00000000000E+00 -0.00000000000E+00 -0.14984506095E+03  0.14984506095E+03  0.00000000000E+00 0.  1.
         25    1    1    2    0    0 -0.88209349296E+02 -0.29821859984E+02  0.31902055564E+03  0.35506245585E+03  0.12500000000E+03 0.  0.
         25    1    1    2    0    0  0.56239443428E+02 -0.11312638290E+03  0.82670106608E+02  0.19600969372E+03  0.12500000000E+03 0.  0.
         25    1    1    2    0    0  0.31969905868E+02  0.14294824289E+03  0.48196131393E+02  0.19850476596E+03  0.12500000000E+03 0.  0.
</event>
<event>
 5    0  0.5583350E-005  0.3018445E+03  0.7546771E-02  0.1084322E+00
         21   -1    0    0  502  501  0.00000000000E+00  0.00000000000E+00  0.44073712950E+03  0.44073712950E+03  0.00000000000E+00 0.  1.
         21   -1    0    0  501  502 -0.00000000000E+00 -0.00000000000E+00 -0.20672212607E+03  0.20672212607E+03  0.00000000000E+00 0.  1.
         25    1    1    2    0    0  0.46415618056E+02 -0.10860378249E+03  0.19364372359E+03  0.25898278487E+03  0.12500000000E+03 0.  0.
         25    1    1    2    0    0 -0.25260023742E+02  0.15788398893E+03  0.11506003470E+03  0.23330073799E+03  0.12500000000E+03 0.  0.
         25    1    1    2    0    0 -0.21155594314E+02 -0.49280206441E+02 -0.74688754868E+02  0.15517573271E+03  0.12500000000E+03 0.  0.
</event>
<event>
 5    0  0.6503363E-005  0.2823139E+03  0.7546771E-02  0.1094432E+00
         21   -1    0    0  502  501  0.00000000000E+00  0.00000000000E+00  0.53741326210E+03  0.53741326210E+03  0.00000000000E+00 0.  1.
         21   -1    0    0  501  502 -0.00000000000E+00 -0.00000000000E+00 -0.14830513772E+03  0.14830513772E+03  0.00000000000E+00 0.  1.
         25    1    1    2    0    0 -0.11828659401E+03  0.95891731509E+02  0.12963122671E+02  0.19743349524E+03  0.12500000000E+03 0.  0.
         25    1    1    2    0    0  0.10790866282E+03 -0.70896439955E+02  0.18178714904E+03  0.25562111076E+03  0.12500000000E+03 0.  0.
         25    1    1    2    0    0  0.10377931191E+02 -0.24995291554E+02  0.19435785267E+03  0.23266379381E+03  0.12500000000E+03 0.  0.
</event>
<event>
 5    0  0.5583350E-005  0.2470572E+03  0.7546771E-02  0.1115179E+00
         21   -1    0    0  502  501  0.00000000000E+00  0.00000000000E+00  0.18397737858E+04  0.18397737858E+04  0.00000000000E+00 0.  1.
         21   -1    0    0  501  502 -0.00000000000E+00 -0.00000000000E+00 -0.33176502103E+02  0.33176502103E+02  0.00000000000E+00 0.  1.
         25    1    1    2    0    0 -0.92473269055E+02  0.46235302001E+02  0.55805215748E+03  0.58115077140E+03  0.12500000000E+03 0.  0.
         25    1    1    2    0    0  0.67185327140E+02  0.70541096564E+02  0.61182965981E+03  0.63202092300E+03  0.12500000000E+03 0.  0.
         25    1    1    2    0    0  0.25287941915E+02 -0.11677639857E+03  0.63671546638E+03  0.65977859346E+03  0.12500000000E+03 0.  0.
</event>
<event>
 5    0  0.5583350E-005  0.3783966E+03  0.7546771E-02  0.1051528E+00
         21   -1    0    0  502  501  0.00000000000E+00  0.00000000000E+00  0.18177864172E+03  0.18177864172E+03  0.00000000000E+00 0.  1.
         21   -1    0    0  501  502 -0.00000000000E+00 -0.00000000000E+00 -0.78768317603E+03  0.78768317603E+03  0.00000000000E+00 0.  1.
         25    1    1    2    0    0  0.14792718175E+02 -0.50335757359E+02 -0.52882561462E+03  0.54592494325E+03  0.12500000000E+03 0.  0.
         25    1    1    2    0    0 -0.67966105893E+01  0.16985668395E+03  0.39696510132E+02  0.21470514645E+03  0.12500000000E+03 0.  0.
         25    1    1    2    0    0 -0.79961075861E+01 -0.11952092659E+03 -0.11677542982E+03  0.20883172804E+03  0.12500000000E+03 0.  0.
</event>
<event>
 5    0  0.5583350E-005  0.2589235E+03  0.7546771E-02  0.1107792E+00
         21   -1    0    0  502  501  0.00000000000E+00  0.00000000000E+00  0.18865214522E+03  0.18865214522E+03  0.00000000000E+00 0.  1.
         21   -1    0    0  501  502 -0.00000000000E+00 -0.00000000000E+00 -0.35537048178E+03  0.35537048178E+03  0.00000000000E+00 0.  1.
         25    1    1    2    0    0  0.10274512453E+03  0.12903219817E+03 -0.79408312330E+02  0.22166765404E+03  0.12500000000E+03 0.  0.
         25    1    1    2    0    0 -0.35001203658E+02 -0.22168593053E+02 -0.48315014621E+02  0.14027070761E+03  0.12500000000E+03 0.  0.
         25    1    1    2    0    0 -0.67743920871E+02 -0.10686360512E+03 -0.38995009616E+02  0.18208426535E+03  0.12500000000E+03 0.  0.
</event>
<event>
 5    0  0.5583350E-005  0.2645789E+03  0.7546771E-02  0.1104423E+00
         21   -1    0    0  502  501  0.00000000000E+00  0.00000000000E+00  0.20559151989E+04  0.20559151989E+04  0.00000000000E+00 0. -1.
         21   -1    0    0  501  502 -0.00000000000E+00 -0.00000000000E+00 -0.34049056982E+02  0.34049056982E+02  0.00000000000E+00 0. -1.
         25    1    1    2    0    0 -0.40314664573E+02 -0.43906614379E+02  0.37971087918E+03  0.40417621743E+03  0.12500000000E+03 0.  0.
         25    1    1    2    0    0 -0.11156343889E+03 -0.30390981143E+02  0.77859621452E+03  0.79699879417E+03  0.12500000000E+03 0.  0.
         25    1    1    2    0    0  0.15187810346E+03  0.74297595522E+02  0.86355904819E+03  0.88878924427E+03  0.12500000000E+03 0.  0.
</event>
<event>
 5    0  0.5583350E-005  0.3186728E+03  0.7546771E-02  0.1076262E+00
         21   -1    0    0  502  501  0.00000000000E+00  0.00000000000E+00  0.21453887471E+03  0.21453887471E+03  0.00000000000E+00 0.  1.
         21   -1    0    0  501  502 -0.00000000000E+00 -0.00000000000E+00 -0.47335174947E+03  0.47335174947E+03  0.00000000000E+00 0.  1.
         25    1    1    2    0    0  0.77373032704E+02  0.13630405490E+03 -0.13640561372E+03  0.24248066526E+03  0.12500000000E+03 0.  0.
         25    1    1    2    0    0 -0.19228605918E+03 -0.40509392929E+02 -0.76352078941E+02  0.24509096154E+03  0.12500000000E+03 0.  0.
         25    1    1    2    0    0  0.11491302648E+03 -0.95794661968E+02 -0.46055182096E+02  0.20031899739E+03  0.12500000000E+03 0.  0.
</event>
<event>
 5    0  0.5583350E-005  0.3620291E+03  0.7546771E-02  0.1057783E+00
         21   -1    0    0  502  501  0.00000000000E+00  0.00000000000E+00  0.16777286200E+03  0.16777286200E+03  0.00000000000E+00 0.  1.
         21   -1    0    0  501  502 -0.00000000000E+00 -0.00000000000E+00 -0.78120533606E+03  0.78120533606E+03  0.00000000000E+00 0.  1.
         25    1    1    2    0    0 -0.19591894278E+02  0.13781059182E+03 -0.46375785595E+02  0.19274676399E+03  0.12500000000E+03 0.  0.
         25    1    1    2    0    0  0.21166025885E+03 -0.38168446670E+02 -0.31389095073E+03  0.40051145358E+03  0.12500000000E+03 0.  0.
         25    1    1    2    0    0 -0.19206836457E+03 -0.99642145151E+02 -0.25316573773E+03  0.35571998049E+03  0.12500000000E+03 0.  0.
</event>
<event>
 5    0  0.5583350E-005  0.2477028E+03  0.7546771E-02  0.1114765E+00
         21   -1    0    0  502  501  0.00000000000E+00  0.00000000000E+00  0.38900169589E+03  0.38900169589E+03  0.00000000000E+00 0. -1.
         21   -1    0    0  501  502 -0.00000000000E+00 -0.00000000000E+00 -0.15772857432E+03  0.15772857432E+03  0.00000000000E+00 0. -1.
         25    1    1    2    0    0  0.22304117014E+02  0.56979640010E+02  0.15490775842E+03  0.20824400743E+03  0.12500000000E+03 0.  0.
         25    1    1    2    0    0 -0.28615971535E+02 -0.10835706692E+03 -0.24592345306E+02  0.16967590054E+03  0.12500000000E+03 0.  0.
         25    1    1    2    0    0  0.63118545207E+01  0.51377426908E+02  0.10095770845E+03  0.16881036224E+03  0.12500000000E+03 0.  0.
</event>
<event>
 5    0  0.5583350E-005  0.3385021E+03  0.7546771E-02  0.1067436E+00
         21   -1    0    0  502  501  0.00000000000E+00  0.00000000000E+00  0.11949712161E+03  0.11949712161E+03  0.00000000000E+00 0.  1.
         21   -1    0    0  501  502 -0.00000000000E+00 -0.00000000000E+00 -0.95888255429E+03  0.95888255429E+03  0.00000000000E+00 0.  1.
         25    1    1    2    0    0  0.36542446214E+02 -0.22207718827E+03 -0.42585022175E+03  0.49762138147E+03  0.12500000000E+03 0.  0.
         25    1    1    2    0    0  0.22297533900E+02  0.72473280177E+02 -0.34089506798E+02  0.15012211973E+03  0.12500000000E+03 0.  0.
         25    1    1    2    0    0 -0.58839980115E+02  0.14960390810E+03 -0.37944570413E+03  0.43063617470E+03  0.12500000000E+03 0.  0.
</event>
<event>
 5    0  0.5583350E-005  0.2553148E+03  0.7546771E-02  0.1109991E+00
         21   -1    0    0  502  501  0.00000000000E+00  0.00000000000E+00  0.53764092201E+03  0.53764092201E+03  0.00000000000E+00 0. -1.
         21   -1    0    0  501  502 -0.00000000000E+00 -0.00000000000E+00 -0.12124387457E+03  0.12124387457E+03  0.00000000000E+00 0. -1.
         25    1    1    2    0    0 -0.43954406178E+02  0.12661196709E+03  0.95256168214E+02  0.20654616340E+03  0.12500000000E+03 0.  0.
         25    1    1    2    0    0  0.68122581156E+02 -0.77568759548E+01  0.16873672498E+03  0.22090255215E+03  0.12500000000E+03 0.  0.
         25    1    1    2    0    0 -0.24168174978E+02 -0.11885509114E+03  0.15240415424E+03  0.23143608103E+03  0.12500000000E+03 0.  0.
</event>
<event>
 5    0  0.5583350E-005  0.3046871E+03  0.7546771E-02  0.1082921E+00
         21   -1    0    0  502  501  0.00000000000E+00  0.00000000000E+00  0.41329927309E+03  0.41329927309E+03  0.00000000000E+00 0. -1.
         21   -1    0    0  501  502 -0.00000000000E+00 -0.00000000000E+00 -0.22461746398E+03  0.22461746398E+03  0.00000000000E+00 0. -1.
         25    1    1    2    0    0 -0.17316086545E+03 -0.11784325853E+03  0.11594957151E+03  0.27007595605E+03  0.12500000000E+03 0.  0.
         25    1    1    2    0    0  0.11320876008E+03  0.37208754133E+02  0.10791986213E+03  0.20364776302E+03  0.12500000000E+03 0.  0.
         25    1    1    2    0    0  0.59952105375E+02  0.80634504402E+02 -0.35187624521E+02  0.16419301800E+03  0.12500000000E+03 0.  0.
</event>
<event>
 5    0  0.5583350E-005  0.2242817E+03  0.7546771E-02  0.1130731E+00
         21   -1    0    0  502  501  0.00000000000E+00  0.00000000000E+00  0.87081066265E+02  0.87081066265E+02  0.00000000000E+00 0.  1.
         21   -1    0    0  501  502 -0.00000000000E+00 -0.00000000000E+00 -0.57764896416E+03  0.57764896416E+03  0.00000000000E+00 0.  1.
         25    1    1    2    0    0 -0.65637027207E+02 -0.95998811178E+02 -0.17206859890E+03  0.24239759449E+03  0.12500000000E+03 0.  0.
         25    1    1    2    0    0  0.41482496964E+02  0.55075282754E+02 -0.14774736079E+03  0.20544674966E+03  0.12500000000E+03 0.  0.
         25    1    1    2    0    0  0.24154530243E+02  0.40923528424E+02 -0.17075193821E+03  0.21688568628E+03  0.12500000000E+03 0.  0.
</event>
<event>
 5    0  0.5583350E-005  0.3467672E+03  0.7546771E-02  0.1063950E+00
         21   -1    0    0  502  501  0.00000000000E+00  0.00000000000E+00  0.70618082761E+03  0.70618082761E+03  0.00000000000E+00 0.  1.
         21   -1    0    0  501  502 -0.00000000000E+00 -0.00000000000E+00 -0.17027865958E+03  0.17027865958E+03  0.00000000000E+00 0. -1.
         25    1    1    2    0    0  0.14080924620E+03 -0.69317438656E+02  0.92029554465E+02  0.22074100211E+03  0.12500000000E+03 0.  0.
         25    1    1    2    0    0  0.10114164212E+03 -0.24388504596E+02  0.54735000849E+02  0.17159647795E+03  0.12500000000E+03 0.  0.
         25    1    1    2    0    0 -0.24195088832E+03  0.93705943251E+02  0.38913761271E+03  0.48412200713E+03  0.12500000000E+03 0.  0.
</event>
<event>
 5    0  0.5583350E-005  0.3602530E+03  0.7546771E-02  0.1058484E+00
         21   -1    0    0  502  501  0.00000000000E+00  0.00000000000E+00  0.45491722526E+03  0.45491722526E+03  0.00000000000E+00 0. -1.
         21   -1    0    0  501  502 -0.00000000000E+00 -0.00000000000E+00 -0.28528748081E+03  0.28528748081E+03  0.00000000000E+00 0. -1.
         25    1    1    2    0    0 -0.13963788193E+03 -0.23467762713E+03  0.16340954618E+03  0.34190642949E+03  0.12500000000E+03 0.  0.
         25    1    1    2    0    0  0.11557536368E+03  0.20100333183E+03  0.27780096833E+02  0.26487117223E+03  0.12500000000E+03 0.  0.
         25    1    1    2    0    0  0.24062518246E+02  0.33674295300E+02 -0.21559898555E+02  0.13342710435E+03  0.12500000000E+03 0.  0.
</event>
<event>
 5    0  0.5583350E-005  0.2614613E+03  0.7546771E-02  0.1106268E+00
         21   -1    0    0  502  501  0.00000000000E+00  0.00000000000E+00  0.78347552755E+02  0.78347552755E+02  0.00000000000E+00 0. -1.
         21   -1    0    0  501  502 -0.00000000000E+00 -0.00000000000E+00 -0.87254820846E+03  0.87254820846E+03  0.00000000000E+00 0. -1.
         25    1    1    2    0    0 -0.13213020280E+03 -0.84337406267E+02 -0.19707311942E+03  0.28112986854E+03  0.12500000000E+03 0.  0.
         25    1    1    2    0    0  0.60992082365E+02  0.13342102917E+02 -0.22975190347E+03  0.26890329669E+03  0.12500000000E+03 0.  0.
         25    1    1    2    0    0  0.71138120432E+02  0.70995303350E+02 -0.36737563281E+03  0.40086259599E+03  0.12500000000E+03 0.  0.
</event>
<event>
 5    0  0.5583350E-005  0.3902451E+03  0.7546771E-02  0.1047211E+00
         21   -1    0    0  502  501  0.00000000000E+00  0.00000000000E+00  0.38149220165E+03  0.38149220165E+03  0.00000000000E+00 0.  1.
         21   -1    0    0  501  502 -0.00000000000E+00 -0.00000000000E+00 -0.39919887410E+03  0.39919887410E+03  0.00000000000E+00 0.  1.
         25    1    1    2    0    0  0.84153661846E+02 -0.20218897230E+02  0.24377077636E+02  0.15398014327E+03  0.12500000000E+03 0.  0.
         25    1    1    2    0    0 -0.10287193736E+03 -0.26653715563E+03 -0.25736316423E+02  0.31290901043E+03  0.12500000000E+03 0.  0.
         25    1    1    2    0    0  0.18718275516E+02  0.28675605286E+03 -0.16347433666E+02  0.31380192204E+03  0.12500000000E+03 0.  0.
</event>
<event>
 5    0  0.5583350E-005  0.2607389E+03  0.7546771E-02  0.1106700E+00
         21   -1    0    0  502  501  0.00000000000E+00  0.00000000000E+00  0.42491654989E+02  0.42491654989E+02  0.00000000000E+00 0. -1.
         21   -1    0    0  501  502 -0.00000000000E+00 -0.00000000000E+00 -0.15999563588E+04  0.15999563588E+04  0.00000000000E+00 0. -1.
         25    1    1    2    0    0  0.26788784028E+01  0.51097767318E+02 -0.53973252731E+03  0.55637609514E+03  0.12500000000E+03 0.  0.
         25    1    1    2    0    0  0.32623465570E+02  0.58340059363E+02 -0.16930040756E+03  0.22080643341E+03  0.12500000000E+03 0.  0.
         25    1    1    2    0    0 -0.35302343972E+02 -0.10943782668E+03 -0.84843176890E+03  0.86526548520E+03  0.12500000000E+03 0.  0.
</event>
<event>
 5    0  0.5583350E-005  0.3791419E+03  0.7546771E-02  0.1051251E+00
         21   -1    0    0  502  501  0.00000000000E+00  0.00000000000E+00  0.80128302922E+03  0.80128302922E+03  0.00000000000E+00 0.  1.
         21   -1    0    0  501  502 -0.00000000000E+00 -0.00000000000E+00 -0.17939805556E+03  0.17939805556E+03  0.00000000000E+00 0.  1.
         25    1    1    2    0    0  0.67975234158E+02  0.18408606789E+03  0.44968233330E+03  0.50630772632E+03  0.12500000000E+03 0.  0.
         25    1    1    2    0    0  0.73989292444E+02 -0.79795075193E+02 -0.41157644788E+02  0.17076481238E+03  0.12500000000E+03 0.  0.
         25    1    1    2    0    0 -0.14196452660E+03 -0.10429099270E+03  0.21336028515E+03  0.30360854608E+03  0.12500000000E+03 0.  0.
</event>
<event>
 5    0  0.5707836E-005  0.2888549E+03  0.7546771E-02  0.1090949E+00
         21   -1    0    0  502  501  0.00000000000E+00  0.00000000000E+00  0.84663643853E+02  0.84663643853E+02  0.00000000000E+00 0.  1.
         21   -1    0    0  501  502 -0.00000000000E+00 -0.00000000000E+00 -0.98551365664E+03  0.98551365664E+03  0.00000000000E+00 0.  1.
         25    1    1    2    0    0 -0.11071681497E+03  0.76262046973E+01 -0.29714088709E+03  0.34093119379E+03  0.12500000000E+03 0.  0.
         25    1    1    2    0    0  0.17681366686E+03  0.60138502229E+02 -0.21892212338E+03  0.31373812064E+03  0.12500000000E+03 0.  0.
         25    1    1    2    0    0 -0.66096851887E+02 -0.67764706926E+02 -0.38478700231E+03  0.41550798607E+03  0.12500000000E+03 0.  0.
</event>
<event>
 5    0  0.5583350E-005  0.2973709E+03  0.7546771E-02  0.1086562E+00
         21   -1    0    0  502  501  0.00000000000E+00  0.00000000000E+00  0.10128422990E+04  0.10128422990E+04  0.00000000000E+00 0. -1.
         21   -1    0    0  501  502 -0.00000000000E+00 -0.00000000000E+00 -0.87308211219E+02  0.87308211219E+02  0.00000000000E+00 0. -1.
         25    1    1    2    0    0 -0.93041211520E+02  0.15797122713E+03  0.34704595339E+03  0.41191925107E+03  0.12500000000E+03 0.  0.
         25    1    1    2    0    0 -0.54904494450E+02 -0.40896271206E+02  0.27396920461E+03  0.30882217146E+03  0.12500000000E+03 0.  0.
         25    1    1    2    0    0  0.14794570597E+03 -0.11707495593E+03  0.30451892977E+03  0.37940908767E+03  0.12500000000E+03 0.  0.
</event>
<event>
 5    0  0.5583350E-005  0.2351718E+03  0.7546771E-02  0.1123052E+00
         21   -1    0    0  502  501  0.00000000000E+00  0.00000000000E+00  0.19622698312E+03  0.19622698312E+03  0.00000000000E+00 0.  1.
         21   -1    0    0  501  502 -0.00000000000E+00 -0.00000000000E+00 -0.28184581800E+03  0.28184581800E+03  0.00000000000E+00 0.  1.
         25    1    1    2    0    0  0.52014123134E+02 -0.45981264463E+02 -0.32481830808E+02  0.14662815221E+03  0.12500000000E+03 0.  0.
         25    1    1    2    0    0 -0.12454130091E+03  0.32738515628E+02 -0.49955764558E+02  0.18628720957E+03  0.12500000000E+03 0.  0.
         25    1    1    2    0    0  0.72527177776E+02  0.13242748835E+02 -0.31812395126E+01  0.14515743935E+03  0.12500000000E+03 0.  0.
</event>
<event>
 5    0  0.5583350E-005  0.3067094E+03  0.7546771E-02  0.1081934E+00
         21   -1    0    0  502  501  0.00000000000E+00  0.00000000000E+00  0.21899986242E+04  0.21899986242E+04  0.00000000000E+00 0. -1.
         21   -1    0    0  501  502 -0.00000000000E+00 -0.00000000000E+00 -0.42954668086E+02  0.42954668086E+02  0.00000000000E+00 0. -1.
         25    1    1    2    0    0  0.61535663275E+02  0.40948672128E+02  0.23042382390E+03  0.27236660996E+03  0.12500000000E+03 0.  0.
         25    1    1    2    0    0 -0.29934869293E+02 -0.77464375548E+02  0.27314009865E+03  0.31165259403E+03  0.12500000000E+03 0.  0.
         25    1    1    2    0    0 -0.31600793982E+02  0.36515703421E+02  0.16434800336E+04  0.16489340883E+04  0.12500000000E+03 0.  0.
</event>
<event>
 5    0  0.5583350E-005  0.3073972E+03  0.7546771E-02  0.1081600E+00
         21   -1    0    0  502  501  0.00000000000E+00  0.00000000000E+00  0.55910838942E+02  0.55910838942E+02  0.00000000000E+00 0. -1.
         21   -1    0    0  501  502 -0.00000000000E+00 -0.00000000000E+00 -0.16900667571E+04  0.16900667571E+04  0.00000000000E+00 0. -1.
         25    1    1    2    0    0 -0.11941458465E+03  0.13374427154E+03 -0.42015287414E+03  0.47360406549E+03  0.12500000000E+03 0.  0.
         25    1    1    2    0    0  0.35692438794E+02 -0.90214755757E+02 -0.25096646562E+03  0.29668471347E+03  0.12500000000E+03 0.  0.
         25    1    1    2    0    0  0.83722145854E+02 -0.43529515780E+02 -0.96303657843E+03  0.97568881712E+03  0.12500000000E+03 0.  0.
</event>
<event>
 5    0  0.5583350E-005  0.2863047E+03  0.7546771E-02  0.1092294E+00
         21   -1    0    0  502  501  0.00000000000E+00  0.00000000000E+00  0.88513848881E+02  0.88513848881E+02  0.00000000000E+00 0. -1.
         21   -1    0    0  501  502 -0.00000000000E+00 -0.00000000000E+00 -0.92607418557E+03  0.92607418557E+03  0.00000000000E+00 0. -1.
         25    1    1    2    0    0 -0.13949209887E+02 -0.65542667308E+02 -0.14348093399E+03  0.20174786273E+03  0.12500000000E+03 0.  0.
         25    1    1    2    0    0 -0.36366211793E+02  0.12653756273E+03 -0.62266838548E+03  0.64859476903E+03  0.12500000000E+03 0.  0.
         25    1    1    2    0    0  0.50315421680E+02 -0.60994895417E+02 -0.71411017214E+02  0.16424540269E+03  0.12500000000E+03 0.  0.
</event>
<event>
 5    0  0.7536723E-005  0.6031386E+03  0.7546771E-02  0.9898916E-01
         21   -1    0    0  502  501  0.00000000000E+00  0.00000000000E+00  0.10227876031E+04  0.10227876031E+04  0.00000000000E+00 0. -1.
         21   -1    0    0  501  502 -0.00000000000E+00 -0.00000000000E+00 -0.35567128525E+03  0.35567128525E+03  0.00000000000E+00 0. -1.
         25    1    1    2    0    0  0.19138764988E+03  0.38858521181E+03  0.19214170948E+03  0.49007258226E+03  0.12500000000E+03 0.  0.
         25    1    1    2    0    0 -0.28186708758E+03 -0.27254263501E+02  0.36861000653E+03  0.48134206845E+03  0.12500000000E+03 0.  0.
         25    1    1    2    0    0  0.90479437703E+02 -0.36133094831E+03  0.10636460181E+03  0.40704423761E+03  0.12500000000E+03 0.  0.
</event>
<event>
 5    0  0.5583350E-005  0.5340002E+03  0.7546771E-02  0.1005267E+00
         21   -1    0    0  502  501  0.00000000000E+00  0.00000000000E+00  0.10546126222E+04  0.10546126222E+04  0.00000000000E+00 0. -1.
         21   -1    0    0  501  502 -0.00000000000E+00 -0.00000000000E+00 -0.27038950747E+03  0.27038950747E+03  0.00000000000E+00 0. -1.
         25    1    1    2    0    0 -0.29080474339E+03  0.37159806707E+03  0.37016870014E+03  0.61261928536E+03  0.12500000000E+03 0.  0.
         25    1    1    2    0    0  0.91749125499E+02 -0.23513334297E+03  0.31634331624E+03  0.42356072143E+03  0.12500000000E+03 0.  0.
         25    1    1    2    0    0  0.19905561789E+03 -0.13646472410E+03  0.97711098385E+02  0.28882212291E+03  0.12500000000E+03 0.  0.
</event>
<event>
 5    0  0.5583350E-005  0.3209939E+03  0.7546771E-02  0.1075193E+00
         21   -1    0    0  502  501  0.00000000000E+00  0.00000000000E+00  0.71665987487E+02  0.71665987487E+02  0.00000000000E+00 0. -1.
         21   -1    0    0  501  502 -0.00000000000E+00 -0.00000000000E+00 -0.14377402370E+04  0.14377402370E+04  0.00000000000E+00 0. -1.
         25    1    1    2    0    0  0.14222921571E+02 -0.27041063835E+02 -0.14747879038E+03  0.19572558403E+03  0.12500000000E+03 0.  0.
         25    1    1    2    0    0 -0.15003838068E+03  0.16762101067E+03 -0.59265856222E+03  0.64612498038E+03  0.12500000000E+03 0.  0.
         25    1    1    2    0    0  0.13581545911E+03 -0.14057994684E+03 -0.62593689687E+03  0.66755566004E+03  0.12500000000E+03 0.  0.
</event>
<event>
 5    0  0.5583350E-005  0.2917613E+03  0.7546771E-02  0.1089433E+00
         21   -1    0    0  502  501  0.00000000000E+00  0.00000000000E+00  0.11097158613E+04  0.11097158613E+04  0.00000000000E+00 0. -1.
         21   -1    0    0  501  502 -0.00000000000E+00 -0.00000000000E+00 -0.76708511628E+02  0.76708511628E+02  0.00000000000E+00 0. -1.
         25    1    1    2    0    0 -0.39990822030E+02  0.10416585021E+03  0.24024651459E+03  0.29290472507E+03  0.12500000000E+03 0.  0.
         25    1    1    2    0    0  0.10378842508E+03  0.77556449042E+02  0.29964697714E+03  0.34957166772E+03  0.12500000000E+03 0.  0.
         25    1    1    2    0    0 -0.63797603045E+02 -0.18172229925E+03  0.49311385798E+03  0.54394798017E+03  0.12500000000E+03 0.  0.
</event>
<event>
 5    0  0.5956652E-005  0.3531259E+03  0.7546771E-02  0.1061339E+00
         21   -1    0    0  502  501  0.00000000000E+00  0.00000000000E+00  0.99622650287E+02  0.99622650287E+02  0.00000000000E+00 0.  1.
         21   -1    0    0  501  502 -0.00000000000E+00 -0.00000000000E+00 -0.12517023345E+04  0.12517023345E+04  0.00000000000E+00 0.  1.
         25    1    1    2    0    0 -0.47556912040E+02 -0.11696629326E+03 -0.63144618836E+03  0.65596651014E+03  0.12500000000E+03 0.  0.
         25    1    1    2    0    0 -0.77872895858E+02  0.33214689262E+02 -0.13341752693E+02  0.15155990848E+03  0.12500000000E+03 0.  0.
         25    1    1    2    0    0  0.12542980790E+03  0.83751604001E+02 -0.50729174317E+03  0.54379856617E+03  0.12500000000E+03 0.  0.
</event>
<event>
 5    0  0.5583350E-005  0.2478420E+03  0.7546771E-02  0.1114676E+00
         21   -1    0    0  502  501  0.00000000000E+00  0.00000000000E+00  0.14206394947E+03  0.14206394947E+03  0.00000000000E+00 0.  1.
         21   -1    0    0  501  502 -0.00000000000E+00 -0.00000000000E+00 -0.43238048974E+03  0.43238048974E+03  0.00000000000E+00 0.  1.
         25    1    1    2    0    0 -0.63057680352E+02  0.66331241124E+02 -0.21138063125E+03  0.26207418009E+03  0.12500000000E+03 0.  0.
         25    1    1    2    0    0  0.58756566668E+02  0.32012782476E+02 -0.22531644870E+02  0.14356123219E+03  0.12500000000E+03 0.  0.
         25    1    1    2    0    0  0.43011136842E+01 -0.98344023600E+02 -0.56404264144E+02  0.16880902692E+03  0.12500000000E+03 0.  0.
</event>
<event>
 5    0  0.6124460E-005  0.3277463E+03  0.7546771E-02  0.1072138E+00
         21   -1    0    0  502  501  0.00000000000E+00  0.00000000000E+00  0.31588610971E+03  0.31588610971E+03  0.00000000000E+00 0. -1.
         21   -1    0    0  501  502 -0.00000000000E+00 -0.00000000000E+00 -0.34005186104E+03  0.34005186104E+03  0.00000000000E+00 0. -1.
         25    1    1    2    0    0 -0.57107625957E+02 -0.10665455744E+03  0.12756620339E+03  0.21571882582E+03  0.12500000000E+03 0.  0.
         25    1    1    2    0    0  0.32880471455E+02 -0.87007295643E+02  0.12274167461E+02  0.15629155475E+03  0.12500000000E+03 0.  0.
         25    1    1    2    0    0  0.24227154502E+02  0.19366185309E+03 -0.16400612218E+03  0.28392759019E+03  0.12500000000E+03 0.  0.
</event>
<event>
 5    0  0.5583350E-005  0.4722653E+03  0.7546771E-02  0.1021283E+00
         21   -1    0    0  502  501  0.00000000000E+00  0.00000000000E+00  0.12551906917E+04  0.12551906917E+04  0.00000000000E+00 0.  1.
         21   -1    0    0  501  502 -0.00000000000E+00 -0.00000000000E+00 -0.17768977386E+03  0.17768977386E+03  0.00000000000E+00 0.  1.
         25    1    1    2    0    0  0.19019480551E+03  0.28039406077E+03  0.26546706186E+03  0.44821050221E+03  0.12500000000E+03 0.  0.
         25    1    1    2    0    0  0.82446969147E+02 -0.14805870883E+03  0.20027627515E+03  0.29061051318E+03  0.12500000000E+03 0.  0.
         25    1    1    2    0    0 -0.27264177466E+03 -0.13233535194E+03  0.61175758086E+03  0.69405945020E+03  0.12500000000E+03 0.  0.
</event>
<event>
 5    0  0.5583350E-005  0.4538365E+03  0.7546771E-02  0.1026584E+00
         21   -1    0    0  502  501  0.00000000000E+00  0.00000000000E+00  0.28816499422E+03  0.28816499422E+03  0.00000000000E+00 0. -1.
         21   -1    0    0  501  502 -0.00000000000E+00 -0.00000000000E+00 -0.71475582086E+03  0.71475582086E+03  0.00000000000E+00 0. -1.
         25    1    1    2    0    0 -0.26318502245E+02 -0.34622378967E+03 -0.26588921968E+02  0.36999398220E+03  0.12500000000E+03 0.  0.
         25    1    1    2    0    0 -0.78168135666E+00  0.10222756423E+03 -0.29841675579E+03  0.33930612439E+03  0.12500000000E+03 0.  0.
         25    1    1    2    0    0  0.27100183602E+02  0.24399622544E+03 -0.10158514888E+03  0.29362070849E+03  0.12500000000E+03 0.  0.
</event>
<event>
 5    0  0.5583350E-005  0.4521604E+03  0.7546771E-02  0.1027080E+00
         21   -1    0    0  502  501  0.00000000000E+00  0.00000000000E+00  0.60457026672E+03  0.60457026672E+03  0.00000000000E+00 0.  1.
         21   -1    0    0  501  502 -0.00000000000E+00 -0.00000000000E+00 -0.33817244607E+03  0.33817244607E+03  0.00000000000E+00 0.  1.
         25    1    1    2    0    0  0.28499295342E+02  0.17866899940E+03 -0.16114491840E+02  0.22049829485E+03  0.12500000000E+03 0.  0.
         25    1    1    2    0    0  0.37568387734E+02  0.19023244821E+03 -0.96112138774E+01  0.23090505309E+03  0.12500000000E+03 0.  0.
         25    1    1    2    0    0 -0.66067683077E+02 -0.36890144762E+03  0.29212352637E+03  0.49133936486E+03  0.12500000000E+03 0.  0.
</event>
<event>
 5    0  0.5583350E-005  0.2383032E+03  0.7546771E-02  0.1120928E+00
         21   -1    0    0  502  501  0.00000000000E+00  0.00000000000E+00  0.14288496093E+03  0.14288496093E+03  0.00000000000E+00 0. -1.
         21   -1    0    0  501  502 -0.00000000000E+00 -0.00000000000E+00 -0.39744147749E+03  0.39744147749E+03  0.00000000000E+00 0. -1.
         25    1    1    2    0    0  0.50249278107E+02  0.35172363070E+00 -0.15479148035E+03  0.20520846973E+03  0.12500000000E+03 0.  0.
         25    1    1    2    0    0  0.48844676501E+02  0.77445099502E+01  0.19430861713E+02  0.13582465993E+03  0.12500000000E+03 0.  0.
         25    1    1    2    0    0 -0.99093954608E+02 -0.80962335809E+01 -0.11919589792E+03  0.19929330877E+03  0.12500000000E+03 0.  0.
</event>
<event>
 5    0  0.5583350E-005  0.2640591E+03  0.7546771E-02  0.1104729E+00
         21   -1    0    0  502  501  0.00000000000E+00  0.00000000000E+00  0.60969018518E+03  0.60969018518E+03  0.00000000000E+00 0. -1.
         21   -1    0    0  501  502 -0.00000000000E+00 -0.00000000000E+00 -0.11436502292E+03  0.11436502292E+03  0.00000000000E+00 0. -1.
         25    1    1    2    0    0  0.88546035866E+01 -0.13072030743E+03  0.14245232319E+03  0.23039936450E+03  0.12500000000E+03 0.  0.
         25    1    1    2    0    0  0.42122706624E+01 -0.24941138293E+02  0.21737144469E+03  0.25202211921E+03  0.12500000000E+03 0.  0.
         25    1    1    2    0    0 -0.13066874249E+02  0.15566144572E+03  0.13550139438E+03  0.24163372440E+03  0.12500000000E+03 0.  0.
</event>
<event>
 5    0  0.5583350E-005  0.2774380E+03  0.7546771E-02  0.1097097E+00
         21   -1    0    0  502  501  0.00000000000E+00  0.00000000000E+00  0.22995322531E+03  0.22995322531E+03  0.00000000000E+00 0.  1.
         21   -1    0    0  501  502 -0.00000000000E+00 -0.00000000000E+00 -0.33472817310E+03  0.33472817310E+03  0.00000000000E+00 0.  1.
         25    1    1    2    0    0  0.14078382684E+03  0.72764558833E+02 -0.18134869251E+02  0.20265399183E+03  0.12500000000E+03 0.  0.
         25    1    1    2    0    0 -0.16234444418E+03 -0.68260412247E+01 -0.25663435509E+02  0.20660572431E+03  0.12500000000E+03 0.  0.
         25    1    1    2    0    0  0.21560617342E+02 -0.65938517608E+02 -0.60976643027E+02  0.15542168227E+03  0.12500000000E+03 0.  0.
</event>
<event>
 5    0  0.5583350E-005  0.3189617E+03  0.7546771E-02  0.1076128E+00
         21   -1    0    0  502  501  0.00000000000E+00  0.00000000000E+00  0.14824300786E+04  0.14824300786E+04  0.00000000000E+00 0. -1.
         21   -1    0    0  501  502 -0.00000000000E+00 -0.00000000000E+00 -0.68628227007E+02  0.68628227007E+02  0.00000000000E+00 0. -1.
         25    1    1    2    0    0 -0.16658131609E+02 -0.91997281863E+02  0.10888892099E+04  0.11000207747E+04  0.12500000000E+03 0.  0.
         25    1    1    2    0    0  0.83458696648E+02  0.23105340672E+02  0.12753182045E+03  0.19846555379E+03  0.12500000000E+03 0.  0.
         25    1    1    2    0    0 -0.66800565039E+02  0.68891941191E+02  0.19738082118E+03  0.25257197711E+03  0.12500000000E+03 0.  0.
</event>
<event>
 5    0  0.5583350E-005  0.3242727E+03  0.7546771E-02  0.1073700E+00
         21   -1    0    0  502  501  0.00000000000E+00  0.00000000000E+00  0.28288155486E+03  0.28288155486E+03  0.00000000000E+00 0. -1.
         21   -1    0    0  501  502 -0.00000000000E+00 -0.00000000000E+00 -0.37172016393E+03  0.37172016393E+03  0.00000000000E+00 0. -1.
         25    1    1    2    0    0 -0.64548906530E+02 -0.75395784471E+02  0.18521349037E+03  0.24449973961E+03  0.12500000000E+03 0.  0.
         25    1    1    2    0    0  0.67863014755E+02 -0.60993013559E+01 -0.19430372034E+03  0.24087657833E+03  0.12500000000E+03 0.  0.
         25    1    1    2    0    0 -0.33141082246E+01  0.81495085827E+02 -0.79748379099E+02  0.16922540086E+03  0.12500000000E+03 0.  0.
</event>
<event>
 5    0  0.5583350E-005  0.2173367E+03  0.7546771E-02  0.1135884E+00
         21   -1    0    0  502  501  0.00000000000E+00  0.00000000000E+00  0.19506157692E+03  0.19506157692E+03  0.00000000000E+00 0. -1.
         21   -1    0    0  501  502 -0.00000000000E+00 -0.00000000000E+00 -0.24215551799E+03  0.24215551799E+03  0.00000000000E+00 0. -1.
         25    1    1    2    0    0 -0.21536082442E+02 -0.16268068134E+02 -0.39443370915E+02  0.13382538024E+03  0.12500000000E+03 0.  0.
         25    1    1    2    0    0  0.18498358847E+02  0.70284553439E+02 -0.61234693035E+02  0.15702482404E+03  0.12500000000E+03 0.  0.
         25    1    1    2    0    0  0.30377235953E+01 -0.54016485305E+02  0.53584122871E+02  0.14636689063E+03  0.12500000000E+03 0.  0.
</event>
<event>
 5    0  0.5583350E-005  0.3894607E+03  0.7546771E-02  0.1047491E+00
         21   -1    0    0  502  501  0.00000000000E+00  0.00000000000E+00  0.17518242255E+04  0.17518242255E+04  0.00000000000E+00 0. -1.
         21   -1    0    0  501  502 -0.00000000000E+00 -0.00000000000E+00 -0.86583830273E+02  0.86583830273E+02  0.00000000000E+00 0. -1.
         25    1    1    2    0    0 -0.10429702167E+02 -0.12226333930E+03  0.96833430429E+03  0.98404950470E+03  0.12500000000E+03 0.  0.
         25    1    1    2    0    0  0.17587495130E+03 -0.51630511207E+02  0.27862474212E+03  0.35616633067E+03  0.12500000000E+03 0.  0.
         25    1    1    2    0    0 -0.16544524913E+03  0.17389385051E+03  0.41828134881E+03  0.49819222040E+03  0.12500000000E+03 0.  0.
</event>
<event>
 5    0  0.5591417E-005  0.2936537E+03  0.7546771E-02  0.1088457E+00
         21   -1    0    0  502  501  0.00000000000E+00  0.00000000000E+00  0.27907798638E+03  0.27907798638E+03  0.00000000000E+00 0.  1.
         21   -1    0    0  501  502 -0.00000000000E+00 -0.00000000000E+00 -0.30899058500E+03  0.30899058500E+03  0.00000000000E+00 0.  1.
         25    1    1    2    0    0  0.11078200910E+03 -0.71414677228E+01  0.57696436726E+02  0.17685455299E+03  0.12500000000E+03 0.  0.
         25    1    1    2    0    0  0.33597309093E+02 -0.10587313088E+03  0.12671284720E+02  0.16770050828E+03  0.12500000000E+03 0.  0.
         25    1    1    2    0    0 -0.14437931819E+03  0.11301459860E+03 -0.10028032007E+03  0.24351351012E+03  0.12500000000E+03 0.  0.
</event>
<event>
 5    0  0.5583350E-005  0.2798251E+03  0.7546771E-02  0.1095785E+00
         21   -1    0    0  502  501  0.00000000000E+00  0.00000000000E+00  0.12207924168E+03  0.12207924168E+03  0.00000000000E+00 0.  1.
         21   -1    0    0  501  502 -0.00000000000E+00 -0.00000000000E+00 -0.64140357846E+03  0.64140357846E+03  0.00000000000E+00 0.  1.
         25    1    1    2    0    0 -0.42084993955E+02  0.58957145755E+02 -0.15093395518E+03  0.20893336397E+03  0.12500000000E+03 0.  0.
         25    1    1    2    0    0  0.10102587249E+03  0.10248735637E+03 -0.23913851018E+03  0.30581385217E+03  0.12500000000E+03 0.  0.
         25    1    1    2    0    0 -0.58940878538E+02 -0.16144450213E+03 -0.12925187141E+03  0.24873560399E+03  0.12500000000E+03 0.  0.
</event>
<event>
 5    0  0.6584801E-005  0.3519068E+03  0.7546771E-02  0.1061835E+00
         21   -1    0    0  502  501  0.00000000000E+00  0.00000000000E+00  0.72466801330E+03  0.72466801330E+03  0.00000000000E+00 0. -1.
         21   -1    0    0  501  502 -0.00000000000E+00 -0.00000000000E+00 -0.17088983066E+03  0.17088983066E+03  0.00000000000E+00 0. -1.
         25    1    1    2    0    0 -0.36265139612E+02 -0.40111204991E+02  0.35746973105E+03  0.38253585156E+03  0.12500000000E+03 0.  0.
         25    1    1    2    0    0 -0.12329777243E+03  0.85269071679E+02  0.23106195870E+03  0.30246947620E+03  0.12500000000E+03 0.  0.
         25    1    1    2    0    0  0.15956291204E+03 -0.45157866688E+02 -0.34753507110E+02  0.21055251620E+03  0.12500000000E+03 0.  0.
</event>
<event>
 5    0  0.5583350E-005  0.3009575E+03  0.7546771E-02  0.1084763E+00
         21   -1    0    0  502  501  0.00000000000E+00  0.00000000000E+00  0.72192732977E+02  0.72192732977E+02  0.00000000000E+00 0.  1.
         21   -1    0    0  501  502 -0.00000000000E+00 -0.00000000000E+00 -0.12546332685E+04  0.12546332685E+04  0.00000000000E+00 0.  1.
         25    1    1    2    0    0 -0.28052177443E+02  0.50478870346E+02 -0.95946410931E+03  0.96929428867E+03  0.12500000000E+03 0.  0.
         25    1    1    2    0    0  0.23164593361E+02 -0.66708773676E+02 -0.71431412760E+02  0.16035618354E+03  0.12500000000E+03 0.  0.
         25    1    1    2    0    0  0.48875840825E+01  0.16229903330E+02 -0.15154501350E+03  0.19717552931E+03  0.12500000000E+03 0.  0.
</event>
<event>
 5    0  0.5583350E-005  0.3116195E+03  0.7546771E-02  0.1079572E+00
         21   -1    0    0  502  501  0.00000000000E+00  0.00000000000E+00  0.14344219834E+04  0.14344219834E+04  0.00000000000E+00 0. -1.
         21   -1    0    0  501  502 -0.00000000000E+00 -0.00000000000E+00 -0.67697462384E+02  0.67697462384E+02  0.00000000000E+00 0. -1.
         25    1    1    2    0    0  0.11882309097E+03  0.18249671817E+03  0.44652349464E+03  0.51228137811E+03  0.12500000000E+03 0.  0.
         25    1    1    2    0    0 -0.75532543515E+02 -0.29162834903E+02  0.52578570569E+03  0.54647163182E+03  0.12500000000E+03 0.  0.
         25    1    1    2    0    0 -0.43290547450E+02 -0.15333388326E+03  0.39441532064E+03  0.44336643582E+03  0.12500000000E+03 0.  0.
</event>
<event>
 5    0  0.5583350E-005  0.2492017E+03  0.7546771E-02  0.1113810E+00
         21   -1    0    0  502  501  0.00000000000E+00  0.00000000000E+00  0.15299716254E+04  0.15299716254E+04  0.00000000000E+00 0.  1.
         21   -1    0    0  501  502 -0.00000000000E+00 -0.00000000000E+00 -0.40589976187E+02  0.40589976187E+02  0.00000000000E+00 0.  1.
         25    1    1    2    0    0  0.46120792682E+02 -0.11768573448E+03  0.57468728146E+03  0.60155426280E+03  0.12500000000E+03 0.  0.
         25    1    1    2    0    0 -0.58683792242E+02  0.62066636133E+02  0.26732520411E+03  0.30721949734E+03  0.12500000000E+03 0.  0.
         25    1    1    2    0    0  0.12562999560E+02  0.55619098344E+02  0.64736916366E+03  0.66178784147E+03  0.12500000000E+03 0.  0.
</event>
<event>
 5    0  0.5583350E-005  0.3980663E+03  0.7546771E-02  0.1044451E+00
         21   -1    0    0  502  501  0.00000000000E+00  0.00000000000E+00  0.76168377069E+03  0.76168377069E+03  0.00000000000E+00 0. -1.
         21   -1    0    0  501  502 -0.00000000000E+00 -0.00000000000E+00 -0.20803481503E+03  0.20803481503E+03  0.00000000000E+00 0. -1.
         25    1    1    2    0    0 -0.16660426239E+03  0.12813238495E+03 -0.45369372982E+02  0.24871322507E+03  0.12500000000E+03 0.  0.
         25    1    1    2    0    0  0.83672078689E+02  0.58027968757E+02  0.26621289650E+03  0.31122751834E+03  0.12500000000E+03 0.  0.
         25    1    1    2    0    0  0.82932183699E+02 -0.18616035371E+03  0.33280543214E+03  0.40977784231E+03  0.12500000000E+03 0.  0.
</event>
<event>
 5    0  0.5583350E-005  0.2137585E+03  0.7546771E-02  0.1138624E+00
         21   -1    0    0  502  501  0.00000000000E+00  0.00000000000E+00  0.24846060085E+03  0.24846060085E+03  0.00000000000E+00 0. -1.
         21   -1    0    0  501  502 -0.00000000000E+00 -0.00000000000E+00 -0.18390325268E+03  0.18390325268E+03  0.00000000000E+00 0. -1.
         25    1    1    2    0    0  0.32724898417E+02  0.99518663791E+01  0.98732004058E+02  0.16292012536E+03  0.12500000000E+03 0.  0.
         25    1    1    2    0    0 -0.58341364884E+02 -0.19079941476E+02 -0.21223939988E+02  0.14086594568E+03  0.12500000000E+03 0.  0.
         25    1    1    2    0    0  0.25616466467E+02  0.91280750966E+01 -0.12950715900E+02  0.12857778250E+03  0.12500000000E+03 0.  0.
</event>
<event>
 5    0  0.5583350E-005  0.3075470E+03  0.7546771E-02  0.1081528E+00
         21   -1    0    0  502  501  0.00000000000E+00  0.00000000000E+00  0.55898745871E+02  0.55898745871E+02  0.00000000000E+00 0. -1.
         21   -1    0    0  501  502 -0.00000000000E+00 -0.00000000000E+00 -0.16920798216E+04  0.16920798216E+04  0.00000000000E+00 0. -1.
         25    1    1    2    0    0 -0.37138631942E+01 -0.19762752805E+03 -0.58807851906E+03  0.63287579919E+03  0.12500000000E+03 0.  0.
         25    1    1    2    0    0 -0.27035577924E+02  0.78547894586E+02 -0.20564934647E+03  0.25459251348E+03  0.12500000000E+03 0.  0.
         25    1    1    2    0    0  0.30749441118E+02  0.11907963347E+03 -0.84245321017E+03  0.86051025477E+03  0.12500000000E+03 0.  0.
</event>
<event>
 5    0  0.5583350E-005  0.6194820E+03  0.7546771E-02  0.9865792E-01
         21   -1    0    0  502  501  0.00000000000E+00  0.00000000000E+00  0.84135020095E+03  0.84135020095E+03  0.00000000000E+00 0.  1.
         21   -1    0    0  501  502 -0.00000000000E+00 -0.00000000000E+00 -0.45612159979E+03  0.45612159979E+03  0.00000000000E+00 0.  1.
         25    1    1    2    0    0  0.39200333394E+02 -0.21963273291E+03  0.70984958378E+02  0.26540359421E+03  0.12500000000E+03 0.  0.
         25    1    1    2    0    0 -0.71003167388E+02  0.56960901420E+03  0.29799322658E+03  0.65872668226E+03  0.12500000000E+03 0.  0.
         25    1    1    2    0    0  0.31802833994E+02 -0.34997628129E+03  0.16250416203E+02  0.37334152427E+03  0.12500000000E+03 0.  0.
</event>
<event>
 5    0  0.5583350E-005  0.2957222E+03  0.7546771E-02  0.1087399E+00
         21   -1    0    0  502  501  0.00000000000E+00  0.00000000000E+00  0.90540555020E+03  0.90540555020E+03  0.00000000000E+00 0.  1.
         21   -1    0    0  501  502 -0.00000000000E+00 -0.00000000000E+00 -0.96588324297E+02  0.96588324297E+02  0.00000000000E+00 0.  1.
         25    1    1    2    0    0  0.52983726593E+02 -0.11502442945E+03  0.29875480590E+03  0.34773169068E+03  0.12500000000E+03 0.  0.
         25    1    1    2    0    0 -0.10999050258E+03  0.18465912555E+03  0.37183561620E+03  0.44730708555E+03  0.12500000000E+03 0.  0.
         25    1    1    2    0    0  0.57006775990E+02 -0.69634696095E+02  0.13822680380E+03  0.20695509826E+03  0.12500000000E+03 0.  0.
</event>
<event>
 5    0  0.5792217E-005  0.4633021E+03  0.7546771E-02  0.1023828E+00
         21   -1    0    0  502  501  0.00000000000E+00  0.00000000000E+00  0.16003790370E+03  0.16003790370E+03  0.00000000000E+00 0. -1.
         21   -1    0    0  501  502 -0.00000000000E+00 -0.00000000000E+00 -0.13412375848E+04  0.13412375848E+04  0.00000000000E+00 0. -1.
         25    1    1    2    0    0  0.27770361938E+03  0.10311227004E+03 -0.56638714814E+03  0.65128399491E+03  0.12500000000E+03 0.  0.
         25    1    1    2    0    0 -0.98545645196E+02 -0.13262987069E+03 -0.11318355360E+02  0.20749706493E+03  0.12500000000E+03 0.  0.
         25    1    1    2    0    0 -0.17915797418E+03  0.29517600654E+02 -0.60349417759E+03  0.64249442865E+03  0.12500000000E+03 0.  0.
</event>
<event>
 5    0  0.5583350E-005  0.2198143E+03  0.7546771E-02  0.1134022E+00
         21   -1    0    0  502  501  0.00000000000E+00  0.00000000000E+00  0.60776852122E+03  0.60776852122E+03  0.00000000000E+00 0.  1.
         21   -1    0    0  501  502 -0.00000000000E+00 -0.00000000000E+00 -0.79501183592E+02  0.79501183592E+02  0.00000000000E+00 0.  1.
         25    1    1    2    0    0 -0.24116069128E+02  0.41792531013E+02  0.16619103076E+03  0.21347753780E+03  0.12500000000E+03 0.  0.
         25    1    1    2    0    0  0.86282819624E+02  0.18897536654E+02  0.17110657968E+03  0.22957417857E+03  0.12500000000E+03 0.  0.
         25    1    1    2    0    0 -0.62166750496E+02 -0.60690067667E+02  0.19096972719E+03  0.24421798845E+03  0.12500000000E+03 0.  0.
</event>
<event>
 5    0  0.5583350E-005  0.3196459E+03  0.7546771E-02  0.1075812E+00
         21   -1    0    0  502  501  0.00000000000E+00  0.00000000000E+00  0.74597673108E+03  0.74597673108E+03  0.00000000000E+00 0. -1.
         21   -1    0    0  501  502 -0.00000000000E+00 -0.00000000000E+00 -0.13696603956E+03  0.13696603956E+03  0.00000000000E+00 0. -1.
         25    1    1    2    0    0  0.16685156296E+01  0.21765971115E+01  0.29723054559E+02  0.12851451860E+03  0.12500000000E+03 0.  0.
         25    1    1    2    0    0  0.94351224362E+02  0.79383686361E+02  0.54641971736E+03  0.57393678286E+03  0.12500000000E+03 0.  0.
         25    1    1    2    0    0 -0.96019739992E+02 -0.81560283473E+02  0.32867919602E+02  0.18049146918E+03  0.12500000000E+03 0.  0.
</event>
<event>
 5    0  0.5583350E-005  0.2999014E+03  0.7546771E-02  0.1085290E+00
         21   -1    0    0  502  501  0.00000000000E+00  0.00000000000E+00  0.75753240561E+02  0.75753240561E+02  0.00000000000E+00 0. -1.
         21   -1    0    0  501  502 -0.00000000000E+00 -0.00000000000E+00 -0.11872872452E+04  0.11872872452E+04  0.00000000000E+00 0. -1.
         25    1    1    2    0    0 -0.95312321515E+02  0.12471953222E+03 -0.23229043093E+03  0.30695805031E+03  0.12500000000E+03 0.  0.
         25    1    1    2    0    0  0.12997481185E+02 -0.88442878822E+02 -0.16522352793E+03  0.22564328378E+03  0.12500000000E+03 0.  0.
         25    1    1    2    0    0  0.82314840330E+02 -0.36276653402E+02 -0.71402004576E+03  0.73043915165E+03  0.12500000000E+03 0.  0.
</event>
<event>
 5    0  0.6057655E-005  0.3188484E+03  0.7546771E-02  0.1076181E+00
         21   -1    0    0  502  501  0.00000000000E+00  0.00000000000E+00  0.18479671628E+03  0.18479671628E+03  0.00000000000E+00 0. -1.
         21   -1    0    0  501  502 -0.00000000000E+00 -0.00000000000E+00 -0.55014125130E+03  0.55014125130E+03  0.00000000000E+00 0. -1.
         25    1    1    2    0    0  0.12354750613E+03  0.11624355830E+03 -0.54146228956E+01  0.21078631184E+03  0.12500000000E+03 0.  0.
         25    1    1    2    0    0 -0.52366391618E+01 -0.76134355307E+02 -0.30623067703E+03  0.33944968700E+03  0.12500000000E+03 0.  0.
         25    1    1    2    0    0 -0.11831086697E+03 -0.40109202989E+02 -0.53699235090E+02  0.18470196874E+03  0.12500000000E+03 0.  0.
</event>
<event>
 5    0  0.5583350E-005  0.5467044E+03  0.7546771E-02  0.1002260E+00
         21   -1    0    0  502  501  0.00000000000E+00  0.00000000000E+00  0.12202168564E+04  0.12202168564E+04  0.00000000000E+00 0. -1.
         21   -1    0    0  501  502 -0.00000000000E+00 -0.00000000000E+00 -0.24494478088E+03  0.24494478088E+03  0.00000000000E+00 0. -1.
         25    1    1    2    0    0  0.93809261929E+02 -0.14415779445E+03  0.28608659561E+03  0.35644380695E+03  0.12500000000E+03 0.  0.
         25    1    1    2    0    0 -0.11622898761E+03  0.32964668287E+03  0.78190497702E+03  0.86554982882E+03  0.12500000000E+03 0.  0.
         25    1    1    2    0    0  0.22419725681E+02 -0.18548888842E+03 -0.92719497095E+02  0.24316800153E+03  0.12500000000E+03 0.  0.
</event>
<event>
 5    0  0.5583350E-005  0.2948092E+03  0.7546771E-02  0.1087865E+00
         21   -1    0    0  502  501  0.00000000000E+00  0.00000000000E+00  0.90046935428E+02  0.90046935428E+02  0.00000000000E+00 0. -1.
         21   -1    0    0  501  502 -0.00000000000E+00 -0.00000000000E+00 -0.96519075014E+03  0.96519075014E+03  0.00000000000E+00 0. -1.
         25    1    1    2    0    0 -0.75176750654E+01 -0.94761997643E+02 -0.36264625115E+02  0.16117218951E+03  0.12500000000E+03 0.  0.
         25    1    1    2    0    0 -0.51565689943E+02  0.36095605286E+02 -0.25181117774E+03  0.28808988586E+03  0.12500000000E+03 0.  0.
         25    1    1    2    0    0  0.59083365009E+02  0.58666392357E+02 -0.58706801186E+03  0.60597561020E+03  0.12500000000E+03 0.  0.
</event>
<event>
 5    0  0.5583350E-005  0.3562169E+03  0.7546771E-02  0.1060092E+00
         21   -1    0    0  502  501  0.00000000000E+00  0.00000000000E+00  0.42057140257E+03  0.42057140257E+03  0.00000000000E+00 0. -1.
         21   -1    0    0  501  502 -0.00000000000E+00 -0.00000000000E+00 -0.30170978078E+03  0.30170978078E+03  0.00000000000E+00 0. -1.
         25    1    1    2    0    0 -0.18803746185E+02  0.31350674885E+02  0.30543025058E+03  0.33203777444E+03  0.12500000000E+03 0.  0.
         25    1    1    2    0    0 -0.10050225877E+03 -0.40677465218E+02 -0.60667443300E+02  0.17624102494E+03  0.12500000000E+03 0.  0.
         25    1    1    2    0    0  0.11930600495E+03  0.93267903330E+01 -0.12590118550E+03  0.21400238397E+03  0.12500000000E+03 0.  0.
</event>
<event>
 5    0  0.5583350E-005  0.2725144E+03  0.7546771E-02  0.1099849E+00
         21   -1    0    0  502  501  0.00000000000E+00  0.00000000000E+00  0.94459987040E+02  0.94459987040E+02  0.00000000000E+00 0. -1.
         21   -1    0    0  501  502 -0.00000000000E+00 -0.00000000000E+00 -0.78619608784E+03  0.78619608784E+03  0.00000000000E+00 0. -1.
         25    1    1    2    0    0 -0.13232659493E+03  0.62163748697E+02 -0.10215831183E+03  0.21779802582E+03  0.12500000000E+03 0.  0.
         25    1    1    2    0    0  0.41417184273E+02 -0.70804859729E+01 -0.33456564574E+03  0.35961741858E+03  0.12500000000E+03 0.  0.
         25    1    1    2    0    0  0.90909410655E+02 -0.55083262724E+02 -0.25501214323E+03  0.30324063048E+03  0.12500000000E+03 0.  0.
</event>
<event>
 5    0  0.5583350E-005  0.3121310E+03  0.7546771E-02  0.1079329E+00
         21   -1    0    0  502  501  0.00000000000E+00  0.00000000000E+00  0.58647829658E+03  0.58647829658E+03  0.00000000000E+00 0.  1.
         21   -1    0    0  501  502 -0.00000000000E+00 -0.00000000000E+00 -0.16611994204E+03  0.16611994204E+03  0.00000000000E+00 0.  1.
         25    1    1    2    0    0 -0.88216847468E+02 -0.19520296659E+02  0.69658965570E+02  0.16923541486E+03  0.12500000000E+03 0.  0.
         25    1    1    2    0    0 -0.52913566434E+01 -0.13559129257E+03  0.30824675337E+03  0.35924094705E+03  0.12500000000E+03 0.  0.
         25    1    1    2    0    0  0.93508204111E+02  0.15511158922E+03  0.42452635598E+02  0.22412187670E+03  0.12500000000E+03 0.  0.
</event>
<event>
 5    0  0.5583350E-005  0.2355369E+03  0.7546771E-02  0.1122802E+00
         21   -1    0    0  502  501  0.00000000000E+00  0.00000000000E+00  0.22962542668E+03  0.22962542668E+03  0.00000000000E+00 0.  1.
         21   -1    0    0  501  502 -0.00000000000E+00 -0.00000000000E+00 -0.24160055483E+03  0.24160055483E+03  0.00000000000E+00 0.  1.
         25    1    1    2    0    0  0.29594680447E+02 -0.12452485313E+03  0.51829835365E+01  0.17898085785E+03  0.12500000000E+03 0.  0.
         25    1    1    2    0    0 -0.23584022944E+02  0.89473345088E+02  0.20676925434E+02  0.15688919933E+03  0.12500000000E+03 0.  0.
         25    1    1    2    0    0 -0.60106575032E+01  0.35051508046E+02 -0.37835037116E+02  0.13535592434E+03  0.12500000000E+03 0.  0.
</event>
<event>
 5    0  0.5583350E-005  0.2442817E+03  0.7546771E-02  0.1116973E+00
         21   -1    0    0  502  501  0.00000000000E+00  0.00000000000E+00  0.11119507401E+03  0.11119507401E+03  0.00000000000E+00 0.  1.
         21   -1    0    0  501  502 -0.00000000000E+00 -0.00000000000E+00 -0.53665656414E+03  0.53665656414E+03  0.00000000000E+00 0.  1.
         25    1    1    2    0    0  0.64185735317E+02 -0.63752581903E+02 -0.50962032740E+02  0.16250024338E+03  0.12500000000E+03 0.  0.
         25    1    1    2    0    0  0.83210541246E+01 -0.37474655674E+02 -0.18360433482E+03  0.22540883195E+03  0.12500000000E+03 0.  0.
         25    1    1    2    0    0 -0.72506789442E+02  0.10122723758E+03 -0.19089512257E+03  0.25994256282E+03  0.12500000000E+03 0.  0.
</event>
<event>
 5    0  0.5583350E-005  0.3597111E+03  0.7546771E-02  0.1058698E+00
         21   -1    0    0  502  501  0.00000000000E+00  0.00000000000E+00  0.70260391477E+02  0.70260391477E+02  0.00000000000E+00 0. -1.
         21   -1    0    0  501  502 -0.00000000000E+00 -0.00000000000E+00 -0.18416076916E+04  0.18416076916E+04  0.00000000000E+00 0. -1.
         25    1    1    2    0    0  0.21809679385E+03  0.19421525448E+02 -0.65307153155E+03  0.70005059279E+03  0.12500000000E+03 0.  0.
         25    1    1    2    0    0 -0.14560102809E+03  0.14751938559E+03 -0.66365469817E+03  0.70641644015E+03  0.12500000000E+03 0.  0.
         25    1    1    2    0    0 -0.72495765765E+02 -0.16694091104E+03 -0.45462107040E+03  0.50540105015E+03  0.12500000000E+03 0.  0.
</event>
<event>
 5    0  0.5583350E-005  0.3084994E+03  0.7546771E-02  0.1081067E+00
         21   -1    0    0  502  501  0.00000000000E+00  0.00000000000E+00  0.47260741445E+02  0.47260741445E+02  0.00000000000E+00 0.  1.
         21   -1    0    0  501  502 -0.00000000000E+00 -0.00000000000E+00 -0.20137614817E+04  0.20137614817E+04  0.00000000000E+00 0.  1.
         25    1    1    2    0    0  0.11244452724E+02 -0.74426714277E+02 -0.43207912103E+03  0.45605168605E+03  0.12500000000E+03 0.  0.
         25    1    1    2    0    0 -0.71435849865E+02  0.13119098743E+03 -0.13646968319E+04  0.13785269670E+04  0.12500000000E+03 0.  0.
         25    1    1    2    0    0  0.60191397142E+02 -0.56764273154E+02 -0.16972478735E+03  0.22644357010E+03  0.12500000000E+03 0.  0.
</event>
<event>
 5    0  0.5583350E-005  0.3601030E+03  0.7546771E-02  0.1058543E+00
         21   -1    0    0  502  501  0.00000000000E+00  0.00000000000E+00  0.40135592948E+03  0.40135592948E+03  0.00000000000E+00 0. -1.
         21   -1    0    0  501  502 -0.00000000000E+00 -0.00000000000E+00 -0.32309025581E+03  0.32309025581E+03  0.00000000000E+00 0. -1.
         25    1    1    2    0    0  0.21588394700E+03 -0.23849379955E+02  0.20338722550E+03  0.32274763360E+03  0.12500000000E+03 0.  0.
         25    1    1    2    0    0 -0.66168953077E+02 -0.50795905016E+02  0.13750323932E+02  0.15090601620E+03  0.12500000000E+03 0.  0.
         25    1    1    2    0    0 -0.14971499392E+03  0.74645284972E+02 -0.13887187578E+03  0.25079253549E+03  0.12500000000E+03 0.  0.
</event>
<event>
 5    0  0.5583350E-005  0.2601651E+03  0.7546771E-02  0.1107044E+00
         21   -1    0    0  502  501  0.00000000000E+00  0.00000000000E+00  0.20671991559E+03  0.20671991559E+03  0.00000000000E+00 0.  1.
         21   -1    0    0  501  502 -0.00000000000E+00 -0.00000000000E+00 -0.32742797503E+03  0.32742797503E+03  0.00000000000E+00 0.  1.
         25    1    1    2    0    0 -0.86000454621E+02  0.11625665019E+03 -0.10809815669E+03  0.21959485055E+03  0.12500000000E+03 0.  0.
         25    1    1    2    0    0  0.29706622132E+02 -0.22933964658E+02 -0.57690807072E+02  0.14269435642E+03  0.12500000000E+03 0.  0.
         25    1    1    2    0    0  0.56293832489E+02 -0.93322685534E+02  0.45080904322E+02  0.17185868365E+03  0.12500000000E+03 0.  0.
</event>
<event>
 5    0  0.5583350E-005  0.2482795E+03  0.7546771E-02  0.1114397E+00
         21   -1    0    0  502  501  0.00000000000E+00  0.00000000000E+00  0.89393102645E+03  0.89393102645E+03  0.00000000000E+00 0. -1.
         21   -1    0    0  501  502 -0.00000000000E+00 -0.00000000000E+00 -0.68956902207E+02  0.68956902207E+02  0.00000000000E+00 0. -1.
         25    1    1    2    0    0 -0.20892138976E+02 -0.34635424781E+01  0.23615285100E+03  0.26803292080E+03  0.12500000000E+03 0.  0.
         25    1    1    2    0    0 -0.43830337426E+02 -0.12158815925E+03  0.26418666914E+03  0.31956904591E+03  0.12500000000E+03 0.  0.
         25    1    1    2    0    0  0.64722476402E+02  0.12505170173E+03  0.32463460410E+03  0.37528596195E+03  0.12500000000E+03 0.  0.
</event>
<event>
 5    0  0.5583350E-005  0.3018472E+03  0.7546771E-02  0.1084321E+00
         21   -1    0    0  502  501  0.00000000000E+00  0.00000000000E+00  0.22425596299E+03  0.22425596299E+03  0.00000000000E+00 0. -1.
         21   -1    0    0  501  502 -0.00000000000E+00 -0.00000000000E+00 -0.40628452508E+03  0.40628452508E+03  0.00000000000E+00 0. -1.
         25    1    1    2    0    0 -0.46958575364E+02  0.67647208689E+02 -0.24405106508E+03  0.28629910061E+03  0.12500000000E+03 0.  0.
         25    1    1    2    0    0  0.12377029066E+03 -0.66848493251E+02  0.95535615638E+01  0.18842525425E+03  0.12500000000E+03 0.  0.
         25    1    1    2    0    0 -0.76811715297E+02 -0.79871543788E+00  0.52468941426E+02  0.15581613321E+03  0.12500000000E+03 0.  0.
</event>
<event>
 5    0  0.5583350E-005  0.2599697E+03  0.7546771E-02  0.1107161E+00
         21   -1    0    0  502  501  0.00000000000E+00  0.00000000000E+00  0.27876739234E+03  0.27876739234E+03  0.00000000000E+00 0.  1.
         21   -1    0    0  501  502 -0.00000000000E+00 -0.00000000000E+00 -0.24243958844E+03  0.24243958844E+03  0.00000000000E+00 0. -1.
         25    1    1    2    0    0 -0.95659764337E+01  0.20705596361E+02  0.47611744126E+02  0.13569122228E+03  0.12500000000E+03 0.  0.
         25    1    1    2    0    0  0.10202170371E+03 -0.81255034988E+02  0.77427735149E+02  0.19654735539E+03  0.12500000000E+03 0.  0.
         25    1    1    2    0    0 -0.92455727275E+02  0.60549438627E+02 -0.88711675373E+02  0.18896840310E+03  0.12500000000E+03 0.  0.
</event>
<event>
 5    0  0.5583350E-005  0.3507653E+03  0.7546771E-02  0.1062301E+00
         21   -1    0    0  502  501  0.00000000000E+00  0.00000000000E+00  0.84605236946E+03  0.84605236946E+03  0.00000000000E+00 0.  1.
         21   -1    0    0  501  502 -0.00000000000E+00 -0.00000000000E+00 -0.14542398755E+03  0.14542398755E+03  0.00000000000E+00 0.  1.
         25    1    1    2    0    0 -0.14580289985E+03  0.72577070441E+02  0.45832731702E+03  0.50220996235E+03  0.12500000000E+03 0.  0.
         25    1    1    2    0    0  0.18134840215E+03 -0.14748238791E+03  0.20392369438E+03  0.33443709548E+03  0.12500000000E+03 0.  0.
         25    1    1    2    0    0 -0.35545502301E+02  0.74905317465E+02  0.38377370516E+02  0.15482929918E+03  0.12500000000E+03 0.  0.
</event>
<event>
 5    0  0.5677060E-005  0.2942688E+03  0.7546771E-02  0.1088141E+00
         21   -1    0    0  502  501  0.00000000000E+00  0.00000000000E+00  0.26491490271E+03  0.26491490271E+03  0.00000000000E+00 0. -1.
         21   -1    0    0  501  502 -0.00000000000E+00 -0.00000000000E+00 -0.32687520450E+03  0.32687520450E+03  0.00000000000E+00 0. -1.
         25    1    1    2    0    0 -0.10078199155E+03 -0.53670403786E+02 -0.10901085926E+03  0.20136009907E+03  0.12500000000E+03 0.  0.
         25    1    1    2    0    0  0.10756125302E+03  0.13251387339E+03  0.99079309210E+02  0.23360449334E+03  0.12500000000E+03 0.  0.
         25    1    1    2    0    0 -0.67792614748E+01 -0.78843469606E+02 -0.52028751739E+02  0.15682551480E+03  0.12500000000E+03 0.  0.
</event>
<event>
 5    0  0.5583350E-005  0.3695119E+03  0.7546771E-02  0.1054880E+00
         21   -1    0    0  502  501  0.00000000000E+00  0.00000000000E+00  0.28693615335E+04  0.28693615335E+04  0.00000000000E+00 0. -1.
         21   -1    0    0  501  502 -0.00000000000E+00 -0.00000000000E+00 -0.47585164563E+02  0.47585164563E+02  0.00000000000E+00 0. -1.
         25    1    1    2    0    0  0.47587143247E+01  0.23251113079E+03  0.16458609736E+04  0.16669035412E+04  0.12500000000E+03 0.  0.
         25    1    1    2    0    0  0.11306948929E+03 -0.17229567856E+03  0.62695867317E+03  0.67169389465E+03  0.12500000000E+03 0.  0.
         25    1    1    2    0    0 -0.11782820362E+03 -0.60215452235E+02  0.54895672210E+03  0.57834926212E+03  0.12500000000E+03 0.  0.
</event>
<event>
 5    0  0.5583350E-005  0.3070420E+03  0.7546771E-02  0.1081772E+00
         21   -1    0    0  502  501  0.00000000000E+00  0.00000000000E+00  0.10240631012E+03  0.10240631012E+03  0.00000000000E+00 0.  1.
         21   -1    0    0  501  502 -0.00000000000E+00 -0.00000000000E+00 -0.92059522066E+03  0.92059522066E+03  0.00000000000E+00 0.  1.
         25    1    1    2    0    0  0.37617940836E+02 -0.22079113358E+02 -0.25603577206E+03  0.28823933336E+03  0.12500000000E+03 0.  0.
         25    1    1    2    0    0 -0.18063659133E+03  0.19713702929E+02 -0.11456643836E+03  0.24853305013E+03  0.12500000000E+03 0.  0.
         25    1    1    2    0    0  0.14301865049E+03  0.23654104295E+01 -0.44758670012E+03  0.48622914730E+03  0.12500000000E+03 0.  0.
</event>
<event>
 5    0  0.5583350E-005  0.2620915E+03  0.7546771E-02  0.1105893E+00
         21   -1    0    0  502  501  0.00000000000E+00  0.00000000000E+00  0.79091527832E+02  0.79091527832E+02  0.00000000000E+00 0. -1.
         21   -1    0    0  501  502 -0.00000000000E+00 -0.00000000000E+00 -0.86851218489E+03  0.86851218489E+03  0.00000000000E+00 0. -1.
         25    1    1    2    0    0  0.76544001572E+02  0.71795564280E+02 -0.34790534126E+03  0.38428728018E+03  0.12500000000E+03 0.  0.
         25    1    1    2    0    0 -0.76630162163E+02 -0.10194431753E+03 -0.11502060083E+03  0.21241366304E+03  0.12500000000E+03 0.  0.
         25    1    1    2    0    0  0.86160590885E-01  0.30148753252E+02 -0.32649471497E+03  0.35090276951E+03  0.12500000000E+03 0.  0.
</event>
<event>
 5    0  0.5583350E-005  0.4169927E+03  0.7546771E-02  0.1038050E+00
         21   -1    0    0  502  501  0.00000000000E+00  0.00000000000E+00  0.75910810555E+03  0.75910810555E+03  0.00000000000E+00 0.  1.
         21   -1    0    0  501  502 -0.00000000000E+00 -0.00000000000E+00 -0.22906208225E+03  0.22906208225E+03  0.00000000000E+00 0.  1.
         25    1    1    2    0    0 -0.18000617776E+03  0.20962826338E+03  0.97466516274E+02  0.31854505903E+03  0.12500000000E+03 0.  0.
         25    1    1    2    0    0  0.27286104245E+03 -0.17217199588E+03  0.25071327850E+03  0.42729204611E+03  0.12500000000E+03 0.  0.
         25    1    1    2    0    0 -0.92854864684E+02 -0.37456267493E+02  0.18186622853E+03  0.24233308266E+03  0.12500000000E+03 0.  0.
</event>
<event>
 5    0  0.5583350E-005  0.3209418E+03  0.7546771E-02  0.1075217E+00
         21   -1    0    0  502  501  0.00000000000E+00  0.00000000000E+00  0.19766758718E+04  0.19766758718E+04  0.00000000000E+00 0.  1.
         21   -1    0    0  501  502 -0.00000000000E+00 -0.00000000000E+00 -0.52109518264E+02  0.52109518264E+02  0.00000000000E+00 0.  1.
         25    1    1    2    0    0  0.15514813733E+02 -0.95462402252E+02  0.26859731432E+03  0.31164610851E+03  0.12500000000E+03 0.  0.
         25    1    1    2    0    0 -0.10079749714E+03 -0.93628353003E+02  0.10162906127E+04  0.10331495600E+04  0.12500000000E+03 0.  0.
         25    1    1    2    0    0  0.85282683411E+02  0.18909075526E+03  0.63967842656E+03  0.68398972157E+03  0.12500000000E+03 0.  0.
</event>
<event>
 5    0  0.5583350E-005  0.3423250E+03  0.7546771E-02  0.1065810E+00
         21   -1    0    0  502  501  0.00000000000E+00  0.00000000000E+00  0.72471710540E+03  0.72471710540E+03  0.00000000000E+00 0.  1.
         21   -1    0    0  501  502 -0.00000000000E+00 -0.00000000000E+00 -0.16169951012E+03  0.16169951012E+03  0.00000000000E+00 0.  1.
         25    1    1    2    0    0 -0.98876961381E+02 -0.23352698507E+03  0.27780732426E+03  0.39637534694E+03  0.12500000000E+03 0.  0.
         25    1    1    2    0    0  0.70515970418E+02  0.19952952397E+03  0.25473256139E+03  0.35397487320E+03  0.12500000000E+03 0.  0.
         25    1    1    2    0    0  0.28360990964E+02  0.33997461099E+02  0.30477709620E+02  0.13606639539E+03  0.12500000000E+03 0.  0.
</event>
<event>
 5    0  0.5583350E-005  0.3098340E+03  0.7546771E-02  0.1080425E+00
         21   -1    0    0  502  501  0.00000000000E+00  0.00000000000E+00  0.19121487613E+03  0.19121487613E+03  0.00000000000E+00 0.  1.
         21   -1    0    0  501  502 -0.00000000000E+00 -0.00000000000E+00 -0.50203776771E+03  0.50203776771E+03  0.00000000000E+00 0.  1.
         25    1    1    2    0    0 -0.41740445981E+02 -0.17948746595E+03 -0.14789543473E+03  0.26731269120E+03  0.12500000000E+03 0.  0.
         25    1    1    2    0    0 -0.90869126693E+02  0.29097127827E+02 -0.63303245134E+02  0.16951737928E+03  0.12500000000E+03 0.  0.
         25    1    1    2    0    0  0.13260957267E+03  0.15039033812E+03 -0.99624211708E+02  0.25642257335E+03  0.12500000000E+03 0.  0.
</event>
<event>
 5    0  0.5583350E-005  0.2617330E+03  0.7546771E-02  0.1106106E+00
         21   -1    0    0  502  501  0.00000000000E+00  0.00000000000E+00  0.23438669355E+03  0.23438669355E+03  0.00000000000E+00 0. -1.
         21   -1    0    0  501  502 -0.00000000000E+00 -0.00000000000E+00 -0.29226982606E+03  0.29226982606E+03  0.00000000000E+00 0. -1.
         25    1    1    2    0    0 -0.12027231091E+01  0.13976071824E+03 -0.11103219944E+02  0.18783712732E+03  0.12500000000E+03 0.  0.
         25    1    1    2    0    0 -0.21445920704E+02 -0.15982378615E+03 -0.68203589798E+01  0.20414477077E+03  0.12500000000E+03 0.  0.
         25    1    1    2    0    0  0.22648643813E+02  0.20063067914E+02 -0.39959553589E+02  0.13467462153E+03  0.12500000000E+03 0.  0.
</event>
<event>
 5    0  0.5602255E-005  0.3120226E+03  0.7546771E-02  0.1079380E+00
         21   -1    0    0  502  501  0.00000000000E+00  0.00000000000E+00  0.45208432574E+03  0.45208432574E+03  0.00000000000E+00 0.  1.
         21   -1    0    0  501  502 -0.00000000000E+00 -0.00000000000E+00 -0.21535383232E+03  0.21535383232E+03  0.00000000000E+00 0.  1.
         25    1    1    2    0    0  0.22087282440E+02 -0.67863986411E+02  0.12239157637E+03  0.18893932006E+03  0.12500000000E+03 0.  0.
         25    1    1    2    0    0 -0.10064603773E+03 -0.11361994226E+03  0.14253009500E+03  0.24285580943E+03  0.12500000000E+03 0.  0.
         25    1    1    2    0    0  0.78558755294E+02  0.18148392867E+03 -0.28191177959E+02  0.23564302857E+03  0.12500000000E+03 0.  0.
</event>
<event>
 5    0  0.5583350E-005  0.2391195E+03  0.7546771E-02  0.1120381E+00
         21   -1    0    0  502  501  0.00000000000E+00  0.00000000000E+00  0.23754264253E+03  0.23754264253E+03  0.00000000000E+00 0. -1.
         21   -1    0    0  501  502 -0.00000000000E+00 -0.00000000000E+00 -0.24070676522E+03  0.24070676522E+03  0.00000000000E+00 0. -1.
         25    1    1    2    0    0 -0.10042545472E+03 -0.54708821609E+02  0.61029610191E+01  0.16953044933E+03  0.12500000000E+03 0.  0.
         25    1    1    2    0    0 -0.94671814472E+01  0.41774675184E+02 -0.41901432218E+02  0.13861991572E+03  0.12500000000E+03 0.  0.
         25    1    1    2    0    0  0.10989263617E+03  0.12934146424E+02  0.32634348504E+02  0.17009904271E+03  0.12500000000E+03 0.  0.
</event>
<event>
 5    0  0.5583350E-005  0.2127946E+03  0.7546771E-02  0.1139372E+00
         21   -1    0    0  502  501  0.00000000000E+00  0.00000000000E+00  0.15697464830E+03  0.15697464830E+03  0.00000000000E+00 0.  1.
         21   -1    0    0  501  502 -0.00000000000E+00 -0.00000000000E+00 -0.28846409716E+03  0.28846409716E+03  0.00000000000E+00 0.  1.
         25    1    1    2    0    0 -0.10629872061E+02 -0.32165520627E+02  0.70015959699E+01  0.12969825459E+03  0.12500000000E+03 0.  0.
         25    1    1    2    0    0  0.87669022102E+01  0.52062470152E+02 -0.13150561585E+03  0.18896054184E+03  0.12500000000E+03 0.  0.
         25    1    1    2    0    0  0.18629698511E+01 -0.19896949525E+02 -0.69854289779E+01  0.12677994903E+03  0.12500000000E+03 0.  0.
</event>
<event>
 5    0  0.5583350E-005  0.2224040E+03  0.7546771E-02  0.1132103E+00
         21   -1    0    0  502  501  0.00000000000E+00  0.00000000000E+00  0.99942984879E+02  0.99942984879E+02  0.00000000000E+00 0.  1.
         21   -1    0    0  501  502 -0.00000000000E+00 -0.00000000000E+00 -0.49491755644E+03  0.49491755644E+03  0.00000000000E+00 0.  1.
         25    1    1    2    0    0  0.23503136221E+02 -0.17149179983E+02 -0.24251768551E+02  0.13061255707E+03  0.12500000000E+03 0.  0.
         25    1    1    2    0    0 -0.17799228441E+02  0.47488647365E+02 -0.11228755332E+03  0.17551489621E+03  0.12500000000E+03 0.  0.
         25    1    1    2    0    0 -0.57039077797E+01 -0.30339467382E+02 -0.25843524969E+03  0.28873308804E+03  0.12500000000E+03 0.  0.
</event>
<event>
 5    0  0.5583350E-005  0.4600777E+03  0.7546771E-02  0.1024759E+00
         21   -1    0    0  502  501  0.00000000000E+00  0.00000000000E+00  0.10444142503E+04  0.10444142503E+04  0.00000000000E+00 0.  1.
         21   -1    0    0  501  502 -0.00000000000E+00 -0.00000000000E+00 -0.20267005010E+03  0.20267005010E+03  0.00000000000E+00 0.  1.
         25    1    1    2    0    0  0.78254145022E+02  0.10311565954E+03  0.78529332044E+03  0.80564703784E+03  0.12500000000E+03 0.  0.
         25    1    1    2    0    0 -0.18140020405E+03  0.35212705976E+02  0.48001649420E+02  0.22819975249E+03  0.12500000000E+03 0.  0.
         25    1    1    2    0    0  0.10314605903E+03 -0.13832836552E+03  0.84492303303E+01  0.21323751005E+03  0.12500000000E+03 0.  0.
</event>
<event>
 5    0  0.5583350E-005  0.5815857E+03  0.7546771E-02  0.9944364E-01
         21   -1    0    0  502  501  0.00000000000E+00  0.00000000000E+00  0.19014578806E+04  0.19014578806E+04  0.00000000000E+00 0. -1.
         21   -1    0    0  501  502 -0.00000000000E+00 -0.00000000000E+00 -0.17788557909E+03  0.17788557909E+03  0.00000000000E+00 0. -1.
         25    1    1    2    0    0 -0.16784266892E+03 -0.23831797610E+03  0.15689178140E+04  0.16006544682E+04  0.12500000000E+03 0.  0.
         25    1    1    2    0    0  0.90013220420E+02  0.15818445910E+03 -0.37206036719E+02  0.22390621278E+03  0.12500000000E+03 0.  0.
         25    1    1    2    0    0  0.77829448497E+02  0.80133516994E+02  0.19186052418E+03  0.25478277873E+03  0.12500000000E+03 0.  0.
</event>
<event>
 5    0  0.5583350E-005  0.3205188E+03  0.7546771E-02  0.1075411E+00
         21   -1    0    0  502  501  0.00000000000E+00  0.00000000000E+00  0.10860469598E+04  0.10860469598E+04  0.00000000000E+00 0. -1.
         21   -1    0    0  501  502 -0.00000000000E+00 -0.00000000000E+00 -0.94592881708E+02  0.94592881708E+02  0.00000000000E+00 0. -1.
         25    1    1    2    0    0  0.73697147440E+01 -0.62567896168E+01  0.85147792058E+02  0.15155397258E+03  0.12500000000E+03 0.  0.
         25    1    1    2    0    0 -0.17323920206E+03 -0.82648054847E+02  0.64056606926E+03  0.68028847645E+03  0.12500000000E+03 0.  0.
         25    1    1    2    0    0  0.16586948732E+03  0.88904844464E+02  0.26574021677E+03  0.34879739248E+03  0.12500000000E+03 0.  0.
</event>
<event>
 5    0  0.5583350E-005  0.1991366E+03  0.7546771E-02  0.1150469E+00
         21   -1    0    0  502  501  0.00000000000E+00  0.00000000000E+00  0.87792811549E+02  0.87792811549E+02  0.00000000000E+00 0. -1.
         21   -1    0    0  501  502 -0.00000000000E+00 -0.00000000000E+00 -0.45169291870E+03  0.45169291870E+03  0.00000000000E+00 0. -1.
         25    1    1    2    0    0 -0.38246770275E+01  0.47577862032E+02 -0.11024851119E+03  0.17337247570E+03  0.12500000000E+03 0.  0.
         25    1    1    2    0    0  0.16833444534E+01 -0.30538470045E+02 -0.80228911247E+02  0.15164798054E+03  0.12500000000E+03 0.  0.
         25    1    1    2    0    0  0.21413325741E+01 -0.17039391988E+02 -0.17342268471E+03  0.21446527401E+03  0.12500000000E+03 0.  0.
</event>
<event>
 5    0  0.5583350E-005  0.3373913E+03  0.7546771E-02  0.1067912E+00
         21   -1    0    0  502  501  0.00000000000E+00  0.00000000000E+00  0.21396367554E+03  0.21396367554E+03  0.00000000000E+00 0. -1.
         21   -1    0    0  501  502 -0.00000000000E+00 -0.00000000000E+00 -0.53201965681E+03  0.53201965681E+03  0.00000000000E+00 0. -1.
         25    1    1    2    0    0 -0.83053165620E+02 -0.55053862698E+02  0.18014832004E+01  0.15986557309E+03  0.12500000000E+03 0.  0.
         25    1    1    2    0    0  0.21843548008E+02 -0.17374350998E+03 -0.90072203228E+02  0.23324225527E+03  0.12500000000E+03 0.  0.
         25    1    1    2    0    0  0.61209617612E+02  0.22879737268E+03 -0.22978526124E+03  0.35287550399E+03  0.12500000000E+03 0.  0.
</event>
<event>
 5    0  0.5583350E-005  0.2285527E+03  0.7546771E-02  0.1127663E+00
         21   -1    0    0  502  501  0.00000000000E+00  0.00000000000E+00  0.82677837296E+02  0.82677837296E+02  0.00000000000E+00 0. -1.
         21   -1    0    0  501  502 -0.00000000000E+00 -0.00000000000E+00 -0.63180574816E+03  0.63180574816E+03  0.00000000000E+00 0. -1.
         25    1    1    2    0    0  0.89705392663E+02 -0.24492205236E+01 -0.14336196923E+03  0.21031098491E+03  0.12500000000E+03 0.  0.
         25    1    1    2    0    0 -0.57320945964E+02  0.68951464955E+02 -0.20048744272E+03  0.25270577764E+03  0.12500000000E+03 0.  0.
         25    1    1    2    0    0 -0.32384446699E+02 -0.66502244432E+02 -0.20527849892E+03  0.25146682290E+03  0.12500000000E+03 0.  0.
</event>
<event>
 5    0  0.5583350E-005  0.3900715E+03  0.7546771E-02  0.1047273E+00
         21   -1    0    0  502  501  0.00000000000E+00  0.00000000000E+00  0.79673111303E+03  0.79673111303E+03  0.00000000000E+00 0. -1.
         21   -1    0    0  501  502 -0.00000000000E+00 -0.00000000000E+00 -0.19097507595E+03  0.19097507595E+03  0.00000000000E+00 0. -1.
         25    1    1    2    0    0  0.26342816835E+01 -0.42315482782E+02 -0.56033994512E+02  0.14339577422E+03  0.12500000000E+03 0.  0.
         25    1    1    2    0    0  0.78827396328E+02 -0.21038238649E+01 -0.16198449744E+02  0.14867943456E+03  0.12500000000E+03 0.  0.
         25    1    1    2    0    0 -0.81461678012E+02  0.44419306647E+02  0.67798848133E+03  0.69563098020E+03  0.12500000000E+03 0.  0.
</event>
<event>
 5    0  0.5583350E-005  0.2941368E+03  0.7546771E-02  0.1088209E+00
         21   -1    0    0  502  501  0.00000000000E+00  0.00000000000E+00  0.73656520923E+03  0.73656520923E+03  0.00000000000E+00 0.  1.
         21   -1    0    0  501  502 -0.00000000000E+00 -0.00000000000E+00 -0.11745932575E+03  0.11745932575E+03  0.00000000000E+00 0.  1.
         25    1    1    2    0    0  0.77902254316E+02 -0.16093439056E+03  0.34947807464E+03  0.41198126650E+03  0.12500000000E+03 0.  0.
         25    1    1    2    0    0 -0.93448186554E+02  0.97479370236E+02  0.68408337250E+02  0.19631477733E+03  0.12500000000E+03 0.  0.
         25    1    1    2    0    0  0.15545932238E+02  0.63455020324E+02  0.20121947159E+03  0.24572849114E+03  0.12500000000E+03 0.  0.
</event>
<event>
 5    0  0.5858436E-005  0.2653854E+03  0.7546771E-02  0.1103950E+00
         21   -1    0    0  502  501  0.00000000000E+00  0.00000000000E+00  0.16240256000E+03  0.16240256000E+03  0.00000000000E+00 0. -1.
         21   -1    0    0  501  502 -0.00000000000E+00 -0.00000000000E+00 -0.43367174912E+03  0.43367174912E+03  0.00000000000E+00 0. -1.
         25    1    1    2    0    0  0.67866115399E+02  0.42589523762E+02 -0.72254975796E+02  0.16512255655E+03  0.12500000000E+03 0.  0.
         25    1    1    2    0    0 -0.12495490403E+03 -0.21273721877E+02 -0.22762985933E+03  0.28897517565E+03  0.12500000000E+03 0.  0.
         25    1    1    2    0    0  0.57088788632E+02 -0.21315801885E+02  0.28615646011E+02  0.14197657692E+03  0.12500000000E+03 0.  0.
</event>
<event>
 5    0  0.5583350E-005  0.2426482E+03  0.7546771E-02  0.1118041E+00
         21   -1    0    0  502  501  0.00000000000E+00  0.00000000000E+00  0.40170283918E+02  0.40170283918E+02  0.00000000000E+00 0.  1.
         21   -1    0    0  501  502 -0.00000000000E+00 -0.00000000000E+00 -0.14657134340E+04  0.14657134340E+04  0.00000000000E+00 0.  1.
         25    1    1    2    0    0  0.86396244442E+02  0.44728371632E+02 -0.39108827117E+03  0.42194783342E+03  0.12500000000E+03 0.  0.
         25    1    1    2    0    0 -0.12132083937E+03  0.83509755999E+01 -0.69745355275E+03  0.71892624316E+03  0.12500000000E+03 0.  0.
         25    1    1    2    0    0  0.34924594926E+02 -0.53079347232E+02 -0.33700132614E+03  0.36500964131E+03  0.12500000000E+03 0.  0.
</event>
<event>
 5    0  0.5583350E-005  0.2464624E+03  0.7546771E-02  0.1115561E+00
         21   -1    0    0  502  501  0.00000000000E+00  0.00000000000E+00  0.28115061540E+02  0.28115061540E+02  0.00000000000E+00 0. -1.
         21   -1    0    0  501  502 -0.00000000000E+00 -0.00000000000E+00 -0.21605392584E+04  0.21605392584E+04  0.00000000000E+00 0. -1.
         25    1    1    2    0    0  0.79970621629E+01 -0.29853115041E+02 -0.47501329851E+03  0.49215627116E+03  0.12500000000E+03 0.  0.
         25    1    1    2    0    0  0.85008311196E+02 -0.78755694305E+02 -0.70249000021E+03  0.72287348323E+03  0.12500000000E+03 0.  0.
         25    1    1    2    0    0 -0.93005373359E+02  0.10860880935E+03 -0.95492089811E+03  0.97362456553E+03  0.12500000000E+03 0.  0.
</event>
<event>
 5    0  0.5583350E-005  0.3203726E+03  0.7546771E-02  0.1075478E+00
         21   -1    0    0  502  501  0.00000000000E+00  0.00000000000E+00  0.42254752907E+03  0.42254752907E+03  0.00000000000E+00 0. -1.
         21   -1    0    0  501  502 -0.00000000000E+00 -0.00000000000E+00 -0.24290427407E+03  0.24290427407E+03  0.00000000000E+00 0. -1.
         25    1    1    2    0    0 -0.15438219439E+03 -0.17831915039E+01  0.44631553973E+01  0.19870068312E+03  0.12500000000E+03 0.  0.
         25    1    1    2    0    0 -0.69822591358E+02 -0.72643332256E+02  0.32596906731E+02  0.16382858821E+03  0.12500000000E+03 0.  0.
         25    1    1    2    0    0  0.22420478575E+03  0.74426523760E+02  0.14258319287E+03  0.30292253181E+03  0.12500000000E+03 0.  0.
</event>
<event>
 5    0  0.5583350E-005  0.4957496E+03  0.7546771E-02  0.1014894E+00
         21   -1    0    0  502  501  0.00000000000E+00  0.00000000000E+00  0.18775042328E+04  0.18775042328E+04  0.00000000000E+00 0.  1.
         21   -1    0    0  501  502 -0.00000000000E+00 -0.00000000000E+00 -0.13090125763E+03  0.13090125763E+03  0.00000000000E+00 0.  1.
         25    1    1    2    0    0 -0.28744243410E+02 -0.14957368802E+03  0.10980275719E+04  0.11155662545E+04  0.12500000000E+03 0.  0.
         25    1    1    2    0    0 -0.13947611807E+03  0.65460440542E+01 -0.93931256853E+01  0.18764239664E+03  0.12500000000E+03 0.  0.
         25    1    1    2    0    0  0.16822036148E+03  0.14302764396E+03  0.65796852905E+03  0.70519683931E+03  0.12500000000E+03 0.  0.
</event>
<event>
 5    0  0.5583350E-005  0.2354544E+03  0.7546771E-02  0.1122859E+00
         21   -1    0    0  502  501  0.00000000000E+00  0.00000000000E+00  0.82166632976E+03  0.82166632976E+03  0.00000000000E+00 0. -1.
         21   -1    0    0  501  502 -0.00000000000E+00 -0.00000000000E+00 -0.67471142920E+02  0.67471142920E+02  0.00000000000E+00 0. -1.
         25    1    1    2    0    0 -0.45358884518E+02  0.34239520434E+01  0.20903005192E+03  0.24776544242E+03  0.12500000000E+03 0.  0.
         25    1    1    2    0    0 -0.71409862688E+02  0.59117980057E+02  0.25935036818E+03  0.30245977836E+03  0.12500000000E+03 0.  0.
         25    1    1    2    0    0  0.11676874721E+03 -0.62541932101E+02  0.28581476674E+03  0.33891225189E+03  0.12500000000E+03 0.  0.
</event>
<event>
 5    0  0.5583350E-005  0.3591708E+03  0.7546771E-02  0.1058913E+00
         21   -1    0    0  502  501  0.00000000000E+00  0.00000000000E+00  0.59849445351E+03  0.59849445351E+03  0.00000000000E+00 0.  1.
         21   -1    0    0  501  502 -0.00000000000E+00 -0.00000000000E+00 -0.21554695400E+03  0.21554695400E+03  0.00000000000E+00 0.  1.
         25    1    1    2    0    0 -0.16965815798E+03  0.79304122186E+02  0.31714979492E+03  0.38894990266E+03  0.12500000000E+03 0.  0.
         25    1    1    2    0    0  0.70829753178E+02  0.47549611540E+02 -0.83232460969E+02  0.17271497344E+03  0.12500000000E+03 0.  0.
         25    1    1    2    0    0  0.98828404805E+02 -0.12685373373E+03  0.14903016556E+03  0.25237653140E+03  0.12500000000E+03 0.  0.
</event>
<event>
 5    0  0.5583350E-005  0.2915267E+03  0.7546771E-02  0.1089555E+00
         21   -1    0    0  502  501  0.00000000000E+00  0.00000000000E+00  0.54220533899E+02  0.54220533899E+02  0.00000000000E+00 0.  1.
         21   -1    0    0  501  502 -0.00000000000E+00 -0.00000000000E+00 -0.15674469282E+04  0.15674469282E+04  0.00000000000E+00 0.  1.
         25    1    1    2    0    0 -0.24325893956E+02  0.96634600299E+02 -0.23893564125E+03  0.28748084415E+03  0.12500000000E+03 0.  0.
         25    1    1    2    0    0 -0.91857628360E+02 -0.13905041900E+03 -0.53158195760E+03  0.57094414837E+03  0.12500000000E+03 0.  0.
         25    1    1    2    0    0  0.11618352232E+03  0.42415818702E+02 -0.74270879546E+03  0.76324246959E+03  0.12500000000E+03 0.  0.
</event>
<event>
 5    0  0.5583350E-005  0.3898569E+03  0.7546771E-02  0.1047350E+00
         21   -1    0    0  502  501  0.00000000000E+00  0.00000000000E+00  0.47570844606E+03  0.47570844606E+03  0.00000000000E+00 0. -1.
         21   -1    0    0  501  502 -0.00000000000E+00 -0.00000000000E+00 -0.31949899615E+03  0.31949899615E+03  0.00000000000E+00 0. -1.
         25    1    1    2    0    0 -0.20024794375E+02 -0.10594399403E+03  0.18737056881E+03  0.24971554280E+03  0.12500000000E+03 0.  0.
         25    1    1    2    0    0 -0.49970948986E+02 -0.17850386137E+03 -0.38774654396E+02  0.22691231366E+03  0.12500000000E+03 0.  0.
         25    1    1    2    0    0  0.69995743361E+02  0.28444785540E+03  0.76135354973E+01  0.31857958575E+03  0.12500000000E+03 0.  0.
</event>
<event>
 5    0  0.5583350E-005  0.2472771E+03  0.7546771E-02  0.1115038E+00
         21   -1    0    0  502  501  0.00000000000E+00  0.00000000000E+00  0.68101814101E+02  0.68101814101E+02  0.00000000000E+00 0. -1.
         21   -1    0    0  501  502 -0.00000000000E+00 -0.00000000000E+00 -0.89786131181E+03  0.89786131181E+03  0.00000000000E+00 0. -1.
         25    1    1    2    0    0 -0.23620915975E+02 -0.27472460027E+02 -0.45571687299E+03  0.47393623206E+03  0.12500000000E+03 0.  0.
         25    1    1    2    0    0 -0.58759253241E+02  0.24733583783E+02 -0.28539033666E+03  0.31802050919E+03  0.12500000000E+03 0.  0.
         25    1    1    2    0    0  0.82380169216E+02  0.27388762440E+01 -0.88652288056E+02  0.17400638466E+03  0.12500000000E+03 0.  0.
</event>
<event>
 5    0  0.5583350E-005  0.2966905E+03  0.7546771E-02  0.1086907E+00
         21   -1    0    0  502  501  0.00000000000E+00  0.00000000000E+00  0.73627928319E+03  0.73627928319E+03  0.00000000000E+00 0. -1.
         21   -1    0    0  501  502 -0.00000000000E+00 -0.00000000000E+00 -0.11955419173E+03  0.11955419173E+03  0.00000000000E+00 0. -1.
         25    1    1    2    0    0 -0.70523219822E+02 -0.12120293124E+03  0.17815962391E+03  0.25890061156E+03  0.12500000000E+03 0.  0.
         25    1    1    2    0    0  0.14977351398E+03 -0.28707684974E+01  0.13542795363E+03  0.23749963669E+03  0.12500000000E+03 0.  0.
         25    1    1    2    0    0 -0.79250294162E+02  0.12407369974E+03  0.30313751391E+03  0.35943322667E+03  0.12500000000E+03 0.  0.
</event>
<event>
 5    0  0.5583350E-005  0.3484962E+03  0.7546771E-02  0.1063234E+00
         21   -1    0    0  502  501  0.00000000000E+00  0.00000000000E+00  0.29729139867E+03  0.29729139867E+03  0.00000000000E+00 0. -1.
         21   -1    0    0  501  502 -0.00000000000E+00 -0.00000000000E+00 -0.40852047947E+03  0.40852047947E+03  0.00000000000E+00 0. -1.
         25    1    1    2    0    0 -0.15290715534E+03  0.57822826460E+02 -0.33928374438E+02  0.20856704439E+03  0.12500000000E+03 0.  0.
         25    1    1    2    0    0  0.25560825949E+02 -0.10670178805E+03  0.13602497828E+03  0.21486372917E+03  0.12500000000E+03 0.  0.
         25    1    1    2    0    0  0.12734632939E+03  0.48878961592E+02 -0.21332568464E+03  0.28238110458E+03  0.12500000000E+03 0.  0.
</event>
<event>
 5    0  0.5583350E-005  0.2926941E+03  0.7546771E-02  0.1088951E+00
         21   -1    0    0  502  501  0.00000000000E+00  0.00000000000E+00  0.16536084688E+03  0.16536084688E+03  0.00000000000E+00 0. -1.
         21   -1    0    0  501  502 -0.00000000000E+00 -0.00000000000E+00 -0.51807817299E+03  0.51807817299E+03  0.00000000000E+00 0. -1.
         25    1    1    2    0    0 -0.36806531172E+01 -0.84599411894E+02 -0.26751082556E+03  0.30717690260E+03  0.12500000000E+03 0.  0.
         25    1    1    2    0    0  0.24854738568E+02 -0.84206383759E+02 -0.58042021134E+02  0.16340853500E+03  0.12500000000E+03 0.  0.
         25    1    1    2    0    0 -0.21174085451E+02  0.16880579565E+03 -0.27164479411E+02  0.21285358226E+03  0.12500000000E+03 0.  0.
</event>
<event>
 5    0  0.5583350E-005  0.4599086E+03  0.7546771E-02  0.1024808E+00
         21   -1    0    0  502  501  0.00000000000E+00  0.00000000000E+00  0.96362676514E+03  0.96362676514E+03  0.00000000000E+00 0. -1.
         21   -1    0    0  501  502 -0.00000000000E+00 -0.00000000000E+00 -0.21949984326E+03  0.21949984326E+03  0.00000000000E+00 0. -1.
         25    1    1    2    0    0 -0.21334274801E+03  0.22757075061E+01  0.37016384133E+02  0.25003103741E+03  0.12500000000E+03 0.  0.
         25    1    1    2    0    0  0.40775259042E+02  0.16180448541E+03  0.37952892548E+02  0.21191681222E+03  0.12500000000E+03 0.  0.
         25    1    1    2    0    0  0.17256748897E+03 -0.16408019292E+03  0.66915764520E+03  0.72117875876E+03  0.12500000000E+03 0.  0.
</event>
<event>
 5    0  0.5583350E-005  0.2029596E+03  0.7546771E-02  0.1147266E+00
         21   -1    0    0  502  501  0.00000000000E+00  0.00000000000E+00  0.31541401438E+02  0.31541401438E+02  0.00000000000E+00 0.  1.
         21   -1    0    0  501  502 -0.00000000000E+00 -0.00000000000E+00 -0.13059850402E+04  0.13059850402E+04  0.00000000000E+00 0.  1.
         25    1    1    2    0    0  0.41679666034E+02  0.49309776926E+02 -0.54178712392E+03  0.55975614004E+03  0.12500000000E+03 0.  0.
         25    1    1    2    0    0 -0.78552854771E+01 -0.20499746871E+02 -0.39942069588E+03  0.41909883969E+03  0.12500000000E+03 0.  0.
         25    1    1    2    0    0 -0.33824380557E+02 -0.28810030055E+02 -0.33323581895E+03  0.35867146190E+03  0.12500000000E+03 0.  0.
</event>
<event>
 5    0  0.5583350E-005  0.3436213E+03  0.7546771E-02  0.1065264E+00
         21   -1    0    0  502  501  0.00000000000E+00  0.00000000000E+00  0.26975848597E+03  0.26975848597E+03  0.00000000000E+00 0.  1.
         21   -1    0    0  501  502 -0.00000000000E+00 -0.00000000000E+00 -0.43770843629E+03  0.43770843629E+03  0.00000000000E+00 0.  1.
         25    1    1    2    0    0 -0.15925228827E+03  0.85242580382E+02 -0.10215983174E+03  0.24225858096E+03  0.12500000000E+03 0.  0.
         25    1    1    2    0    0 -0.91374639025E+02  0.29748825213E+02 -0.17769016218E+02  0.15866649046E+03  0.12500000000E+03 0.  0.
         25    1    1    2    0    0  0.25062692729E+03 -0.11499140560E+03 -0.48021102358E+02  0.30654185084E+03  0.12500000000E+03 0.  0.
</event>
<event>
 5    0  0.5583350E-005  0.4747663E+03  0.7546771E-02  0.1020584E+00
         21   -1    0    0  502  501  0.00000000000E+00  0.00000000000E+00  0.31986521905E+03  0.31986521905E+03  0.00000000000E+00 0. -1.
         21   -1    0    0  501  502 -0.00000000000E+00 -0.00000000000E+00 -0.70468127066E+03  0.70468127066E+03  0.00000000000E+00 0. -1.
         25    1    1    2    0    0  0.87402591369E+02 -0.34185119048E+03 -0.92968213987E+01  0.37445010388E+03  0.12500000000E+03 0.  0.
         25    1    1    2    0    0  0.76784074259E+02  0.27407246486E+03 -0.18907396068E+03  0.36384814506E+03  0.12500000000E+03 0.  0.
         25    1    1    2    0    0 -0.16418666563E+03  0.67778725611E+02 -0.18644526952E+03  0.28624824077E+03  0.12500000000E+03 0.  0.
</event>
<event>
 5    0  0.5583350E-005  0.2716117E+03  0.7546771E-02  0.1100361E+00
         21   -1    0    0  502  501  0.00000000000E+00  0.00000000000E+00  0.85667524462E+02  0.85667524462E+02  0.00000000000E+00 0.  1.
         21   -1    0    0  501  502 -0.00000000000E+00 -0.00000000000E+00 -0.86115363549E+03  0.86115363549E+03  0.00000000000E+00 0.  1.
         25    1    1    2    0    0 -0.90291849485E+02 -0.42742770561E+02 -0.25967482977E+03  0.30501734334E+03  0.12500000000E+03 0.  0.
         25    1    1    2    0    0  0.74159376633E+02  0.70177214334E+02 -0.48222071616E+03  0.50851378905E+03  0.12500000000E+03 0.  0.
         25    1    1    2    0    0  0.16132472852E+02 -0.27434443773E+02 -0.33590565090E+02  0.13329002757E+03  0.12500000000E+03 0.  0.
</event>
<event>
 5    0  0.5583350E-005  0.3038607E+03  0.7546771E-02  0.1083326E+00
         21   -1    0    0  502  501  0.00000000000E+00  0.00000000000E+00  0.22236913753E+04  0.22236913753E+04  0.00000000000E+00 0.  1.
         21   -1    0    0  501  502 -0.00000000000E+00 -0.00000000000E+00 -0.41521657314E+02  0.41521657314E+02  0.00000000000E+00 0.  1.
         25    1    1    2    0    0  0.15071188808E+03 -0.10119396541E+03  0.58526583987E+03  0.62539219308E+03  0.12500000000E+03 0.  0.
         25    1    1    2    0    0 -0.47779718904E+02  0.14135976188E+03  0.10553574330E+04  0.10731587931E+04  0.12500000000E+03 0.  0.
         25    1    1    2    0    0 -0.10293216917E+03 -0.40165796465E+02  0.54154644515E+03  0.56666204647E+03  0.12500000000E+03 0.  0.
</event>
<event>
 5    0  0.5583350E-005  0.2564701E+03  0.7546771E-02  0.1109283E+00
         21   -1    0    0  502  501  0.00000000000E+00  0.00000000000E+00  0.11387514171E+03  0.11387514171E+03  0.00000000000E+00 0. -1.
         21   -1    0    0  501  502 -0.00000000000E+00 -0.00000000000E+00 -0.57762312757E+03  0.57762312757E+03  0.00000000000E+00 0. -1.
         25    1    1    2    0    0  0.54850107015E+02 -0.48865019213E+02 -0.82388645371E+02  0.16676094635E+03  0.12500000000E+03 0.  0.
         25    1    1    2    0    0 -0.33606597690E+01  0.57016121727E+02 -0.36289914420E+03  0.38805015273E+03  0.12500000000E+03 0.  0.
         25    1    1    2    0    0 -0.51489447246E+02 -0.81511025137E+01 -0.18460196283E+02  0.13668717020E+03  0.12500000000E+03 0.  0.
</event>
<event>
 5    0  0.5583350E-005  0.3157163E+03  0.7546771E-02  0.1077638E+00
         21   -1    0    0  502  501  0.00000000000E+00  0.00000000000E+00  0.17325410859E+03  0.17325410859E+03  0.00000000000E+00 0. -1.
         21   -1    0    0  501  502 -0.00000000000E+00 -0.00000000000E+00 -0.57532125688E+03  0.57532125688E+03  0.00000000000E+00 0. -1.
         25    1    1    2    0    0  0.13105271957E+03  0.23718867810E+02 -0.71351881203E+02  0.19609561685E+03  0.12500000000E+03 0.  0.
         25    1    1    2    0    0 -0.67220241994E+02  0.26948439886E+02 -0.37081789629E+03  0.39796443504E+03  0.12500000000E+03 0.  0.
         25    1    1    2    0    0 -0.63832477577E+02 -0.50667307695E+02  0.40102629199E+02  0.15451531358E+03  0.12500000000E+03 0.  0.
</event>
<event>
 5    0  0.5583350E-005  0.3830228E+03  0.7546771E-02  0.1049822E+00
         21   -1    0    0  502  501  0.00000000000E+00  0.00000000000E+00  0.28663573270E+03  0.28663573270E+03  0.00000000000E+00 0. -1.
         21   -1    0    0  501  502 -0.00000000000E+00 -0.00000000000E+00 -0.51182205239E+03  0.51182205239E+03  0.00000000000E+00 0. -1.
         25    1    1    2    0    0 -0.31679809037E+02  0.99977482350E+02 -0.43592840914E+02  0.16889180873E+03  0.12500000000E+03 0.  0.
         25    1    1    2    0    0  0.21275627056E+03  0.38930738621E+02 -0.25724528889E+03  0.35858188985E+03  0.12500000000E+03 0.  0.
         25    1    1    2    0    0 -0.18107646152E+03 -0.13890822097E+03  0.75651810111E+02  0.27098408651E+03  0.12500000000E+03 0.  0.
</event>
<event>
 5    0  0.6531363E-005  0.3500784E+03  0.7546771E-02  0.1062583E+00
         21   -1    0    0  502  501  0.00000000000E+00  0.00000000000E+00  0.78082502346E+03  0.78082502346E+03  0.00000000000E+00 0.  1.
         21   -1    0    0  501  502 -0.00000000000E+00 -0.00000000000E+00 -0.15695562008E+03  0.15695562008E+03  0.00000000000E+00 0.  1.
         25    1    1    2    0    0 -0.20773201311E+03 -0.10235601875E+02  0.11638439579E+03  0.26912392016E+03  0.12500000000E+03 0.  0.
         25    1    1    2    0    0  0.13075926587E+03  0.14374698538E+03  0.21780000408E+03  0.31752641338E+03  0.12500000000E+03 0.  0.
         25    1    1    2    0    0  0.76972747240E+02 -0.13351138350E+03  0.28968500351E+03  0.35113031000E+03  0.12500000000E+03 0.  0.
</event>
<event>
 5    0  0.5583350E-005  0.2662197E+03  0.7546771E-02  0.1103463E+00
         21   -1    0    0  502  501  0.00000000000E+00  0.00000000000E+00  0.20406456313E+03  0.20406456313E+03  0.00000000000E+00 0.  1.
         21   -1    0    0  501  502 -0.00000000000E+00 -0.00000000000E+00 -0.34730648247E+03  0.34730648247E+03  0.00000000000E+00 0.  1.
         25    1    1    2    0    0  0.58859854123E+02  0.75639627632E+02 -0.15455216545E+03  0.22067443789E+03  0.12500000000E+03 0.  0.
         25    1    1    2    0    0 -0.10880339496E+03 -0.43478707683E+01  0.50714032234E+02  0.17336088313E+03  0.12500000000E+03 0.  0.
         25    1    1    2    0    0  0.49943540834E+02 -0.71291756863E+02 -0.39403786123E+02  0.15733572458E+03  0.12500000000E+03 0.  0.
</event>
<event>
 5    0  0.5583350E-005  0.3881069E+03  0.7546771E-02  0.1047977E+00
         21   -1    0    0  502  501  0.00000000000E+00  0.00000000000E+00  0.15311978236E+03  0.15311978236E+03  0.00000000000E+00 0.  1.
         21   -1    0    0  501  502 -0.00000000000E+00 -0.00000000000E+00 -0.98371964541E+03  0.98371964541E+03  0.00000000000E+00 0.  1.
         25    1    1    2    0    0 -0.34251841674E+02  0.17375153884E+03 -0.23201681365E+03  0.31752100359E+03  0.12500000000E+03 0.  0.
         25    1    1    2    0    0  0.83340954029E+02  0.14604841774E+03 -0.18468691438E+03  0.27930290239E+03  0.12500000000E+03 0.  0.
         25    1    1    2    0    0 -0.49089112355E+02 -0.31979995657E+03 -0.41389613502E+03  0.54001552178E+03  0.12500000000E+03 0.  0.
</event>
<event>
 5    0  0.5583350E-005  0.4343727E+03  0.7546771E-02  0.1032488E+00
         21   -1    0    0  502  501  0.00000000000E+00  0.00000000000E+00  0.22927270098E+03  0.22927270098E+03  0.00000000000E+00 0. -1.
         21   -1    0    0  501  502 -0.00000000000E+00 -0.00000000000E+00 -0.82294839989E+03  0.82294839989E+03  0.00000000000E+00 0. -1.
         25    1    1    2    0    0  0.23265323757E+03 -0.12939202905E+03 -0.36520487348E+01  0.29412270159E+03  0.12500000000E+03 0.  0.
         25    1    1    2    0    0 -0.23010951647E+02 -0.57710942019E+02 -0.31889065726E+03  0.34810387532E+03  0.12500000000E+03 0.  0.
         25    1    1    2    0    0 -0.20964228592E+03  0.18710297107E+03 -0.27113299292E+03  0.40999452396E+03  0.12500000000E+03 0.  0.
</event>
<event>
 5    0  0.5583350E-005  0.2861649E+03  0.7546771E-02  0.1092369E+00
         21   -1    0    0  502  501  0.00000000000E+00  0.00000000000E+00  0.16642381364E+04  0.16642381364E+04  0.00000000000E+00 0.  1.
         21   -1    0    0  501  502 -0.00000000000E+00 -0.00000000000E+00 -0.49205893488E+02  0.49205893488E+02  0.00000000000E+00 0.  1.
         25    1    1    2    0    0  0.20828228620E+03 -0.30234777107E+02  0.71848173946E+03  0.75903666738E+03  0.12500000000E+03 0.  0.
         25    1    1    2    0    0 -0.96649304292E+02  0.11261070254E+02  0.44994165325E+03  0.47701194016E+03  0.12500000000E+03 0.  0.
         25    1    1    2    0    0 -0.11163298190E+03  0.18973706853E+02  0.44660885018E+03  0.47739542233E+03  0.12500000000E+03 0.  0.
</event>
<event>
 5    0  0.5583350E-005  0.3546994E+03  0.7546771E-02  0.1060703E+00
         21   -1    0    0  502  501  0.00000000000E+00  0.00000000000E+00  0.41660207494E+03  0.41660207494E+03  0.00000000000E+00 0.  1.
         21   -1    0    0  501  502 -0.00000000000E+00 -0.00000000000E+00 -0.30199473901E+03  0.30199473901E+03  0.00000000000E+00 0.  1.
         25    1    1    2    0    0 -0.11039987401E+02 -0.92960061733E+02  0.11616194014E+03  0.19463311829E+03  0.12500000000E+03 0.  0.
         25    1    1    2    0    0  0.98416105051E+02  0.23081212834E+03 -0.97892966674E+02  0.29693097051E+03  0.12500000000E+03 0.  0.
         25    1    1    2    0    0 -0.87376117649E+02 -0.13785206661E+03  0.96338362463E+02  0.22703272514E+03  0.12500000000E+03 0.  0.
</event>
<event>
 5    0  0.5583350E-005  0.5265779E+03  0.7546771E-02  0.1007065E+00
         21   -1    0    0  502  501  0.00000000000E+00  0.00000000000E+00  0.35018693113E+03  0.35018693113E+03  0.00000000000E+00 0.  1.
         21   -1    0    0  501  502 -0.00000000000E+00 -0.00000000000E+00 -0.79181780230E+03  0.79181780230E+03  0.00000000000E+00 0.  1.
         25    1    1    2    0    0  0.75118562892E+02  0.92092644474E+02 -0.43969023007E+03  0.47230959346E+03  0.12500000000E+03 0.  0.
         25    1    1    2    0    0  0.77152365884E+02 -0.14060034353E+02  0.28029648327E+03  0.31676693429E+03  0.12500000000E+03 0.  0.
         25    1    1    2    0    0 -0.15227092878E+03 -0.78032610122E+02 -0.28223712437E+03  0.35292820568E+03  0.12500000000E+03 0.  0.
</event>
<event>
 5    0  0.5583350E-005  0.2429715E+03  0.7546771E-02  0.1117829E+00
         21   -1    0    0  502  501  0.00000000000E+00  0.00000000000E+00  0.13630036113E+04  0.13630036113E+04  0.00000000000E+00 0.  1.
         21   -1    0    0  501  502 -0.00000000000E+00 -0.00000000000E+00 -0.43312547091E+02  0.43312547091E+02  0.00000000000E+00 0.  1.
         25    1    1    2    0    0 -0.55851567603E+02 -0.68390535146E+02  0.42670321315E+03  0.45331809474E+03  0.12500000000E+03 0.  0.
         25    1    1    2    0    0  0.43305350148E+02  0.20279052770E+02  0.72760527093E+03  0.73981147843E+03  0.12500000000E+03 0.  0.
         25    1    1    2    0    0  0.12546217454E+02  0.48111482377E+02  0.16538258012E+03  0.21318658521E+03  0.12500000000E+03 0.  0.
</event>
<event>
 5    0  0.5583350E-005  0.3121739E+03  0.7546771E-02  0.1079309E+00
         21   -1    0    0  502  501  0.00000000000E+00  0.00000000000E+00  0.14697147989E+03  0.14697147989E+03  0.00000000000E+00 0. -1.
         21   -1    0    0  501  502 -0.00000000000E+00 -0.00000000000E+00 -0.66307126775E+03  0.66307126775E+03  0.00000000000E+00 0. -1.
         25    1    1    2    0    0  0.24862746494E+02 -0.93013672913E+02 -0.38088577614E+03  0.41227257243E+03  0.12500000000E+03 0.  0.
         25    1    1    2    0    0  0.99567025334E+02  0.11052083433E+03 -0.47556047421E+02  0.20003755898E+03  0.12500000000E+03 0.  0.
         25    1    1    2    0    0 -0.12442977183E+03 -0.17507161417E+02 -0.87657964298E+02  0.19773261623E+03  0.12500000000E+03 0.  0.
</event>
<event>
 5    0  0.5583350E-005  0.2837447E+03  0.7546771E-02  0.1093661E+00
         21   -1    0    0  502  501  0.00000000000E+00  0.00000000000E+00  0.20273904507E+03  0.20273904507E+03  0.00000000000E+00 0.  1.
         21   -1    0    0  501  502 -0.00000000000E+00 -0.00000000000E+00 -0.39711664308E+03  0.39711664308E+03  0.00000000000E+00 0.  1.
         25    1    1    2    0    0 -0.61194114251E+02 -0.20924659204E+02  0.88204642659E+02  0.16609521356E+03  0.12500000000E+03 0.  0.
         25    1    1    2    0    0  0.63242126483E+02  0.10763179778E+03 -0.16071467599E+03  0.23882708710E+03  0.12500000000E+03 0.  0.
         25    1    1    2    0    0 -0.20480122323E+01 -0.86707138574E+02 -0.12186756468E+03  0.19493338748E+03  0.12500000000E+03 0.  0.
</event>
<event>
 5    0  0.5583350E-005  0.2484728E+03  0.7546771E-02  0.1114274E+00
         21   -1    0    0  502  501  0.00000000000E+00  0.00000000000E+00  0.80392358610E+03  0.80392358610E+03  0.00000000000E+00 0.  1.
         21   -1    0    0  501  502 -0.00000000000E+00 -0.00000000000E+00 -0.76796787977E+02  0.76796787977E+02  0.00000000000E+00 0.  1.
         25    1    1    2    0    0 -0.51119974921E+02  0.53517283175E+02  0.22280754456E+03  0.26598036271E+03  0.12500000000E+03 0.  0.
         25    1    1    2    0    0  0.48835961480E+02 -0.14195543351E+03  0.32217879641E+03  0.37677642322E+03  0.12500000000E+03 0.  0.
         25    1    1    2    0    0  0.22840134406E+01  0.88438150336E+02  0.18214045714E+03  0.23796358814E+03  0.12500000000E+03 0.  0.
</event>
<event>
 5    0  0.5820413E-005  0.3112274E+03  0.7546771E-02  0.1079759E+00
         21   -1    0    0  502  501  0.00000000000E+00  0.00000000000E+00  0.23299115122E+03  0.23299115122E+03  0.00000000000E+00 0.  1.
         21   -1    0    0  501  502 -0.00000000000E+00 -0.00000000000E+00 -0.41573473713E+03  0.41573473713E+03  0.00000000000E+00 0.  1.
         25    1    1    2    0    0 -0.13159777937E+03 -0.10621220724E+03  0.15775683379E+02  0.21088594237E+03  0.12500000000E+03 0.  0.
         25    1    1    2    0    0  0.14522809162E+03 -0.35622714787E+02 -0.62987918157E+02  0.20482347092E+03  0.12500000000E+03 0.  0.
         25    1    1    2    0    0 -0.13630312249E+02  0.14183492202E+03 -0.13553135113E+03  0.23301647508E+03  0.12500000000E+03 0.  0.
</event>
<event>
 5    0  0.6236484E-005  0.2782138E+03  0.7546771E-02  0.1096669E+00
         21   -1    0    0  502  501  0.00000000000E+00  0.00000000000E+00  0.11194842342E+03  0.11194842342E+03  0.00000000000E+00 0.  1.
         21   -1    0    0  501  502 -0.00000000000E+00 -0.00000000000E+00 -0.69141573204E+03  0.69141573204E+03  0.00000000000E+00 0.  1.
         25    1    1    2    0    0  0.34892722763E+02 -0.74198620893E+02 -0.29606789173E+03  0.33166871115E+03  0.12500000000E+03 0.  0.
         25    1    1    2    0    0  0.90814452403E+02 -0.27027870685E+01 -0.21895507827E+03  0.26799420912E+03  0.12500000000E+03 0.  0.
         25    1    1    2    0    0 -0.12570717517E+03  0.76901407962E+02 -0.64444338618E+02  0.20370123518E+03  0.12500000000E+03 0.  0.
</event>
<event>
 5    0  0.5583350E-005  0.5192599E+03  0.7546771E-02  0.1008871E+00
         21   -1    0    0  502  501  0.00000000000E+00  0.00000000000E+00  0.24405442887E+03  0.24405442887E+03  0.00000000000E+00 0. -1.
         21   -1    0    0  501  502 -0.00000000000E+00 -0.00000000000E+00 -0.11047979448E+04  0.11047979448E+04  0.00000000000E+00 0. -1.
         25    1    1    2    0    0  0.14340629948E+03 -0.31211507395E+03 -0.83821625089E+03  0.91444664654E+03  0.12500000000E+03 0.  0.
         25    1    1    2    0    0 -0.86845086720E+02  0.11403192621E+03 -0.33882311947E+02  0.19317960644E+03  0.12500000000E+03 0.  0.
         25    1    1    2    0    0 -0.56561212760E+02  0.19808314774E+03  0.11355046903E+02  0.24122612068E+03  0.12500000000E+03 0.  0.
</event>
<event>
 5    0  0.5583350E-005  0.4004990E+03  0.7546771E-02  0.1043607E+00
         21   -1    0    0  502  501  0.00000000000E+00  0.00000000000E+00  0.18965727624E+04  0.18965727624E+04  0.00000000000E+00 0.  1.
         21   -1    0    0  501  502 -0.00000000000E+00 -0.00000000000E+00 -0.84573308553E+02  0.84573308553E+02  0.00000000000E+00 0.  1.
         25    1    1    2    0    0  0.13727538947E+03 -0.40202658388E+02  0.13034930530E+04  0.13172622842E+04  0.12500000000E+03 0.  0.
         25    1    1    2    0    0 -0.14721367864E+03  0.15960286949E+03  0.26063098689E+03  0.36152241211E+03  0.12500000000E+03 0.  0.
         25    1    1    2    0    0  0.99382891694E+01 -0.11940021110E+03  0.24787541394E+03  0.30236137458E+03  0.12500000000E+03 0.  0.
</event>
<event>
 5    0  0.5583350E-005  0.4078486E+03  0.7546771E-02  0.1041095E+00
         21   -1    0    0  502  501  0.00000000000E+00  0.00000000000E+00  0.13691736967E+04  0.13691736967E+04  0.00000000000E+00 0. -1.
         21   -1    0    0  501  502 -0.00000000000E+00 -0.00000000000E+00 -0.12148968033E+03  0.12148968033E+03  0.00000000000E+00 0. -1.
         25    1    1    2    0    0  0.80765746596E+01 -0.15584824333E+03  0.30444006689E+03  0.36422885709E+03  0.12500000000E+03 0.  0.
         25    1    1    2    0    0 -0.42578727688E+02  0.10094338845E+03 -0.64663327619E+01  0.16634100271E+03  0.12500000000E+03 0.  0.
         25    1    1    2    0    0  0.34502153028E+02  0.54904854880E+02  0.94971028221E+03  0.96009351721E+03  0.12500000000E+03 0.  0.
</event>
<event>
 5    0  0.5654794E-005  0.3265283E+03  0.7546771E-02  0.1072683E+00
         21   -1    0    0  502  501  0.00000000000E+00  0.00000000000E+00  0.26899994179E+03  0.26899994179E+03  0.00000000000E+00 0.  1.
         21   -1    0    0  501  502 -0.00000000000E+00 -0.00000000000E+00 -0.39635966188E+03  0.39635966188E+03  0.00000000000E+00 0.  1.
         25    1    1    2    0    0  0.47964234793E+02 -0.13625552161E+03  0.98838822577E+02  0.21508195609E+03  0.12500000000E+03 0.  0.
         25    1    1    2    0    0 -0.12510689407E+03  0.11886444188E+03 -0.47520509064E+02  0.21832015314E+03  0.12500000000E+03 0.  0.
         25    1    1    2    0    0  0.77142659273E+02  0.17391079725E+02 -0.17867803360E+03  0.23195749444E+03  0.12500000000E+03 0.  0.
</event>
<event>
 5    0  0.5583350E-005  0.2926489E+03  0.7546771E-02  0.1088974E+00
         21   -1    0    0  502  501  0.00000000000E+00  0.00000000000E+00  0.17672737041E+03  0.17672737041E+03  0.00000000000E+00 0. -1.
         21   -1    0    0  501  502 -0.00000000000E+00 -0.00000000000E+00 -0.48460722672E+03  0.48460722672E+03  0.00000000000E+00 0. -1.
         25    1    1    2    0    0  0.11452429930E+03  0.90707342337E+02 -0.16324729617E+02  0.19296407407E+03  0.12500000000E+03 0.  0.
         25    1    1    2    0    0 -0.12337240455E+03 -0.11091840350E+03 -0.81900842028E+02  0.22328544593E+03  0.12500000000E+03 0.  0.
         25    1    1    2    0    0  0.88481052553E+01  0.20211061158E+02 -0.20965428466E+03  0.24508507714E+03  0.12500000000E+03 0.  0.
</event>
<event>
 5    0  0.5583350E-005  0.2891019E+03  0.7546771E-02  0.1090819E+00
         21   -1    0    0  502  501  0.00000000000E+00  0.00000000000E+00  0.19676350250E+03  0.19676350250E+03  0.00000000000E+00 0. -1.
         21   -1    0    0  501  502 -0.00000000000E+00 -0.00000000000E+00 -0.42477329291E+03  0.42477329291E+03  0.00000000000E+00 0. -1.
         25    1    1    2    0    0 -0.56123477881E+01 -0.56941939431E+00  0.38437999923E+02  0.13089806158E+03  0.12500000000E+03 0.  0.
         25    1    1    2    0    0 -0.26827719722E+02 -0.44384881896E+02  0.51290639132E+02  0.14472551243E+03  0.12500000000E+03 0.  0.
         25    1    1    2    0    0  0.32440067510E+02  0.44954301290E+02 -0.31773842946E+03  0.34591322140E+03  0.12500000000E+03 0.  0.
</event>
<event>
 5    0  0.5583350E-005  0.3145021E+03  0.7546771E-02  0.1078208E+00
         21   -1    0    0  502  501  0.00000000000E+00  0.00000000000E+00  0.82400304848E+03  0.82400304848E+03  0.00000000000E+00 0. -1.
         21   -1    0    0  501  502 -0.00000000000E+00 -0.00000000000E+00 -0.12003788480E+03  0.12003788480E+03  0.00000000000E+00 0. -1.
         25    1    1    2    0    0  0.87785799769E+02  0.15358276036E+03  0.75361559818E+02  0.22934335747E+03  0.12500000000E+03 0.  0.
         25    1    1    2    0    0 -0.96456189520E+01 -0.14550482535E+03  0.37188060054E+03  0.41855092071E+03  0.12500000000E+03 0.  0.
         25    1    1    2    0    0 -0.78140180817E+02 -0.80779350050E+01  0.25672300332E+03  0.29614665510E+03  0.12500000000E+03 0.  0.
</event>
<event>
 5    0  0.5583350E-005  0.3839079E+03  0.7546771E-02  0.1049499E+00
         21   -1    0    0  502  501  0.00000000000E+00  0.00000000000E+00  0.58874243263E+03  0.58874243263E+03  0.00000000000E+00 0. -1.
         21   -1    0    0  501  502 -0.00000000000E+00 -0.00000000000E+00 -0.25033911130E+03  0.25033911130E+03  0.00000000000E+00 0. -1.
         25    1    1    2    0    0 -0.65259229885E+02 -0.13014109237E+03  0.29873424343E+03  0.35505298084E+03  0.12500000000E+03 0.  0.
         25    1    1    2    0    0 -0.33562789914E+02  0.10549429198E+03  0.19734544893E+03  0.25850673632E+03  0.12500000000E+03 0.  0.
         25    1    1    2    0    0  0.98822019799E+02  0.24646800391E+02 -0.15767637103E+03  0.22552182677E+03  0.12500000000E+03 0.  0.
</event>
<event>
 5    0  0.5583350E-005  0.3067433E+03  0.7546771E-02  0.1081917E+00
         21   -1    0    0  502  501  0.00000000000E+00  0.00000000000E+00  0.79720282017E+02  0.79720282017E+02  0.00000000000E+00 0.  1.
         21   -1    0    0  501  502 -0.00000000000E+00 -0.00000000000E+00 -0.11802699156E+04  0.11802699156E+04  0.00000000000E+00 0.  1.
         25    1    1    2    0    0  0.40737830720E+02 -0.18269873509E+03 -0.42397752478E+03  0.48002118721E+03  0.12500000000E+03 0.  0.
         25    1    1    2    0    0 -0.27490094358E+02  0.21126379971E+03 -0.34574077915E+03  0.42491150223E+03  0.12500000000E+03 0.  0.
         25    1    1    2    0    0 -0.13247736363E+02 -0.28565064616E+02 -0.33083132963E+03  0.35505750816E+03  0.12500000000E+03 0.  0.
</event>
<event>
 5    0  0.5583350E-005  0.3469064E+03  0.7546771E-02  0.1063892E+00
         21   -1    0    0  502  501  0.00000000000E+00  0.00000000000E+00  0.12482774097E+04  0.12482774097E+04  0.00000000000E+00 0.  1.
         21   -1    0    0  501  502 -0.00000000000E+00 -0.00000000000E+00 -0.96408090421E+02  0.96408090421E+02  0.00000000000E+00 0. -1.
         25    1    1    2    0    0 -0.36488953492E+02  0.12063944038E+03  0.12762857284E+03  0.21863067238E+03  0.12500000000E+03 0.  0.
         25    1    1    2    0    0 -0.38856721824E+01  0.13256228272E+03  0.42242095246E+03  0.46005686423E+03  0.12500000000E+03 0.  0.
         25    1    1    2    0    0  0.40374625675E+02 -0.25320172310E+03  0.60181979401E+03  0.66599796354E+03  0.12500000000E+03 0.  0.
</event>
<event>
 5    0  0.5583350E-005  0.2403336E+03  0.7546771E-02  0.1119571E+00
         21   -1    0    0  502  501  0.00000000000E+00  0.00000000000E+00  0.10356668978E+03  0.10356668978E+03  0.00000000000E+00 0.  1.
         21   -1    0    0  501  502 -0.00000000000E+00 -0.00000000000E+00 -0.55771045193E+03  0.55771045193E+03  0.00000000000E+00 0.  1.
         25    1    1    2    0    0 -0.84038677706E+02 -0.10823015753E+03 -0.13873331811E+03  0.23162081060E+03  0.12500000000E+03 0.  0.
         25    1    1    2    0    0  0.28016503210E+02  0.65087782945E+02 -0.19513633635E+03  0.24233145422E+03  0.12500000000E+03 0.  0.
         25    1    1    2    0    0  0.56022174496E+02  0.43142374590E+02 -0.12027410768E+03  0.18732487688E+03  0.12500000000E+03 0.  0.
</event>
<event>
 5    0  0.5583350E-005  0.3637844E+03  0.7546771E-02  0.1057095E+00
         21   -1    0    0  502  501  0.00000000000E+00  0.00000000000E+00  0.12235151182E+03  0.12235151182E+03  0.00000000000E+00 0.  1.
         21   -1    0    0  501  502 -0.00000000000E+00 -0.00000000000E+00 -0.10816303917E+04  0.10816303917E+04  0.00000000000E+00 0. -1.
         25    1    1    2    0    0 -0.21344159434E+03 -0.13436337007E+03 -0.40840156282E+03  0.49601175987E+03  0.12500000000E+03 0.  0.
         25    1    1    2    0    0  0.14734418489E+02  0.48662312715E+02 -0.38514422655E+03  0.40810072165E+03  0.12500000000E+03 0.  0.
         25    1    1    2    0    0  0.19870717585E+03  0.85701057353E+02 -0.16573309051E+03  0.29986942201E+03  0.12500000000E+03 0.  0.
</event>
<event>
 5    0  0.5583350E-005  0.3150788E+03  0.7546771E-02  0.1077937E+00
         21   -1    0    0  502  501  0.00000000000E+00  0.00000000000E+00  0.25412903599E+03  0.25412903599E+03  0.00000000000E+00 0.  1.
         21   -1    0    0  501  502 -0.00000000000E+00 -0.00000000000E+00 -0.39064670636E+03  0.39064670636E+03  0.00000000000E+00 0.  1.
         25    1    1    2    0    0 -0.13753127320E+02 -0.80269551584E+02  0.19948504017E+02  0.15051675068E+03  0.12500000000E+03 0.  0.
         25    1    1    2    0    0  0.18572743814E+03  0.10529952162E+03 -0.12723104923E+03  0.27820030629E+03  0.12500000000E+03 0.  0.
         25    1    1    2    0    0 -0.17197431082E+03 -0.25029970037E+02 -0.29235125154E+02  0.21605868537E+03  0.12500000000E+03 0.  0.
</event>
<event>
 5    0  0.5871992E-005  0.2572672E+03  0.7546771E-02  0.1108796E+00
         21   -1    0    0  502  501  0.00000000000E+00  0.00000000000E+00  0.19858479934E+03  0.19858479934E+03  0.00000000000E+00 0. -1.
         21   -1    0    0  501  502 -0.00000000000E+00 -0.00000000000E+00 -0.33329047000E+03  0.33329047000E+03  0.00000000000E+00 0. -1.
         25    1    1    2    0    0 -0.80825814744E+01 -0.97201861981E+02 -0.14854231976E+03  0.21726332147E+03  0.12500000000E+03 0.  0.
         25    1    1    2    0    0  0.45807912376E+02 -0.31172622167E+01  0.56283022707E+02  0.14457130007E+03  0.12500000000E+03 0.  0.
         25    1    1    2    0    0 -0.37725330902E+02  0.10031912420E+03 -0.42446373608E+02  0.17004064780E+03  0.12500000000E+03 0.  0.
</event>
<event>
 5    0  0.5583350E-005  0.3222466E+03  0.7546771E-02  0.1074620E+00
         21   -1    0    0  502  501  0.00000000000E+00  0.00000000000E+00  0.11964049093E+04  0.11964049093E+04  0.00000000000E+00 0. -1.
         21   -1    0    0  501  502 -0.00000000000E+00 -0.00000000000E+00 -0.86795751180E+02  0.86795751180E+02  0.00000000000E+00 0. -1.
         25    1    1    2    0    0 -0.90393923273E+02 -0.86309406587E+02  0.11501469608E+03  0.21088801612E+03  0.12500000000E+03 0.  0.
         25    1    1    2    0    0 -0.17291674969E+02 -0.77829678597E+02  0.23495652965E+03  0.27782374218E+03  0.12500000000E+03 0.  0.
         25    1    1    2    0    0  0.10768559824E+03  0.16413908518E+03  0.75963793235E+03  0.79448890214E+03  0.12500000000E+03 0.  0.
</event>
<event>
 5    0  0.5583350E-005  0.2430381E+03  0.7546771E-02  0.1117785E+00
         21   -1    0    0  502  501  0.00000000000E+00  0.00000000000E+00  0.14264164028E+03  0.14264164028E+03  0.00000000000E+00 0. -1.
         21   -1    0    0  501  502 -0.00000000000E+00 -0.00000000000E+00 -0.41409741461E+03  0.41409741461E+03  0.00000000000E+00 0. -1.
         25    1    1    2    0    0 -0.26042223031E+01  0.56064963011E+02 -0.15218366713E+03  0.20478020068E+03  0.12500000000E+03 0.  0.
         25    1    1    2    0    0 -0.56135024034E+02 -0.11013706126E+03 -0.10037559173E+03  0.20243905898E+03  0.12500000000E+03 0.  0.
         25    1    1    2    0    0  0.58739246338E+02  0.54072098250E+02 -0.18896515475E+02  0.14951979523E+03  0.12500000000E+03 0.  0.
</event>
<event>
 5    0  0.5583350E-005  0.2362912E+03  0.7546771E-02  0.1122288E+00
         21   -1    0    0  502  501  0.00000000000E+00  0.00000000000E+00  0.23143291794E+03  0.23143291794E+03  0.00000000000E+00 0.  1.
         21   -1    0    0  501  502 -0.00000000000E+00 -0.00000000000E+00 -0.24125137773E+03  0.24125137773E+03  0.00000000000E+00 0.  1.
         25    1    1    2    0    0 -0.20135644554E+02 -0.61117287170E+02 -0.12269294999E+02  0.14112513090E+03  0.12500000000E+03 0.  0.
         25    1    1    2    0    0 -0.22004854746E+02  0.39969203356E+01 -0.94398897760E+02  0.15822876130E+03  0.12500000000E+03 0.  0.
         25    1    1    2    0    0  0.42140499300E+02  0.57120366834E+02  0.96849732973E+02  0.17333040347E+03  0.12500000000E+03 0.  0.
</event>
<event>
 5    0  0.5583350E-005  0.3096255E+03  0.7546771E-02  0.1080526E+00
         21   -1    0    0  502  501  0.00000000000E+00  0.00000000000E+00  0.14707661234E+03  0.14707661234E+03  0.00000000000E+00 0.  1.
         21   -1    0    0  501  502 -0.00000000000E+00 -0.00000000000E+00 -0.65182315073E+03  0.65182315073E+03  0.00000000000E+00 0.  1.
         25    1    1    2    0    0  0.45210412834E+02 -0.85558161098E+02 -0.69614424551E+02  0.17272911875E+03  0.12500000000E+03 0.  0.
         25    1    1    2    0    0 -0.15003311394E+03  0.22473451513E+02 -0.40293274429E+03  0.44832442240E+03  0.12500000000E+03 0.  0.
         25    1    1    2    0    0  0.10482270111E+03  0.63084709585E+02 -0.32199369543E+02  0.17784622192E+03  0.12500000000E+03 0.  0.
</event>
<event>
 5    0  0.5583350E-005  0.3065204E+03  0.7546771E-02  0.1082026E+00
         21   -1    0    0  502  501  0.00000000000E+00  0.00000000000E+00  0.16004730871E+03  0.16004730871E+03  0.00000000000E+00 0.  1.
         21   -1    0    0  501  502 -0.00000000000E+00 -0.00000000000E+00 -0.58704374059E+03  0.58704374059E+03  0.00000000000E+00 0.  1.
         25    1    1    2    0    0  0.77139730458E+02  0.62586252733E+01 -0.19940163005E+03  0.24774123289E+03  0.12500000000E+03 0.  0.
         25    1    1    2    0    0 -0.96352827141E+02  0.31327399746E+02 -0.30610759547E+03  0.34582095552E+03  0.12500000000E+03 0.  0.
         25    1    1    2    0    0  0.19213096683E+02 -0.37586025019E+02  0.78512793647E+02  0.15352886089E+03  0.12500000000E+03 0.  0.
</event>
<event>
 5    0  0.5773887E-005  0.3111777E+03  0.7546771E-02  0.1079783E+00
         21   -1    0    0  502  501  0.00000000000E+00  0.00000000000E+00  0.40638885129E+03  0.40638885129E+03  0.00000000000E+00 0. -1.
         21   -1    0    0  501  502 -0.00000000000E+00 -0.00000000000E+00 -0.23827323843E+03  0.23827323843E+03  0.00000000000E+00 0. -1.
         25    1    1    2    0    0 -0.11777717256E+03 -0.77766882278E+01  0.69448097542E+02  0.18541838503E+03  0.12500000000E+03 0.  0.
         25    1    1    2    0    0  0.18617548033E+03  0.92358951036E+02 -0.36693004255E+02  0.24528118940E+03  0.12500000000E+03 0.  0.
         25    1    1    2    0    0 -0.68398307767E+02 -0.84582262808E+02  0.13536051957E+03  0.21396251528E+03  0.12500000000E+03 0.  0.
</event>
<event>
 5    0  0.5583350E-005  0.2221108E+03  0.7546771E-02  0.1132319E+00
         21   -1    0    0  502  501  0.00000000000E+00  0.00000000000E+00  0.60503431378E+03  0.60503431378E+03  0.00000000000E+00 0. -1.
         21   -1    0    0  501  502 -0.00000000000E+00 -0.00000000000E+00 -0.81537900359E+02  0.81537900359E+02  0.00000000000E+00 0. -1.
         25    1    1    2    0    0 -0.60376324491E+01  0.23500337999E+02  0.21572214658E+03  0.25049902878E+03  0.12500000000E+03 0.  0.
         25    1    1    2    0    0 -0.49184940234E+01  0.70377974975E+02  0.96232914472E+02  0.17280921495E+03  0.12500000000E+03 0.  0.
         25    1    1    2    0    0  0.10956126472E+02 -0.93878312974E+02  0.21154135236E+03  0.26326397041E+03  0.12500000000E+03 0.  0.
</event>
<event>
 5    0  0.5583350E-005  0.3834171E+03  0.7546771E-02  0.1049678E+00
         21   -1    0    0  502  501  0.00000000000E+00  0.00000000000E+00  0.69790190356E+02  0.69790190356E+02  0.00000000000E+00 0.  1.
         21   -1    0    0  501  502 -0.00000000000E+00 -0.00000000000E+00 -0.21064379844E+04  0.21064379844E+04  0.00000000000E+00 0.  1.
         25    1    1    2    0    0 -0.53194025328E+02  0.71392540650E+02 -0.31842412894E+03  0.35347620158E+03  0.12500000000E+03 0.  0.
         25    1    1    2    0    0  0.15235635391E+03 -0.12719247299E+03 -0.15984966292E+04  0.16156134616E+04  0.12500000000E+03 0.  0.
         25    1    1    2    0    0 -0.99162328585E+02  0.55799932340E+02 -0.11972703597E+03  0.20713851163E+03  0.12500000000E+03 0.  0.
</event>
<event>
 5    0  0.5583350E-005  0.3907059E+03  0.7546771E-02  0.1047046E+00
         21   -1    0    0  502  501  0.00000000000E+00  0.00000000000E+00  0.45972492966E+03  0.45972492966E+03  0.00000000000E+00 0.  1.
         21   -1    0    0  501  502 -0.00000000000E+00 -0.00000000000E+00 -0.33204877550E+03  0.33204877550E+03  0.00000000000E+00 0.  1.
         25    1    1    2    0    0 -0.23808991474E+03  0.86498804337E+02 -0.51885582908E+02  0.28720369839E+03  0.12500000000E+03 0.  0.
         25    1    1    2    0    0  0.22191036931E+03  0.67843455789E+02  0.14956965331E+03  0.30305614611E+03  0.12500000000E+03 0.  0.
         25    1    1    2    0    0  0.16179545434E+02 -0.15434226013E+03  0.29992083757E+02  0.20151386066E+03  0.12500000000E+03 0.  0.
</event>
<event>
 5    0  0.5583350E-005  0.3214506E+03  0.7546771E-02  0.1074984E+00
         21   -1    0    0  502  501  0.00000000000E+00  0.00000000000E+00  0.14387467080E+04  0.14387467080E+04  0.00000000000E+00 0.  1.
         21   -1    0    0  501  502 -0.00000000000E+00 -0.00000000000E+00 -0.71819770875E+02  0.71819770875E+02  0.00000000000E+00 0.  1.
         25    1    1    2    0    0 -0.29893616772E+02  0.16396604233E+03  0.32593355916E+03  0.38682835515E+03  0.12500000000E+03 0.  0.
         25    1    1    2    0    0  0.11036710757E+03 -0.16704178646E+03  0.38901412824E+03  0.45501741596E+03  0.12500000000E+03 0.  0.
         25    1    1    2    0    0 -0.80473490801E+02  0.30757441302E+01  0.65197924973E+03  0.66872070777E+03  0.12500000000E+03 0.  0.
</event>
<event>
 5    0  0.5583350E-005  0.2542028E+03  0.7546771E-02  0.1110677E+00
         21   -1    0    0  502  501  0.00000000000E+00  0.00000000000E+00  0.30478092242E+02  0.30478092242E+02  0.00000000000E+00 0.  1.
         21   -1    0    0  501  502 -0.00000000000E+00 -0.00000000000E+00 -0.21201810481E+04  0.21201810481E+04  0.00000000000E+00 0.  1.
         25    1    1    2    0    0  0.71977815811E+02 -0.11574089044E+02 -0.99705042346E+03  0.10074965570E+04  0.12500000000E+03 0.  0.
         25    1    1    2    0    0 -0.44951936754E+02 -0.85763336116E+02 -0.72292271892E+03  0.74001235393E+03  0.12500000000E+03 0.  0.
         25    1    1    2    0    0 -0.27025879057E+02  0.97337425160E+02 -0.36972981349E+03  0.40315022939E+03  0.12500000000E+03 0.  0.
</event>
<event>
 5    0  0.5583350E-005  0.2422287E+03  0.7546771E-02  0.1118317E+00
         21   -1    0    0  502  501  0.00000000000E+00  0.00000000000E+00  0.41002520421E+03  0.41002520421E+03  0.00000000000E+00 0. -1.
         21   -1    0    0  501  502 -0.00000000000E+00 -0.00000000000E+00 -0.14310038905E+03  0.14310038905E+03  0.00000000000E+00 0. -1.
         25    1    1    2    0    0 -0.28544181680E+02  0.12031374465E+03  0.48466123896E+02  0.18238457343E+03  0.12500000000E+03 0.  0.
         25    1    1    2    0    0  0.47513596404E+02 -0.10756175709E+03  0.13924325857E+03  0.22099945360E+03  0.12500000000E+03 0.  0.
         25    1    1    2    0    0 -0.18969414724E+02 -0.12751987556E+02  0.79215432690E+02  0.14974156623E+03  0.12500000000E+03 0.  0.
</event>
<event>
 5    0  0.5583350E-005  0.2697084E+03  0.7546771E-02  0.1101447E+00
         21   -1    0    0  502  501  0.00000000000E+00  0.00000000000E+00  0.26583217865E+03  0.26583217865E+03  0.00000000000E+00 0.  1.
         21   -1    0    0  501  502 -0.00000000000E+00 -0.00000000000E+00 -0.27364116743E+03  0.27364116743E+03  0.00000000000E+00 0.  1.
         25    1    1    2    0    0  0.57062517544E+02 -0.74261175705E+02  0.53021322834E+02  0.16494579049E+03  0.12500000000E+03 0.  0.
         25    1    1    2    0    0  0.74465643201E+02  0.10431709517E+03  0.52088779391E+01  0.17910700928E+03  0.12500000000E+03 0.  0.
         25    1    1    2    0    0 -0.13152816075E+03 -0.30055919466E+02 -0.66039189549E+02  0.19542054631E+03  0.12500000000E+03 0.  0.
</event>
<event>
 5    0  0.5583350E-005  0.3049708E+03  0.7546771E-02  0.1082782E+00
         21   -1    0    0  502  501  0.00000000000E+00  0.00000000000E+00  0.99163413853E+03  0.99163413853E+03  0.00000000000E+00 0.  1.
         21   -1    0    0  501  502 -0.00000000000E+00 -0.00000000000E+00 -0.93791865568E+02  0.93791865568E+02  0.00000000000E+00 0.  1.
         25    1    1    2    0    0 -0.13274732476E+02 -0.12036253884E+02  0.41045751907E+02  0.13278118722E+03  0.12500000000E+03 0.  0.
         25    1    1    2    0    0  0.14407545787E+03  0.93193064595E+02  0.52221993193E+03  0.56372097899E+03  0.12500000000E+03 0.  0.
         25    1    1    2    0    0 -0.13080072539E+03 -0.81156810710E+02  0.33457658913E+03  0.38892383789E+03  0.12500000000E+03 0.  0.
</event>
<event>
 5    0  0.5583350E-005  0.3078030E+03  0.7546771E-02  0.1081404E+00
         21   -1    0    0  502  501  0.00000000000E+00  0.00000000000E+00  0.25133452022E+03  0.25133452022E+03  0.00000000000E+00 0. -1.
         21   -1    0    0  501  502 -0.00000000000E+00 -0.00000000000E+00 -0.37695856981E+03  0.37695856981E+03  0.00000000000E+00 0. -1.
         25    1    1    2    0    0  0.66480744963E+02 -0.73868434485E+02  0.92252827139E+02  0.18442293561E+03  0.12500000000E+03 0.  0.
         25    1    1    2    0    0  0.93638579409E+02  0.60668296353E+02 -0.37069315464E+02  0.17160407887E+03  0.12500000000E+03 0.  0.
         25    1    1    2    0    0 -0.16011932437E+03  0.13200138132E+02 -0.18080756127E+03  0.27226607555E+03  0.12500000000E+03 0.  0.
</event>
<event>
 5    0  0.5583350E-005  0.2304447E+03  0.7546771E-02  0.1126327E+00
         21   -1    0    0  502  501  0.00000000000E+00  0.00000000000E+00  0.79928903615E+02  0.79928903615E+02  0.00000000000E+00 0.  1.
         21   -1    0    0  501  502 -0.00000000000E+00 -0.00000000000E+00 -0.66439967423E+03  0.66439967423E+03  0.00000000000E+00 0.  1.
         25    1    1    2    0    0  0.46585694977E+02 -0.81859816537E+02 -0.15622718786E+03  0.22114065833E+03  0.12500000000E+03 0.  0.
         25    1    1    2    0    0 -0.13943191428E+02  0.10969159671E+03 -0.26476083309E+03  0.31296957954E+03  0.12500000000E+03 0.  0.
         25    1    1    2    0    0 -0.32642503549E+02 -0.27831780173E+02 -0.16348274967E+03  0.21021833998E+03  0.12500000000E+03 0.  0.
</event>
<event>
 5    0  0.5583350E-005  0.2588477E+03  0.7546771E-02  0.1107838E+00
         21   -1    0    0  502  501  0.00000000000E+00  0.00000000000E+00  0.95774372805E+03  0.95774372805E+03  0.00000000000E+00 0.  1.
         21   -1    0    0  501  502 -0.00000000000E+00 -0.00000000000E+00 -0.69958296655E+02  0.69958296655E+02  0.00000000000E+00 0.  1.
         25    1    1    2    0    0 -0.19610360896E+02 -0.46468246044E+02  0.22591183715E+03  0.26306847456E+03  0.12500000000E+03 0.  0.
         25    1    1    2    0    0  0.72800761089E+02  0.48502844304E+01  0.58591085293E+03  0.60352299347E+03  0.12500000000E+03 0.  0.
         25    1    1    2    0    0 -0.53190400193E+02  0.41617961614E+02  0.75962741323E+02  0.16111055667E+03  0.12500000000E+03 0.  0.
</event>
<event>
 5    0  0.5583350E-005  0.2968641E+03  0.7546771E-02  0.1086819E+00
         21   -1    0    0  502  501  0.00000000000E+00  0.00000000000E+00  0.34927321231E+02  0.34927321231E+02  0.00000000000E+00 0.  1.
         21   -1    0    0  501  502 -0.00000000000E+00 -0.00000000000E+00 -0.25231915382E+04  0.25231915382E+04  0.00000000000E+00 0.  1.
         25    1    1    2    0    0 -0.12135118237E+02 -0.33477935123E+02 -0.21949239423E+03  0.25508811097E+03  0.12500000000E+03 0.  0.
         25    1    1    2    0    0  0.70205598547E+02 -0.72983834877E+02 -0.48954819918E+03  0.51530370224E+03  0.12500000000E+03 0.  0.
         25    1    1    2    0    0 -0.58070480310E+02  0.10646177000E+03 -0.17792236236E+04  0.17877270462E+04  0.12500000000E+03 0.  0.
</event>
<event>
 5    0  0.5583350E-005  0.3245160E+03  0.7546771E-02  0.1073589E+00
         21   -1    0    0  502  501  0.00000000000E+00  0.00000000000E+00  0.53171697125E+02  0.53171697125E+02  0.00000000000E+00 0. -1.
         21   -1    0    0  501  502 -0.00000000000E+00 -0.00000000000E+00 -0.19805763303E+04  0.19805763303E+04  0.00000000000E+00 0. -1.
         25    1    1    2    0    0  0.14072801983E+03  0.72326078383E+02 -0.13886359967E+04  0.14032000458E+04  0.12500000000E+03 0.  0.
         25    1    1    2    0    0 -0.46163662117E+02 -0.76267570014E+02 -0.16583455121E+03  0.22599540772E+03  0.12500000000E+03 0.  0.
         25    1    1    2    0    0 -0.94564357715E+02  0.39414916309E+01 -0.37293408527E+03  0.40455257392E+03  0.12500000000E+03 0.  0.
</event>
<event>
 5    0  0.5583350E-005  0.3660216E+03  0.7546771E-02  0.1056225E+00
         21   -1    0    0  502  501  0.00000000000E+00  0.00000000000E+00  0.68087459701E+03  0.68087459701E+03  0.00000000000E+00 0.  1.
         21   -1    0    0  501  502 -0.00000000000E+00 -0.00000000000E+00 -0.19676426204E+03  0.19676426204E+03  0.00000000000E+00 0.  1.
         25    1    1    2    0    0  0.24518226065E+02  0.25763072679E+03  0.15545193307E+03  0.32674919784E+03  0.12500000000E+03 0.  0.
         25    1    1    2    0    0  0.79700156433E+02 -0.63000639436E+02  0.22524855178E+03  0.27691714570E+03  0.12500000000E+03 0.  0.
         25    1    1    2    0    0 -0.10421838250E+03 -0.19463008735E+03  0.10340985012E+03  0.27397251551E+03  0.12500000000E+03 0.  0.
</event>
<event>
 5    0  0.5583350E-005  0.2952761E+03  0.7546771E-02  0.1087626E+00
         21   -1    0    0  502  501  0.00000000000E+00  0.00000000000E+00  0.31449346146E+03  0.31449346146E+03  0.00000000000E+00 0.  1.
         21   -1    0    0  501  502 -0.00000000000E+00 -0.00000000000E+00 -0.27723310723E+03  0.27723310723E+03  0.00000000000E+00 0.  1.
         25    1    1    2    0    0 -0.77948192544E+02  0.59649390659E+00  0.29953655582E+02  0.15032796815E+03  0.12500000000E+03 0.  0.
         25    1    1    2    0    0  0.15553245403E+01 -0.14573140464E+03 -0.91549563416E+02  0.21271197403E+03  0.12500000000E+03 0.  0.
         25    1    1    2    0    0  0.76392868004E+02  0.14513491073E+03  0.98856262059E+02  0.22868662651E+03  0.12500000000E+03 0.  0.
</event>
<event>
 5    0  0.5583350E-005  0.2411456E+03  0.7546771E-02  0.1119032E+00
         21   -1    0    0  502  501  0.00000000000E+00  0.00000000000E+00  0.14894010751E+04  0.14894010751E+04  0.00000000000E+00 0. -1.
         21   -1    0    0  501  502 -0.00000000000E+00 -0.00000000000E+00 -0.39043361311E+02  0.39043361311E+02  0.00000000000E+00 0. -1.
         25    1    1    2    0    0 -0.83278018321E+02  0.82858458329E+01  0.52694189003E+03  0.54799328376E+03  0.12500000000E+03 0.  0.
         25    1    1    2    0    0  0.97345873023E+02  0.76530193241E+02  0.44353460450E+03  0.47715933907E+03  0.12500000000E+03 0.  0.
         25    1    1    2    0    0 -0.14067854701E+02 -0.84816039074E+02  0.47988121922E+03  0.50329181354E+03  0.12500000000E+03 0.  0.
</event>
<event>
 5    0  0.5583350E-005  0.2722387E+03  0.7546771E-02  0.1100005E+00
         21   -1    0    0  502  501  0.00000000000E+00  0.00000000000E+00  0.49254766935E+03  0.49254766935E+03  0.00000000000E+00 0. -1.
         21   -1    0    0  501  502 -0.00000000000E+00 -0.00000000000E+00 -0.15047051334E+03  0.15047051334E+03  0.00000000000E+00 0. -1.
         25    1    1    2    0    0  0.88161425232E+02 -0.39947632736E+02  0.25500137681E+03  0.30003158573E+03  0.12500000000E+03 0.  0.
         25    1    1    2    0    0 -0.10969649353E+03  0.23119079671E+02  0.12523192260E+03  0.20946562242E+03  0.12500000000E+03 0.  0.
         25    1    1    2    0    0  0.21535068294E+02  0.16828553064E+02 -0.38156143398E+02  0.13352097455E+03  0.12500000000E+03 0.  0.
</event>
<event>
 5    0  0.5583350E-005  0.5348663E+03  0.7546771E-02  0.1005059E+00
         21   -1    0    0  502  501  0.00000000000E+00  0.00000000000E+00  0.61763416206E+03  0.61763416206E+03  0.00000000000E+00 0.  1.
         21   -1    0    0  501  502 -0.00000000000E+00 -0.00000000000E+00 -0.46318995116E+03  0.46318995116E+03  0.00000000000E+00 0.  1.
         25    1    1    2    0    0  0.98995933904E+02  0.41823087179E+02 -0.33135540086E+03  0.37009561904E+03  0.12500000000E+03 0.  0.
         25    1    1    2    0    0 -0.18167381997E+01 -0.19810249459E+02  0.52997715835E+03  0.54488212936E+03  0.12500000000E+03 0.  0.
         25    1    1    2    0    0 -0.97179195704E+02 -0.22012837720E+02 -0.44177546592E+02  0.16584636482E+03  0.12500000000E+03 0.  0.
</event>
<event>
 5    0  0.5583350E-005  0.2922396E+03  0.7546771E-02  0.1089186E+00
         21   -1    0    0  502  501  0.00000000000E+00  0.00000000000E+00  0.82300378956E+03  0.82300378956E+03  0.00000000000E+00 0. -1.
         21   -1    0    0  501  502 -0.00000000000E+00 -0.00000000000E+00 -0.10377105109E+03  0.10377105109E+03  0.00000000000E+00 0. -1.
         25    1    1    2    0    0 -0.54283042254E+02 -0.15362565266E+03  0.21935122572E+03  0.30047870150E+03  0.12500000000E+03 0.  0.
         25    1    1    2    0    0  0.21724056559E+02 -0.51356107473E+01  0.35083428608E+03  0.37310589036E+03  0.12500000000E+03 0.  0.
         25    1    1    2    0    0  0.32558985695E+02  0.15876126340E+03  0.14904722667E+03  0.25319024880E+03  0.12500000000E+03 0.  0.
</event>
<event>
 5    0  0.5583350E-005  0.2291447E+03  0.7546771E-02  0.1127243E+00
         21   -1    0    0  502  501  0.00000000000E+00  0.00000000000E+00  0.83480510425E+03  0.83480510425E+03  0.00000000000E+00 0. -1.
         21   -1    0    0  501  502 -0.00000000000E+00 -0.00000000000E+00 -0.62897692619E+02  0.62897692619E+02  0.00000000000E+00 0. -1.
         25    1    1    2    0    0  0.58832947932E+02 -0.31385528389E+02  0.26471990159E+03  0.30024655444E+03  0.12500000000E+03 0.  0.
         25    1    1    2    0    0 -0.75325937406E+02  0.52347454116E+02  0.40548474149E+03  0.43411649172E+03  0.12500000000E+03 0.  0.
         25    1    1    2    0    0  0.16492989475E+02 -0.20961925728E+02  0.10170276855E+03  0.16333975071E+03  0.12500000000E+03 0.  0.
</event>
<event>
 5    0  0.5583350E-005  0.6157569E+03  0.7546771E-02  0.9873244E-01
         21   -1    0    0  502  501  0.00000000000E+00  0.00000000000E+00  0.22921321433E+03  0.22921321433E+03  0.00000000000E+00 0.  1.
         21   -1    0    0  501  502 -0.00000000000E+00 -0.00000000000E+00 -0.16541652036E+04  0.16541652036E+04  0.00000000000E+00 0.  1.
         25    1    1    2    0    0 -0.14413314198E+03  0.48480023184E+02 -0.92884629485E+03  0.94947623178E+03  0.12500000000E+03 0.  0.
         25    1    1    2    0    0  0.21506643797E+03 -0.36532830793E+03 -0.25055148789E+03  0.50805451814E+03  0.12500000000E+03 0.  0.
         25    1    1    2    0    0 -0.70933295985E+02  0.31684828475E+03 -0.24555420658E+03  0.42584766806E+03  0.12500000000E+03 0.  0.
</event>
<event>
 5    0  0.5583350E-005  0.3881380E+03  0.7546771E-02  0.1047966E+00
         21   -1    0    0  502  501  0.00000000000E+00  0.00000000000E+00  0.53471115873E+03  0.53471115873E+03  0.00000000000E+00 0.  1.
         21   -1    0    0  501  502 -0.00000000000E+00 -0.00000000000E+00 -0.28174298673E+03  0.28174298673E+03  0.00000000000E+00 0.  1.
         25    1    1    2    0    0 -0.40950654691E+01 -0.77862575697E+02  0.23487115530E+03  0.27725224949E+03  0.12500000000E+03 0.  0.
         25    1    1    2    0    0 -0.17995329325E+03  0.19657309676E+02 -0.13943001387E+03  0.26045215749E+03  0.12500000000E+03 0.  0.
         25    1    1    2    0    0  0.18404835872E+03  0.58205266021E+02  0.15752703057E+03  0.27874973847E+03  0.12500000000E+03 0.  0.
</event>
<event>
 5    0  0.5583350E-005  0.3298801E+03  0.7546771E-02  0.1071190E+00
         21   -1    0    0  502  501  0.00000000000E+00  0.00000000000E+00  0.16049596731E+03  0.16049596731E+03  0.00000000000E+00 0.  1.
         21   -1    0    0  501  502 -0.00000000000E+00 -0.00000000000E+00 -0.67802887949E+03  0.67802887949E+03  0.00000000000E+00 0.  1.
         25    1    1    2    0    0  0.36826338281E+01 -0.15944609980E+03 -0.30083926264E+03  0.36272011590E+03  0.12500000000E+03 0.  0.
         25    1    1    2    0    0  0.48566853924E+02  0.21622425262E+03 -0.20802791265E+03  0.32865221612E+03  0.12500000000E+03 0.  0.
         25    1    1    2    0    0 -0.52249487752E+02 -0.56778152822E+02 -0.86657368921E+01  0.14715251477E+03  0.12500000000E+03 0.  0.
</event>
<event>
 5    0  0.5583350E-005  0.2983114E+03  0.7546771E-02  0.1086088E+00
         21   -1    0    0  502  501  0.00000000000E+00  0.00000000000E+00  0.79706401515E+03  0.79706401515E+03  0.00000000000E+00 0.  1.
         21   -1    0    0  501  502 -0.00000000000E+00 -0.00000000000E+00 -0.11164681993E+03  0.11164681993E+03  0.00000000000E+00 0.  1.
         25    1    1    2    0    0  0.26099164801E+02 -0.10162955893E+02  0.47700689884E+03  0.49390792018E+03  0.12500000000E+03 0.  0.
         25    1    1    2    0    0 -0.23838352901E+02 -0.11364970191E+03  0.15606846448E+03  0.23122907996E+03  0.12500000000E+03 0.  0.
         25    1    1    2    0    0 -0.22608119002E+01  0.12381265781E+03  0.52341831900E+02  0.18357383493E+03  0.12500000000E+03 0.  0.
</event>
<event>
 5    0  0.5583350E-005  0.2640891E+03  0.7546771E-02  0.1104711E+00
         21   -1    0    0  502  501  0.00000000000E+00  0.00000000000E+00  0.18060346994E+03  0.18060346994E+03  0.00000000000E+00 0.  1.
         21   -1    0    0  501  502 -0.00000000000E+00 -0.00000000000E+00 -0.38616662223E+03  0.38616662223E+03  0.00000000000E+00 0.  1.
         25    1    1    2    0    0  0.60724768497E+02  0.10503833073E+03 -0.46303519014E+02  0.18024861804E+03  0.12500000000E+03 0.  0.
         25    1    1    2    0    0 -0.23199360538E+02 -0.15120310182E+03 -0.14950199655E+03  0.24774267962E+03  0.12500000000E+03 0.  0.
         25    1    1    2    0    0 -0.37525407958E+02  0.46164771093E+02 -0.97576367241E+01  0.13877879451E+03  0.12500000000E+03 0.  0.
</event>
<event>
 5    0  0.1093931E-003  0.7615768E+03  0.7546771E-02  0.9617361E-01
         21   -1    0    0  502  501  0.00000000000E+00  0.00000000000E+00  0.48031013477E+03  0.48031013477E+03  0.00000000000E+00 0. -1.
         21   -1    0    0  501  502 -0.00000000000E+00 -0.00000000000E+00 -0.12075515074E+04  0.12075515074E+04  0.00000000000E+00 0. -1.
         25    1    1    2    0    0  0.50136312477E+03  0.17154454523E+03 -0.34521506547E+03  0.64466344344E+03  0.12500000000E+03 0.  0.
         25    1    1    2    0    0 -0.67223391222E+02 -0.42757714151E+03 -0.20026406304E+03  0.49302321570E+03  0.12500000000E+03 0.  0.
         25    1    1    2    0    0 -0.43413973355E+03  0.25603259628E+03 -0.18176224416E+03  0.55017498308E+03  0.12500000000E+03 0.  0.
</event>
<event>
 5    0  0.5583350E-005  0.2435519E+03  0.7546771E-02  0.1117449E+00
         21   -1    0    0  502  501  0.00000000000E+00  0.00000000000E+00  0.32067602722E+03  0.32067602722E+03  0.00000000000E+00 0.  1.
         21   -1    0    0  501  502 -0.00000000000E+00 -0.00000000000E+00 -0.18497648749E+03  0.18497648749E+03  0.00000000000E+00 0.  1.
         25    1    1    2    0    0 -0.86465197234E+02  0.29883829102E+02  0.34572621324E+02  0.15871212846E+03  0.12500000000E+03 0.  0.
         25    1    1    2    0    0  0.74685140985E+02 -0.86820142467E+02  0.12012725543E+03  0.20777671890E+03  0.12500000000E+03 0.  0.
         25    1    1    2    0    0  0.11780056249E+02  0.56936313365E+02 -0.19000337017E+02  0.13916366735E+03  0.12500000000E+03 0.  0.
</event>
<event>
 5    0  0.5583350E-005  0.3596712E+03  0.7546771E-02  0.1058714E+00
         21   -1    0    0  502  501  0.00000000000E+00  0.00000000000E+00  0.49903482137E+03  0.49903482137E+03  0.00000000000E+00 0.  1.
         21   -1    0    0  501  502 -0.00000000000E+00 -0.00000000000E+00 -0.25922716318E+03  0.25922716318E+03  0.00000000000E+00 0.  1.
         25    1    1    2    0    0 -0.13001674143E+02 -0.75164325434E+02  0.34252675654E+03  0.37251617186E+03  0.12500000000E+03 0.  0.
         25    1    1    2    0    0  0.58651120709E+02  0.96516690266E+02  0.55995175121E+02  0.17752713904E+03  0.12500000000E+03 0.  0.
         25    1    1    2    0    0 -0.45649446566E+02 -0.21352364831E+02 -0.15871427347E+03  0.20821867366E+03  0.12500000000E+03 0.  0.
</event>
<event>
 5    0  0.5583350E-005  0.4035477E+03  0.7546771E-02  0.1042558E+00
         21   -1    0    0  502  501  0.00000000000E+00  0.00000000000E+00  0.65643922252E+02  0.65643922252E+02  0.00000000000E+00 0.  1.
         21   -1    0    0  501  502 -0.00000000000E+00 -0.00000000000E+00 -0.24808194582E+04  0.24808194582E+04  0.00000000000E+00 0.  1.
         25    1    1    2    0    0 -0.17994091766E+03  0.20745709631E+03 -0.94404550317E+03  0.99109237345E+03  0.12500000000E+03 0.  0.
         25    1    1    2    0    0  0.53929250912E+02 -0.25649778294E+03 -0.11408379546E+04  0.11772152375E+04  0.12500000000E+03 0.  0.
         25    1    1    2    0    0  0.12601166675E+03  0.49040686636E+02 -0.33029207827E+03  0.37815576958E+03  0.12500000000E+03 0.  0.
</event>
<event>
 5    0  0.5583350E-005  0.7631491E+03  0.7546771E-02  0.9614944E-01
         21   -1    0    0  502  501  0.00000000000E+00  0.00000000000E+00  0.19835481209E+04  0.19835481209E+04  0.00000000000E+00 0.  1.
         21   -1    0    0  501  502 -0.00000000000E+00 -0.00000000000E+00 -0.29361350901E+03  0.29361350901E+03  0.00000000000E+00 0.  1.
         25    1    1    2    0    0  0.22721336155E+03 -0.20823205923E+03  0.24832324796E+03  0.41506136611E+03  0.12500000000E+03 0.  0.
         25    1    1    2    0    0 -0.16643442136E+03  0.56644663217E+03  0.13323226274E+04  0.14626246228E+04  0.12500000000E+03 0.  0.
         25    1    1    2    0    0 -0.60778940197E+02 -0.35821457293E+03  0.10928873653E+03  0.39947564102E+03  0.12500000000E+03 0.  0.
</event>
<event>
 5    0  0.5583350E-005  0.3170726E+03  0.7546771E-02  0.1077005E+00
         21   -1    0    0  502  501  0.00000000000E+00  0.00000000000E+00  0.28162394807E+03  0.28162394807E+03  0.00000000000E+00 0.  1.
         21   -1    0    0  501  502 -0.00000000000E+00 -0.00000000000E+00 -0.35698332001E+03  0.35698332001E+03  0.00000000000E+00 0.  1.
         25    1    1    2    0    0  0.14382472142E+03  0.47745775390E+02 -0.46594221057E+01  0.19649915973E+03  0.12500000000E+03 0.  0.
         25    1    1    2    0    0 -0.15455808730E+03 -0.15692708126E+03 -0.10172544804E+03  0.27292375851E+03  0.12500000000E+03 0.  0.
         25    1    1    2    0    0  0.10733365881E+02  0.10918130587E+03  0.31025498212E+02  0.16918434985E+03  0.12500000000E+03 0.  0.
</event>
<event>
 5    0  0.5583350E-005  0.3075978E+03  0.7546771E-02  0.1081503E+00
         21   -1    0    0  502  501  0.00000000000E+00  0.00000000000E+00  0.43617113267E+03  0.43617113267E+03  0.00000000000E+00 0. -1.
         21   -1    0    0  501  502 -0.00000000000E+00 -0.00000000000E+00 -0.21692501291E+03  0.21692501291E+03  0.00000000000E+00 0. -1.
         25    1    1    2    0    0 -0.92991902581E+02  0.89385193179E+02  0.20116624435E+03  0.26968512115E+03  0.12500000000E+03 0.  0.
         25    1    1    2    0    0 -0.57253451379E+02 -0.27959839443E+02  0.89535571553E+02  0.16643716199E+03  0.12500000000E+03 0.  0.
         25    1    1    2    0    0  0.15024535396E+03 -0.61425353736E+02 -0.71455696143E+02  0.21697386243E+03  0.12500000000E+03 0.  0.
</event>
<event>
 5    0  0.5583350E-005  0.3886955E+03  0.7546771E-02  0.1047766E+00
         21   -1    0    0  502  501  0.00000000000E+00  0.00000000000E+00  0.15314379713E+04  0.15314379713E+04  0.00000000000E+00 0.  1.
         21   -1    0    0  501  502 -0.00000000000E+00 -0.00000000000E+00 -0.98655104894E+02  0.98655104894E+02  0.00000000000E+00 0.  1.
         25    1    1    2    0    0 -0.11597380502E+03 -0.66544856300E+00  0.70745004565E+03  0.72770937424E+03  0.12500000000E+03 0.  0.
         25    1    1    2    0    0  0.13282951505E+03 -0.14367521897E+03  0.10818919004E+03  0.25615649407E+03  0.12500000000E+03 0.  0.
         25    1    1    2    0    0 -0.16855710034E+02  0.14434066753E+03  0.61714363076E+03  0.64622720792E+03  0.12500000000E+03 0.  0.
</event>
<event>
 5    0  0.5583350E-005  0.2947375E+03  0.7546771E-02  0.1087901E+00
         21   -1    0    0  502  501  0.00000000000E+00  0.00000000000E+00  0.22861802626E+03  0.22861802626E+03  0.00000000000E+00 0. -1.
         21   -1    0    0  501  502 -0.00000000000E+00 -0.00000000000E+00 -0.37997955729E+03  0.37997955729E+03  0.00000000000E+00 0. -1.
         25    1    1    2    0    0 -0.53178393646E+02 -0.20767753469E+03 -0.10404145191E+03  0.26908646135E+03  0.12500000000E+03 0.  0.
         25    1    1    2    0    0  0.25337036280E+02  0.10584580978E+03  0.10262605115E+02  0.16605909165E+03  0.12500000000E+03 0.  0.
         25    1    1    2    0    0  0.27841357366E+02  0.10183172491E+03 -0.57582684233E+02  0.17345203055E+03  0.12500000000E+03 0.  0.
</event>
<event>
 5    0  0.5583350E-005  0.3539578E+03  0.7546771E-02  0.1061002E+00
         21   -1    0    0  502  501  0.00000000000E+00  0.00000000000E+00  0.13999272377E+03  0.13999272377E+03  0.00000000000E+00 0. -1.
         21   -1    0    0  501  502 -0.00000000000E+00 -0.00000000000E+00 -0.89494745668E+03  0.89494745668E+03  0.00000000000E+00 0. -1.
         25    1    1    2    0    0 -0.18356238865E+02 -0.21298555146E+03 -0.19802073796E+03  0.31707571541E+03  0.12500000000E+03 0.  0.
         25    1    1    2    0    0  0.66072964988E+02 -0.41466628406E+02 -0.29130368273E+03  0.32644747441E+03  0.12500000000E+03 0.  0.
         25    1    1    2    0    0 -0.47716726123E+02  0.25445217987E+03 -0.26563031221E+03  0.39141699064E+03  0.12500000000E+03 0.  0.
</event>
<event>
 5    0  0.5806053E-005  0.3032039E+03  0.7546771E-02  0.1083650E+00
         21   -1    0    0  502  501  0.00000000000E+00  0.00000000000E+00  0.41077540883E+03  0.41077540883E+03  0.00000000000E+00 0. -1.
         21   -1    0    0  501  502 -0.00000000000E+00 -0.00000000000E+00 -0.22380256365E+03  0.22380256365E+03  0.00000000000E+00 0. -1.
         25    1    1    2    0    0  0.71106514677E+02 -0.11951792733E+03 -0.18215094244E+02  0.18787618540E+03  0.12500000000E+03 0.  0.
         25    1    1    2    0    0 -0.12435220381E+03  0.17560123184E+03  0.14382603111E+03  0.28741988526E+03  0.12500000000E+03 0.  0.
         25    1    1    2    0    0  0.53245689131E+02 -0.56083304507E+02  0.61361908320E+02  0.15928190182E+03  0.12500000000E+03 0.  0.
</event>
<event>
 5    0  0.6317046E-005  0.2626849E+03  0.7546771E-02  0.1105541E+00
         21   -1    0    0  502  501  0.00000000000E+00  0.00000000000E+00  0.25799091176E+03  0.25799091176E+03  0.00000000000E+00 0. -1.
         21   -1    0    0  501  502 -0.00000000000E+00 -0.00000000000E+00 -0.26746421479E+03  0.26746421479E+03  0.00000000000E+00 0. -1.
         25    1    1    2    0    0  0.11457726929E+03  0.11964952318E+03  0.39949011014E+02  0.21134067881E+03  0.12500000000E+03 0.  0.
         25    1    1    2    0    0 -0.36762334918E+02 -0.89409833379E+02 -0.42517911963E+02  0.16364094968E+03  0.12500000000E+03 0.  0.
         25    1    1    2    0    0 -0.77814934375E+02 -0.30239689806E+02 -0.69044020766E+01  0.15047349806E+03  0.12500000000E+03 0.  0.
</event>
<event>
 5    0  0.5583350E-005  0.2747872E+03  0.7546771E-02  0.1098571E+00
         21   -1    0    0  502  501  0.00000000000E+00  0.00000000000E+00  0.27985461400E+02  0.27985461400E+02  0.00000000000E+00 0.  1.
         21   -1    0    0  501  502 -0.00000000000E+00 -0.00000000000E+00 -0.26981146714E+04  0.26981146714E+04  0.00000000000E+00 0.  1.
         25    1    1    2    0    0  0.44700908280E+01 -0.16135577780E+03 -0.13653040013E+04  0.13804838589E+04  0.12500000000E+03 0.  0.
         25    1    1    2    0    0 -0.14298974226E+02  0.75389616901E+02 -0.92398489577E+03  0.93555392288E+03  0.12500000000E+03 0.  0.
         25    1    1    2    0    0  0.98288833985E+01  0.85966160902E+02 -0.38084031298E+03  0.41006235106E+03  0.12500000000E+03 0.  0.
</event>
<event>
 5    0  0.5583350E-005  0.2594995E+03  0.7546771E-02  0.1107444E+00
         21   -1    0    0  502  501  0.00000000000E+00  0.00000000000E+00  0.13395089569E+03  0.13395089569E+03  0.00000000000E+00 0. -1.
         21   -1    0    0  501  502 -0.00000000000E+00 -0.00000000000E+00 -0.50272150774E+03  0.50272150774E+03  0.00000000000E+00 0. -1.
         25    1    1    2    0    0  0.53725332539E+02  0.10287160723E+03 -0.25116995371E+03  0.30361212850E+03  0.12500000000E+03 0.  0.
         25    1    1    2    0    0 -0.78858966868E+02 -0.27180738312E+01 -0.39005542431E+02  0.15288085858E+03  0.12500000000E+03 0.  0.
         25    1    1    2    0    0  0.25133634329E+02 -0.10015353340E+03 -0.78595115919E+02  0.18017941634E+03  0.12500000000E+03 0.  0.
</event>
<event>
 5    0  0.5583350E-005  0.2404536E+03  0.7546771E-02  0.1119491E+00
         21   -1    0    0  502  501  0.00000000000E+00  0.00000000000E+00  0.42112330379E+02  0.42112330379E+02  0.00000000000E+00 0. -1.
         21   -1    0    0  501  502 -0.00000000000E+00 -0.00000000000E+00 -0.13729453462E+04  0.13729453462E+04  0.00000000000E+00 0. -1.
         25    1    1    2    0    0  0.10659069859E+01  0.10404708267E+02 -0.18410965775E+03  0.22277962247E+03  0.12500000000E+03 0.  0.
         25    1    1    2    0    0 -0.41741774041E+02 -0.23516633145E+02 -0.92148461263E+03  0.93115750496E+03  0.12500000000E+03 0.  0.
         25    1    1    2    0    0  0.40675867055E+02  0.13111924878E+02 -0.22523874540E+03  0.26112054910E+03  0.12500000000E+03 0.  0.
</event>
<event>
 5    0  0.5583350E-005  0.3007062E+03  0.7546771E-02  0.1084888E+00
         21   -1    0    0  502  501  0.00000000000E+00  0.00000000000E+00  0.11974338023E+04  0.11974338023E+04  0.00000000000E+00 0.  1.
         21   -1    0    0  501  502 -0.00000000000E+00 -0.00000000000E+00 -0.75515027512E+02  0.75515027512E+02  0.00000000000E+00 0.  1.
         25    1    1    2    0    0 -0.11975701907E+03  0.47366451658E+02  0.84461107466E+03  0.86346869764E+03  0.12500000000E+03 0.  0.
         25    1    1    2    0    0  0.10127566020E+03 -0.63813272432E+02  0.14494801250E+03  0.22575167644E+03  0.12500000000E+03 0.  0.
         25    1    1    2    0    0  0.18481358870E+02  0.16446820775E+02  0.13235968764E+03  0.18372845575E+03  0.12500000000E+03 0.  0.
</event>
<event>
 5    0  0.5583350E-005  0.2950661E+03  0.7546771E-02  0.1087733E+00
         21   -1    0    0  502  501  0.00000000000E+00  0.00000000000E+00  0.81839707341E+03  0.81839707341E+03  0.00000000000E+00 0.  1.
         21   -1    0    0  501  502 -0.00000000000E+00 -0.00000000000E+00 -0.10638360272E+03  0.10638360272E+03  0.00000000000E+00 0.  1.
         25    1    1    2    0    0  0.73193925695E+02  0.11077180222E+03  0.15367190070E+03  0.23846969617E+03  0.12500000000E+03 0.  0.
         25    1    1    2    0    0 -0.14006570051E+03 -0.15590377791E+03  0.40370058124E+03  0.47172401648E+03  0.12500000000E+03 0.  0.
         25    1    1    2    0    0  0.66871774811E+02  0.45131975688E+02  0.15464098875E+03  0.21458696349E+03  0.12500000000E+03 0.  0.
</event>
<event>
 5    0  0.5583350E-005  0.2888765E+03  0.7546771E-02  0.1090937E+00
         21   -1    0    0  502  501  0.00000000000E+00  0.00000000000E+00  0.12895772649E+03  0.12895772649E+03  0.00000000000E+00 0.  1.
         21   -1    0    0  501  502 -0.00000000000E+00 -0.00000000000E+00 -0.64710827126E+03  0.64710827126E+03  0.00000000000E+00 0.  1.
         25    1    1    2    0    0  0.39142629375E+02  0.85944368639E+02 -0.66559664111E+02  0.17021682884E+03  0.12500000000E+03 0.  0.
         25    1    1    2    0    0  0.95703733579E+02 -0.12158999724E+03 -0.14343067335E+03  0.24523598860E+03  0.12500000000E+03 0.  0.
         25    1    1    2    0    0 -0.13484636295E+03  0.35645628597E+02 -0.30816020731E+03  0.36061318030E+03  0.12500000000E+03 0.  0.
</event>
<event>
 5    0  0.5583350E-005  0.2390444E+03  0.7546771E-02  0.1120431E+00
         21   -1    0    0  502  501  0.00000000000E+00  0.00000000000E+00  0.18914482878E+04  0.18914482878E+04  0.00000000000E+00 0.  1.
         21   -1    0    0  501  502 -0.00000000000E+00 -0.00000000000E+00 -0.30210837354E+02  0.30210837354E+02  0.00000000000E+00 0.  1.
         25    1    1    2    0    0 -0.73527476087E+01 -0.63383740664E+02  0.36521126447E+03  0.39124906284E+03  0.12500000000E+03 0.  0.
         25    1    1    2    0    0  0.44916273170E+02 -0.32674321563E+02  0.98095388590E+03  0.99044465224E+03  0.12500000000E+03 0.  0.
         25    1    1    2    0    0 -0.37563525561E+02  0.96058062227E+02  0.51507230007E+03  0.53996541007E+03  0.12500000000E+03 0.  0.
</event>
<event>
 5    0  0.5583350E-005  0.2072133E+03  0.7546771E-02  0.1143792E+00
         21   -1    0    0  502  501  0.00000000000E+00  0.00000000000E+00  0.14305808738E+03  0.14305808738E+03  0.00000000000E+00 0. -1.
         21   -1    0    0  501  502 -0.00000000000E+00 -0.00000000000E+00 -0.30013931166E+03  0.30013931166E+03  0.00000000000E+00 0. -1.
         25    1    1    2    0    0 -0.46802771123E+02  0.48181768763E+02 -0.35787729945E+02  0.14634802302E+03  0.12500000000E+03 0.  0.
         25    1    1    2    0    0 -0.16610805606E+02 -0.29738047555E+02 -0.56963643609E+02  0.14152783129E+03  0.12500000000E+03 0.  0.
         25    1    1    2    0    0  0.63413576729E+02 -0.18443721208E+02 -0.64329850731E+02  0.15532154474E+03  0.12500000000E+03 0.  0.
</event>
<event>
 5    0  0.5583350E-005  0.2085071E+03  0.7546771E-02  0.1142754E+00
         21   -1    0    0  502  501  0.00000000000E+00  0.00000000000E+00  0.22807474358E+03  0.22807474358E+03  0.00000000000E+00 0. -1.
         21   -1    0    0  501  502 -0.00000000000E+00 -0.00000000000E+00 -0.19061827361E+03  0.19061827361E+03  0.00000000000E+00 0. -1.
         25    1    1    2    0    0  0.40397341843E+02 -0.19834835479E+02  0.47999134782E+02  0.14125962929E+03  0.12500000000E+03 0.  0.
         25    1    1    2    0    0  0.22534632183E+02  0.12967961139E+02  0.30814002065E+02  0.13134108415E+03  0.12500000000E+03 0.  0.
         25    1    1    2    0    0 -0.62931974026E+02  0.68668743397E+01 -0.41356666873E+02  0.14609230374E+03  0.12500000000E+03 0.  0.
</event>
<event>
 5    0  0.5583350E-005  0.3122753E+03  0.7546771E-02  0.1079260E+00
         21   -1    0    0  502  501  0.00000000000E+00  0.00000000000E+00  0.70269673760E+03  0.70269673760E+03  0.00000000000E+00 0. -1.
         21   -1    0    0  501  502 -0.00000000000E+00 -0.00000000000E+00 -0.13877375462E+03  0.13877375462E+03  0.00000000000E+00 0. -1.
         25    1    1    2    0    0  0.12445514499E+03  0.81434098315E+02  0.28487109565E+03  0.34481464096E+03  0.12500000000E+03 0.  0.
         25    1    1    2    0    0  0.49106661637E+02 -0.15085844089E+02 -0.46416561597E+01  0.13522422816E+03  0.12500000000E+03 0.  0.
         25    1    1    2    0    0 -0.17356180662E+03 -0.66348254226E+02  0.28369354349E+03  0.36143162310E+03  0.12500000000E+03 0.  0.
</event>
<event>
 5    0  0.5583350E-005  0.2613072E+03  0.7546771E-02  0.1106360E+00
         21   -1    0    0  502  501  0.00000000000E+00  0.00000000000E+00  0.78819830622E+03  0.78819830622E+03  0.00000000000E+00 0.  1.
         21   -1    0    0  501  502 -0.00000000000E+00 -0.00000000000E+00 -0.86629811399E+02  0.86629811399E+02  0.00000000000E+00 0.  1.
         25    1    1    2    0    0 -0.74415021091E+02  0.69769680336E+02  0.13013165905E+03  0.20727916525E+03  0.12500000000E+03 0.  0.
         25    1    1    2    0    0 -0.35299190659E+02  0.50947992224E+02  0.23651040055E+03  0.27459770636E+03  0.12500000000E+03 0.  0.
         25    1    1    2    0    0  0.10971421175E+03 -0.12071767256E+03  0.33492643523E+03  0.39295124601E+03  0.12500000000E+03 0.  0.
</event>
<event>
 5    0  0.6026668E-005  0.2816309E+03  0.7546771E-02  0.1094802E+00
         21   -1    0    0  502  501  0.00000000000E+00  0.00000000000E+00  0.20540614892E+03  0.20540614892E+03  0.00000000000E+00 0. -1.
         21   -1    0    0  501  502 -0.00000000000E+00 -0.00000000000E+00 -0.38614197480E+03  0.38614197480E+03  0.00000000000E+00 0. -1.
         25    1    1    2    0    0 -0.11337787312E+02  0.13261098642E+03 -0.22800750302E+03  0.29210724157E+03  0.12500000000E+03 0.  0.
         25    1    1    2    0    0  0.25474529409E+02 -0.90871463862E+02 -0.56446727804E+01  0.15672726924E+03  0.12500000000E+03 0.  0.
         25    1    1    2    0    0 -0.14136742097E+02 -0.41739522560E+02  0.52916349925E+02  0.14271361291E+03  0.12500000000E+03 0.  0.
</event>
<event>
 5    0  0.5583350E-005  0.2880291E+03  0.7546771E-02  0.1091383E+00
         21   -1    0    0  502  501  0.00000000000E+00  0.00000000000E+00  0.12138771096E+04  0.12138771096E+04  0.00000000000E+00 0.  1.
         21   -1    0    0  501  502 -0.00000000000E+00 -0.00000000000E+00 -0.68343630696E+02  0.68343630696E+02  0.00000000000E+00 0.  1.
         25    1    1    2    0    0  0.73759338889E+01 -0.15971755819E+02  0.16585514996E+03  0.20842848210E+03  0.12500000000E+03 0.  0.
         25    1    1    2    0    0  0.14205714342E+03 -0.92559308741E+02  0.56428001540E+03  0.60231585851E+03  0.12500000000E+03 0.  0.
         25    1    1    2    0    0 -0.14943307731E+03  0.10853106456E+03  0.41539831359E+03  0.47147639973E+03  0.12500000000E+03 0.  0.
</event>
<event>
 5    0  0.5583350E-005  0.4232004E+03  0.7546771E-02  0.1036030E+00
         21   -1    0    0  502  501  0.00000000000E+00  0.00000000000E+00  0.21376600417E+04  0.21376600417E+04  0.00000000000E+00 0. -1.
         21   -1    0    0  501  502 -0.00000000000E+00 -0.00000000000E+00 -0.83782523820E+02  0.83782523820E+02  0.00000000000E+00 0. -1.
         25    1    1    2    0    0  0.26422515711E+03  0.18210511933E+02  0.10869600657E+04  0.11257236521E+04  0.12500000000E+03 0.  0.
         25    1    1    2    0    0 -0.10317443786E+03  0.69096343148E+02  0.10365243522E+03  0.20442137020E+03  0.12500000000E+03 0.  0.
         25    1    1    2    0    0 -0.16105071925E+03 -0.87306855082E+02  0.86326501687E+03  0.89129754317E+03  0.12500000000E+03 0.  0.
</event>
<event>
 5    0  0.5583350E-005  0.2940199E+03  0.7546771E-02  0.1088269E+00
         21   -1    0    0  502  501  0.00000000000E+00  0.00000000000E+00  0.20007376589E+04  0.20007376589E+04  0.00000000000E+00 0.  1.
         21   -1    0    0  501  502 -0.00000000000E+00 -0.00000000000E+00 -0.43207902229E+02  0.43207902229E+02  0.00000000000E+00 0.  1.
         25    1    1    2    0    0 -0.36139230647E+02  0.10970105477E+03  0.70945814724E+03  0.72958634039E+03  0.12500000000E+03 0.  0.
         25    1    1    2    0    0  0.10223101466E+03 -0.18743966989E+03  0.67119620455E+03  0.71534198479E+03  0.12500000000E+03 0.  0.
         25    1    1    2    0    0 -0.66091784011E+02  0.77738615118E+02  0.57687540488E+03  0.59901723593E+03  0.12500000000E+03 0.  0.
</event>
<event>
 5    0  0.5583350E-005  0.3452047E+03  0.7546771E-02  0.1064601E+00
         21   -1    0    0  502  501  0.00000000000E+00  0.00000000000E+00  0.12212268505E+03  0.12212268505E+03  0.00000000000E+00 0. -1.
         21   -1    0    0  501  502 -0.00000000000E+00 -0.00000000000E+00 -0.97579168395E+03  0.97579168395E+03  0.00000000000E+00 0. -1.
         25    1    1    2    0    0 -0.87210648931E+02 -0.31607292464E+02 -0.20895807371E+03  0.26056322610E+03  0.12500000000E+03 0.  0.
         25    1    1    2    0    0  0.18474651780E+03 -0.45876316566E+02 -0.73184794357E+02  0.23920059863E+03  0.12500000000E+03 0.  0.
         25    1    1    2    0    0 -0.97535868865E+02  0.77483609030E+02 -0.57152613083E+03  0.59815054427E+03  0.12500000000E+03 0.  0.
</event>
<event>
 5    0  0.5583350E-005  0.3104633E+03  0.7546771E-02  0.1080124E+00
         21   -1    0    0  502  501  0.00000000000E+00  0.00000000000E+00  0.54152301092E+03  0.54152301092E+03  0.00000000000E+00 0. -1.
         21   -1    0    0  501  502 -0.00000000000E+00 -0.00000000000E+00 -0.17799327965E+03  0.17799327965E+03  0.00000000000E+00 0. -1.
         25    1    1    2    0    0  0.57475298266E+02 -0.71334491018E+02  0.28114805481E+03  0.32103153777E+03  0.12500000000E+03 0.  0.
         25    1    1    2    0    0  0.80939675490E+02  0.12304576075E+03  0.15831619321E+02  0.19382241995E+03  0.12500000000E+03 0.  0.
         25    1    1    2    0    0 -0.13841497376E+03 -0.51711269732E+02  0.66550057140E+02  0.20466233284E+03  0.12500000000E+03 0.  0.
</event>
<event>
 5    0  0.5583350E-005  0.3400964E+03  0.7546771E-02  0.1066755E+00
         21   -1    0    0  502  501  0.00000000000E+00  0.00000000000E+00  0.37808816014E+03  0.37808816014E+03  0.00000000000E+00 0. -1.
         21   -1    0    0  501  502 -0.00000000000E+00 -0.00000000000E+00 -0.30592216359E+03  0.30592216359E+03  0.00000000000E+00 0. -1.
         25    1    1    2    0    0 -0.44485174959E+02 -0.11676064377E+03  0.25806255156E+03  0.31278308657E+03  0.12500000000E+03 0.  0.
         25    1    1    2    0    0 -0.27215295924E+02 -0.44059992682E+01 -0.10798426064E+03  0.16746846183E+03  0.12500000000E+03 0.  0.
         25    1    1    2    0    0  0.71700470883E+02  0.12116664304E+03 -0.77912294369E+02  0.20375877533E+03  0.12500000000E+03 0.  0.
</event>
<event>
 5    0  0.5583350E-005  0.3068510E+03  0.7546771E-02  0.1081865E+00
         21   -1    0    0  502  501  0.00000000000E+00  0.00000000000E+00  0.76854293489E+02  0.76854293489E+02  0.00000000000E+00 0. -1.
         21   -1    0    0  501  502 -0.00000000000E+00 -0.00000000000E+00 -0.12251438100E+04  0.12251438100E+04  0.00000000000E+00 0. -1.
         25    1    1    2    0    0  0.16387779452E+02  0.17644795540E+03 -0.66640084110E+03  0.70079777490E+03  0.12500000000E+03 0.  0.
         25    1    1    2    0    0 -0.11795165936E+02  0.84921121202E+01 -0.10853486261E+03  0.16618080006E+03  0.12500000000E+03 0.  0.
         25    1    1    2    0    0 -0.45926135156E+01 -0.18494006752E+03 -0.37335381284E+03  0.43501952857E+03  0.12500000000E+03 0.  0.
</event>
<event>
 5    0  0.5583350E-005  0.4060988E+03  0.7546771E-02  0.1041688E+00
         21   -1    0    0  502  501  0.00000000000E+00  0.00000000000E+00  0.13136901688E+04  0.13136901688E+04  0.00000000000E+00 0.  1.
         21   -1    0    0  501  502 -0.00000000000E+00 -0.00000000000E+00 -0.12553662613E+03  0.12553662613E+03  0.00000000000E+00 0.  1.
         25    1    1    2    0    0 -0.29267488925E+02  0.16816589617E+03  0.52113135919E+02  0.21789248147E+03  0.12500000000E+03 0.  0.
         25    1    1    2    0    0 -0.49564156956E+02 -0.18578301089E+02  0.11216694832E+03  0.17609140587E+03  0.12500000000E+03 0.  0.
         25    1    1    2    0    0  0.78831645880E+02 -0.14958759508E+03  0.10238734585E+04  0.10452429076E+04  0.12500000000E+03 0.  0.
</event>
<event>
 5    0  0.5583350E-005  0.2537383E+03  0.7546771E-02  0.1110965E+00
         21   -1    0    0  502  501  0.00000000000E+00  0.00000000000E+00  0.11651339473E+03  0.11651339473E+03  0.00000000000E+00 0.  1.
         21   -1    0    0  501  502 -0.00000000000E+00 -0.00000000000E+00 -0.55258138899E+03  0.55258138899E+03  0.00000000000E+00 0.  1.
         25    1    1    2    0    0  0.42485774696E+02 -0.83960403266E+01 -0.13922085739E+03  0.19204942509E+03  0.12500000000E+03 0.  0.
         25    1    1    2    0    0 -0.65794789025E+01  0.42957402876E+02  0.19028241507E+02  0.13370004480E+03  0.12500000000E+03 0.  0.
         25    1    1    2    0    0 -0.35906295794E+02 -0.34561362550E+02 -0.31587537838E+03  0.34334531382E+03  0.12500000000E+03 0.  0.
</event>
<event>
 5    0  0.5583350E-005  0.3635890E+03  0.7546771E-02  0.1057172E+00
         21   -1    0    0  502  501  0.00000000000E+00  0.00000000000E+00  0.52571136769E+03  0.52571136769E+03  0.00000000000E+00 0.  1.
         21   -1    0    0  501  502 -0.00000000000E+00 -0.00000000000E+00 -0.25146300859E+03  0.25146300859E+03  0.00000000000E+00 0.  1.
         25    1    1    2    0    0 -0.20582337214E+03  0.78640835227E+01  0.48555044949E+02  0.24577977281E+03  0.12500000000E+03 0.  0.
         25    1    1    2    0    0  0.26081441150E+03 -0.58635690307E+02  0.24612890160E+03  0.38427429998E+03  0.12500000000E+03 0.  0.
         25    1    1    2    0    0 -0.54991039352E+02  0.50771606785E+02 -0.20435587455E+02  0.14712030349E+03  0.12500000000E+03 0.  0.
</event>
<event>
 5    0  0.5583350E-005  0.4421662E+03  0.7546771E-02  0.1030084E+00
         21   -1    0    0  502  501  0.00000000000E+00  0.00000000000E+00  0.85159746343E+03  0.85159746343E+03  0.00000000000E+00 0. -1.
         21   -1    0    0  501  502 -0.00000000000E+00 -0.00000000000E+00 -0.22958140684E+03  0.22958140684E+03  0.00000000000E+00 0. -1.
         25    1    1    2    0    0  0.68314639385E+02  0.10135216708E+03  0.11421606265E+03  0.20882878320E+03  0.12500000000E+03 0.  0.
         25    1    1    2    0    0  0.27993692341E+03 -0.76828842332E+02  0.12638954258E+03  0.34039193377E+03  0.12500000000E+03 0.  0.
         25    1    1    2    0    0 -0.34825156280E+03 -0.24523324744E+02  0.38141045135E+03  0.53195815329E+03  0.12500000000E+03 0.  0.
</event>
<event>
 5    0  0.5583350E-005  0.2653714E+03  0.7546771E-02  0.1103958E+00
         21   -1    0    0  502  501  0.00000000000E+00  0.00000000000E+00  0.48665326187E+03  0.48665326187E+03  0.00000000000E+00 0.  1.
         21   -1    0    0  501  502 -0.00000000000E+00 -0.00000000000E+00 -0.14470672612E+03  0.14470672612E+03  0.00000000000E+00 0.  1.
         25    1    1    2    0    0  0.53593250472E+02 -0.57914810439E+02  0.12548597262E+03  0.19390227201E+03  0.12500000000E+03 0.  0.
         25    1    1    2    0    0 -0.77968591927E+02  0.37203339752E+02  0.26011598957E+03  0.30124494659E+03  0.12500000000E+03 0.  0.
         25    1    1    2    0    0  0.24375341455E+02  0.20711470687E+02 -0.43655426433E+02  0.13621276939E+03  0.12500000000E+03 0.  0.
</event>
<event>
 5    0  0.5583350E-005  0.5377306E+03  0.7546771E-02  0.1004374E+00
         21   -1    0    0  502  501  0.00000000000E+00  0.00000000000E+00  0.29627641334E+03  0.29627641334E+03  0.00000000000E+00 0.  1.
         21   -1    0    0  501  502 -0.00000000000E+00 -0.00000000000E+00 -0.97596090701E+03  0.97596090701E+03  0.00000000000E+00 0.  1.
         25    1    1    2    0    0 -0.12723681760E+02  0.42133556615E+03 -0.81541296251E+02  0.44716835127E+03  0.12500000000E+03 0.  0.
         25    1    1    2    0    0 -0.12965072146E+01 -0.21133318747E+03 -0.90855157849E+02  0.26180728936E+03  0.12500000000E+03 0.  0.
         25    1    1    2    0    0  0.14020188975E+02 -0.21000237868E+03 -0.50728803957E+03  0.56326167972E+03  0.12500000000E+03 0.  0.
</event>
<event>
 5    0  0.5999276E-005  0.2583542E+03  0.7546771E-02  0.1108136E+00
         21   -1    0    0  502  501  0.00000000000E+00  0.00000000000E+00  0.54319842793E+03  0.54319842793E+03  0.00000000000E+00 0. -1.
         21   -1    0    0  501  502 -0.00000000000E+00 -0.00000000000E+00 -0.12287750916E+03  0.12287750916E+03  0.00000000000E+00 0.  1.
         25    1    1    2    0    0  0.81441449688E+02  0.50762545240E+02  0.22793863985E+03  0.27711111357E+03  0.12500000000E+03 0.  0.
         25    1    1    2    0    0  0.45793165406E+02  0.37781035691E+02  0.89778567944E+02  0.16495336286E+03  0.12500000000E+03 0.  0.
         25    1    1    2    0    0 -0.12723461509E+03 -0.88543580932E+02  0.10260371097E+03  0.22401146066E+03  0.12500000000E+03 0.  0.
</event>
<event>
 5    0  0.5583350E-005  0.3213317E+03  0.7546771E-02  0.1075038E+00
         21   -1    0    0  502  501  0.00000000000E+00  0.00000000000E+00  0.16535899130E+03  0.16535899130E+03  0.00000000000E+00 0. -1.
         21   -1    0    0  501  502 -0.00000000000E+00 -0.00000000000E+00 -0.62442375922E+03  0.62442375922E+03  0.00000000000E+00 0. -1.
         25    1    1    2    0    0 -0.57095523368E+02  0.12141711197E+03 -0.38691165978E+03  0.42816777826E+03  0.12500000000E+03 0.  0.
         25    1    1    2    0    0  0.11908479748E+03 -0.11197885128E+02 -0.10146736778E+02  0.17330475437E+03  0.12500000000E+03 0.  0.
         25    1    1    2    0    0 -0.61989274108E+02 -0.11021922685E+03 -0.62006371365E+02  0.18831021789E+03  0.12500000000E+03 0.  0.
</event>
<event>
 5    0  0.5583350E-005  0.4370724E+03  0.7546771E-02  0.1031649E+00
         21   -1    0    0  502  501  0.00000000000E+00  0.00000000000E+00  0.13260324742E+03  0.13260324742E+03  0.00000000000E+00 0.  1.
         21   -1    0    0  501  502 -0.00000000000E+00 -0.00000000000E+00 -0.14406302913E+04  0.14406302913E+04  0.00000000000E+00 0. -1.
         25    1    1    2    0    0 -0.36791067725E+03  0.40945845063E+02 -0.48947212693E+03  0.62629289610E+03  0.12500000000E+03 0.  0.
         25    1    1    2    0    0  0.99651520098E+02 -0.74438257442E+02 -0.34620459413E+03  0.38852812077E+03  0.12500000000E+03 0.  0.
         25    1    1    2    0    0  0.26825915715E+03  0.33492412379E+02 -0.47235032277E+03  0.55841252180E+03  0.12500000000E+03 0.  0.
</event>
<event>
 5    0  0.6620970E-005  0.3691471E+03  0.7546771E-02  0.1055020E+00
         21   -1    0    0  502  501  0.00000000000E+00  0.00000000000E+00  0.27310722031E+03  0.27310722031E+03  0.00000000000E+00 0.  1.
         21   -1    0    0  501  502 -0.00000000000E+00 -0.00000000000E+00 -0.49896005138E+03  0.49896005138E+03  0.00000000000E+00 0.  1.
         25    1    1    2    0    0 -0.16089511183E+03 -0.88147835023E+02  0.10027820463E+03  0.24359391650E+03  0.12500000000E+03 0.  0.
         25    1    1    2    0    0  0.13382065362E+02  0.30373255696E+02 -0.29783035298E+03  0.32469914304E+03  0.12500000000E+03 0.  0.
         25    1    1    2    0    0  0.14751304647E+03  0.57774579326E+02 -0.28300682725E+02  0.20377421215E+03  0.12500000000E+03 0.  0.
</event>
<event>
 5    0  0.5583350E-005  0.5753816E+03  0.7546771E-02  0.9957840E-01
         21   -1    0    0  502  501  0.00000000000E+00  0.00000000000E+00  0.16318529768E+03  0.16318529768E+03  0.00000000000E+00 0. -1.
         21   -1    0    0  501  502 -0.00000000000E+00 -0.00000000000E+00 -0.20287608778E+04  0.20287608778E+04  0.00000000000E+00 0.  1.
         25    1    1    2    0    0 -0.51078291237E+02 -0.70488635753E+02 -0.67359986801E+02  0.16655331707E+03  0.12500000000E+03 0.  0.
         25    1    1    2    0    0  0.30926319572E+03  0.26166352262E+03 -0.39154645463E+03  0.57710064064E+03  0.12500000000E+03 0.  0.
         25    1    1    2    0    0 -0.25818490448E+03 -0.19117488687E+03 -0.14066691387E+04  0.14482922177E+04  0.12500000000E+03 0.  0.
</event>
<event>
 5    0  0.5583350E-005  0.2728937E+03  0.7546771E-02  0.1099635E+00
         21   -1    0    0  502  501  0.00000000000E+00  0.00000000000E+00  0.57794382605E+03  0.57794382605E+03  0.00000000000E+00 0. -1.
         21   -1    0    0  501  502 -0.00000000000E+00 -0.00000000000E+00 -0.12885507252E+03  0.12885507252E+03  0.00000000000E+00 0. -1.
         25    1    1    2    0    0 -0.12546102678E+03 -0.10675851024E+03  0.15819261378E+03  0.26036081081E+03  0.12500000000E+03 0.  0.
         25    1    1    2    0    0  0.56598814896E+02  0.29335778173E+00  0.48204353180E+02  0.14543786155E+03  0.12500000000E+03 0.  0.
         25    1    1    2    0    0  0.68862211886E+02  0.10646515246E+03  0.24269178657E+03  0.30100022622E+03  0.12500000000E+03 0.  0.
</event>
<event>
 5    0  0.5583350E-005  0.3051274E+03  0.7546771E-02  0.1082705E+00
         21   -1    0    0  502  501  0.00000000000E+00  0.00000000000E+00  0.30385547061E+03  0.30385547061E+03  0.00000000000E+00 0.  1.
         21   -1    0    0  501  502 -0.00000000000E+00 -0.00000000000E+00 -0.30640473938E+03  0.30640473938E+03  0.00000000000E+00 0.  1.
         25    1    1    2    0    0 -0.18137431685E+03 -0.17329587525E+02 -0.61447115247E+02  0.22934189628E+03  0.12500000000E+03 0.  0.
         25    1    1    2    0    0  0.16481542610E+03  0.54741960342E+02 -0.38298035854E+02  0.21737650851E+03  0.12500000000E+03 0.  0.
         25    1    1    2    0    0  0.16558890756E+02 -0.37412372817E+02  0.97195882337E+02  0.16354180519E+03  0.12500000000E+03 0.  0.
</event>
<event>
 5    0  0.5583350E-005  0.2770375E+03  0.7546771E-02  0.1097318E+00
         21   -1    0    0  502  501  0.00000000000E+00  0.00000000000E+00  0.11578445519E+03  0.11578445519E+03  0.00000000000E+00 0. -1.
         21   -1    0    0  501  502 -0.00000000000E+00 -0.00000000000E+00 -0.66286778034E+03  0.66286778034E+03  0.00000000000E+00 0. -1.
         25    1    1    2    0    0  0.16061276125E+02 -0.74707081869E+01 -0.22491710424E+02  0.12823670734E+03  0.12500000000E+03 0.  0.
         25    1    1    2    0    0 -0.58386709739E+02 -0.11794061922E+03 -0.15607398398E+03  0.23938062999E+03  0.12500000000E+03 0.  0.
         25    1    1    2    0    0  0.42325433614E+02  0.12541132741E+03 -0.36851763075E+03  0.41103489821E+03  0.12500000000E+03 0.  0.
</event>
<event>
 5    0  0.5583350E-005  0.4611402E+03  0.7546771E-02  0.1024451E+00
         21   -1    0    0  502  501  0.00000000000E+00  0.00000000000E+00  0.43470208975E+03  0.43470208975E+03  0.00000000000E+00 0. -1.
         21   -1    0    0  501  502 -0.00000000000E+00 -0.00000000000E+00 -0.48918617546E+03  0.48918617546E+03  0.00000000000E+00 0. -1.
         25    1    1    2    0    0  0.10512332269E+03 -0.23901549589E+03 -0.17555515810E+03  0.33856156572E+03  0.12500000000E+03 0.  0.
         25    1    1    2    0    0 -0.16914180027E+03 -0.15526109662E+02 -0.86680179591E+02  0.22800978535E+03  0.12500000000E+03 0.  0.
         25    1    1    2    0    0  0.64018477585E+02  0.25454160555E+03  0.20775125198E+03  0.35731691414E+03  0.12500000000E+03 0.  0.
</event>
<event>
 5    0  0.5583350E-005  0.3082584E+03  0.7546771E-02  0.1081184E+00
         21   -1    0    0  502  501  0.00000000000E+00  0.00000000000E+00  0.56232647264E+02  0.56232647264E+02  0.00000000000E+00 0.  1.
         21   -1    0    0  501  502 -0.00000000000E+00 -0.00000000000E+00 -0.16898230741E+04  0.16898230741E+04  0.00000000000E+00 0.  1.
         25    1    1    2    0    0 -0.16853028886E+03  0.23903377612E+02 -0.31942632102E+03  0.38292558583E+03  0.12500000000E+03 0.  0.
         25    1    1    2    0    0  0.49823604106E+02 -0.43102549718E+02 -0.94192097925E+03  0.95246015794E+03  0.12500000000E+03 0.  0.
         25    1    1    2    0    0  0.11870668475E+03  0.19199172106E+02 -0.37224312655E+03  0.41066997757E+03  0.12500000000E+03 0.  0.
</event>
<event>
 5    0  0.5583350E-005  0.3596643E+03  0.7546771E-02  0.1058717E+00
         21   -1    0    0  502  501  0.00000000000E+00  0.00000000000E+00  0.13971198378E+03  0.13971198378E+03  0.00000000000E+00 0. -1.
         21   -1    0    0  501  502 -0.00000000000E+00 -0.00000000000E+00 -0.92589323036E+03  0.92589323036E+03  0.00000000000E+00 0. -1.
         25    1    1    2    0    0  0.73922411943E+02 -0.28593145182E+02 -0.24369933223E+03  0.28512533291E+03  0.12500000000E+03 0.  0.
         25    1    1    2    0    0  0.17191382877E+03 -0.52523317207E+02 -0.40815517808E+03  0.46317244388E+03  0.12500000000E+03 0.  0.
         25    1    1    2    0    0 -0.24583624071E+03  0.81116462389E+02 -0.13432673627E+03  0.31730743735E+03  0.12500000000E+03 0.  0.
</event>
<event>
 5    0  0.5583350E-005  0.2115559E+03  0.7546771E-02  0.1140340E+00
         21   -1    0    0  502  501  0.00000000000E+00  0.00000000000E+00  0.20982136376E+04  0.20982136376E+04  0.00000000000E+00 0. -1.
         21   -1    0    0  501  502 -0.00000000000E+00 -0.00000000000E+00 -0.21330480783E+02  0.21330480783E+02  0.00000000000E+00 0. -1.
         25    1    1    2    0    0 -0.31190934804E+02 -0.27287581556E+02  0.52992125900E+03  0.54603940083E+03  0.12500000000E+03 0.  0.
         25    1    1    2    0    0  0.17976902069E+02 -0.48379206908E+02  0.58562688042E+03  0.60103873398E+03  0.12500000000E+03 0.  0.
         25    1    1    2    0    0  0.13214032735E+02  0.75666788464E+02  0.96133501742E+03  0.97246598360E+03  0.12500000000E+03 0.  0.
</event>
<event>
 5    0  0.5583350E-005  0.5969618E+03  0.7546771E-02  0.9911729E-01
         21   -1    0    0  502  501  0.00000000000E+00  0.00000000000E+00  0.64259830081E+03  0.64259830081E+03  0.00000000000E+00 0.  1.
         21   -1    0    0  501  502 -0.00000000000E+00 -0.00000000000E+00 -0.55456638395E+03  0.55456638395E+03  0.00000000000E+00 0.  1.
         25    1    1    2    0    0 -0.27977538865E+03 -0.28329437452E+03 -0.23251094063E+03  0.47771990563E+03  0.12500000000E+03 0.  0.
         25    1    1    2    0    0  0.30881695491E+03  0.14141169013E+03  0.37436352008E+03  0.52070934590E+03  0.12500000000E+03 0.  0.
         25    1    1    2    0    0 -0.29041566260E+02  0.14188268439E+03 -0.53820662595E+02  0.19873543324E+03  0.12500000000E+03 0.  0.
</event>
<event>
 5    0  0.5583350E-005  0.3787155E+03  0.7546771E-02  0.1051410E+00
         21   -1    0    0  502  501  0.00000000000E+00  0.00000000000E+00  0.66013851867E+03  0.66013851867E+03  0.00000000000E+00 0.  1.
         21   -1    0    0  501  502 -0.00000000000E+00 -0.00000000000E+00 -0.21726560654E+03  0.21726560654E+03  0.00000000000E+00 0.  1.
         25    1    1    2    0    0  0.94150785754E+01  0.15226237702E+03  0.38092390775E+03  0.42895279304E+03  0.12500000000E+03 0.  0.
         25    1    1    2    0    0 -0.10671103129E+03 -0.21567121388E+03  0.15408098082E+02  0.27159478305E+03  0.12500000000E+03 0.  0.
         25    1    1    2    0    0  0.97295952710E+02  0.63408836855E+02  0.46540906293E+02  0.17685654911E+03  0.12500000000E+03 0.  0.
</event>
<event>
 5    0  0.5583350E-005  0.3535130E+03  0.7546771E-02  0.1061182E+00
         21   -1    0    0  502  501  0.00000000000E+00  0.00000000000E+00  0.16469379740E+03  0.16469379740E+03  0.00000000000E+00 0. -1.
         21   -1    0    0  501  502 -0.00000000000E+00 -0.00000000000E+00 -0.75881088918E+03  0.75881088918E+03  0.00000000000E+00 0. -1.
         25    1    1    2    0    0  0.51911098517E+02  0.22515536393E+01 -0.30945459808E+03  0.33776764190E+03  0.12500000000E+03 0.  0.
         25    1    1    2    0    0 -0.21552557298E+03  0.10879045635E+03 -0.10775323006E+03  0.29244212178E+03  0.12500000000E+03 0.  0.
         25    1    1    2    0    0  0.16361447446E+03 -0.11104200999E+03 -0.17690926365E+03  0.29329492290E+03  0.12500000000E+03 0.  0.
</event>
<event>
 5    0  0.5583350E-005  0.2947728E+03  0.7546771E-02  0.1087883E+00
         21   -1    0    0  502  501  0.00000000000E+00  0.00000000000E+00  0.29321621871E+04  0.29321621871E+04  0.00000000000E+00 0.  1.
         21   -1    0    0  501  502 -0.00000000000E+00 -0.00000000000E+00 -0.29633771020E+02  0.29633771020E+02  0.00000000000E+00 0.  1.
         25    1    1    2    0    0  0.23113843081E+02  0.47585567813E+02  0.16114050820E+04  0.16171116147E+04  0.12500000000E+03 0.  0.
         25    1    1    2    0    0 -0.98451359850E+02 -0.71809125214E+01  0.27874364550E+03  0.32104089408E+03  0.12500000000E+03 0.  0.
         25    1    1    2    0    0  0.75337516769E+02 -0.40404655291E+02  0.10123796886E+04  0.10236434494E+04  0.12500000000E+03 0.  0.
</event>
<event>
 5    0  0.5583350E-005  0.2190260E+03  0.7546771E-02  0.1134611E+00
         21   -1    0    0  502  501  0.00000000000E+00  0.00000000000E+00  0.30871052835E+02  0.30871052835E+02  0.00000000000E+00 0. -1.
         21   -1    0    0  501  502 -0.00000000000E+00 -0.00000000000E+00 -0.15539599147E+04  0.15539599147E+04  0.00000000000E+00 0. -1.
         25    1    1    2    0    0  0.40305023668E+02  0.22894421784E+01 -0.75405998315E+03  0.76541570056E+03  0.12500000000E+03 0.  0.
         25    1    1    2    0    0 -0.73171193327E+02  0.10288271382E+02 -0.50044450156E+03  0.52108499422E+03  0.12500000000E+03 0.  0.
         25    1    1    2    0    0  0.32866169659E+02 -0.12577713560E+02 -0.26858437712E+03  0.29833027272E+03  0.12500000000E+03 0.  0.
</event>
<event>
 5    0  0.5583350E-005  0.4796464E+03  0.7546771E-02  0.1019232E+00
         21   -1    0    0  502  501  0.00000000000E+00  0.00000000000E+00  0.23272427624E+03  0.23272427624E+03  0.00000000000E+00 0. -1.
         21   -1    0    0  501  502 -0.00000000000E+00 -0.00000000000E+00 -0.98855446318E+03  0.98855446318E+03  0.00000000000E+00 0. -1.
         25    1    1    2    0    0 -0.94775871843E+02 -0.11958472969E+03  0.12056363689E+03  0.23117864088E+03  0.12500000000E+03 0.  0.
         25    1    1    2    0    0  0.10303807814E+03 -0.47769102888E+02 -0.12485752535E+03  0.21003126999E+03  0.12500000000E+03 0.  0.
         25    1    1    2    0    0 -0.82622062940E+01  0.16735383258E+03 -0.75153629848E+03  0.78006882855E+03  0.12500000000E+03 0.  0.
</event>
<event>
 5    0  0.5583350E-005  0.2159550E+03  0.7546771E-02  0.1136935E+00
         21   -1    0    0  502  501  0.00000000000E+00  0.00000000000E+00  0.51238407426E+03  0.51238407426E+03  0.00000000000E+00 0.  1.
         21   -1    0    0  501  502 -0.00000000000E+00 -0.00000000000E+00 -0.91018789413E+02  0.91018789413E+02  0.00000000000E+00 0.  1.
         25    1    1    2    0    0  0.62415647675E+02  0.40041130686E+02  0.20190574266E+03  0.24877687621E+03  0.12500000000E+03 0.  0.
         25    1    1    2    0    0  0.15765033616E+02 -0.36154068971E+02  0.10370630994E+03  0.16713961741E+03  0.12500000000E+03 0.  0.
         25    1    1    2    0    0 -0.78180681291E+02 -0.38870617147E+01  0.11575323225E+03  0.18748637005E+03  0.12500000000E+03 0.  0.
</event>
<event>
 5    0  0.5583350E-005  0.2997939E+03  0.7546771E-02  0.1085344E+00
         21   -1    0    0  502  501  0.00000000000E+00  0.00000000000E+00  0.48360822179E+03  0.48360822179E+03  0.00000000000E+00 0.  1.
         21   -1    0    0  501  502 -0.00000000000E+00 -0.00000000000E+00 -0.18584540307E+03  0.18584540307E+03  0.00000000000E+00 0.  1.
         25    1    1    2    0    0  0.15981499938E+02 -0.24147723187E+02  0.77956923101E+02  0.15013594751E+03  0.12500000000E+03 0.  0.
         25    1    1    2    0    0 -0.14077016482E+03 -0.13536136782E+03  0.94900792121E+02  0.25053961672E+03  0.12500000000E+03 0.  0.
         25    1    1    2    0    0  0.12478866488E+03  0.15950909101E+03  0.12490510349E+03  0.26877806063E+03  0.12500000000E+03 0.  0.
</event>
<event>
 5    0  0.5911958E-005  0.3425173E+03  0.7546771E-02  0.1065729E+00
         21   -1    0    0  502  501  0.00000000000E+00  0.00000000000E+00  0.35573077701E+03  0.35573077701E+03  0.00000000000E+00 0.  1.
         21   -1    0    0  501  502 -0.00000000000E+00 -0.00000000000E+00 -0.32979470569E+03  0.32979470569E+03  0.00000000000E+00 0.  1.
         25    1    1    2    0    0 -0.12290414384E+03  0.76016459390E+02 -0.70489936089E+02  0.20366089895E+03  0.12500000000E+03 0.  0.
         25    1    1    2    0    0 -0.11580401895E+02  0.13845832233E+03  0.64605569342E+02  0.19774653554E+03  0.12500000000E+03 0.  0.
         25    1    1    2    0    0  0.13448454574E+03 -0.21447478172E+03  0.31820438066E+02  0.28411804820E+03  0.12500000000E+03 0.  0.
</event>
<event>
 5    0  0.5915330E-005  0.2992024E+03  0.7546771E-02  0.1085640E+00
         21   -1    0    0  502  501  0.00000000000E+00  0.00000000000E+00  0.15817389435E+03  0.15817389435E+03  0.00000000000E+00 0. -1.
         21   -1    0    0  501  502 -0.00000000000E+00 -0.00000000000E+00 -0.56597246774E+03  0.56597246774E+03  0.00000000000E+00 0. -1.
         25    1    1    2    0    0  0.27814195554E+02 -0.11079288648E+03 -0.14734082507E+03  0.22446160451E+03  0.12500000000E+03 0.  0.
         25    1    1    2    0    0 -0.14779282888E+03  0.14158395878E+03 -0.94408764811E+02  0.25773387927E+03  0.12500000000E+03 0.  0.
         25    1    1    2    0    0  0.11997863332E+03 -0.30791072298E+02 -0.16604898351E+03  0.24195087830E+03  0.12500000000E+03 0.  0.
</event>
<event>
 5    0  0.5583350E-005  0.4534107E+03  0.7546771E-02  0.1026710E+00
         21   -1    0    0  502  501  0.00000000000E+00  0.00000000000E+00  0.78457143715E+03  0.78457143715E+03  0.00000000000E+00 0. -1.
         21   -1    0    0  501  502 -0.00000000000E+00 -0.00000000000E+00 -0.26203006125E+03  0.26203006125E+03  0.00000000000E+00 0. -1.
         25    1    1    2    0    0  0.22841539764E+03 -0.11399077501E+03  0.10709050144E+03  0.30374473849E+03  0.12500000000E+03 0.  0.
         25    1    1    2    0    0  0.15122604006E+03  0.36562341270E+02  0.78783778235E+02  0.21456468420E+03  0.12500000000E+03 0.  0.
         25    1    1    2    0    0 -0.37964143770E+03  0.77428433741E+02  0.33666709623E+03  0.52829207571E+03  0.12500000000E+03 0.  0.
</event>
<event>
 5    0  0.5583350E-005  0.2668929E+03  0.7546771E-02  0.1103071E+00
         21   -1    0    0  502  501  0.00000000000E+00  0.00000000000E+00  0.26123229402E+02  0.26123229402E+02  0.00000000000E+00 0.  1.
         21   -1    0    0  501  502 -0.00000000000E+00 -0.00000000000E+00 -0.27267606592E+04  0.27267606592E+04  0.00000000000E+00 0.  1.
         25    1    1    2    0    0 -0.11749662289E+03 -0.51065664394E+02 -0.10495648600E+04  0.10647180631E+04  0.12500000000E+03 0.  0.
         25    1    1    2    0    0  0.35077893829E+02  0.12908290507E+03 -0.84786705960E+03  0.86740786587E+03  0.12500000000E+03 0.  0.
         25    1    1    2    0    0  0.82418729063E+02 -0.78017240673E+02 -0.80320551011E+03  0.82075795958E+03  0.12500000000E+03 0.  0.
</event>
<event>
 5    0  0.5583350E-005  0.2308446E+03  0.7546771E-02  0.1126047E+00
         21   -1    0    0  502  501  0.00000000000E+00  0.00000000000E+00  0.98465878386E+02  0.98465878386E+02  0.00000000000E+00 0.  1.
         21   -1    0    0  501  502 -0.00000000000E+00 -0.00000000000E+00 -0.54119475293E+03  0.54119475293E+03  0.00000000000E+00 0.  1.
         25    1    1    2    0    0 -0.50482011920E+02 -0.54092201076E+02 -0.12427477373E+03  0.19116385414E+03  0.12500000000E+03 0.  0.
         25    1    1    2    0    0 -0.35588256671E+02 -0.26409799051E+02 -0.19941467073E+03  0.23948948286E+03  0.12500000000E+03 0.  0.
         25    1    1    2    0    0  0.86070268591E+02  0.80502000128E+02 -0.11903943008E+03  0.20900729431E+03  0.12500000000E+03 0.  0.
</event>
<event>
 5    0  0.5583350E-005  0.2854605E+03  0.7546771E-02  0.1092743E+00
         21   -1    0    0  502  501  0.00000000000E+00  0.00000000000E+00  0.10785856105E+03  0.10785856105E+03  0.00000000000E+00 0. -1.
         21   -1    0    0  501  502 -0.00000000000E+00 -0.00000000000E+00 -0.75550538681E+03  0.75550538681E+03  0.00000000000E+00 0. -1.
         25    1    1    2    0    0 -0.12724428543E+03  0.41924428004E+02 -0.26683308119E+03  0.32368759484E+03  0.12500000000E+03 0.  0.
         25    1    1    2    0    0  0.56821146131E+02  0.46590046558E+02 -0.26634187573E+02  0.14742338700E+03  0.12500000000E+03 0.  0.
         25    1    1    2    0    0  0.70423139301E+02 -0.88514474562E+02 -0.35417955700E+03  0.39225296602E+03  0.12500000000E+03 0.  0.
</event>
<event>
 5    0  0.5583350E-005  0.2633657E+03  0.7546771E-02  0.1105138E+00
         21   -1    0    0  502  501  0.00000000000E+00  0.00000000000E+00  0.80465166354E+03  0.80465166354E+03  0.00000000000E+00 0.  1.
         21   -1    0    0  501  502 -0.00000000000E+00 -0.00000000000E+00 -0.86200677153E+02  0.86200677153E+02  0.00000000000E+00 0.  1.
         25    1    1    2    0    0  0.10273859450E+03  0.48798902857E+02  0.23435087108E+03  0.28893231473E+03  0.12500000000E+03 0.  0.
         25    1    1    2    0    0 -0.83282030690E+02 -0.12974924437E+03  0.34050660544E+03  0.39413260637E+03  0.12500000000E+03 0.  0.
         25    1    1    2    0    0 -0.19456563811E+02  0.80950341515E+02  0.14359350986E+03  0.20778741959E+03  0.12500000000E+03 0.  0.
</event>
<event>
 5    0  0.5583350E-005  0.2188921E+03  0.7546771E-02  0.1134712E+00
         21   -1    0    0  502  501  0.00000000000E+00  0.00000000000E+00  0.19013616740E+03  0.19013616740E+03  0.00000000000E+00 0. -1.
         21   -1    0    0  501  502 -0.00000000000E+00 -0.00000000000E+00 -0.25199713005E+03  0.25199713005E+03  0.00000000000E+00 0. -1.
         25    1    1    2    0    0 -0.16737543138E+02 -0.18308202402E+02  0.16341655388E+02  0.12848106991E+03  0.12500000000E+03 0.  0.
         25    1    1    2    0    0 -0.23692781604E+02  0.86578717143E+02 -0.56896340133E+02  0.16407137375E+03  0.12500000000E+03 0.  0.
         25    1    1    2    0    0  0.40430324742E+02 -0.68270514742E+02 -0.21306277910E+02  0.14958085379E+03  0.12500000000E+03 0.  0.
</event>
<event>
 5    0  0.5583350E-005  0.2277856E+03  0.7546771E-02  0.1128208E+00
         21   -1    0    0  502  501  0.00000000000E+00  0.00000000000E+00  0.25916434360E+03  0.25916434360E+03  0.00000000000E+00 0.  1.
         21   -1    0    0  501  502 -0.00000000000E+00 -0.00000000000E+00 -0.20020615817E+03  0.20020615817E+03  0.00000000000E+00 0.  1.
         25    1    1    2    0    0  0.16298492691E+02 -0.61192543807E+02  0.89058366143E+02  0.16603180678E+03  0.12500000000E+03 0.  0.
         25    1    1    2    0    0 -0.34755941640E+02  0.21547378116E+02  0.47517426420E+02  0.13983980405E+03  0.12500000000E+03 0.  0.
         25    1    1    2    0    0  0.18457448949E+02  0.39645165691E+02 -0.77617607130E+02  0.15349889094E+03  0.12500000000E+03 0.  0.
</event>
<event>
 5    0  0.5583350E-005  0.4539160E+03  0.7546771E-02  0.1026561E+00
         21   -1    0    0  502  501  0.00000000000E+00  0.00000000000E+00  0.35239302681E+03  0.35239302681E+03  0.00000000000E+00 0.  1.
         21   -1    0    0  501  502 -0.00000000000E+00 -0.00000000000E+00 -0.58468743709E+03  0.58468743709E+03  0.00000000000E+00 0.  1.
         25    1    1    2    0    0 -0.36446751952E+02 -0.15155894234E+03  0.75972467535E+02  0.21376457741E+03  0.12500000000E+03 0.  0.
         25    1    1    2    0    0  0.12717765891E+02  0.29497012438E+03 -0.39846862945E+03  0.51144047992E+03  0.12500000000E+03 0.  0.
         25    1    1    2    0    0  0.23728986061E+02 -0.14341118204E+03  0.90201751631E+02  0.21187540657E+03  0.12500000000E+03 0.  0.
</event>
<event>
 5    0  0.5583350E-005  0.2656125E+03  0.7546771E-02  0.1103817E+00
         21   -1    0    0  502  501  0.00000000000E+00  0.00000000000E+00  0.11428638778E+03  0.11428638778E+03  0.00000000000E+00 0. -1.
         21   -1    0    0  501  502 -0.00000000000E+00 -0.00000000000E+00 -0.61730900506E+03  0.61730900506E+03  0.00000000000E+00 0. -1.
         25    1    1    2    0    0 -0.26010900363E+01 -0.10248769107E+02 -0.88385074583E+02  0.15345593617E+03  0.12500000000E+03 0.  0.
         25    1    1    2    0    0  0.14910784191E+03  0.60337059859E+02 -0.20096928222E+03  0.28615967869E+03  0.12500000000E+03 0.  0.
         25    1    1    2    0    0 -0.14650675187E+03 -0.50088290752E+02 -0.21366826048E+03  0.29197977799E+03  0.12500000000E+03 0.  0.
</event>
<event>
 5    0  0.5583350E-005  0.2174260E+03  0.7546771E-02  0.1135817E+00
         21   -1    0    0  502  501  0.00000000000E+00  0.00000000000E+00  0.37414889075E+02  0.37414889075E+02  0.00000000000E+00 0. -1.
         21   -1    0    0  501  502 -0.00000000000E+00 -0.00000000000E+00 -0.12635094407E+04  0.12635094407E+04  0.00000000000E+00 0. -1.
         25    1    1    2    0    0 -0.17094290524E+02  0.52983742345E+01 -0.44785548878E+03  0.46531690961E+03  0.12500000000E+03 0.  0.
         25    1    1    2    0    0 -0.45872438670E+02  0.52151067558E+02 -0.27276880562E+03  0.30798025229E+03  0.12500000000E+03 0.  0.
         25    1    1    2    0    0  0.62966729194E+02 -0.57449441793E+02 -0.50547025718E+03  0.52762716784E+03  0.12500000000E+03 0.  0.
</event>
<event>
 5    0  0.5782379E-005  0.3518720E+03  0.7546771E-02  0.1061849E+00
         21   -1    0    0  502  501  0.00000000000E+00  0.00000000000E+00  0.14626874728E+03  0.14626874728E+03  0.00000000000E+00 0. -1.
         21   -1    0    0  501  502 -0.00000000000E+00 -0.00000000000E+00 -0.84648205305E+03  0.84648205305E+03  0.00000000000E+00 0. -1.
         25    1    1    2    0    0  0.11860606998E+02  0.13312978022E+03 -0.41011055224E+02  0.18753964656E+03  0.12500000000E+03 0.  0.
         25    1    1    2    0    0 -0.13212440620E+03 -0.19761691936E+03 -0.46474453103E+03  0.53676976876E+03  0.12500000000E+03 0.  0.
         25    1    1    2    0    0  0.12026379920E+03  0.64487139140E+02 -0.19445771951E+03  0.26844138502E+03  0.12500000000E+03 0.  0.
</event>
<event>
 5    0  0.5583350E-005  0.2667088E+03  0.7546771E-02  0.1103178E+00
         21   -1    0    0  502  501  0.00000000000E+00  0.00000000000E+00  0.20834687847E+03  0.20834687847E+03  0.00000000000E+00 0.  1.
         21   -1    0    0  501  502 -0.00000000000E+00 -0.00000000000E+00 -0.34141895783E+03  0.34141895783E+03  0.00000000000E+00 0.  1.
         25    1    1    2    0    0 -0.18858280877E+02  0.10760576672E+03  0.34337424394E+02  0.16952490821E+03  0.12500000000E+03 0.  0.
         25    1    1    2    0    0 -0.26214343184E+02 -0.15429558919E+03 -0.90900572691E+02  0.21995962072E+03  0.12500000000E+03 0.  0.
         25    1    1    2    0    0  0.45072624062E+02  0.46689822463E+02 -0.76508931066E+02  0.16028130738E+03  0.12500000000E+03 0.  0.
</event>
<event>
 5    0  0.5583350E-005  0.3766132E+03  0.7546771E-02  0.1052193E+00
         21   -1    0    0  502  501  0.00000000000E+00  0.00000000000E+00  0.10446479113E+04  0.10446479113E+04  0.00000000000E+00 0. -1.
         21   -1    0    0  501  502 -0.00000000000E+00 -0.00000000000E+00 -0.13577542540E+03  0.13577542540E+03  0.00000000000E+00 0. -1.
         25    1    1    2    0    0  0.93954083949E+02 -0.18610697991E+03  0.77052080420E+03  0.80795450835E+03  0.12500000000E+03 0.  0.
         25    1    1    2    0    0 -0.39354816664E+02  0.78417235472E+02  0.39476278960E+01  0.15276991909E+03  0.12500000000E+03 0.  0.
         25    1    1    2    0    0 -0.54599267285E+02  0.10768974444E+03  0.13440405377E+03  0.21969890923E+03  0.12500000000E+03 0.  0.
</event>
<event>
 5    0  0.5583350E-005  0.4354670E+03  0.7546771E-02  0.1032147E+00
         21   -1    0    0  502  501  0.00000000000E+00  0.00000000000E+00  0.51608235803E+03  0.51608235803E+03  0.00000000000E+00 0.  1.
         21   -1    0    0  501  502 -0.00000000000E+00 -0.00000000000E+00 -0.36744428633E+03  0.36744428633E+03  0.00000000000E+00 0.  1.
         25    1    1    2    0    0 -0.73143483481E+02 -0.74428536916E+02 -0.22036782927E+03  0.27400101544E+03  0.12500000000E+03 0.  0.
         25    1    1    2    0    0  0.20517910446E+03 -0.24017730265E+02  0.31300867176E+03  0.39531600635E+03  0.12500000000E+03 0.  0.
         25    1    1    2    0    0 -0.13203562098E+03  0.98446267181E+02  0.55997229202E+02  0.21420962258E+03  0.12500000000E+03 0.  0.
</event>
<event>
 5    0  0.5583350E-005  0.4521956E+03  0.7546771E-02  0.1027069E+00
         21   -1    0    0  502  501  0.00000000000E+00  0.00000000000E+00  0.32415459784E+03  0.32415459784E+03  0.00000000000E+00 0. -1.
         21   -1    0    0  501  502 -0.00000000000E+00 -0.00000000000E+00 -0.63081278903E+03  0.63081278903E+03  0.00000000000E+00 0. -1.
         25    1    1    2    0    0  0.10796431471E+03  0.35200419543E+02  0.10028402473E+03  0.19641091721E+03  0.12500000000E+03 0.  0.
         25    1    1    2    0    0 -0.91471821629E+02 -0.21726406696E+02 -0.54741283732E+03  0.56931972157E+03  0.12500000000E+03 0.  0.
         25    1    1    2    0    0 -0.16492493076E+02 -0.13474012847E+02  0.14047062140E+03  0.18923674809E+03  0.12500000000E+03 0.  0.
</event>
<event>
 5    0  0.5583350E-005  0.2312164E+03  0.7546771E-02  0.1125787E+00
         21   -1    0    0  502  501  0.00000000000E+00  0.00000000000E+00  0.14929228882E+03  0.14929228882E+03  0.00000000000E+00 0.  1.
         21   -1    0    0  501  502 -0.00000000000E+00 -0.00000000000E+00 -0.35809643009E+03  0.35809643009E+03  0.00000000000E+00 0.  1.
         25    1    1    2    0    0 -0.63725095016E+01 -0.34302908527E+02 -0.71176512316E+02  0.14801484492E+03  0.12500000000E+03 0.  0.
         25    1    1    2    0    0 -0.68461109092E+02 -0.59670867244E+02 -0.93066328960E+02  0.18037149842E+03  0.12500000000E+03 0.  0.
         25    1    1    2    0    0  0.74833618594E+02  0.93973775771E+02 -0.44561299988E+02  0.17900237557E+03  0.12500000000E+03 0.  0.
</event>
<event>
 5    0  0.5583350E-005  0.3581548E+03  0.7546771E-02  0.1059317E+00
         21   -1    0    0  502  501  0.00000000000E+00  0.00000000000E+00  0.13448835577E+04  0.13448835577E+04  0.00000000000E+00 0.  1.
         21   -1    0    0  501  502 -0.00000000000E+00 -0.00000000000E+00 -0.95379911806E+02  0.95379911806E+02  0.00000000000E+00 0.  1.
         25    1    1    2    0    0 -0.19132856833E+03  0.35418590878E+02  0.61391085826E+03  0.65602792587E+03  0.12500000000E+03 0.  0.
         25    1    1    2    0    0  0.27064888673E+03 -0.56726466286E+02  0.36151778184E+03  0.47200510427E+03  0.12500000000E+03 0.  0.
         25    1    1    2    0    0 -0.79320318401E+02  0.21307875408E+02  0.27407500582E+03  0.31223043939E+03  0.12500000000E+03 0.  0.
</event>
<event>
 5    0  0.5583350E-005  0.2518085E+03  0.7546771E-02  0.1112167E+00
         21   -1    0    0  502  501  0.00000000000E+00  0.00000000000E+00  0.67571520322E+03  0.67571520322E+03  0.00000000000E+00 0. -1.
         21   -1    0    0  501  502 -0.00000000000E+00 -0.00000000000E+00 -0.93837614160E+02  0.93837614160E+02  0.00000000000E+00 0. -1.
         25    1    1    2    0    0  0.88498117702E+01  0.18006061529E+02  0.10276606499E+03  0.16305950305E+03  0.12500000000E+03 0.  0.
         25    1    1    2    0    0  0.12193510649E+03 -0.58699952293E+02  0.27179198506E+03  0.32834393208E+03  0.12500000000E+03 0.  0.
         25    1    1    2    0    0 -0.13078491826E+03  0.40693890764E+02  0.20731953901E+03  0.27814938225E+03  0.12500000000E+03 0.  0.
</event>
<event>
 5    0  0.5583350E-005  0.2735824E+03  0.7546771E-02  0.1099247E+00
         21   -1    0    0  502  501  0.00000000000E+00  0.00000000000E+00  0.26299563464E+03  0.26299563464E+03  0.00000000000E+00 0. -1.
         21   -1    0    0  501  502 -0.00000000000E+00 -0.00000000000E+00 -0.28459542807E+03  0.28459542807E+03  0.00000000000E+00 0. -1.
         25    1    1    2    0    0 -0.42533147431E+02  0.42754304410E+02  0.45670668976E+01  0.13886272817E+03  0.12500000000E+03 0.  0.
         25    1    1    2    0    0  0.12617754686E+03  0.33047477053E+02  0.92241023679E+02  0.20284554597E+03  0.12500000000E+03 0.  0.
         25    1    1    2    0    0 -0.83644399429E+02 -0.75801781463E+02 -0.11840788401E+03  0.20588278856E+03  0.12500000000E+03 0.  0.
</event>
<event>
 5    0  0.5583350E-005  0.3269154E+03  0.7546771E-02  0.1072510E+00
         21   -1    0    0  502  501  0.00000000000E+00  0.00000000000E+00  0.31940930534E+03  0.31940930534E+03  0.00000000000E+00 0. -1.
         21   -1    0    0  501  502 -0.00000000000E+00 -0.00000000000E+00 -0.33459782038E+03  0.33459782038E+03  0.00000000000E+00 0. -1.
         25    1    1    2    0    0 -0.74950598791E+02 -0.44342995572E+02 -0.73802171552E+02  0.16927980990E+03  0.12500000000E+03 0.  0.
         25    1    1    2    0    0 -0.15547374056E+02  0.14748773231E+03  0.17863654297E+03  0.26368611360E+03  0.12500000000E+03 0.  0.
         25    1    1    2    0    0  0.90497972847E+02 -0.10314473674E+03 -0.12002288646E+03  0.22104120222E+03  0.12500000000E+03 0.  0.
</event>
<event>
 5    0  0.5583350E-005  0.3357932E+03  0.7546771E-02  0.1068602E+00
         21   -1    0    0  502  501  0.00000000000E+00  0.00000000000E+00  0.24537248015E+04  0.24537248015E+04  0.00000000000E+00 0. -1.
         21   -1    0    0  501  502 -0.00000000000E+00 -0.00000000000E+00 -0.45953437447E+02  0.45953437447E+02  0.00000000000E+00 0. -1.
         25    1    1    2    0    0  0.17970190001E+03  0.31839838640E+02  0.48616025805E+03  0.53411922330E+03  0.12500000000E+03 0.  0.
         25    1    1    2    0    0 -0.17349702927E+03 -0.12431960891E+03  0.95554863333E+03  0.98704345142E+03  0.12500000000E+03 0.  0.
         25    1    1    2    0    0 -0.62048707416E+01  0.92479770275E+02  0.96606247268E+03  0.97851556423E+03  0.12500000000E+03 0.  0.
</event>
<event>
 5    0  0.5686334E-005  0.4839279E+03  0.7546771E-02  0.1018061E+00
         21   -1    0    0  502  501  0.00000000000E+00  0.00000000000E+00  0.71932731957E+03  0.71932731957E+03  0.00000000000E+00 0. -1.
         21   -1    0    0  501  502 -0.00000000000E+00 -0.00000000000E+00 -0.32556273004E+03  0.32556273004E+03  0.00000000000E+00 0. -1.
         25    1    1    2    0    0 -0.21294017131E+03 -0.14559570046E+03 -0.77531732339E+02  0.29694746011E+03  0.12500000000E+03 0.  0.
         25    1    1    2    0    0  0.28736430487E+03  0.18927232130E+03  0.15596553981E+03  0.39793530245E+03  0.12500000000E+03 0.  0.
         25    1    1    2    0    0 -0.74424133568E+02 -0.43676620842E+02  0.31533078206E+03  0.35000728704E+03  0.12500000000E+03 0.  0.
</event>
<event>
 5    0  0.5583350E-005  0.4546561E+03  0.7546771E-02  0.1026343E+00
         21   -1    0    0  502  501  0.00000000000E+00  0.00000000000E+00  0.31086581475E+03  0.31086581475E+03  0.00000000000E+00 0. -1.
         21   -1    0    0  501  502 -0.00000000000E+00 -0.00000000000E+00 -0.66495618571E+03  0.66495618571E+03  0.00000000000E+00 0. -1.
         25    1    1    2    0    0 -0.78187861354E+02 -0.37101999452E+03 -0.28884158099E+03  0.49277138402E+03  0.12500000000E+03 0.  0.
         25    1    1    2    0    0  0.65298814523E+02  0.24182529944E+03 -0.10411698023E+03  0.29867834906E+03  0.12500000000E+03 0.  0.
         25    1    1    2    0    0  0.12889046831E+02  0.12919469508E+03  0.38868190260E+02  0.18437226738E+03  0.12500000000E+03 0.  0.
</event>
<event>
 5    0  0.5583350E-005  0.5075872E+03  0.7546771E-02  0.1011817E+00
         21   -1    0    0  502  501  0.00000000000E+00  0.00000000000E+00  0.41346387335E+03  0.41346387335E+03  0.00000000000E+00 0.  1.
         21   -1    0    0  501  502 -0.00000000000E+00 -0.00000000000E+00 -0.62313720714E+03  0.62313720714E+03  0.00000000000E+00 0. -1.
         25    1    1    2    0    0  0.47537663532E+02 -0.31652965218E+03 -0.18775346062E+03  0.39157018801E+03  0.12500000000E+03 0.  0.
         25    1    1    2    0    0  0.25890645430E+02  0.34198704235E+03  0.17040128486E+03  0.40284868194E+03  0.12500000000E+03 0.  0.
         25    1    1    2    0    0 -0.73428308962E+02 -0.25457390167E+02 -0.19232115805E+03  0.24218221054E+03  0.12500000000E+03 0.  0.
</event>
<event>
 5    0  0.5583350E-005  0.2245808E+03  0.7546771E-02  0.1130513E+00
         21   -1    0    0  502  501  0.00000000000E+00  0.00000000000E+00  0.88571383207E+02  0.88571383207E+02  0.00000000000E+00 0.  1.
         21   -1    0    0  501  502 -0.00000000000E+00 -0.00000000000E+00 -0.56944496635E+03  0.56944496635E+03  0.00000000000E+00 0.  1.
         25    1    1    2    0    0  0.78104800163E+02  0.38639636270E+02 -0.14341939202E+03  0.20925463748E+03  0.12500000000E+03 0.  0.
         25    1    1    2    0    0 -0.91337975907E+02  0.20073202873E+02 -0.16040222770E+03  0.22382902843E+03  0.12500000000E+03 0.  0.
         25    1    1    2    0    0  0.13233175744E+02 -0.58712839143E+02 -0.17705196342E+03  0.22493268364E+03  0.12500000000E+03 0.  0.
</event>
<event>
 5    0  0.5583350E-005  0.7463400E+03  0.7546771E-02  0.9641110E-01
         21   -1    0    0  502  501  0.00000000000E+00  0.00000000000E+00  0.42943391442E+03  0.42943391442E+03  0.00000000000E+00 0.  1.
         21   -1    0    0  501  502 -0.00000000000E+00 -0.00000000000E+00 -0.12971109203E+04  0.12971109203E+04  0.00000000000E+00 0.  1.
         25    1    1    2    0    0  0.12839751553E+02 -0.19231559915E+03 -0.13727403421E+03  0.26761784201E+03  0.12500000000E+03 0.  0.
         25    1    1    2    0    0 -0.47476170013E+03  0.41223287237E+03 -0.11906839234E+03  0.65202522576E+03  0.12500000000E+03 0.  0.
         25    1    1    2    0    0  0.46192194858E+03 -0.21991727322E+03 -0.61133457937E+03  0.80690176699E+03  0.12500000000E+03 0.  0.
</event>
<event>
 5    0  0.5583350E-005  0.2451372E+03  0.7546771E-02  0.1116417E+00
         21   -1    0    0  502  501  0.00000000000E+00  0.00000000000E+00  0.28420589139E+03  0.28420589139E+03  0.00000000000E+00 0.  1.
         21   -1    0    0  501  502 -0.00000000000E+00 -0.00000000000E+00 -0.21143910465E+03  0.21143910465E+03  0.00000000000E+00 0.  1.
         25    1    1    2    0    0 -0.13953953143E+02 -0.14928419977E+02 -0.70863141418E+02  0.14513495562E+03  0.12500000000E+03 0.  0.
         25    1    1    2    0    0  0.89474660729E+02  0.60545222370E+02  0.91565412989E+02  0.18889326012E+03  0.12500000000E+03 0.  0.
         25    1    1    2    0    0 -0.75520707585E+02 -0.45616802393E+02  0.52064515172E+02  0.16161678030E+03  0.12500000000E+03 0.  0.
</event>
<event>
 5    0  0.5583350E-005  0.4678350E+03  0.7546771E-02  0.1022533E+00
         21   -1    0    0  502  501  0.00000000000E+00  0.00000000000E+00  0.18145048243E+04  0.18145048243E+04  0.00000000000E+00 0. -1.
         21   -1    0    0  501  502 -0.00000000000E+00 -0.00000000000E+00 -0.12062222775E+03  0.12062222775E+03  0.00000000000E+00 0. -1.
         25    1    1    2    0    0  0.37985191167E-01  0.21971694305E+02  0.10490961671E+03  0.16466263836E+03  0.12500000000E+03 0.  0.
         25    1    1    2    0    0  0.33591462334E+03 -0.13815501077E+03  0.60314904835E+03  0.71507986666E+03  0.12500000000E+03 0.  0.
         25    1    1    2    0    0 -0.33595260853E+03  0.11618331646E+03  0.98582393146E+03  0.10553845470E+04  0.12500000000E+03 0.  0.
</event>
<event>
 5    0  0.5583350E-005  0.2606636E+03  0.7546771E-02  0.1106745E+00
         21   -1    0    0  502  501  0.00000000000E+00  0.00000000000E+00  0.93095988269E+02  0.93095988269E+02  0.00000000000E+00 0. -1.
         21   -1    0    0  501  502 -0.00000000000E+00 -0.00000000000E+00 -0.72984335140E+03  0.72984335140E+03  0.00000000000E+00 0. -1.
         25    1    1    2    0    0  0.57252414044E+02  0.30570348238E+02 -0.79117253913E+02  0.16154542696E+03  0.12500000000E+03 0.  0.
         25    1    1    2    0    0 -0.11834283878E+03 -0.20629804240E+02 -0.14560434646E+03  0.22639841435E+03  0.12500000000E+03 0.  0.
         25    1    1    2    0    0  0.61090424740E+02 -0.99405439988E+01 -0.41202576276E+03  0.43499549836E+03  0.12500000000E+03 0.  0.
</event>
<event>
 5    0  0.6603846E-005  0.7158658E+03  0.7546771E-02  0.9690478E-01
         21   -1    0    0  502  501  0.00000000000E+00  0.00000000000E+00  0.35098905409E+03  0.35098905409E+03  0.00000000000E+00 0.  1.
         21   -1    0    0  501  502 -0.00000000000E+00 -0.00000000000E+00 -0.14600564783E+04  0.14600564783E+04  0.00000000000E+00 0.  1.
         25    1    1    2    0    0 -0.34207876475E+03 -0.28134588923E+02 -0.12237533206E+03  0.38524039025E+03  0.12500000000E+03 0.  0.
         25    1    1    2    0    0  0.14253306133E+03  0.22251683494E+03 -0.10700799624E+04  0.11092905576E+04  0.12500000000E+03 0.  0.
         25    1    1    2    0    0  0.19954570342E+03 -0.19438224602E+03  0.83387870199E+02  0.31651458452E+03  0.12500000000E+03 0.  0.
</event>
<event>
 5    0  0.5583350E-005  0.3648058E+03  0.7546771E-02  0.1056697E+00
         21   -1    0    0  502  501  0.00000000000E+00  0.00000000000E+00  0.12749638524E+04  0.12749638524E+04  0.00000000000E+00 0.  1.
         21   -1    0    0  501  502 -0.00000000000E+00 -0.00000000000E+00 -0.10438202027E+03  0.10438202027E+03  0.00000000000E+00 0.  1.
         25    1    1    2    0    0 -0.77974459554E+02 -0.69361873642E+01  0.38301574245E+02  0.15238155278E+03  0.12500000000E+03 0.  0.
         25    1    1    2    0    0 -0.61707408348E+02  0.16714633640E+03  0.64704581410E+03  0.68267048241E+03  0.12500000000E+03 0.  0.
         25    1    1    2    0    0  0.13968186790E+03 -0.16021014904E+03  0.48523444378E+03  0.54429383747E+03  0.12500000000E+03 0.  0.
</event>
<event>
 5    0  0.5583350E-005  0.2853833E+03  0.7546771E-02  0.1092784E+00
         21   -1    0    0  502  501  0.00000000000E+00  0.00000000000E+00  0.14540536460E+04  0.14540536460E+04  0.00000000000E+00 0. -1.
         21   -1    0    0  501  502 -0.00000000000E+00 -0.00000000000E+00 -0.56011449770E+02  0.56011449770E+02  0.00000000000E+00 0. -1.
         25    1    1    2    0    0 -0.38926142094E+02  0.95705497549E+01  0.13864420891E+03  0.19092945458E+03  0.12500000000E+03 0.  0.
         25    1    1    2    0    0 -0.47798798887E+02  0.11151066408E+03  0.82525215371E+03  0.84343670218E+03  0.12500000000E+03 0.  0.
         25    1    1    2    0    0  0.86724940981E+02 -0.12108121384E+03  0.43414583356E+03  0.47569893896E+03  0.12500000000E+03 0.  0.
</event>
<event>
 5    0  0.5583350E-005  0.3439622E+03  0.7546771E-02  0.1065121E+00
         21   -1    0    0  502  501  0.00000000000E+00  0.00000000000E+00  0.43387610151E+03  0.43387610151E+03  0.00000000000E+00 0. -1.
         21   -1    0    0  501  502 -0.00000000000E+00 -0.00000000000E+00 -0.27268157131E+03  0.27268157131E+03  0.00000000000E+00 0. -1.
         25    1    1    2    0    0  0.15785565556E+02  0.77052263090E+02 -0.35586997768E+02  0.15191336260E+03  0.12500000000E+03 0.  0.
         25    1    1    2    0    0  0.12235505793E+03 -0.21813077311E+03  0.67725334583E+02  0.28768648790E+03  0.12500000000E+03 0.  0.
         25    1    1    2    0    0 -0.13814062348E+03  0.14107851002E+03  0.12905619339E+03  0.26695782232E+03  0.12500000000E+03 0.  0.
</event>
<event>
 5    0  0.5583350E-005  0.2136490E+03  0.7546771E-02  0.1138709E+00
         21   -1    0    0  502  501  0.00000000000E+00  0.00000000000E+00  0.43946499821E+03  0.43946499821E+03  0.00000000000E+00 0.  1.
         21   -1    0    0  501  502 -0.00000000000E+00 -0.00000000000E+00 -0.10386696555E+03  0.10386696555E+03  0.00000000000E+00 0.  1.
         25    1    1    2    0    0 -0.14831304292E+02  0.15788613252E+02  0.47145389189E+02  0.13534007395E+03  0.12500000000E+03 0.  0.
         25    1    1    2    0    0 -0.19147435773E+01  0.57315918996E+02  0.17884594304E+03  0.22560951256E+03  0.12500000000E+03 0.  0.
         25    1    1    2    0    0  0.16746047870E+02 -0.73104532248E+02  0.10960670043E+03  0.18238237726E+03  0.12500000000E+03 0.  0.
</event>
<event>
 5    0  0.5583350E-005  0.2756090E+03  0.7546771E-02  0.1098112E+00
         21   -1    0    0  502  501  0.00000000000E+00  0.00000000000E+00  0.53459253691E+02  0.53459253691E+02  0.00000000000E+00 0.  1.
         21   -1    0    0  501  502 -0.00000000000E+00 -0.00000000000E+00 -0.14209011489E+04  0.14209011489E+04  0.00000000000E+00 0.  1.
         25    1    1    2    0    0  0.80531414136E+02  0.33012027079E+02 -0.74100096300E+03  0.75649357550E+03  0.12500000000E+03 0.  0.
         25    1    1    2    0    0  0.56557164851E+01  0.63361779559E+02 -0.13547279468E+03  0.19499892394E+03  0.12500000000E+03 0.  0.
         25    1    1    2    0    0 -0.86187130621E+02 -0.96373806637E+02 -0.49096813754E+03  0.52286790318E+03  0.12500000000E+03 0.  0.
</event>
<event>
 5    0  0.5583350E-005  0.3392659E+03  0.7546771E-02  0.1067109E+00
         21   -1    0    0  502  501  0.00000000000E+00  0.00000000000E+00  0.12418144379E+03  0.12418144379E+03  0.00000000000E+00 0.  1.
         21   -1    0    0  501  502 -0.00000000000E+00 -0.00000000000E+00 -0.92688026890E+03  0.92688026890E+03  0.00000000000E+00 0.  1.
         25    1    1    2    0    0  0.96464334872E+02  0.36321828858E+02 -0.57232004974E+03  0.59481079554E+03  0.12500000000E+03 0.  0.
         25    1    1    2    0    0 -0.14491844113E+03  0.80701542221E+02 -0.16978396414E+03  0.26826421300E+03  0.12500000000E+03 0.  0.
         25    1    1    2    0    0  0.48454106260E+02 -0.11702337108E+03 -0.60594811227E+02  0.18798670416E+03  0.12500000000E+03 0.  0.
</event>
<event>
 5    0  0.5583350E-005  0.2630117E+03  0.7546771E-02  0.1105347E+00
         21   -1    0    0  502  501  0.00000000000E+00  0.00000000000E+00  0.23207128145E+03  0.23207128145E+03  0.00000000000E+00 0.  1.
         21   -1    0    0  501  502 -0.00000000000E+00 -0.00000000000E+00 -0.29807719618E+03  0.29807719618E+03  0.00000000000E+00 0.  1.
         25    1    1    2    0    0  0.15636830326E+02 -0.53464511227E+02 -0.10325447655E+03  0.17143351875E+03  0.12500000000E+03 0.  0.
         25    1    1    2    0    0  0.57868023167E+02  0.11562408045E+03 -0.38166401319E+02  0.18384588730E+03  0.12500000000E+03 0.  0.
         25    1    1    2    0    0 -0.73504853493E+02 -0.62159569227E+02  0.75414963129E+02  0.17486907159E+03  0.12500000000E+03 0.  0.
</event>
<event>
 5    0  0.5583350E-005  0.2222744E+03  0.7546771E-02  0.1132199E+00
         21   -1    0    0  502  501  0.00000000000E+00  0.00000000000E+00  0.50349100736E+03  0.50349100736E+03  0.00000000000E+00 0. -1.
         21   -1    0    0  501  502 -0.00000000000E+00 -0.00000000000E+00 -0.98126656879E+02  0.98126656879E+02  0.00000000000E+00 0. -1.
         25    1    1    2    0    0 -0.48095731778E+02  0.95851387976E+02  0.11859237976E+03  0.20295280370E+03  0.12500000000E+03 0.  0.
         25    1    1    2    0    0  0.15607848408E+02 -0.41799487549E+02  0.17427542550E+03  0.21906100982E+03  0.12500000000E+03 0.  0.
         25    1    1    2    0    0  0.32487883370E+02 -0.54051900427E+02  0.11249654521E+03  0.17960385071E+03  0.12500000000E+03 0.  0.
</event>
<event>
 5    0  0.5583350E-005  0.3236827E+03  0.7546771E-02  0.1073967E+00
         21   -1    0    0  502  501  0.00000000000E+00  0.00000000000E+00  0.26208665953E+03  0.26208665953E+03  0.00000000000E+00 0. -1.
         21   -1    0    0  501  502 -0.00000000000E+00 -0.00000000000E+00 -0.39975512342E+03  0.39975512342E+03  0.00000000000E+00 0. -1.
         25    1    1    2    0    0 -0.31546159050E+02  0.53192058827E+02 -0.17380177685E+03  0.22283763800E+03  0.12500000000E+03 0.  0.
         25    1    1    2    0    0 -0.37788555730E+01 -0.15513659392E+03 -0.10187969813E+03  0.22379927483E+03  0.12500000000E+03 0.  0.
         25    1    1    2    0    0  0.35325014623E+02  0.10194453509E+03  0.13801301109E+03  0.21520487012E+03  0.12500000000E+03 0.  0.
</event>
<event>
 5    0  0.5583350E-005  0.2106761E+03  0.7546771E-02  0.1141032E+00
         21   -1    0    0  502  501  0.00000000000E+00  0.00000000000E+00  0.46162651235E+02  0.46162651235E+02  0.00000000000E+00 0. -1.
         21   -1    0    0  501  502 -0.00000000000E+00 -0.00000000000E+00 -0.96147928349E+03  0.96147928349E+03  0.00000000000E+00 0. -1.
         25    1    1    2    0    0  0.36213766193E+02  0.38015205331E+02 -0.18641651855E+03  0.23050533852E+03  0.12500000000E+03 0.  0.
         25    1    1    2    0    0 -0.42433576666E+02  0.14589300040E+02 -0.32773244790E+03  0.35361987149E+03  0.12500000000E+03 0.  0.
         25    1    1    2    0    0  0.62198104723E+01 -0.52604505371E+02 -0.40116766580E+03  0.42351672472E+03  0.12500000000E+03 0.  0.
</event>
<event>
 5    0  0.5583350E-005  0.4347392E+03  0.7546771E-02  0.1032373E+00
         21   -1    0    0  502  501  0.00000000000E+00  0.00000000000E+00  0.10527765553E+04  0.10527765553E+04  0.00000000000E+00 0.  1.
         21   -1    0    0  501  502 -0.00000000000E+00 -0.00000000000E+00 -0.17952353145E+03  0.17952353145E+03  0.00000000000E+00 0.  1.
         25    1    1    2    0    0 -0.44193172118E+02  0.26000227606E+03  0.47132175402E+03  0.55436758187E+03  0.12500000000E+03 0.  0.
         25    1    1    2    0    0 -0.87113993364E+01  0.33551019464E+02  0.31853973126E+03  0.34393912219E+03  0.12500000000E+03 0.  0.
         25    1    1    2    0    0  0.52904571455E+02 -0.29355329552E+03  0.83391538606E+02  0.33399338272E+03  0.12500000000E+03 0.  0.
</event>
<event>
 5    0  0.6291893E-005  0.2821500E+03  0.7546771E-02  0.1094520E+00
         21   -1    0    0  502  501  0.00000000000E+00  0.00000000000E+00  0.42310031463E+03  0.42310031463E+03  0.00000000000E+00 0.  1.
         21   -1    0    0  501  502 -0.00000000000E+00 -0.00000000000E+00 -0.18815538156E+03  0.18815538156E+03  0.00000000000E+00 0.  1.
         25    1    1    2    0    0  0.46567332125E+02 -0.81826662770E+02  0.19111938435E+03  0.24701363978E+03  0.12500000000E+03 0.  0.
         25    1    1    2    0    0  0.92563004294E+02 -0.40634088431E+01  0.13052068479E+02  0.15614024961E+03  0.12500000000E+03 0.  0.
         25    1    1    2    0    0 -0.13913033642E+03  0.85890071613E+02  0.30773480240E+02  0.20810180682E+03  0.12500000000E+03 0.  0.
</event>
<event>
 5    0  0.5583350E-005  0.3073738E+03  0.7546771E-02  0.1081612E+00
         21   -1    0    0  502  501  0.00000000000E+00  0.00000000000E+00  0.14543596339E+03  0.14543596339E+03  0.00000000000E+00 0.  1.
         21   -1    0    0  501  502 -0.00000000000E+00 -0.00000000000E+00 -0.64962358234E+03  0.64962358234E+03  0.00000000000E+00 0.  1.
         25    1    1    2    0    0 -0.80821781759E+02  0.11604152077E+03 -0.25755533236E+03  0.31930791437E+03  0.12500000000E+03 0.  0.
         25    1    1    2    0    0  0.15234635977E+03 -0.16229967914E+03 -0.14639877556E+03  0.29429271257E+03  0.12500000000E+03 0.  0.
         25    1    1    2    0    0 -0.71524578013E+02  0.46258158370E+02 -0.10023351103E+03  0.18145891879E+03  0.12500000000E+03 0.  0.
</event>
<event>
 5    0  0.5583350E-005  0.3264771E+03  0.7546771E-02  0.1072706E+00
         21   -1    0    0  502  501  0.00000000000E+00  0.00000000000E+00  0.31438761682E+03  0.31438761682E+03  0.00000000000E+00 0.  1.
         21   -1    0    0  501  502 -0.00000000000E+00 -0.00000000000E+00 -0.33903155673E+03  0.33903155673E+03  0.00000000000E+00 0.  1.
         25    1    1    2    0    0  0.23595459748E+03  0.54392327098E+02  0.79404087243E+02  0.28383640780E+03  0.12500000000E+03 0.  0.
         25    1    1    2    0    0 -0.15045747807E+03 -0.76265409437E+01 -0.65978988153E+02  0.20657648393E+03  0.12500000000E+03 0.  0.
         25    1    1    2    0    0 -0.85497119411E+02 -0.46765786155E+02 -0.38069039006E+02  0.16300628182E+03  0.12500000000E+03 0.  0.
</event>
<event>
 5    0  0.5583350E-005  0.2648681E+03  0.7546771E-02  0.1104253E+00
         21   -1    0    0  502  501  0.00000000000E+00  0.00000000000E+00  0.18896836017E+03  0.18896836017E+03  0.00000000000E+00 0. -1.
         21   -1    0    0  501  502 -0.00000000000E+00 -0.00000000000E+00 -0.37125315524E+03  0.37125315524E+03  0.00000000000E+00 0. -1.
         25    1    1    2    0    0 -0.13161749813E+01  0.96655808864E+02  0.48768060697E+02  0.16537049751E+03  0.12500000000E+03 0.  0.
         25    1    1    2    0    0  0.21325769222E+02 -0.13232449688E+02 -0.11462607468E+02  0.12800889628E+03  0.12500000000E+03 0.  0.
         25    1    1    2    0    0 -0.20009594240E+02 -0.83423359177E+02 -0.21959024829E+03  0.26684212161E+03  0.12500000000E+03 0.  0.
</event>
<event>
 5    0  0.5583350E-005  0.3627548E+03  0.7546771E-02  0.1057498E+00
         21   -1    0    0  502  501  0.00000000000E+00  0.00000000000E+00  0.57290008537E+03  0.57290008537E+03  0.00000000000E+00 0.  1.
         21   -1    0    0  501  502 -0.00000000000E+00 -0.00000000000E+00 -0.22969289281E+03  0.22969289281E+03  0.00000000000E+00 0. -1.
         25    1    1    2    0    0  0.26209061356E+03  0.12254746665E+02  0.10842275950E+03  0.31019697502E+03  0.12500000000E+03 0.  0.
         25    1    1    2    0    0 -0.22345187569E+03 -0.99203864746E+02  0.13200113652E+03  0.30466612476E+03  0.12500000000E+03 0.  0.
         25    1    1    2    0    0 -0.38638737864E+02  0.86949118081E+02  0.10278329655E+03  0.18772987841E+03  0.12500000000E+03 0.  0.
</event>
<event>
 5    0  0.5583350E-005  0.2572477E+03  0.7546771E-02  0.1108808E+00
         21   -1    0    0  502  501  0.00000000000E+00  0.00000000000E+00  0.27211901672E+03  0.27211901672E+03  0.00000000000E+00 0.  1.
         21   -1    0    0  501  502 -0.00000000000E+00 -0.00000000000E+00 -0.24318915079E+03  0.24318915079E+03  0.00000000000E+00 0.  1.
         25    1    1    2    0    0  0.36170716522E+02 -0.69191164162E+02  0.18945840176E+02  0.14859233759E+03  0.12500000000E+03 0.  0.
         25    1    1    2    0    0 -0.23836139528E+02 -0.94650919397E+02 -0.12285187591E+02  0.15906880249E+03  0.12500000000E+03 0.  0.
         25    1    1    2    0    0 -0.12334576994E+02  0.16384208356E+03  0.22269213346E+02  0.20764702742E+03  0.12500000000E+03 0.  0.
</event>
<event>
 5    0  0.5583350E-005  0.2385042E+03  0.7546771E-02  0.1120793E+00
         21   -1    0    0  502  501  0.00000000000E+00  0.00000000000E+00  0.83335603039E+02  0.83335603039E+02  0.00000000000E+00 0. -1.
         21   -1    0    0  501  502 -0.00000000000E+00 -0.00000000000E+00 -0.68259219681E+03  0.68259219681E+03  0.00000000000E+00 0. -1.
         25    1    1    2    0    0 -0.62676592550E+02 -0.99094303698E+02 -0.23821400395E+03  0.29346030048E+03  0.12500000000E+03 0.  0.
         25    1    1    2    0    0  0.16451726839E+02  0.13730887976E+02 -0.24612794577E+03  0.27688113386E+03  0.12500000000E+03 0.  0.
         25    1    1    2    0    0  0.46224865712E+02  0.85363415722E+02 -0.11491464405E+03  0.19558636550E+03  0.12500000000E+03 0.  0.
</event>
<event>
 5    0  0.6158708E-005  0.2539858E+03  0.7546771E-02  0.1110811E+00
         21   -1    0    0  502  501  0.00000000000E+00  0.00000000000E+00  0.67455158923E+03  0.67455158923E+03  0.00000000000E+00 0.  1.
         21   -1    0    0  501  502 -0.00000000000E+00 -0.00000000000E+00 -0.95632132896E+02  0.95632132896E+02  0.00000000000E+00 0.  1.
         25    1    1    2    0    0  0.19194792133E+02 -0.35056167847E+02  0.16452472820E+03  0.21045370308E+03  0.12500000000E+03 0.  0.
         25    1    1    2    0    0  0.29091847705E+02 -0.36274344432E+02  0.17148691237E+02  0.13446650616E+03  0.12500000000E+03 0.  0.
         25    1    1    2    0    0 -0.48286639838E+02  0.71330512279E+02  0.39724603690E+03  0.42526351290E+03  0.12500000000E+03 0.  0.
</event>
<event>
 5    0  0.5583350E-005  0.3492713E+03  0.7546771E-02  0.1062915E+00
         21   -1    0    0  502  501  0.00000000000E+00  0.00000000000E+00  0.86008476332E+02  0.86008476332E+02  0.00000000000E+00 0. -1.
         21   -1    0    0  501  502 -0.00000000000E+00 -0.00000000000E+00 -0.14183538098E+04  0.14183538098E+04  0.00000000000E+00 0. -1.
         25    1    1    2    0    0  0.73692982905E+02 -0.13064640250E+02 -0.30968181887E+03  0.34224139068E+03  0.12500000000E+03 0.  0.
         25    1    1    2    0    0  0.14442315867E+02  0.21218655665E+03 -0.75877102945E+03  0.79786602286E+03  0.12500000000E+03 0.  0.
         25    1    1    2    0    0 -0.88135298773E+02 -0.19912191640E+03 -0.26389248511E+03  0.36425487255E+03  0.12500000000E+03 0.  0.
</event>
<event>
 5    0  0.5583350E-005  0.2997544E+03  0.7546771E-02  0.1085363E+00
         21   -1    0    0  502  501  0.00000000000E+00  0.00000000000E+00  0.91964131233E+02  0.91964131233E+02  0.00000000000E+00 0.  1.
         21   -1    0    0  501  502 -0.00000000000E+00 -0.00000000000E+00 -0.97704079087E+03  0.97704079087E+03  0.00000000000E+00 0.  1.
         25    1    1    2    0    0 -0.12910723093E+03  0.10038968042E+03 -0.31748248626E+03  0.37837401351E+03  0.12500000000E+03 0.  0.
         25    1    1    2    0    0  0.12783409708E+03 -0.17161271369E+03 -0.38989225953E+03  0.46198858635E+03  0.12500000000E+03 0.  0.
         25    1    1    2    0    0  0.12731338500E+01  0.71223033272E+02 -0.17770191384E+03  0.22864232224E+03  0.12500000000E+03 0.  0.
</event>
<event>
 5    0  0.5583350E-005  0.2745039E+03  0.7546771E-02  0.1098729E+00
         21   -1    0    0  502  501  0.00000000000E+00  0.00000000000E+00  0.14032506893E+03  0.14032506893E+03  0.00000000000E+00 0. -1.
         21   -1    0    0  501  502 -0.00000000000E+00 -0.00000000000E+00 -0.53698434097E+03  0.53698434097E+03  0.00000000000E+00 0. -1.
         25    1    1    2    0    0 -0.17221819368E+02 -0.36617804483E+02  0.21376401611E+02  0.13311425624E+03  0.12500000000E+03 0.  0.
         25    1    1    2    0    0 -0.37380816569E+02  0.44590926818E+01 -0.37579266790E+03  0.39782199311E+03  0.12500000000E+03 0.  0.
         25    1    1    2    0    0  0.54602635937E+02  0.32158711801E+02 -0.42243005750E+02  0.14637316055E+03  0.12500000000E+03 0.  0.
</event>
<event>
 5    0  0.5583350E-005  0.2906788E+03  0.7546771E-02  0.1089995E+00
         21   -1    0    0  502  501  0.00000000000E+00  0.00000000000E+00  0.23541259276E+03  0.23541259276E+03  0.00000000000E+00 0.  1.
         21   -1    0    0  501  502 -0.00000000000E+00 -0.00000000000E+00 -0.35891948389E+03  0.35891948389E+03  0.00000000000E+00 0.  1.
         25    1    1    2    0    0  0.20823675536E+01 -0.60106492200E+02 -0.11554631335E+03  0.18053552888E+03  0.12500000000E+03 0.  0.
         25    1    1    2    0    0  0.14412140519E+03  0.10245291127E+03  0.24419624977E+01  0.21656071122E+03  0.12500000000E+03 0.  0.
         25    1    1    2    0    0 -0.14620377275E+03 -0.42346419073E+02 -0.10402540283E+02  0.19723583655E+03  0.12500000000E+03 0.  0.
</event>
<event>
 5    0  0.5583350E-005  0.3123061E+03  0.7546771E-02  0.1079246E+00
         21   -1    0    0  502  501  0.00000000000E+00  0.00000000000E+00  0.29071214809E+04  0.29071214809E+04  0.00000000000E+00 0. -1.
         21   -1    0    0  501  502 -0.00000000000E+00 -0.00000000000E+00 -0.33550408606E+02  0.33550408606E+02  0.00000000000E+00 0. -1.
         25    1    1    2    0    0 -0.47399185566E+02  0.13745043274E+03  0.14755091695E+04  0.14879151903E+04  0.12500000000E+03 0.  0.
         25    1    1    2    0    0  0.71884968298E+02 -0.20478031315E+03  0.91633514493E+03  0.94994606328E+03  0.12500000000E+03 0.  0.
         25    1    1    2    0    0 -0.24485782732E+02  0.67329880409E+02  0.48172675793E+03  0.50281063599E+03  0.12500000000E+03 0.  0.
</event>
<event>
 5    0  0.5583350E-005  0.3196101E+03  0.7546771E-02  0.1075829E+00
         21   -1    0    0  502  501  0.00000000000E+00  0.00000000000E+00  0.12111290352E+03  0.12111290352E+03  0.00000000000E+00 0.  1.
         21   -1    0    0  501  502 -0.00000000000E+00 -0.00000000000E+00 -0.84343313902E+03  0.84343313902E+03  0.00000000000E+00 0.  1.
         25    1    1    2    0    0 -0.52020781704E+02  0.11169369286E+03 -0.99940537693E+02  0.20197711214E+03  0.12500000000E+03 0.  0.
         25    1    1    2    0    0  0.11155688310E+02 -0.21565467230E+03 -0.24526859261E+03  0.34987579166E+03  0.12500000000E+03 0.  0.
         25    1    1    2    0    0  0.40865093394E+02  0.10396097945E+03 -0.37711110520E+03  0.41269313875E+03  0.12500000000E+03 0.  0.
</event>
<event>
 5    0  0.5583350E-005  0.5821921E+03  0.7546771E-02  0.9943056E-01
         21   -1    0    0  502  501  0.00000000000E+00  0.00000000000E+00  0.16070844540E+04  0.16070844540E+04  0.00000000000E+00 0. -1.
         21   -1    0    0  501  502 -0.00000000000E+00 -0.00000000000E+00 -0.21090838930E+03  0.21090838930E+03  0.00000000000E+00 0. -1.
         25    1    1    2    0    0 -0.27596998371E+02  0.17580221346E+03  0.18501642321E+03  0.28552423616E+03  0.12500000000E+03 0.  0.
         25    1    1    2    0    0 -0.56894127520E+02  0.33584945801E+03  0.27608191412E+03  0.45593642484E+03  0.12500000000E+03 0.  0.
         25    1    1    2    0    0  0.84491125890E+02 -0.51165167147E+03  0.93507772735E+03  0.10765321823E+04  0.12500000000E+03 0.  0.
</event>
<event>
 5    0  0.5583350E-005  0.3448805E+03  0.7546771E-02  0.1064736E+00
         21   -1    0    0  502  501  0.00000000000E+00  0.00000000000E+00  0.43636580859E+03  0.43636580859E+03  0.00000000000E+00 0.  1.
         21   -1    0    0  501  502 -0.00000000000E+00 -0.00000000000E+00 -0.27257541763E+03  0.27257541763E+03  0.00000000000E+00 0.  1.
         25    1    1    2    0    0 -0.16482444412E+03 -0.10723049355E+03 -0.98482073943E+02  0.25296085669E+03  0.12500000000E+03 0.  0.
         25    1    1    2    0    0 -0.15876670050E+02 -0.15794527466E+01  0.11063996159E+03  0.16769246979E+03  0.12500000000E+03 0.  0.
         25    1    1    2    0    0  0.18070111418E+03  0.10880994630E+03  0.15163250331E+03  0.28828789974E+03  0.12500000000E+03 0.  0.
</event>
<event>
 5    0  0.5583350E-005  0.3809593E+03  0.7546771E-02  0.1050580E+00
         21   -1    0    0  502  501  0.00000000000E+00  0.00000000000E+00  0.48828098096E+03  0.48828098096E+03  0.00000000000E+00 0. -1.
         21   -1    0    0  501  502 -0.00000000000E+00 -0.00000000000E+00 -0.29722631685E+03  0.29722631685E+03  0.00000000000E+00 0. -1.
         25    1    1    2    0    0  0.16700857385E+03 -0.11939771447E+02  0.39390639574E+02  0.21262888884E+03  0.12500000000E+03 0.  0.
         25    1    1    2    0    0 -0.23551244312E+03 -0.14581588526E+03 -0.12666434958E+02  0.30416084861E+03  0.12500000000E+03 0.  0.
         25    1    1    2    0    0  0.68503869266E+02  0.15775565670E+03  0.16433045949E+03  0.26871756035E+03  0.12500000000E+03 0.  0.
</event>
<event>
 5    0  0.5676128E-005  0.3452896E+03  0.7546771E-02  0.1064565E+00
         21   -1    0    0  502  501  0.00000000000E+00  0.00000000000E+00  0.24378267090E+03  0.24378267090E+03  0.00000000000E+00 0. -1.
         21   -1    0    0  501  502 -0.00000000000E+00 -0.00000000000E+00 -0.48906222179E+03  0.48906222179E+03  0.00000000000E+00 0. -1.
         25    1    1    2    0    0 -0.14139496084E+03 -0.99907167354E+02 -0.13037346626E+03  0.25019236148E+03  0.12500000000E+03 0.  0.
         25    1    1    2    0    0 -0.10731214926E+02  0.20763215122E+03 -0.38881823797E+02  0.24568896071E+03  0.12500000000E+03 0.  0.
         25    1    1    2    0    0  0.15212617577E+03 -0.10772498387E+03 -0.76024260839E+02  0.23696357049E+03  0.12500000000E+03 0.  0.
</event>
<event>
 5    0  0.5583350E-005  0.3587152E+03  0.7546771E-02  0.1059094E+00
         21   -1    0    0  502  501  0.00000000000E+00  0.00000000000E+00  0.89938615573E+03  0.89938615573E+03  0.00000000000E+00 0.  1.
         21   -1    0    0  501  502 -0.00000000000E+00 -0.00000000000E+00 -0.14307158092E+03  0.14307158092E+03  0.00000000000E+00 0.  1.
         25    1    1    2    0    0  0.16985058177E+03  0.75782965718E+02  0.30280907265E+03  0.37671025006E+03  0.12500000000E+03 0.  0.
         25    1    1    2    0    0 -0.22143224183E+03  0.33046564645E+02  0.41519402937E+03  0.48799118351E+03  0.12500000000E+03 0.  0.
         25    1    1    2    0    0  0.51581660067E+02 -0.10882953036E+03  0.38311472784E+02  0.17775630307E+03  0.12500000000E+03 0.  0.
</event>
<event>
 5    0  0.5583350E-005  0.4290524E+03  0.7546771E-02  0.1034160E+00
         21   -1    0    0  502  501  0.00000000000E+00  0.00000000000E+00  0.30016110446E+03  0.30016110446E+03  0.00000000000E+00 0.  1.
         21   -1    0    0  501  502 -0.00000000000E+00 -0.00000000000E+00 -0.61329049823E+03  0.61329049823E+03  0.00000000000E+00 0.  1.
         25    1    1    2    0    0  0.26271879223E+03 -0.13842356428E+03 -0.41500415406E+02  0.32485309206E+03  0.12500000000E+03 0.  0.
         25    1    1    2    0    0 -0.14278228652E+03  0.22527132691E+03 -0.26258915570E+03  0.39460361980E+03  0.12500000000E+03 0.  0.
         25    1    1    2    0    0 -0.11993650571E+03 -0.86847762624E+02 -0.90398226617E+01  0.19399489083E+03  0.12500000000E+03 0.  0.
</event>
<event>
 5    0  0.5583350E-005  0.2707801E+03  0.7546771E-02  0.1100834E+00
         21   -1    0    0  502  501  0.00000000000E+00  0.00000000000E+00  0.11983187138E+03  0.11983187138E+03  0.00000000000E+00 0. -1.
         21   -1    0    0  501  502 -0.00000000000E+00 -0.00000000000E+00 -0.61187265371E+03  0.61187265371E+03  0.00000000000E+00 0. -1.
         25    1    1    2    0    0 -0.16745408622E+02  0.20541915837E+02 -0.12314362167E+03  0.17745909549E+03  0.12500000000E+03 0.  0.
         25    1    1    2    0    0 -0.67240732711E+02 -0.94600496894E+02 -0.34482617132E+03  0.38470853718E+03  0.12500000000E+03 0.  0.
         25    1    1    2    0    0  0.83986141333E+02  0.74058581057E+02 -0.24070989337E+02  0.16953689242E+03  0.12500000000E+03 0.  0.
</event>
<event>
 5    0  0.5583350E-005  0.3457200E+03  0.7546771E-02  0.1064386E+00
         21   -1    0    0  502  501  0.00000000000E+00  0.00000000000E+00  0.10569684916E+04  0.10569684916E+04  0.00000000000E+00 0.  1.
         21   -1    0    0  501  502 -0.00000000000E+00 -0.00000000000E+00 -0.11308033370E+03  0.11308033370E+03  0.00000000000E+00 0.  1.
         25    1    1    2    0    0  0.78564086023E+02 -0.95153460027E+02  0.87234522522E+01  0.17586243256E+03  0.12500000000E+03 0.  0.
         25    1    1    2    0    0  0.63540775385E+01 -0.17739630840E+02  0.21202209645E+03  0.24684699348E+03  0.12500000000E+03 0.  0.
         25    1    1    2    0    0 -0.84918163562E+02  0.11289309087E+03  0.72314260920E+03  0.74733939928E+03  0.12500000000E+03 0.  0.
</event>
<event>
 5    0  0.5583350E-005  0.2750593E+03  0.7546771E-02  0.1098418E+00
         21   -1    0    0  502  501  0.00000000000E+00  0.00000000000E+00  0.35507402915E+03  0.35507402915E+03  0.00000000000E+00 0. -1.
         21   -1    0    0  501  502 -0.00000000000E+00 -0.00000000000E+00 -0.21307563092E+03  0.21307563092E+03  0.00000000000E+00 0. -1.
         25    1    1    2    0    0  0.13180310825E+03  0.86304002881E+02 -0.17795967099E+01  0.20111839106E+03  0.12500000000E+03 0.  0.
         25    1    1    2    0    0 -0.14603330902E+02  0.19182260223E+02  0.15119411637E+02  0.12819833458E+03  0.12500000000E+03 0.  0.
         25    1    1    2    0    0 -0.11719977735E+03 -0.10548626310E+03  0.12865858330E+03  0.23883293444E+03  0.12500000000E+03 0.  0.
</event>
<event>
 5    0  0.5583350E-005  0.2495328E+03  0.7546771E-02  0.1113600E+00
         21   -1    0    0  502  501  0.00000000000E+00  0.00000000000E+00  0.97704298165E+03  0.97704298165E+03  0.00000000000E+00 0. -1.
         21   -1    0    0  501  502 -0.00000000000E+00 -0.00000000000E+00 -0.63729654021E+02  0.63729654021E+02  0.00000000000E+00 0. -1.
         25    1    1    2    0    0  0.19812724931E+02  0.62440068614E+02  0.63358005084E+03  0.64910706903E+03  0.12500000000E+03 0.  0.
         25    1    1    2    0    0 -0.30202850334E+02  0.96186001377E+01  0.14396287636E+03  0.19327451826E+03  0.12500000000E+03 0.  0.
         25    1    1    2    0    0  0.10390125403E+02 -0.72058668752E+02  0.13577040042E+03  0.19839104839E+03  0.12500000000E+03 0.  0.
</event>
<event>
 5    0  0.5583350E-005  0.3330197E+03  0.7546771E-02  0.1069808E+00
         21   -1    0    0  502  501  0.00000000000E+00  0.00000000000E+00  0.12208598431E+04  0.12208598431E+04  0.00000000000E+00 0.  1.
         21   -1    0    0  501  502 -0.00000000000E+00 -0.00000000000E+00 -0.90839365196E+02  0.90839365196E+02  0.00000000000E+00 0.  1.
         25    1    1    2    0    0  0.17064780087E+02 -0.22113303290E+03  0.25173142733E+03  0.35802896037E+03  0.12500000000E+03 0.  0.
         25    1    1    2    0    0 -0.13507604443E+02  0.65398600717E+02  0.56204207441E+03  0.57963413095E+03  0.12500000000E+03 0.  0.
         25    1    1    2    0    0 -0.35571756442E+01  0.15573443218E+03  0.31624697614E+03  0.37403611695E+03  0.12500000000E+03 0.  0.
</event>
<event>
 5    0  0.7070223E-005  0.3611712E+03  0.7546771E-02  0.1058121E+00
         21   -1    0    0  502  501  0.00000000000E+00  0.00000000000E+00  0.57025970282E+03  0.57025970282E+03  0.00000000000E+00 0.  1.
         21   -1    0    0  501  502 -0.00000000000E+00 -0.00000000000E+00 -0.22874607297E+03  0.22874607297E+03  0.00000000000E+00 0.  1.
         25    1    1    2    0    0 -0.31632305793E+02 -0.15500925480E+03  0.25416629540E+03  0.32442869411E+03  0.12500000000E+03 0.  0.
         25    1    1    2    0    0 -0.43368921358E+02 -0.10442047573E+03  0.22920363680E+02  0.17010244608E+03  0.12500000000E+03 0.  0.
         25    1    1    2    0    0  0.75001227151E+02  0.25942973053E+03  0.64426970777E+02  0.30447463560E+03  0.12500000000E+03 0.  0.
</event>
<event>
 5    0  0.5583350E-005  0.2267214E+03  0.7546771E-02  0.1128969E+00
         21   -1    0    0  502  501  0.00000000000E+00  0.00000000000E+00  0.34151707086E+02  0.34151707086E+02  0.00000000000E+00 0. -1.
         21   -1    0    0  501  502 -0.00000000000E+00 -0.00000000000E+00 -0.15051256636E+04  0.15051256636E+04  0.00000000000E+00 0. -1.
         25    1    1    2    0    0  0.22399514552E+02 -0.26944555547E+02 -0.25424193848E+03  0.28546752987E+03  0.12500000000E+03 0.  0.
         25    1    1    2    0    0 -0.85514589010E+02 -0.21339173099E+02 -0.68217862714E+03  0.69911428577E+03  0.12500000000E+03 0.  0.
         25    1    1    2    0    0  0.63115074458E+02  0.48283728646E+02 -0.53455339089E+03  0.55469555505E+03  0.12500000000E+03 0.  0.
</event>
<event>
 5    0  0.5583350E-005  0.3115992E+03  0.7546771E-02  0.1079582E+00
         21   -1    0    0  502  501  0.00000000000E+00  0.00000000000E+00  0.44041301283E+03  0.44041301283E+03  0.00000000000E+00 0.  1.
         21   -1    0    0  501  502 -0.00000000000E+00 -0.00000000000E+00 -0.22046133342E+03  0.22046133342E+03  0.00000000000E+00 0.  1.
         25    1    1    2    0    0 -0.23316540711E+02 -0.11445998103E+03 -0.98595539108E+02  0.19746095477E+03  0.12500000000E+03 0.  0.
         25    1    1    2    0    0  0.10194658026E+03  0.86277305161E+02  0.20678278177E+03  0.27608150508E+03  0.12500000000E+03 0.  0.
         25    1    1    2    0    0 -0.78630039544E+02  0.28182675865E+02  0.11176443675E+03  0.18733188639E+03  0.12500000000E+03 0.  0.
</event>
<event>
 5    0  0.5583350E-005  0.2458622E+03  0.7546771E-02  0.1115948E+00
         21   -1    0    0  502  501  0.00000000000E+00  0.00000000000E+00  0.21548592690E+03  0.21548592690E+03  0.00000000000E+00 0.  1.
         21   -1    0    0  501  502 -0.00000000000E+00 -0.00000000000E+00 -0.28052040546E+03  0.28052040546E+03  0.00000000000E+00 0. -1.
         25    1    1    2    0    0 -0.76969251221E+02  0.10089391783E+03 -0.60534172300E+02  0.18813089673E+03  0.12500000000E+03 0.  0.
         25    1    1    2    0    0  0.85680314342E+02 -0.80247542891E+02 -0.39857946499E+02  0.17605237944E+03  0.12500000000E+03 0.  0.
         25    1    1    2    0    0 -0.87110631207E+01 -0.20646374943E+02  0.35357640237E+02  0.13182305619E+03  0.12500000000E+03 0.  0.
</event>
<event>
 5    0  0.5596035E-005  0.3599292E+03  0.7546771E-02  0.1058612E+00
         21   -1    0    0  502  501  0.00000000000E+00  0.00000000000E+00  0.50238246261E+03  0.50238246261E+03  0.00000000000E+00 0. -1.
         21   -1    0    0  501  502 -0.00000000000E+00 -0.00000000000E+00 -0.25786932821E+03  0.25786932821E+03  0.00000000000E+00 0. -1.
         25    1    1    2    0    0 -0.11529096158E+03  0.55782588463E+02  0.82449912639E+01  0.17915547125E+03  0.12500000000E+03 0.  0.
         25    1    1    2    0    0  0.11231315924E+03 -0.24752818042E+03  0.10413066017E+03  0.31678484848E+03  0.12500000000E+03 0.  0.
         25    1    1    2    0    0  0.29778023365E+01  0.19174559195E+03  0.13213748297E+03  0.26431147108E+03  0.12500000000E+03 0.  0.
</event>
<event>
 5    0  0.5583350E-005  0.2671240E+03  0.7546771E-02  0.1102937E+00
         21   -1    0    0  502  501  0.00000000000E+00  0.00000000000E+00  0.27994163252E+03  0.27994163252E+03  0.00000000000E+00 0. -1.
         21   -1    0    0  501  502 -0.00000000000E+00 -0.00000000000E+00 -0.25489322046E+03  0.25489322046E+03  0.00000000000E+00 0. -1.
         25    1    1    2    0    0  0.14417982291E+02 -0.10292142004E+02 -0.12937593906E+03  0.18076764093E+03  0.12500000000E+03 0.  0.
         25    1    1    2    0    0 -0.99333897522E+01 -0.81356502440E+02  0.12795445518E+03  0.19676101067E+03  0.12500000000E+03 0.  0.
         25    1    1    2    0    0 -0.44845925389E+01  0.91648644444E+02  0.26469895939E+02  0.15730620137E+03  0.12500000000E+03 0.  0.
</event>
<event>
 5    0  0.5583350E-005  0.3127223E+03  0.7546771E-02  0.1079048E+00
         21   -1    0    0  502  501  0.00000000000E+00  0.00000000000E+00  0.24356355140E+03  0.24356355140E+03  0.00000000000E+00 0.  1.
         21   -1    0    0  501  502 -0.00000000000E+00 -0.00000000000E+00 -0.40151839321E+03  0.40151839321E+03  0.00000000000E+00 0.  1.
         25    1    1    2    0    0  0.21142600326E+02 -0.76180118555E+02 -0.10832370446E+03  0.18332878923E+03  0.12500000000E+03 0.  0.
         25    1    1    2    0    0 -0.12972059722E+03  0.94125883338E+02 -0.16278670159E+03  0.26040665405E+03  0.12500000000E+03 0.  0.
         25    1    1    2    0    0  0.10857799689E+03 -0.17945764782E+02  0.11315556425E+03  0.20134650134E+03  0.12500000000E+03 0.  0.
</event>
<event>
 5    0  0.5583350E-005  0.3368098E+03  0.7546771E-02  0.1068163E+00
         21   -1    0    0  502  501  0.00000000000E+00  0.00000000000E+00  0.39019807981E+03  0.39019807981E+03  0.00000000000E+00 0. -1.
         21   -1    0    0  501  502 -0.00000000000E+00 -0.00000000000E+00 -0.29072627491E+03  0.29072627491E+03  0.00000000000E+00 0. -1.
         25    1    1    2    0    0  0.69524273800E+02 -0.16737719738E+03 -0.80735014847E+02  0.23450350418E+03  0.12500000000E+03 0.  0.
         25    1    1    2    0    0 -0.57138736925E+02  0.86629045802E+02 -0.51791267442E+02  0.17051909634E+03  0.12500000000E+03 0.  0.
         25    1    1    2    0    0 -0.12385536875E+02  0.80748151581E+02  0.23199808719E+03  0.27590175419E+03  0.12500000000E+03 0.  0.
</event>
<event>
 5    0  0.5583350E-005  0.3678450E+03  0.7546771E-02  0.1055520E+00
         21   -1    0    0  502  501  0.00000000000E+00  0.00000000000E+00  0.12819630049E+04  0.12819630049E+04  0.00000000000E+00 0.  1.
         21   -1    0    0  501  502 -0.00000000000E+00 -0.00000000000E+00 -0.10554903384E+03  0.10554903384E+03  0.00000000000E+00 0.  1.
         25    1    1    2    0    0  0.63076975778E+02  0.14691270700E+03  0.60064347250E+03  0.63400286230E+03  0.12500000000E+03 0.  0.
         25    1    1    2    0    0 -0.98020405072E+02  0.10946968318E+03  0.17573736406E+03  0.26096021243E+03  0.12500000000E+03 0.  0.
         25    1    1    2    0    0  0.34943429294E+02 -0.25638239018E+03  0.40003313447E+03  0.49254896398E+03  0.12500000000E+03 0.  0.
</event>
<event>
 5    0  0.5583350E-005  0.3290505E+03  0.7546771E-02  0.1071558E+00
         21   -1    0    0  502  501  0.00000000000E+00  0.00000000000E+00  0.14852482042E+03  0.14852482042E+03  0.00000000000E+00 0. -1.
         21   -1    0    0  501  502 -0.00000000000E+00 -0.00000000000E+00 -0.72899755907E+03  0.72899755907E+03  0.00000000000E+00 0.  1.
         25    1    1    2    0    0 -0.41118369397E+02  0.88170451754E+02 -0.11695006597E+03  0.19689354178E+03  0.12500000000E+03 0.  0.
         25    1    1    2    0    0  0.13042174801E+03 -0.15226676323E+03 -0.59471661377E+02  0.24363267032E+03  0.12500000000E+03 0.  0.
         25    1    1    2    0    0 -0.89303378610E+02  0.64096311478E+02 -0.40405101130E+03  0.43699616739E+03  0.12500000000E+03 0.  0.
</event>
<event>
 5    0  0.5583350E-005  0.2520625E+03  0.7546771E-02  0.1112008E+00
         21   -1    0    0  502  501  0.00000000000E+00  0.00000000000E+00  0.27659142658E+02  0.27659142658E+02  0.00000000000E+00 0.  1.
         21   -1    0    0  501  502 -0.00000000000E+00 -0.00000000000E+00 -0.22970881606E+04  0.22970881606E+04  0.00000000000E+00 0.  1.
         25    1    1    2    0    0 -0.14777396804E+02 -0.13984593042E+03 -0.11531916241E+04  0.11684396337E+04  0.12500000000E+03 0.  0.
         25    1    1    2    0    0  0.33882984009E+02  0.74565005572E+02 -0.71853569956E+03  0.73391181228E+03  0.12500000000E+03 0.  0.
         25    1    1    2    0    0 -0.19105587205E+02  0.65280924853E+02 -0.39770169433E+03  0.42239585733E+03  0.12500000000E+03 0.  0.
</event>
<event>
 5    0  0.5583350E-005  0.3250268E+03  0.7546771E-02  0.1073359E+00
         21   -1    0    0  502  501  0.00000000000E+00  0.00000000000E+00  0.10995888366E+03  0.10995888366E+03  0.00000000000E+00 0. -1.
         21   -1    0    0  501  502 -0.00000000000E+00 -0.00000000000E+00 -0.96074453227E+03  0.96074453227E+03  0.00000000000E+00 0. -1.
         25    1    1    2    0    0  0.15577038479E+03  0.15064082126E+03 -0.27243346856E+03  0.36986763119E+03  0.12500000000E+03 0.  0.
         25    1    1    2    0    0 -0.10106403732E+03 -0.39945883436E+02 -0.46020628470E+03  0.48910575310E+03  0.12500000000E+03 0.  0.
         25    1    1    2    0    0 -0.54706347463E+02 -0.11069493783E+03 -0.11814589536E+03  0.21173003165E+03  0.12500000000E+03 0.  0.
</event>
<event>
 5    0  0.5583350E-005  0.3466947E+03  0.7546771E-02  0.1063980E+00
         21   -1    0    0  502  501  0.00000000000E+00  0.00000000000E+00  0.15609390141E+03  0.15609390141E+03  0.00000000000E+00 0.  1.
         21   -1    0    0  501  502 -0.00000000000E+00 -0.00000000000E+00 -0.77003128783E+03  0.77003128783E+03  0.00000000000E+00 0.  1.
         25    1    1    2    0    0  0.18635741215E+03 -0.19346021553E+03 -0.33907453610E+03  0.45028044715E+03  0.12500000000E+03 0.  0.
         25    1    1    2    0    0 -0.27870705914E+02  0.39626176532E+02 -0.10754146495E+03  0.17186383214E+03  0.12500000000E+03 0.  0.
         25    1    1    2    0    0 -0.15848670624E+03  0.15383403900E+03 -0.16732138538E+03  0.30398090995E+03  0.12500000000E+03 0.  0.
</event>
<event>
 5    0  0.5583350E-005  0.2688025E+03  0.7546771E-02  0.1101967E+00
         21   -1    0    0  502  501  0.00000000000E+00  0.00000000000E+00  0.24715180867E+03  0.24715180867E+03  0.00000000000E+00 0.  1.
         21   -1    0    0  501  502 -0.00000000000E+00 -0.00000000000E+00 -0.29234985804E+03  0.29234985804E+03  0.00000000000E+00 0.  1.
         25    1    1    2    0    0  0.34014153089E+01  0.58665096812E+01 -0.82701956863E+02  0.15003532661E+03  0.12500000000E+03 0.  0.
         25    1    1    2    0    0  0.81858601447E+01  0.39761081657E+02 -0.12344626596E+03  0.18031065554E+03  0.12500000000E+03 0.  0.
         25    1    1    2    0    0 -0.11587275454E+02 -0.45627591338E+02  0.16095017346E+03  0.20915568455E+03  0.12500000000E+03 0.  0.
</event>
<event>
 5    0  0.5583350E-005  0.3152677E+03  0.7546771E-02  0.1077848E+00
         21   -1    0    0  502  501  0.00000000000E+00  0.00000000000E+00  0.38366113050E+03  0.38366113050E+03  0.00000000000E+00 0. -1.
         21   -1    0    0  501  502 -0.00000000000E+00 -0.00000000000E+00 -0.25906647646E+03  0.25906647646E+03  0.00000000000E+00 0. -1.
         25    1    1    2    0    0  0.11240133036E+03  0.16002887988E+03  0.34181897030E+02  0.23459902716E+03  0.12500000000E+03 0.  0.
         25    1    1    2    0    0 -0.77464394937E+02 -0.63136370930E+00  0.13291656479E+03  0.19822447956E+03  0.12500000000E+03 0.  0.
         25    1    1    2    0    0 -0.34936935424E+02 -0.15939751617E+03 -0.42503807781E+02  0.20990410023E+03  0.12500000000E+03 0.  0.
</event>
<event>
 5    0  0.5583350E-005  0.3774225E+03  0.7546771E-02  0.1051891E+00
         21   -1    0    0  502  501  0.00000000000E+00  0.00000000000E+00  0.63657579495E+03  0.63657579495E+03  0.00000000000E+00 0.  1.
         21   -1    0    0  501  502 -0.00000000000E+00 -0.00000000000E+00 -0.22377185210E+03  0.22377185210E+03  0.00000000000E+00 0.  1.
         25    1    1    2    0    0  0.14728024116E+03 -0.68524043116E+02  0.75992386624E+02  0.21860205110E+03  0.12500000000E+03 0.  0.
         25    1    1    2    0    0 -0.24437270950E+03 -0.74832809941E+02  0.31902460706E+03  0.42745721482E+03  0.12500000000E+03 0.  0.
         25    1    1    2    0    0  0.97092468337E+02  0.14335685306E+03  0.17786949167E+02  0.21428838113E+03  0.12500000000E+03 0.  0.
</event>
<event>
 5    0  0.5583350E-005  0.2483931E+03  0.7546771E-02  0.1114325E+00
         21   -1    0    0  502  501  0.00000000000E+00  0.00000000000E+00  0.25347691679E+03  0.25347691679E+03  0.00000000000E+00 0. -1.
         21   -1    0    0  501  502 -0.00000000000E+00 -0.00000000000E+00 -0.24341129878E+03  0.24341129878E+03  0.00000000000E+00 0. -1.
         25    1    1    2    0    0 -0.70434600828E+02 -0.11531241482E+03  0.48352581708E+02  0.19031804476E+03  0.12500000000E+03 0.  0.
         25    1    1    2    0    0  0.35021021045E+02  0.39813350771E+02  0.33777035537E+02  0.13991948736E+03  0.12500000000E+03 0.  0.
         25    1    1    2    0    0  0.35413579782E+02  0.75499064044E+02 -0.72063999236E+02  0.16665068344E+03  0.12500000000E+03 0.  0.
</event>
<event>
 5    0  0.5583350E-005  0.3809976E+03  0.7546771E-02  0.1050566E+00
         21   -1    0    0  502  501  0.00000000000E+00  0.00000000000E+00  0.55273886808E+02  0.55273886808E+02  0.00000000000E+00 0.  1.
         21   -1    0    0  501  502 -0.00000000000E+00 -0.00000000000E+00 -0.26261793288E+04  0.26261793288E+04  0.00000000000E+00 0.  1.
         25    1    1    2    0    0  0.14762622325E+02  0.22394825257E+03 -0.81147518501E+03  0.85116845027E+03  0.12500000000E+03 0.  0.
         25    1    1    2    0    0  0.23683087239E+02  0.90495419241E+02 -0.41511970136E+03  0.44350837194E+03  0.12500000000E+03 0.  0.
         25    1    1    2    0    0 -0.38445709563E+02 -0.31444367181E+03 -0.13443105556E+04  0.13867763934E+04  0.12500000000E+03 0.  0.
</event>
<event>
 5    0  0.5583350E-005  0.2524767E+03  0.7546771E-02  0.1111750E+00
         21   -1    0    0  502  501  0.00000000000E+00  0.00000000000E+00  0.39639781564E+03  0.39639781564E+03  0.00000000000E+00 0. -1.
         21   -1    0    0  501  502 -0.00000000000E+00 -0.00000000000E+00 -0.16080935286E+03  0.16080935286E+03  0.00000000000E+00 0. -1.
         25    1    1    2    0    0 -0.10458106018E+03  0.11070393910E+02  0.41869557784E+02  0.16863514355E+03  0.12500000000E+03 0.  0.
         25    1    1    2    0    0  0.79110476343E+02  0.55503641379E+02  0.14398073324E+02  0.15865505409E+03  0.12500000000E+03 0.  0.
         25    1    1    2    0    0  0.25470583841E+02 -0.66574035289E+02  0.17932083167E+03  0.22991697085E+03  0.12500000000E+03 0.  0.
</event>
<event>
 5    0  0.5583350E-005  0.6621020E+03  0.7546771E-02  0.9784332E-01
         21   -1    0    0  502  501  0.00000000000E+00  0.00000000000E+00  0.17121652339E+04  0.17121652339E+04  0.00000000000E+00 0.  1.
         21   -1    0    0  501  502 -0.00000000000E+00 -0.00000000000E+00 -0.25603778960E+03  0.25603778960E+03  0.00000000000E+00 0.  1.
         25    1    1    2    0    0 -0.41238332815E+03 -0.30889357745E+03  0.89693030142E+03  0.10419137283E+04  0.12500000000E+03 0.  0.
         25    1    1    2    0    0  0.20648047675E+03  0.26914177046E+03  0.54444298528E+02  0.36559630951E+03  0.12500000000E+03 0.  0.
         25    1    1    2    0    0  0.20590285140E+03  0.39751806990E+02  0.50475284438E+03  0.56069298577E+03  0.12500000000E+03 0.  0.
</event>
<event>
 5    0  0.5583350E-005  0.2537660E+03  0.7546771E-02  0.1110948E+00
         21   -1    0    0  502  501  0.00000000000E+00  0.00000000000E+00  0.11574497690E+04  0.11574497690E+04  0.00000000000E+00 0. -1.
         21   -1    0    0  501  502 -0.00000000000E+00 -0.00000000000E+00 -0.55637113706E+02  0.55637113706E+02  0.00000000000E+00 0. -1.
         25    1    1    2    0    0 -0.35931302285E+02 -0.63542698102E+02  0.11857880268E+03  0.18712206019E+03  0.12500000000E+03 0.  0.
         25    1    1    2    0    0  0.10621764211E+02  0.79669088624E+01  0.25196928984E+03  0.28158447496E+03  0.12500000000E+03 0.  0.
         25    1    1    2    0    0  0.25309538074E+02  0.55575789240E+02  0.73126456282E+03  0.74438034760E+03  0.12500000000E+03 0.  0.
</event>
<event>
 5    0  0.5583350E-005  0.3170541E+03  0.7546771E-02  0.1077013E+00
         21   -1    0    0  502  501  0.00000000000E+00  0.00000000000E+00  0.47384609092E+03  0.47384609092E+03  0.00000000000E+00 0.  1.
         21   -1    0    0  501  502 -0.00000000000E+00 -0.00000000000E+00 -0.21214335309E+03  0.21214335309E+03  0.00000000000E+00 0.  1.
         25    1    1    2    0    0  0.32546558774E+02 -0.61721253596E+02  0.39350828102E+02  0.14846642484E+03  0.12500000000E+03 0.  0.
         25    1    1    2    0    0 -0.82923553799E+02  0.37027492913E+02  0.32927745410E+03  0.36372516106E+03  0.12500000000E+03 0.  0.
         25    1    1    2    0    0  0.50376995025E+02  0.24693760683E+02 -0.10692554438E+03  0.17379785811E+03  0.12500000000E+03 0.  0.
</event>
<event>
 5    0  0.6278772E-005  0.4397476E+03  0.7546771E-02  0.1030824E+00
         21   -1    0    0  502  501  0.00000000000E+00  0.00000000000E+00  0.65415675816E+03  0.65415675816E+03  0.00000000000E+00 0.  1.
         21   -1    0    0  501  502 -0.00000000000E+00 -0.00000000000E+00 -0.29561406386E+03  0.29561406386E+03  0.00000000000E+00 0.  1.
         25    1    1    2    0    0 -0.48461453110E+02  0.97852098496E+02  0.48304038399E+03  0.51076076413E+03  0.12500000000E+03 0.  0.
         25    1    1    2    0    0  0.16687261572E+03 -0.50554506346E+02  0.11060089422E+02  0.21482447153E+03  0.12500000000E+03 0.  0.
         25    1    1    2    0    0 -0.11841116261E+03 -0.47297592150E+02 -0.13555777911E+03  0.22418558636E+03  0.12500000000E+03 0.  0.
</event>
<event>
 5    0  0.5583350E-005  0.2731169E+03  0.7546771E-02  0.1099509E+00
         21   -1    0    0  502  501  0.00000000000E+00  0.00000000000E+00  0.24212048801E+03  0.24212048801E+03  0.00000000000E+00 0.  1.
         21   -1    0    0  501  502 -0.00000000000E+00 -0.00000000000E+00 -0.30808140453E+03  0.30808140453E+03  0.00000000000E+00 0.  1.
         25    1    1    2    0    0  0.47526521402E+01 -0.80904126653E+02  0.31239231773E+02  0.15221351784E+03  0.12500000000E+03 0.  0.
         25    1    1    2    0    0  0.10223802338E+03  0.69643385551E+02  0.43546325475E+02  0.18117421737E+03  0.12500000000E+03 0.  0.
         25    1    1    2    0    0 -0.10699067552E+03  0.11260741102E+02 -0.14074647377E+03  0.21681415733E+03  0.12500000000E+03 0.  0.
</event>
<event>
 5    0  0.5583350E-005  0.2507350E+03  0.7546771E-02  0.1112841E+00
         21   -1    0    0  502  501  0.00000000000E+00  0.00000000000E+00  0.14332832527E+03  0.14332832527E+03  0.00000000000E+00 0. -1.
         21   -1    0    0  501  502 -0.00000000000E+00 -0.00000000000E+00 -0.43862966137E+03  0.43862966137E+03  0.00000000000E+00 0. -1.
         25    1    1    2    0    0 -0.20355749838E+02 -0.75076912141E+02 -0.83442424152E+02  0.16922924522E+03  0.12500000000E+03 0.  0.
         25    1    1    2    0    0  0.76112108723E+02  0.87193287079E+02 -0.21620303389E+03  0.27525347276E+03  0.12500000000E+03 0.  0.
         25    1    1    2    0    0 -0.55756358885E+02 -0.12116374938E+02  0.43441219340E+01  0.13747526866E+03  0.12500000000E+03 0.  0.
</event>
<event>
 5    0  0.5583350E-005  0.2949647E+03  0.7546771E-02  0.1087785E+00
         21   -1    0    0  502  501  0.00000000000E+00  0.00000000000E+00  0.37654318554E+02  0.37654318554E+02  0.00000000000E+00 0. -1.
         21   -1    0    0  501  502 -0.00000000000E+00 -0.00000000000E+00 -0.23106033935E+04  0.23106033935E+04  0.00000000000E+00 0.  1.
         25    1    1    2    0    0  0.29541635354E+01 -0.88913113047E+02 -0.39991346121E+03  0.42833403462E+03  0.12500000000E+03 0.  0.
         25    1    1    2    0    0  0.71119564876E+02 -0.41889786495E+02 -0.30553586109E+03  0.34027916353E+03  0.12500000000E+03 0.  0.
         25    1    1    2    0    0 -0.74073728412E+02  0.13080289954E+03 -0.15674997526E+04  0.15796445139E+04  0.12500000000E+03 0.  0.
</event>
<event>
 5    0  0.5583350E-005  0.2297143E+03  0.7546771E-02  0.1126841E+00
         21   -1    0    0  502  501  0.00000000000E+00  0.00000000000E+00  0.60384168115E+03  0.60384168115E+03  0.00000000000E+00 0. -1.
         21   -1    0    0  501  502 -0.00000000000E+00 -0.00000000000E+00 -0.87388258254E+02  0.87388258254E+02  0.00000000000E+00 0. -1.
         25    1    1    2    0    0 -0.50248406497E+02 -0.58840373127E+01  0.10279260942E+03  0.16956074074E+03  0.12500000000E+03 0.  0.
         25    1    1    2    0    0  0.73694521507E+02 -0.17786100955E+01  0.82693824682E+02  0.16702489214E+03  0.12500000000E+03 0.  0.
         25    1    1    2    0    0 -0.23446115010E+02  0.76626474082E+01  0.33096698880E+03  0.35464430652E+03  0.12500000000E+03 0.  0.
</event>
<event>
 5    0  0.5583350E-005  0.2340278E+03  0.7546771E-02  0.1123836E+00
         21   -1    0    0  502  501  0.00000000000E+00  0.00000000000E+00  0.47088797431E+02  0.47088797431E+02  0.00000000000E+00 0.  1.
         21   -1    0    0  501  502 -0.00000000000E+00 -0.00000000000E+00 -0.11631010540E+04  0.11631010540E+04  0.00000000000E+00 0.  1.
         25    1    1    2    0    0 -0.14451787582E+02 -0.86117378290E+02 -0.22039004468E+03  0.26799594923E+03  0.12500000000E+03 0.  0.
         25    1    1    2    0    0  0.30711272141E+01  0.95647234769E+02 -0.37770697280E+03  0.40920090743E+03  0.12500000000E+03 0.  0.
         25    1    1    2    0    0  0.11380660368E+02 -0.95298564789E+01 -0.51791523906E+03  0.53299299474E+03  0.12500000000E+03 0.  0.
</event>
<event>
 5    0  0.5583350E-005  0.2128322E+03  0.7546771E-02  0.1139343E+00
         21   -1    0    0  502  501  0.00000000000E+00  0.00000000000E+00  0.58233970060E+03  0.58233970060E+03  0.00000000000E+00 0. -1.
         21   -1    0    0  501  502 -0.00000000000E+00 -0.00000000000E+00 -0.77785450821E+02  0.77785450821E+02  0.00000000000E+00 0. -1.
         25    1    1    2    0    0  0.28672549675E+02  0.22231979482E+02  0.98213576149E+02  0.16305607182E+03  0.12500000000E+03 0.  0.
         25    1    1    2    0    0  0.32089269653E+02  0.78318665151E+01  0.27328951963E+03  0.30232965600E+03  0.12500000000E+03 0.  0.
         25    1    1    2    0    0 -0.60761819327E+02 -0.30063845997E+02  0.13305115401E+03  0.19473942361E+03  0.12500000000E+03 0.  0.
</event>
<event>
 5    0  0.5583350E-005  0.3672498E+03  0.7546771E-02  0.1055750E+00
         21   -1    0    0  502  501  0.00000000000E+00  0.00000000000E+00  0.12423033044E+03  0.12423033044E+03  0.00000000000E+00 0. -1.
         21   -1    0    0  501  502 -0.00000000000E+00 -0.00000000000E+00 -0.10856643867E+04  0.10856643867E+04  0.00000000000E+00 0. -1.
         25    1    1    2    0    0 -0.21838267174E+03 -0.42287361357E+02 -0.56910323895E+03  0.62368478323E+03  0.12500000000E+03 0.  0.
         25    1    1    2    0    0  0.23475326598E+02  0.32206227343E+02 -0.77388025020E+00  0.13120187091E+03  0.12500000000E+03 0.  0.
         25    1    1    2    0    0  0.19490734514E+03  0.10081134014E+02 -0.39155693708E+03  0.45500806304E+03  0.12500000000E+03 0.  0.
</event>
<event>
 5    0  0.5583350E-005  0.3523488E+03  0.7546771E-02  0.1061655E+00
         21   -1    0    0  502  501  0.00000000000E+00  0.00000000000E+00  0.66266856663E+03  0.66266856663E+03  0.00000000000E+00 0. -1.
         21   -1    0    0  501  502 -0.00000000000E+00 -0.00000000000E+00 -0.18734803058E+03  0.18734803058E+03  0.00000000000E+00 0. -1.
         25    1    1    2    0    0 -0.74848101622E+02 -0.19374550792E+03  0.25186014961E+03  0.34956844125E+03  0.12500000000E+03 0.  0.
         25    1    1    2    0    0 -0.40622351869E+02  0.23659196118E+03  0.11438101118E+03  0.29382638970E+03  0.12500000000E+03 0.  0.
         25    1    1    2    0    0  0.11547045349E+03 -0.42846453257E+02  0.10907937526E+03  0.20662176626E+03  0.12500000000E+03 0.  0.
</event>
<event>
 5    0  0.5583350E-005  0.3146660E+03  0.7546771E-02  0.1078131E+00
         21   -1    0    0  502  501  0.00000000000E+00  0.00000000000E+00  0.14999227865E+03  0.14999227865E+03  0.00000000000E+00 0. -1.
         21   -1    0    0  501  502 -0.00000000000E+00 -0.00000000000E+00 -0.66013198569E+03  0.66013198569E+03  0.00000000000E+00 0. -1.
         25    1    1    2    0    0  0.38179901882E+02 -0.64359964013E+02 -0.33303102076E+03  0.36350319209E+03  0.12500000000E+03 0.  0.
         25    1    1    2    0    0  0.11631396511E+03  0.10874730396E+03 -0.57406143497E+02  0.21041715688E+03  0.12500000000E+03 0.  0.
         25    1    1    2    0    0 -0.15449386699E+03 -0.44387339949E+02 -0.11970254278E+03  0.23620391537E+03  0.12500000000E+03 0.  0.
</event>
<event>
 5    0  0.5583350E-005  0.2688217E+03  0.7546771E-02  0.1101956E+00
         21   -1    0    0  502  501  0.00000000000E+00  0.00000000000E+00  0.16381248910E+04  0.16381248910E+04  0.00000000000E+00 0. -1.
         21   -1    0    0  501  502 -0.00000000000E+00 -0.00000000000E+00 -0.44114515913E+02  0.44114515913E+02  0.00000000000E+00 0. -1.
         25    1    1    2    0    0  0.58411202876E+02  0.20640996435E+02  0.75237863776E+03  0.76520358984E+03  0.12500000000E+03 0.  0.
         25    1    1    2    0    0 -0.38960998971E+02 -0.10352972751E+03  0.21378271036E+03  0.27122760031E+03  0.12500000000E+03 0.  0.
         25    1    1    2    0    0 -0.19450203905E+02  0.82888731073E+02  0.62784902692E+03  0.64580821672E+03  0.12500000000E+03 0.  0.
</event>
<event>
 5    0  0.5583350E-005  0.3339156E+03  0.7546771E-02  0.1069417E+00
         21   -1    0    0  502  501  0.00000000000E+00  0.00000000000E+00  0.32785451208E+03  0.32785451208E+03  0.00000000000E+00 0.  1.
         21   -1    0    0  501  502 -0.00000000000E+00 -0.00000000000E+00 -0.34008866393E+03  0.34008866393E+03  0.00000000000E+00 0.  1.
         25    1    1    2    0    0  0.42299218523E+02 -0.12463605272E+03 -0.15413259321E+03  0.23812859092E+03  0.12500000000E+03 0.  0.
         25    1    1    2    0    0 -0.67278392201E+02  0.68849170958E+02 -0.72969214797E+02  0.17382777887E+03  0.12500000000E+03 0.  0.
         25    1    1    2    0    0  0.24979173678E+02  0.55786881757E+02  0.21486765616E+03  0.25598680621E+03  0.12500000000E+03 0.  0.
</event>
<event>
 5    0  0.5583350E-005  0.2872580E+03  0.7546771E-02  0.1091790E+00
         21   -1    0    0  502  501  0.00000000000E+00  0.00000000000E+00  0.37419330390E+03  0.37419330390E+03  0.00000000000E+00 0.  1.
         21   -1    0    0  501  502 -0.00000000000E+00 -0.00000000000E+00 -0.22052008950E+03  0.22052008950E+03  0.00000000000E+00 0.  1.
         25    1    1    2    0    0  0.28876743082E+02  0.41561186789E+02 -0.11247344068E+03  0.17560317023E+03  0.12500000000E+03 0.  0.
         25    1    1    2    0    0 -0.10273487728E+03 -0.65032594328E+02  0.11935740716E+03  0.21131702245E+03  0.12500000000E+03 0.  0.
         25    1    1    2    0    0  0.73858134202E+02  0.23471407539E+02  0.14678924792E+03  0.20779320072E+03  0.12500000000E+03 0.  0.
</event>
<event>
 5    0  0.5583350E-005  0.2759555E+03  0.7546771E-02  0.1097919E+00
         21   -1    0    0  502  501  0.00000000000E+00  0.00000000000E+00  0.14844840290E+03  0.14844840290E+03  0.00000000000E+00 0.  1.
         21   -1    0    0  501  502 -0.00000000000E+00 -0.00000000000E+00 -0.51298249320E+03  0.51298249320E+03  0.00000000000E+00 0.  1.
         25    1    1    2    0    0  0.24074562275E+02 -0.21924849284E+02  0.49816042196E+02  0.13844465185E+03  0.12500000000E+03 0.  0.
         25    1    1    2    0    0 -0.10338340466E+02  0.10334137626E+03 -0.26883508029E+03  0.31413949405E+03  0.12500000000E+03 0.  0.
         25    1    1    2    0    0 -0.13736221808E+02 -0.81416526973E+02 -0.14551505221E+03  0.20884675021E+03  0.12500000000E+03 0.  0.
</event>
<event>
 5    0  0.5583350E-005  0.4402766E+03  0.7546771E-02  0.1030662E+00
         21   -1    0    0  502  501  0.00000000000E+00  0.00000000000E+00  0.23397753589E+04  0.23397753589E+04  0.00000000000E+00 0.  1.
         21   -1    0    0  501  502 -0.00000000000E+00 -0.00000000000E+00 -0.82847046896E+02  0.82847046896E+02  0.00000000000E+00 0.  1.
         25    1    1    2    0    0  0.29590994068E+03 -0.11069242946E+03  0.80880579255E+03  0.87727265830E+03  0.12500000000E+03 0.  0.
         25    1    1    2    0    0 -0.19825356271E+03  0.46884885483E+02  0.12916589776E+04  0.13135869145E+04  0.12500000000E+03 0.  0.
         25    1    1    2    0    0 -0.97656377969E+02  0.63807543980E+02  0.15646354193E+03  0.23176283304E+03  0.12500000000E+03 0.  0.
</event>
<event>
 5    0  0.5583350E-005  0.2188174E+03  0.7546771E-02  0.1134768E+00
         21   -1    0    0  502  501  0.00000000000E+00  0.00000000000E+00  0.23898811997E+03  0.23898811997E+03  0.00000000000E+00 0.  1.
         21   -1    0    0  501  502 -0.00000000000E+00 -0.00000000000E+00 -0.20034918223E+03  0.20034918223E+03  0.00000000000E+00 0.  1.
         25    1    1    2    0    0  0.22584905286E+02 -0.16147664040E+02  0.27760521497E+02  0.13102088213E+03  0.12500000000E+03 0.  0.
         25    1    1    2    0    0 -0.89104706704E+02  0.51968770932E+02  0.56139106901E+01  0.16216324461E+03  0.12500000000E+03 0.  0.
         25    1    1    2    0    0  0.66519801418E+02 -0.35821106892E+02  0.52645055575E+01  0.14615317546E+03  0.12500000000E+03 0.  0.
</event>
<event>
 5    0  0.6271134E-005  0.2782597E+03  0.7546771E-02  0.1096643E+00
         21   -1    0    0  502  501  0.00000000000E+00  0.00000000000E+00  0.36815429319E+03  0.36815429319E+03  0.00000000000E+00 0.  1.
         21   -1    0    0  501  502 -0.00000000000E+00 -0.00000000000E+00 -0.21031522791E+03  0.21031522791E+03  0.00000000000E+00 0.  1.
         25    1    1    2    0    0  0.64631887150E+02  0.85686932455E+02 -0.87846665628E+01  0.16499000454E+03  0.12500000000E+03 0.  0.
         25    1    1    2    0    0 -0.71379129211E+02 -0.16637851958E+03  0.14373569483E+03  0.26279600802E+03  0.12500000000E+03 0.  0.
         25    1    1    2    0    0  0.67472420611E+01  0.80691587124E+02  0.22888037015E+02  0.15068350854E+03  0.12500000000E+03 0.  0.
</event>
<event>
 5    0  0.5583350E-005  0.2551733E+03  0.7546771E-02  0.1110078E+00
         21   -1    0    0  502  501  0.00000000000E+00  0.00000000000E+00  0.12805609403E+04  0.12805609403E+04  0.00000000000E+00 0. -1.
         21   -1    0    0  501  502 -0.00000000000E+00 -0.00000000000E+00 -0.50847568387E+02  0.50847568387E+02  0.00000000000E+00 0. -1.
         25    1    1    2    0    0 -0.92268179740E+02 -0.43186721933E+02  0.66121242812E+03  0.68059193725E+03  0.12500000000E+03 0.  0.
         25    1    1    2    0    0  0.14398078749E+02 -0.50347346553E+02  0.31672310927E+03  0.34450063559E+03  0.12500000000E+03 0.  0.
         25    1    1    2    0    0  0.77870100991E+02  0.93534068487E+02  0.25177783450E+03  0.30631593583E+03  0.12500000000E+03 0.  0.
</event>
<event>
 5    0  0.5583350E-005  0.3362341E+03  0.7546771E-02  0.1068411E+00
         21   -1    0    0  502  501  0.00000000000E+00  0.00000000000E+00  0.18234619427E+03  0.18234619427E+03  0.00000000000E+00 0.  1.
         21   -1    0    0  501  502 -0.00000000000E+00 -0.00000000000E+00 -0.61999285937E+03  0.61999285937E+03  0.00000000000E+00 0.  1.
         25    1    1    2    0    0 -0.15019793171E+03 -0.17072007964E+02  0.63378882024E+02  0.20613770842E+03  0.12500000000E+03 0.  0.
         25    1    1    2    0    0  0.76105262685E+02  0.75770254760E+02 -0.22674870848E+03  0.28030897116E+03  0.12500000000E+03 0.  0.
         25    1    1    2    0    0  0.74092669022E+02 -0.58698246795E+02 -0.27427683864E+03  0.31589237407E+03  0.12500000000E+03 0.  0.
</event>
<event>
 5    0  0.5583350E-005  0.3002196E+03  0.7546771E-02  0.1085131E+00
         21   -1    0    0  502  501  0.00000000000E+00  0.00000000000E+00  0.11992525525E+04  0.11992525525E+04  0.00000000000E+00 0. -1.
         21   -1    0    0  501  502 -0.00000000000E+00 -0.00000000000E+00 -0.75156672923E+02  0.75156672923E+02  0.00000000000E+00 0. -1.
         25    1    1    2    0    0  0.78007294995E+02 -0.18403652576E+03  0.46018733031E+03  0.51706088604E+03  0.12500000000E+03 0.  0.
         25    1    1    2    0    0 -0.66495427477E+02  0.99942335363E+02  0.52217072819E+03  0.55017940860E+03  0.12500000000E+03 0.  0.
         25    1    1    2    0    0 -0.11511867518E+02  0.84094190401E+02  0.14173782103E+03  0.20716893074E+03  0.12500000000E+03 0.  0.
</event>
<event>
 5    0  0.5583350E-005  0.3664737E+03  0.7546771E-02  0.1056050E+00
         21   -1    0    0  502  501  0.00000000000E+00  0.00000000000E+00  0.33059309912E+03  0.33059309912E+03  0.00000000000E+00 0.  1.
         21   -1    0    0  501  502 -0.00000000000E+00 -0.00000000000E+00 -0.40624867103E+03  0.40624867103E+03  0.00000000000E+00 0.  1.
         25    1    1    2    0    0 -0.59235068284E+02 -0.11546940937E+03  0.39427730697E+02  0.18444924441E+03  0.12500000000E+03 0.  0.
         25    1    1    2    0    0 -0.63978926668E+01 -0.14796830130E+03 -0.15850703472E+03  0.25036978906E+03  0.12500000000E+03 0.  0.
         25    1    1    2    0    0  0.65632960951E+02  0.26343771066E+03  0.43423732117E+02  0.30202273668E+03  0.12500000000E+03 0.  0.
</event>
<event>
 5    0  0.5583350E-005  0.3578097E+03  0.7546771E-02  0.1059455E+00
         21   -1    0    0  502  501  0.00000000000E+00  0.00000000000E+00  0.11547858381E+04  0.11547858381E+04  0.00000000000E+00 0.  1.
         21   -1    0    0  501  502 -0.00000000000E+00 -0.00000000000E+00 -0.11086709220E+03  0.11086709220E+03  0.00000000000E+00 0.  1.
         25    1    1    2    0    0 -0.19200673710E+03 -0.15787336719E+03  0.25125424384E+03  0.37489236083E+03  0.12500000000E+03 0.  0.
         25    1    1    2    0    0  0.56928142466E+02  0.15909223183E+03  0.52890625341E+03  0.56913792400E+03  0.12500000000E+03 0.  0.
         25    1    1    2    0    0  0.13507859463E+03 -0.12188646348E+01  0.26375824870E+03  0.32162264552E+03  0.12500000000E+03 0.  0.
</event>
<event>
 5    0  0.5583350E-005  0.2733326E+03  0.7546771E-02  0.1099387E+00
         21   -1    0    0  502  501  0.00000000000E+00  0.00000000000E+00  0.81223243108E+03  0.81223243108E+03  0.00000000000E+00 0.  1.
         21   -1    0    0  501  502 -0.00000000000E+00 -0.00000000000E+00 -0.91981904398E+02  0.91981904398E+02  0.00000000000E+00 0.  1.
         25    1    1    2    0    0  0.64070279538E+01  0.13531623434E+03  0.11335044321E+03  0.21639051795E+03  0.12500000000E+03 0.  0.
         25    1    1    2    0    0 -0.30691810667E+02 -0.22526106846E+02  0.39523642043E+03  0.41627663970E+03  0.12500000000E+03 0.  0.
         25    1    1    2    0    0  0.24284782713E+02 -0.11279012749E+03  0.21166366304E+03  0.27154717782E+03  0.12500000000E+03 0.  0.
</event>
<event>
 5    0  0.5583350E-005  0.2931237E+03  0.7546771E-02  0.1088729E+00
         21   -1    0    0  502  501  0.00000000000E+00  0.00000000000E+00  0.47878312722E+03  0.47878312722E+03  0.00000000000E+00 0. -1.
         21   -1    0    0  501  502 -0.00000000000E+00 -0.00000000000E+00 -0.17945814117E+03  0.17945814117E+03  0.00000000000E+00 0. -1.
         25    1    1    2    0    0  0.51229858460E+02 -0.54639401292E+02  0.19257709631E+03  0.24149720618E+03  0.12500000000E+03 0.  0.
         25    1    1    2    0    0 -0.14547348255E+03 -0.65356939278E+02  0.28853021343E+02  0.20467427898E+03  0.12500000000E+03 0.  0.
         25    1    1    2    0    0  0.94243624086E+02  0.11999634057E+03  0.77894868398E+02  0.21206978322E+03  0.12500000000E+03 0.  0.
</event>
<event>
 5    0  0.6118653E-005  0.2536424E+03  0.7546771E-02  0.1111024E+00
         21   -1    0    0  502  501  0.00000000000E+00  0.00000000000E+00  0.11639476667E+03  0.11639476667E+03  0.00000000000E+00 0.  1.
         21   -1    0    0  501  502 -0.00000000000E+00 -0.00000000000E+00 -0.55272650320E+03  0.55272650320E+03  0.00000000000E+00 0.  1.
         25    1    1    2    0    0  0.62224034446E+02 -0.68527540752E+02 -0.11307836981E+03  0.19230073329E+03  0.12500000000E+03 0.  0.
         25    1    1    2    0    0  0.47056057355E+01 -0.68176507876E+02 -0.78490907720E+02  0.16265300964E+03  0.12500000000E+03 0.  0.
         25    1    1    2    0    0 -0.66929640182E+02  0.13670404863E+03 -0.24476245900E+03  0.31416752694E+03  0.12500000000E+03 0.  0.
</event>
<event>
 5    0  0.5583350E-005  0.2817847E+03  0.7546771E-02  0.1094718E+00
         21   -1    0    0  502  501  0.00000000000E+00  0.00000000000E+00  0.12061118450E+04  0.12061118450E+04  0.00000000000E+00 0.  1.
         21   -1    0    0  501  502 -0.00000000000E+00 -0.00000000000E+00 -0.65833563161E+02  0.65833563161E+02  0.00000000000E+00 0.  1.
         25    1    1    2    0    0 -0.62745573818E+02  0.11784333745E+03  0.75722622410E+03  0.77899975204E+03  0.12500000000E+03 0.  0.
         25    1    1    2    0    0  0.10438878961E+02 -0.21620079237E+02  0.24816087421E+03  0.27890001346E+03  0.12500000000E+03 0.  0.
         25    1    1    2    0    0  0.52306694858E+02 -0.96223258212E+02  0.13489118353E+03  0.21404564266E+03  0.12500000000E+03 0.  0.
</event>
<event>
 5    0  0.5583350E-005  0.2514282E+03  0.7546771E-02  0.1112406E+00
         21   -1    0    0  502  501  0.00000000000E+00  0.00000000000E+00  0.45499534970E+02  0.45499534970E+02  0.00000000000E+00 0. -1.
         21   -1    0    0  501  502 -0.00000000000E+00 -0.00000000000E+00 -0.13893802236E+04  0.13893802236E+04  0.00000000000E+00 0. -1.
         25    1    1    2    0    0 -0.10160939756E+02 -0.61375762934E+01 -0.62366946098E+03  0.63618355142E+03  0.12500000000E+03 0.  0.
         25    1    1    2    0    0 -0.10374780390E+03 -0.20662009452E+02 -0.44928814795E+03  0.47820013105E+03  0.12500000000E+03 0.  0.
         25    1    1    2    0    0  0.11390874365E+03  0.26799585746E+02 -0.27092307966E+03  0.32049607606E+03  0.12500000000E+03 0.  0.
</event>
<event>
 5    0  0.5583350E-005  0.2753168E+03  0.7546771E-02  0.1098275E+00
         21   -1    0    0  502  501  0.00000000000E+00  0.00000000000E+00  0.43751692479E+03  0.43751692479E+03  0.00000000000E+00 0.  1.
         21   -1    0    0  501  502 -0.00000000000E+00 -0.00000000000E+00 -0.17324897053E+03  0.17324897053E+03  0.00000000000E+00 0.  1.
         25    1    1    2    0    0 -0.36295792773E+02 -0.79063083201E+02  0.26717835413E+03  0.30753476001E+03  0.12500000000E+03 0.  0.
         25    1    1    2    0    0  0.53307141751E+02  0.35739270784E+02 -0.66511305625E+02  0.15545964304E+03  0.12500000000E+03 0.  0.
         25    1    1    2    0    0 -0.17011348977E+02  0.43323812417E+02  0.63600905755E+02  0.14777149228E+03  0.12500000000E+03 0.  0.
</event>
<event>
 5    0  0.5583350E-005  0.2320969E+03  0.7546771E-02  0.1125172E+00
         21   -1    0    0  502  501  0.00000000000E+00  0.00000000000E+00  0.33519428252E+03  0.33519428252E+03  0.00000000000E+00 0. -1.
         21   -1    0    0  501  502 -0.00000000000E+00 -0.00000000000E+00 -0.16070974797E+03  0.16070974797E+03  0.00000000000E+00 0. -1.
         25    1    1    2    0    0 -0.43872745993E+02  0.72261563048E+02  0.72432197231E+01  0.15107619126E+03  0.12500000000E+03 0.  0.
         25    1    1    2    0    0 -0.83204305629E+01 -0.10343856574E+03  0.94435546745E+02  0.18791444579E+03  0.12500000000E+03 0.  0.
         25    1    1    2    0    0  0.52193176556E+02  0.31177002690E+02  0.72805768079E+02  0.15691339344E+03  0.12500000000E+03 0.  0.
</event>
<event>
 5    0  0.5583350E-005  0.2555162E+03  0.7546771E-02  0.1109868E+00
         21   -1    0    0  502  501  0.00000000000E+00  0.00000000000E+00  0.21505882989E+03  0.21505882989E+03  0.00000000000E+00 0.  1.
         21   -1    0    0  501  502 -0.00000000000E+00 -0.00000000000E+00 -0.30358445205E+03  0.30358445205E+03  0.00000000000E+00 0.  1.
         25    1    1    2    0    0 -0.16496335442E+02  0.97023384380E+02 -0.16006430334E+03  0.22567952367E+03  0.12500000000E+03 0.  0.
         25    1    1    2    0    0  0.19930702642E+02 -0.24818966826E+02 -0.58789350912E+01  0.12912310366E+03  0.12500000000E+03 0.  0.
         25    1    1    2    0    0 -0.34343671999E+01 -0.72204417554E+02  0.77417616269E+02  0.16384065460E+03  0.12500000000E+03 0.  0.
</event>
<event>
 5    0  0.5583350E-005  0.5980404E+03  0.7546771E-02  0.9909480E-01
         21   -1    0    0  502  501  0.00000000000E+00  0.00000000000E+00  0.47021338320E+03  0.47021338320E+03  0.00000000000E+00 0. -1.
         21   -1    0    0  501  502 -0.00000000000E+00 -0.00000000000E+00 -0.76061700487E+03  0.76061700487E+03  0.00000000000E+00 0. -1.
         25    1    1    2    0    0 -0.38000629211E+03 -0.62688477861E+02 -0.34153744161E+03  0.52972393879E+03  0.12500000000E+03 0.  0.
         25    1    1    2    0    0  0.50118621971E+03  0.12046740802E+02  0.19441788674E+02  0.51704519526E+03  0.12500000000E+03 0.  0.
         25    1    1    2    0    0 -0.12117992760E+03  0.50641737059E+02  0.31692031263E+02  0.18406125402E+03  0.12500000000E+03 0.  0.
</event>
<event>
 5    0  0.5583350E-005  0.3364741E+03  0.7546771E-02  0.1068308E+00
         21   -1    0    0  502  501  0.00000000000E+00  0.00000000000E+00  0.15426908438E+04  0.15426908438E+04  0.00000000000E+00 0. -1.
         21   -1    0    0  501  502 -0.00000000000E+00 -0.00000000000E+00 -0.73387903632E+02  0.73387903632E+02  0.00000000000E+00 0. -1.
         25    1    1    2    0    0 -0.14273517805E+03  0.22394827780E+03  0.67558604051E+03  0.73659192252E+03  0.12500000000E+03 0.  0.
         25    1    1    2    0    0  0.10893390026E+03 -0.83222320082E+02  0.34497909177E+03  0.39169902086E+03  0.12500000000E+03 0.  0.
         25    1    1    2    0    0  0.33801277786E+02 -0.14072595772E+03  0.44873780788E+03  0.48778780405E+03  0.12500000000E+03 0.  0.
</event>
<event>
 5    0  0.5583350E-005  0.4359371E+03  0.7546771E-02  0.1032001E+00
         21   -1    0    0  502  501  0.00000000000E+00  0.00000000000E+00  0.66431476775E+03  0.66431476775E+03  0.00000000000E+00 0. -1.
         21   -1    0    0  501  502 -0.00000000000E+00 -0.00000000000E+00 -0.28607089778E+03  0.28607089778E+03  0.00000000000E+00 0. -1.
         25    1    1    2    0    0  0.45411342717E+02 -0.27654545150E+03  0.32313280078E+03  0.44562246772E+03  0.12500000000E+03 0.  0.
         25    1    1    2    0    0  0.36817112265E+02  0.19994511222E+03 -0.11560431741E+03  0.26518466370E+03  0.12500000000E+03 0.  0.
         25    1    1    2    0    0 -0.82228454981E+02  0.76600339279E+02  0.17071538659E+03  0.23957853411E+03  0.12500000000E+03 0.  0.
</event>
<event>
 5    0  0.6856504E-005  0.3753583E+03  0.7546771E-02  0.1052663E+00
         21   -1    0    0  502  501  0.00000000000E+00  0.00000000000E+00  0.90980571117E+03  0.90980571117E+03  0.00000000000E+00 0. -1.
         21   -1    0    0  501  502 -0.00000000000E+00 -0.00000000000E+00 -0.15486150380E+03  0.15486150380E+03  0.00000000000E+00 0. -1.
         25    1    1    2    0    0 -0.16676511883E+03  0.15908011869E+03  0.14768669666E+03  0.30092100191E+03  0.12500000000E+03 0.  0.
         25    1    1    2    0    0  0.10337873944E+03 -0.89507113161E+02  0.57483284755E+03  0.60395073449E+03  0.12500000000E+03 0.  0.
         25    1    1    2    0    0  0.63386379396E+02 -0.69573005524E+02  0.32424663160E+02  0.15979547857E+03  0.12500000000E+03 0.  0.
</event>
<event>
 5    0  0.5583350E-005  0.7549659E+03  0.7546771E-02  0.9627592E-01
         21   -1    0    0  502  501  0.00000000000E+00  0.00000000000E+00  0.15389112415E+04  0.15389112415E+04  0.00000000000E+00 0. -1.
         21   -1    0    0  501  502 -0.00000000000E+00 -0.00000000000E+00 -0.37037450163E+03  0.37037450163E+03  0.00000000000E+00 0. -1.
         25    1    1    2    0    0  0.48159178928E+03 -0.41862607907E+03  0.15592327763E+03  0.66866696799E+03  0.12500000000E+03 0.  0.
         25    1    1    2    0    0 -0.76113160888E+02  0.12904158027E+03  0.36622180449E+03  0.41495584437E+03  0.12500000000E+03 0.  0.
         25    1    1    2    0    0 -0.40547862839E+03  0.28958449880E+03  0.64639165774E+03  0.82566293075E+03  0.12500000000E+03 0.  0.
</event>
<event>
 5    0  0.5583350E-005  0.2712563E+03  0.7546771E-02  0.1100563E+00
         21   -1    0    0  502  501  0.00000000000E+00  0.00000000000E+00  0.28309854472E+03  0.28309854472E+03  0.00000000000E+00 0.  1.
         21   -1    0    0  501  502 -0.00000000000E+00 -0.00000000000E+00 -0.25990945516E+03  0.25990945516E+03  0.00000000000E+00 0.  1.
         25    1    1    2    0    0  0.35694975322E+02 -0.31707678643E+02 -0.13066309403E+02  0.13444417648E+03  0.12500000000E+03 0.  0.
         25    1    1    2    0    0  0.34612704364E+02  0.14849600318E+03 -0.51599058541E+02  0.20380521364E+03  0.12500000000E+03 0.  0.
         25    1    1    2    0    0 -0.70307679686E+02 -0.11678832454E+03  0.87854457502E+02  0.20475860977E+03  0.12500000000E+03 0.  0.
</event>
<event>
 5    0  0.6222476E-005  0.2706853E+03  0.7546771E-02  0.1100888E+00
         21   -1    0    0  502  501  0.00000000000E+00  0.00000000000E+00  0.38520552046E+03  0.38520552046E+03  0.00000000000E+00 0. -1.
         21   -1    0    0  501  502 -0.00000000000E+00 -0.00000000000E+00 -0.19021156712E+03  0.19021156712E+03  0.00000000000E+00 0. -1.
         25    1    1    2    0    0  0.99058150007E+02 -0.14134977211E+03  0.51389684584E+02  0.21922174810E+03  0.12500000000E+03 0.  0.
         25    1    1    2    0    0  0.29767466729E+01  0.68694941579E+02  0.99158664959E+02  0.17373916328E+03  0.12500000000E+03 0.  0.
         25    1    1    2    0    0 -0.10203489668E+03  0.72654830529E+02  0.44445603791E+02  0.18245617621E+03  0.12500000000E+03 0.  0.
</event>
<event>
 5    0  0.5583350E-005  0.2690685E+03  0.7546771E-02  0.1101814E+00
         21   -1    0    0  502  501  0.00000000000E+00  0.00000000000E+00  0.37312959365E+02  0.37312959365E+02  0.00000000000E+00 0. -1.
         21   -1    0    0  501  502 -0.00000000000E+00 -0.00000000000E+00 -0.19402875762E+04  0.19402875762E+04  0.00000000000E+00 0. -1.
         25    1    1    2    0    0  0.14901361734E+02 -0.16583401251E+03 -0.90221546659E+03  0.92592695092E+03  0.12500000000E+03 0.  0.
         25    1    1    2    0    0 -0.14360845312E+01  0.20274062437E+02 -0.48356109471E+03  0.49986941521E+03  0.12500000000E+03 0.  0.
         25    1    1    2    0    0 -0.13465277203E+02  0.14555995007E+03 -0.51719805552E+03  0.55180416942E+03  0.12500000000E+03 0.  0.
</event>
<event>
 5    0  0.5583350E-005  0.3131208E+03  0.7546771E-02  0.1078860E+00
         21   -1    0    0  502  501  0.00000000000E+00  0.00000000000E+00  0.60278021874E+03  0.60278021874E+03  0.00000000000E+00 0. -1.
         21   -1    0    0  501  502 -0.00000000000E+00 -0.00000000000E+00 -0.16265401968E+03  0.16265401968E+03  0.00000000000E+00 0. -1.
         25    1    1    2    0    0 -0.76848868212E+02  0.10117517820E+03  0.10646541652E+03  0.20761033246E+03  0.12500000000E+03 0.  0.
         25    1    1    2    0    0 -0.10646308891E+03 -0.85125126013E+02  0.26847982725E+03  0.32601701492E+03  0.12500000000E+03 0.  0.
         25    1    1    2    0    0  0.18331195712E+03 -0.16050052186E+02  0.65180955291E+02  0.23180689104E+03  0.12500000000E+03 0.  0.
</event>
<event>
 5    0  0.5583350E-005  0.3354452E+03  0.7546771E-02  0.1068753E+00
         21   -1    0    0  502  501  0.00000000000E+00  0.00000000000E+00  0.43913864798E+03  0.43913864798E+03  0.00000000000E+00 0.  1.
         21   -1    0    0  501  502 -0.00000000000E+00 -0.00000000000E+00 -0.25623681638E+03  0.25623681638E+03  0.00000000000E+00 0. -1.
         25    1    1    2    0    0 -0.36094292544E+02  0.32778776328E+02  0.17826855282E+03  0.22311863001E+03  0.12500000000E+03 0.  0.
         25    1    1    2    0    0  0.21029951137E+03  0.33888755459E+02 -0.10559766137E+02  0.24720606969E+03  0.12500000000E+03 0.  0.
         25    1    1    2    0    0 -0.17420521883E+03 -0.66667531788E+02  0.15193044915E+02  0.22505076466E+03  0.12500000000E+03 0.  0.
</event>
<event>
 5    0  0.5583350E-005  0.2156569E+03  0.7546771E-02  0.1137163E+00
         21   -1    0    0  502  501  0.00000000000E+00  0.00000000000E+00  0.12692777977E+03  0.12692777977E+03  0.00000000000E+00 0. -1.
         21   -1    0    0  501  502 -0.00000000000E+00 -0.00000000000E+00 -0.36641217380E+03  0.36641217380E+03  0.00000000000E+00 0. -1.
         25    1    1    2    0    0  0.44903478719E+02  0.38691038290E+02 -0.12059199704E+02  0.13886591786E+03  0.12500000000E+03 0.  0.
         25    1    1    2    0    0 -0.17567041794E+02  0.18273708359E+02 -0.13990193733E+03  0.18931476816E+03  0.12500000000E+03 0.  0.
         25    1    1    2    0    0 -0.27336436925E+02 -0.56964746648E+02 -0.87523256986E+02  0.16515926755E+03  0.12500000000E+03 0.  0.
</event>
<event>
 5    0  0.5583350E-005  0.3331770E+03  0.7546771E-02  0.1069740E+00
         21   -1    0    0  502  501  0.00000000000E+00  0.00000000000E+00  0.14480368621E+04  0.14480368621E+04  0.00000000000E+00 0. -1.
         21   -1    0    0  501  502 -0.00000000000E+00 -0.00000000000E+00 -0.76660290916E+02  0.76660290916E+02  0.00000000000E+00 0. -1.
         25    1    1    2    0    0 -0.12525746809E+03 -0.43515176570E+02  0.32201061088E+03  0.36999842895E+03  0.12500000000E+03 0.  0.
         25    1    1    2    0    0 -0.15342547488E+02 -0.15881074453E+03  0.38286412507E+03  0.43320455285E+03  0.12500000000E+03 0.  0.
         25    1    1    2    0    0  0.14060001558E+03  0.20232592110E+03  0.66650183519E+03  0.72149417118E+03  0.12500000000E+03 0.  0.
</event>
<event>
 5    0  0.5583350E-005  0.3345823E+03  0.7546771E-02  0.1069127E+00
         21   -1    0    0  502  501  0.00000000000E+00  0.00000000000E+00  0.24980676783E+03  0.24980676783E+03  0.00000000000E+00 0.  1.
         21   -1    0    0  501  502 -0.00000000000E+00 -0.00000000000E+00 -0.44812755399E+03  0.44812755399E+03  0.00000000000E+00 0.  1.
         25    1    1    2    0    0  0.45249693252E+01  0.60643813170E+02 -0.71047069376E+02  0.15611160588E+03  0.12500000000E+03 0.  0.
         25    1    1    2    0    0 -0.14323063912E+03 -0.19089510709E+03 -0.15764824899E+03  0.31214408260E+03  0.12500000000E+03 0.  0.
         25    1    1    2    0    0  0.13870566980E+03  0.13025129392E+03  0.30374532201E+02  0.22967863333E+03  0.12500000000E+03 0.  0.
</event>
<event>
 5    0  0.5583350E-005  0.4536659E+03  0.7546771E-02  0.1026634E+00
         21   -1    0    0  502  501  0.00000000000E+00  0.00000000000E+00  0.17329168880E+04  0.17329168880E+04  0.00000000000E+00 0. -1.
         21   -1    0    0  501  502 -0.00000000000E+00 -0.00000000000E+00 -0.11876664521E+03  0.11876664521E+03  0.00000000000E+00 0. -1.
         25    1    1    2    0    0  0.19736076775E+03  0.89137443624E+02  0.75824270599E+03  0.79840701256E+03  0.12500000000E+03 0.  0.
         25    1    1    2    0    0 -0.18163848431E+03 -0.96180153341E+02  0.89051564537E+03  0.92243497089E+03  0.12500000000E+03 0.  0.
         25    1    1    2    0    0 -0.15722283445E+02  0.70427097164E+01 -0.34608108603E+02  0.13084154974E+03  0.12500000000E+03 0.  0.
</event>
<event>
 5    0  0.5583350E-005  0.2897633E+03  0.7546771E-02  0.1090473E+00
         21   -1    0    0  502  501  0.00000000000E+00  0.00000000000E+00  0.51142296105E+02  0.51142296105E+02  0.00000000000E+00 0.  1.
         21   -1    0    0  501  502 -0.00000000000E+00 -0.00000000000E+00 -0.16417481718E+04  0.16417481718E+04  0.00000000000E+00 0.  1.
         25    1    1    2    0    0 -0.63056810951E+02  0.88813903189E+02 -0.29943022522E+03  0.34226821439E+03  0.12500000000E+03 0.  0.
         25    1    1    2    0    0  0.34865625422E+02 -0.13400575907E+03 -0.32331300885E+03  0.37326861238E+03  0.12500000000E+03 0.  0.
         25    1    1    2    0    0  0.28191185529E+02  0.45191855878E+02 -0.96786264165E+03  0.97735364115E+03  0.12500000000E+03 0.  0.
</event>
<event>
 5    0  0.5583350E-005  0.2799500E+03  0.7546771E-02  0.1095716E+00
         21   -1    0    0  502  501  0.00000000000E+00  0.00000000000E+00  0.12682279910E+03  0.12682279910E+03  0.00000000000E+00 0.  1.
         21   -1    0    0  501  502 -0.00000000000E+00 -0.00000000000E+00 -0.61796443743E+03  0.61796443743E+03  0.00000000000E+00 0.  1.
         25    1    1    2    0    0  0.52277175906E+01  0.11093139852E+03 -0.10194298666E+03  0.19583277749E+03  0.12500000000E+03 0.  0.
         25    1    1    2    0    0  0.27787720236E+00  0.84414969212E+02 -0.19425335325E+03  0.24593765367E+03  0.12500000000E+03 0.  0.
         25    1    1    2    0    0 -0.55055947930E+01 -0.19534636773E+03 -0.19494529842E+03  0.30301680537E+03  0.12500000000E+03 0.  0.
</event>
<event>
 5    0  0.5583350E-005  0.2236934E+03  0.7546771E-02  0.1131159E+00
         21   -1    0    0  502  501  0.00000000000E+00  0.00000000000E+00  0.55492843697E+02  0.55492843697E+02  0.00000000000E+00 0.  1.
         21   -1    0    0  501  502 -0.00000000000E+00 -0.00000000000E+00 -0.90171544536E+03  0.90171544536E+03  0.00000000000E+00 0.  1.
         25    1    1    2    0    0  0.48658819632E+02  0.12967461478E+02 -0.19403228110E+03  0.23624005141E+03  0.12500000000E+03 0.  0.
         25    1    1    2    0    0 -0.94119221804E+02 -0.42607979025E+02 -0.26708456099E+03  0.31246284660E+03  0.12500000000E+03 0.  0.
         25    1    1    2    0    0  0.45460402171E+02  0.29640517547E+02 -0.38510575959E+03  0.40850539104E+03  0.12500000000E+03 0.  0.
</event>
<event>
 5    0  0.5583350E-005  0.3005405E+03  0.7546771E-02  0.1084971E+00
         21   -1    0    0  502  501  0.00000000000E+00  0.00000000000E+00  0.27645109126E+03  0.27645109126E+03  0.00000000000E+00 0.  1.
         21   -1    0    0  501  502 -0.00000000000E+00 -0.00000000000E+00 -0.32672899663E+03  0.32672899663E+03  0.00000000000E+00 0.  1.
         25    1    1    2    0    0  0.13068542455E+03 -0.61465764265E+01 -0.20184922843E+02  0.18206837095E+03  0.12500000000E+03 0.  0.
         25    1    1    2    0    0 -0.10028869753E+02  0.81422289811E+02 -0.13775623027E+03  0.20330259832E+03  0.12500000000E+03 0.  0.
         25    1    1    2    0    0 -0.12065655479E+03 -0.75275713385E+02  0.10766324774E+03  0.21780911862E+03  0.12500000000E+03 0.  0.
</event>
<event>
 5    0  0.5583350E-005  0.2325983E+03  0.7546771E-02  0.1124824E+00
         21   -1    0    0  502  501  0.00000000000E+00  0.00000000000E+00  0.55468624961E+03  0.55468624961E+03  0.00000000000E+00 0. -1.
         21   -1    0    0  501  502 -0.00000000000E+00 -0.00000000000E+00 -0.97536122461E+02  0.97536122461E+02  0.00000000000E+00 0. -1.
         25    1    1    2    0    0  0.42953855922E+02  0.37922066669E+02  0.84203756189E+02  0.16124016074E+03  0.12500000000E+03 0.  0.
         25    1    1    2    0    0 -0.53115170169E+02 -0.46608027729E+02  0.63558586710E+02  0.15702937144E+03  0.12500000000E+03 0.  0.
         25    1    1    2    0    0  0.10161314248E+02  0.86859610596E+01  0.30938778425E+03  0.33395283989E+03  0.12500000000E+03 0.  0.
</event>
<event>
 5    0  0.5583350E-005  0.3691543E+03  0.7546771E-02  0.1055017E+00
         21   -1    0    0  502  501  0.00000000000E+00  0.00000000000E+00  0.21925551099E+04  0.21925551099E+04  0.00000000000E+00 0.  1.
         21   -1    0    0  501  502 -0.00000000000E+00 -0.00000000000E+00 -0.62153479710E+02  0.62153479710E+02  0.00000000000E+00 0.  1.
         25    1    1    2    0    0 -0.37882808417E+02 -0.13378310880E+03  0.15598569486E+04  0.15710225101E+04  0.12500000000E+03 0.  0.
         25    1    1    2    0    0 -0.10980095468E+02 -0.43362653844E+02  0.33247245848E+03  0.35799974566E+03  0.12500000000E+03 0.  0.
         25    1    1    2    0    0  0.48862903885E+02  0.17714576264E+03  0.23807222314E+03  0.32568633380E+03  0.12500000000E+03 0.  0.
</event>
<event>
 5    0  0.5583350E-005  0.3215517E+03  0.7546771E-02  0.1074937E+00
         21   -1    0    0  502  501  0.00000000000E+00  0.00000000000E+00  0.11645836815E+04  0.11645836815E+04  0.00000000000E+00 0. -1.
         21   -1    0    0  501  502 -0.00000000000E+00 -0.00000000000E+00 -0.88783224168E+02  0.88783224168E+02  0.00000000000E+00 0. -1.
         25    1    1    2    0    0  0.82366820074E+02 -0.13406822228E+03  0.18060130312E+03  0.27018588409E+03  0.12500000000E+03 0.  0.
         25    1    1    2    0    0  0.55466346044E+02  0.62994394988E+02  0.65032167132E+03  0.66752384641E+03  0.12500000000E+03 0.  0.
         25    1    1    2    0    0 -0.13783316612E+03  0.71073827293E+02  0.24487748293E+03  0.31565717520E+03  0.12500000000E+03 0.  0.
</event>
<event>
 5    0  0.5583350E-005  0.2061925E+03  0.7546771E-02  0.1144617E+00
         21   -1    0    0  502  501  0.00000000000E+00  0.00000000000E+00  0.33373927926E+02  0.33373927926E+02  0.00000000000E+00 0. -1.
         21   -1    0    0  501  502 -0.00000000000E+00 -0.00000000000E+00 -0.12739086546E+04  0.12739086546E+04  0.00000000000E+00 0. -1.
         25    1    1    2    0    0 -0.93506077398E+01 -0.11557507781E+02 -0.35032577873E+03  0.37225550513E+03  0.12500000000E+03 0.  0.
         25    1    1    2    0    0 -0.52489854790E+02  0.44300187524E+02 -0.45838435324E+03  0.48006135729E+03  0.12500000000E+03 0.  0.
         25    1    1    2    0    0  0.61840462529E+02 -0.32742679744E+02 -0.43182459467E+03  0.45496572008E+03  0.12500000000E+03 0.  0.
</event>
<event>
 5    0  0.5583350E-005  0.3848227E+03  0.7546771E-02  0.1049166E+00
         21   -1    0    0  502  501  0.00000000000E+00  0.00000000000E+00  0.60939636134E+03  0.60939636134E+03  0.00000000000E+00 0. -1.
         21   -1    0    0  501  502 -0.00000000000E+00 -0.00000000000E+00 -0.24300853063E+03  0.24300853063E+03  0.00000000000E+00 0. -1.
         25    1    1    2    0    0  0.19620827321E+03 -0.10889387319E+03 -0.11352602920E+02  0.25711756783E+03  0.12500000000E+03 0.  0.
         25    1    1    2    0    0 -0.22507960508E+03  0.43307370958E+02  0.36755833423E+03  0.45084419267E+03  0.12500000000E+03 0.  0.
         25    1    1    2    0    0  0.28871331873E+02  0.65586502237E+02  0.10182099404E+02  0.14444313147E+03  0.12500000000E+03 0.  0.
</event>
<event>
 5    0  0.5583350E-005  0.3404330E+03  0.7546771E-02  0.1066612E+00
         21   -1    0    0  502  501  0.00000000000E+00  0.00000000000E+00  0.16450154696E+04  0.16450154696E+04  0.00000000000E+00 0.  1.
         21   -1    0    0  501  502 -0.00000000000E+00 -0.00000000000E+00 -0.70452008634E+02  0.70452008634E+02  0.00000000000E+00 0.  1.
         25    1    1    2    0    0 -0.21133202956E+01 -0.84744666223E+02  0.11529729014E+03  0.19001207775E+03  0.12500000000E+03 0.  0.
         25    1    1    2    0    0  0.14165018877E+03 -0.64845734847E+02  0.55107370543E+03  0.58615439444E+03  0.12500000000E+03 0.  0.
         25    1    1    2    0    0 -0.13953686848E+03  0.14959040107E+03  0.90819246539E+03  0.93930100604E+03  0.12500000000E+03 0.  0.
</event>
<event>
 5    0  0.5583350E-005  0.2864098E+03  0.7546771E-02  0.1092239E+00
         21   -1    0    0  502  501  0.00000000000E+00  0.00000000000E+00  0.10942267897E+04  0.10942267897E+04  0.00000000000E+00 0.  1.
         21   -1    0    0  501  502 -0.00000000000E+00 -0.00000000000E+00 -0.74966694202E+02  0.74966694202E+02  0.00000000000E+00 0.  1.
         25    1    1    2    0    0 -0.14888588927E+03  0.94449757486E+02  0.40399908960E+03  0.45817903609E+03  0.12500000000E+03 0.  0.
         25    1    1    2    0    0 -0.15507522032E+02 -0.28697166255E+02  0.15145034672E+03  0.19906335201E+03  0.12500000000E+03 0.  0.
         25    1    1    2    0    0  0.16439341130E+03 -0.65752591231E+02  0.46381065920E+03  0.51195109583E+03  0.12500000000E+03 0.  0.
</event>
<event>
 5    0  0.5583350E-005  0.3307239E+03  0.7546771E-02  0.1070817E+00
         21   -1    0    0  502  501  0.00000000000E+00  0.00000000000E+00  0.37954834281E+03  0.37954834281E+03  0.00000000000E+00 0. -1.
         21   -1    0    0  501  502 -0.00000000000E+00 -0.00000000000E+00 -0.28818014634E+03  0.28818014634E+03  0.00000000000E+00 0. -1.
         25    1    1    2    0    0  0.15528823019E+03  0.52134523223E+01  0.98006338757E+02  0.22219778792E+03  0.12500000000E+03 0.  0.
         25    1    1    2    0    0  0.29347816098E+02  0.13127521287E+03  0.68339106950E+01  0.18375575681E+03  0.12500000000E+03 0.  0.
         25    1    1    2    0    0 -0.18463604628E+03 -0.13648866520E+03 -0.13472052985E+02  0.26177494442E+03  0.12500000000E+03 0.  0.
</event>
<event>
 5    0  0.5583350E-005  0.3196934E+03  0.7546771E-02  0.1075790E+00
         21   -1    0    0  502  501  0.00000000000E+00  0.00000000000E+00  0.18596253631E+03  0.18596253631E+03  0.00000000000E+00 0. -1.
         21   -1    0    0  501  502 -0.00000000000E+00 -0.00000000000E+00 -0.54959391643E+03  0.54959391643E+03  0.00000000000E+00 0. -1.
         25    1    1    2    0    0 -0.34000563892E+02  0.11578917441E+03 -0.64153640499E+02  0.18521301478E+03  0.12500000000E+03 0.  0.
         25    1    1    2    0    0  0.14454488409E+03  0.71211893499E+02 -0.86795772589E+02  0.22163678267E+03  0.12500000000E+03 0.  0.
         25    1    1    2    0    0 -0.11054432020E+03 -0.18700106791E+03 -0.21268196703E+03  0.32870665529E+03  0.12500000000E+03 0.  0.
</event>
<event>
 5    0  0.5583350E-005  0.2186750E+03  0.7546771E-02  0.1134875E+00
         21   -1    0    0  502  501  0.00000000000E+00  0.00000000000E+00  0.88479052804E+03  0.88479052804E+03  0.00000000000E+00 0. -1.
         21   -1    0    0  501  502 -0.00000000000E+00 -0.00000000000E+00 -0.54045268115E+02  0.54045268115E+02  0.00000000000E+00 0. -1.
         25    1    1    2    0    0  0.20819658179E+02 -0.71779240457E+02  0.19990537551E+03  0.24733151171E+03  0.12500000000E+03 0.  0.
         25    1    1    2    0    0 -0.19018747449E+02 -0.25651929451E+01  0.39166329630E+03  0.41157433185E+03  0.12500000000E+03 0.  0.
         25    1    1    2    0    0 -0.18009107304E+01  0.74344433402E+02  0.23917658811E+03  0.27992995259E+03  0.12500000000E+03 0.  0.
</event>
<event>
 5    0  0.5583350E-005  0.2558727E+03  0.7546771E-02  0.1109649E+00
         21   -1    0    0  502  501  0.00000000000E+00  0.00000000000E+00  0.18256741963E+03  0.18256741963E+03  0.00000000000E+00 0. -1.
         21   -1    0    0  501  502 -0.00000000000E+00 -0.00000000000E+00 -0.35861175008E+03  0.35861175008E+03  0.00000000000E+00 0. -1.
         25    1    1    2    0    0  0.10889737342E+03 -0.69162953138E+02 -0.44598972534E+02  0.18508436016E+03  0.12500000000E+03 0.  0.
         25    1    1    2    0    0  0.43954977608E+01 -0.37323049811E+02 -0.65047796743E+02  0.14583739681E+03  0.12500000000E+03 0.  0.
         25    1    1    2    0    0 -0.11329287118E+03  0.10648600295E+03 -0.66397561169E+02  0.21025741274E+03  0.12500000000E+03 0.  0.
</event>
<event>
 5    0  0.5583350E-005  0.2909092E+03  0.7546771E-02  0.1089875E+00
         21   -1    0    0  502  501  0.00000000000E+00  0.00000000000E+00  0.54456930132E+02  0.54456930132E+02  0.00000000000E+00 0.  1.
         21   -1    0    0  501  502 -0.00000000000E+00 -0.00000000000E+00 -0.15540383564E+04  0.15540383564E+04  0.00000000000E+00 0.  1.
         25    1    1    2    0    0 -0.65432890770E+01 -0.12668077363E+03 -0.19555119057E+03  0.26449215711E+03  0.12500000000E+03 0.  0.
         25    1    1    2    0    0  0.46775618493E+02  0.10802426986E+03 -0.48941603424E+03  0.51866198620E+03  0.12500000000E+03 0.  0.
         25    1    1    2    0    0 -0.40232329416E+02  0.18656503776E+02 -0.81461420145E+03  0.82534114321E+03  0.12500000000E+03 0.  0.
</event>
<event>
 5    0  0.5583350E-005  0.3640642E+03  0.7546771E-02  0.1056986E+00
         21   -1    0    0  502  501  0.00000000000E+00  0.00000000000E+00  0.60313187980E+03  0.60313187980E+03  0.00000000000E+00 0. -1.
         21   -1    0    0  501  502 -0.00000000000E+00 -0.00000000000E+00 -0.21975753621E+03  0.21975753621E+03  0.00000000000E+00 0. -1.
         25    1    1    2    0    0 -0.20547942092E+02 -0.12697644633E+03  0.25554007330E+03  0.31220340310E+03  0.12500000000E+03 0.  0.
         25    1    1    2    0    0  0.16126763709E+03  0.17563483950E+03 -0.14703997135E+02  0.26962205984E+03  0.12500000000E+03 0.  0.
         25    1    1    2    0    0 -0.14071969500E+03 -0.48658393170E+02  0.14253826742E+03  0.24106395306E+03  0.12500000000E+03 0.  0.
</event>
<event>
 5    0  0.5583350E-005  0.4134733E+03  0.7546771E-02  0.1039212E+00
         21   -1    0    0  502  501  0.00000000000E+00  0.00000000000E+00  0.92563252259E+03  0.92563252259E+03  0.00000000000E+00 0. -1.
         21   -1    0    0  501  502 -0.00000000000E+00 -0.00000000000E+00 -0.18469549893E+03  0.18469549893E+03  0.00000000000E+00 0. -1.
         25    1    1    2    0    0  0.27976842215E+03  0.79227204150E+01  0.23058031810E+03  0.38356931919E+03  0.12500000000E+03 0.  0.
         25    1    1    2    0    0  0.38194480808E+02  0.84185865483E+02  0.21799107332E+03  0.26775209870E+03  0.12500000000E+03 0.  0.
         25    1    1    2    0    0 -0.31796290296E+03 -0.92108585898E+02  0.29236563223E+03  0.45900660362E+03  0.12500000000E+03 0.  0.
</event>
<event>
 5    0  0.5583350E-005  0.2591758E+03  0.7546771E-02  0.1107639E+00
         21   -1    0    0  502  501  0.00000000000E+00  0.00000000000E+00  0.24460861346E+03  0.24460861346E+03  0.00000000000E+00 0.  1.
         21   -1    0    0  501  502 -0.00000000000E+00 -0.00000000000E+00 -0.27461053575E+03  0.27461053575E+03  0.00000000000E+00 0.  1.
         25    1    1    2    0    0  0.29863735243E+02 -0.79019751092E+02  0.44910778255E+00  0.15086803983E+03  0.12500000000E+03 0.  0.
         25    1    1    2    0    0 -0.62593413904E+02  0.63438433625E+02 -0.13263698095E+03  0.20287912421E+03  0.12500000000E+03 0.  0.
         25    1    1    2    0    0  0.32729678661E+02  0.15581317467E+02  0.10218595088E+03  0.16547198517E+03  0.12500000000E+03 0.  0.
</event>
<event>
 5    0  0.5583350E-005  0.2314788E+03  0.7546771E-02  0.1125603E+00
         21   -1    0    0  502  501  0.00000000000E+00  0.00000000000E+00  0.20608858593E+03  0.20608858593E+03  0.00000000000E+00 0.  1.
         21   -1    0    0  501  502 -0.00000000000E+00 -0.00000000000E+00 -0.25999712019E+03  0.25999712019E+03  0.00000000000E+00 0.  1.
         25    1    1    2    0    0  0.20393867125E+02 -0.70656379477E+02  0.26979020836E+02  0.14751644431E+03  0.12500000000E+03 0.  0.
         25    1    1    2    0    0 -0.70880421765E+02  0.90657660009E+02 -0.27100767798E+02  0.17205318109E+03  0.12500000000E+03 0.  0.
         25    1    1    2    0    0  0.50486554640E+02 -0.20001280533E+02 -0.53786787293E+02  0.14651608072E+03  0.12500000000E+03 0.  0.
</event>
<event>
 5    0  0.5583350E-005  0.5296608E+03  0.7546771E-02  0.1006314E+00
         21   -1    0    0  502  501  0.00000000000E+00  0.00000000000E+00  0.61450070013E+03  0.61450070013E+03  0.00000000000E+00 0. -1.
         21   -1    0    0  501  502 -0.00000000000E+00 -0.00000000000E+00 -0.45653412740E+03  0.45653412740E+03  0.00000000000E+00 0. -1.
         25    1    1    2    0    0 -0.93839902925E+02 -0.39915199630E+03  0.79908694747E+02  0.43604889982E+03  0.12500000000E+03 0.  0.
         25    1    1    2    0    0 -0.14073018412E+02  0.25938676831E+03 -0.14632910384E+03  0.32329050721E+03  0.12500000000E+03 0.  0.
         25    1    1    2    0    0  0.10791292134E+03  0.13976522799E+03  0.22438698183E+03  0.31169542050E+03  0.12500000000E+03 0.  0.
</event>
<event>
 5    0  0.5583350E-005  0.3304073E+03  0.7546771E-02  0.1070957E+00
         21   -1    0    0  502  501  0.00000000000E+00  0.00000000000E+00  0.20796338116E+03  0.20796338116E+03  0.00000000000E+00 0. -1.
         21   -1    0    0  501  502 -0.00000000000E+00 -0.00000000000E+00 -0.52494330138E+03  0.52494330138E+03  0.00000000000E+00 0. -1.
         25    1    1    2    0    0 -0.13337483443E+03  0.11633288432E+03 -0.87107190371E+02  0.23352697713E+03  0.12500000000E+03 0.  0.
         25    1    1    2    0    0 -0.18959548728E+02 -0.11475191847E+02 -0.24470012327E+03  0.27567062746E+03  0.12500000000E+03 0.  0.
         25    1    1    2    0    0  0.15233438315E+03 -0.10485769248E+03  0.14827393419E+02  0.22370907795E+03  0.12500000000E+03 0.  0.
</event>
<event>
 5    0  0.5583350E-005  0.2674847E+03  0.7546771E-02  0.1102728E+00
         21   -1    0    0  502  501  0.00000000000E+00  0.00000000000E+00  0.90243747476E+02  0.90243747476E+02  0.00000000000E+00 0.  1.
         21   -1    0    0  501  502 -0.00000000000E+00 -0.00000000000E+00 -0.79283105256E+03  0.79283105256E+03  0.00000000000E+00 0.  1.
         25    1    1    2    0    0 -0.23052523889E+02 -0.72620232471E+02 -0.42057896717E+03  0.44532772723E+03  0.12500000000E+03 0.  0.
         25    1    1    2    0    0  0.79223527165E+02 -0.43941895861E+02 -0.14241577336E+03  0.21003454471E+03  0.12500000000E+03 0.  0.
         25    1    1    2    0    0 -0.56171003277E+02  0.11656212833E+03 -0.13959256455E+03  0.22771252809E+03  0.12500000000E+03 0.  0.
</event>
<event>
 5    0  0.5583350E-005  0.3665985E+03  0.7546771E-02  0.1056001E+00
         21   -1    0    0  502  501  0.00000000000E+00  0.00000000000E+00  0.19456080076E+03  0.19456080076E+03  0.00000000000E+00 0. -1.
         21   -1    0    0  501  502 -0.00000000000E+00 -0.00000000000E+00 -0.69075811061E+03  0.69075811061E+03  0.00000000000E+00 0. -1.
         25    1    1    2    0    0  0.13037270375E+03 -0.10041627642E+03 -0.42655561474E+03  0.47397801944E+03  0.12500000000E+03 0.  0.
         25    1    1    2    0    0  0.14702688510E+02 -0.69433662583E+02  0.76753535573E+01  0.14394830184E+03  0.12500000000E+03 0.  0.
         25    1    1    2    0    0 -0.14507539226E+03  0.16984993900E+03 -0.77317048668E+02  0.26739259009E+03  0.12500000000E+03 0.  0.
</event>
<event>
 5    0  0.5583350E-005  0.3251425E+03  0.7546771E-02  0.1073307E+00
         21   -1    0    0  502  501  0.00000000000E+00  0.00000000000E+00  0.28971975901E+03  0.28971975901E+03  0.00000000000E+00 0. -1.
         21   -1    0    0  501  502 -0.00000000000E+00 -0.00000000000E+00 -0.36489613974E+03  0.36489613974E+03  0.00000000000E+00 0. -1.
         25    1    1    2    0    0  0.88327128593E+02 -0.12022189361E+02 -0.18788439777E+03  0.24263503788E+03  0.12500000000E+03 0.  0.
         25    1    1    2    0    0 -0.10990066559E+03  0.60958341874E+02  0.18649173887E+03  0.25729019493E+03  0.12500000000E+03 0.  0.
         25    1    1    2    0    0  0.21573536993E+02 -0.48936152513E+02 -0.73783721835E+02  0.15469066594E+03  0.12500000000E+03 0.  0.
</event>
<event>
 5    0  0.5583350E-005  0.3368741E+03  0.7546771E-02  0.1068135E+00
         21   -1    0    0  502  501  0.00000000000E+00  0.00000000000E+00  0.47391959206E+02  0.47391959206E+02  0.00000000000E+00 0.  1.
         21   -1    0    0  501  502 -0.00000000000E+00 -0.00000000000E+00 -0.23945870446E+04  0.23945870446E+04  0.00000000000E+00 0.  1.
         25    1    1    2    0    0 -0.36614367663E+02 -0.77663543157E+02 -0.53012125960E+03  0.55138533507E+03  0.12500000000E+03 0.  0.
         25    1    1    2    0    0 -0.13262715723E+03  0.20492632203E+03 -0.87594301769E+03  0.91787032338E+03  0.12500000000E+03 0.  0.
         25    1    1    2    0    0  0.16924152490E+03 -0.12726277887E+03 -0.94113080806E+03  0.97272334531E+03  0.12500000000E+03 0.  0.
</event>
<event>
 5    0  0.5583350E-005  0.2807539E+03  0.7546771E-02  0.1095278E+00
         21   -1    0    0  502  501  0.00000000000E+00  0.00000000000E+00  0.18117771642E+03  0.18117771642E+03  0.00000000000E+00 0.  1.
         21   -1    0    0  501  502 -0.00000000000E+00 -0.00000000000E+00 -0.43505763450E+03  0.43505763450E+03  0.00000000000E+00 0.  1.
         25    1    1    2    0    0 -0.73784554886E+02  0.34522477530E+02 -0.63007677736E+02  0.16195965377E+03  0.12500000000E+03 0.  0.
         25    1    1    2    0    0 -0.49250588781E+02  0.30290902072E+02  0.52477484405E+02  0.14738400732E+03  0.12500000000E+03 0.  0.
         25    1    1    2    0    0  0.12303514367E+03 -0.64813379602E+02 -0.24334972475E+03  0.30689168983E+03  0.12500000000E+03 0.  0.
</event>
<event>
 5    0  0.5583350E-005  0.4474842E+03  0.7546771E-02  0.1028475E+00
         21   -1    0    0  502  501  0.00000000000E+00  0.00000000000E+00  0.28315745669E+03  0.28315745669E+03  0.00000000000E+00 0.  1.
         21   -1    0    0  501  502 -0.00000000000E+00 -0.00000000000E+00 -0.70717567790E+03  0.70717567790E+03  0.00000000000E+00 0.  1.
         25    1    1    2    0    0 -0.75434613114E+02  0.35726520094E+03 -0.22431285529E+03  0.44639675369E+03  0.12500000000E+03 0.  0.
         25    1    1    2    0    0  0.58062516015E+02 -0.34979104433E+03 -0.12073413676E+03  0.39487562882E+03  0.12500000000E+03 0.  0.
         25    1    1    2    0    0  0.17372097099E+02 -0.74741566066E+01 -0.78971229165E+02  0.14906075208E+03  0.12500000000E+03 0.  0.
</event>
<event>
 5    0  0.5583350E-005  0.2442114E+03  0.7546771E-02  0.1117019E+00
         21   -1    0    0  502  501  0.00000000000E+00  0.00000000000E+00  0.48879815061E+03  0.48879815061E+03  0.00000000000E+00 0.  1.
         21   -1    0    0  501  502 -0.00000000000E+00 -0.00000000000E+00 -0.12201190345E+03  0.12201190345E+03  0.00000000000E+00 0.  1.
         25    1    1    2    0    0  0.63587641636E+02 -0.62366550044E+02  0.22755181642E+01  0.15350294042E+03  0.12500000000E+03 0.  0.
         25    1    1    2    0    0 -0.67462254700E+02  0.21719474539E+02  0.20932247552E+03  0.25389720389E+03  0.12500000000E+03 0.  0.
         25    1    1    2    0    0  0.38746130640E+01  0.40647075504E+02  0.15518825347E+03  0.20340990976E+03  0.12500000000E+03 0.  0.
</event>
<event>
 5    0  0.5583350E-005  0.3151323E+03  0.7546771E-02  0.1077912E+00
         21   -1    0    0  502  501  0.00000000000E+00  0.00000000000E+00  0.20441003578E+04  0.20441003578E+04  0.00000000000E+00 0.  1.
         21   -1    0    0  501  502 -0.00000000000E+00 -0.00000000000E+00 -0.48582906840E+02  0.48582906840E+02  0.00000000000E+00 0.  1.
         25    1    1    2    0    0  0.11122488459E+03  0.30963579444E+02  0.23467562511E+03  0.28987474403E+03  0.12500000000E+03 0.  0.
         25    1    1    2    0    0 -0.17351790443E+03 -0.92718389871E+02  0.10019104899E+04  0.10286665119E+04  0.12500000000E+03 0.  0.
         25    1    1    2    0    0  0.62293019838E+02  0.61754810427E+02  0.75893133592E+03  0.77414200866E+03  0.12500000000E+03 0.  0.
</event>
<event>
 5    0  0.5583350E-005  0.2406903E+03  0.7546771E-02  0.1119334E+00
         21   -1    0    0  502  501  0.00000000000E+00  0.00000000000E+00  0.42086291368E+02  0.42086291368E+02  0.00000000000E+00 0. -1.
         21   -1    0    0  501  502 -0.00000000000E+00 -0.00000000000E+00 -0.13765012212E+04  0.13765012212E+04  0.00000000000E+00 0. -1.
         25    1    1    2    0    0 -0.65578459999E+02  0.72850476219E+02 -0.57771252531E+03  0.59915314253E+03  0.12500000000E+03 0.  0.
         25    1    1    2    0    0  0.55063594142E+02  0.43002839004E+02 -0.36794740136E+03  0.39483101921E+03  0.12500000000E+03 0.  0.
         25    1    1    2    0    0  0.10514865856E+02 -0.11585331522E+03 -0.38875500315E+03  0.42460335082E+03  0.12500000000E+03 0.  0.
</event>
<event>
 5    0  0.5583350E-005  0.2625034E+03  0.7546771E-02  0.1105648E+00
         21   -1    0    0  502  501  0.00000000000E+00  0.00000000000E+00  0.43586338902E+03  0.43586338902E+03  0.00000000000E+00 0. -1.
         21   -1    0    0  501  502 -0.00000000000E+00 -0.00000000000E+00 -0.15809545429E+03  0.15809545429E+03  0.00000000000E+00 0. -1.
         25    1    1    2    0    0 -0.47216919187E+02  0.10918739990E+03 -0.63457624320E+01  0.17267482288E+03  0.12500000000E+03 0.  0.
         25    1    1    2    0    0  0.70534883060E+02 -0.50209525644E+02  0.21929351598E+03  0.26685354100E+03  0.12500000000E+03 0.  0.
         25    1    1    2    0    0 -0.23317963874E+02 -0.58977874256E+02  0.64820181180E+02  0.15443047944E+03  0.12500000000E+03 0.  0.
</event>
<event>
 5    0  0.5583350E-005  0.2796628E+03  0.7546771E-02  0.1095873E+00
         21   -1    0    0  502  501  0.00000000000E+00  0.00000000000E+00  0.15097729065E+03  0.15097729065E+03  0.00000000000E+00 0.  1.
         21   -1    0    0  501  502 -0.00000000000E+00 -0.00000000000E+00 -0.51803352560E+03  0.51803352560E+03  0.00000000000E+00 0.  1.
         25    1    1    2    0    0 -0.27821483950E+02  0.71827609322E+02 -0.36634268357E+02  0.15132848393E+03  0.12500000000E+03 0.  0.
         25    1    1    2    0    0  0.70560852192E+01 -0.15790159151E+03 -0.65913281123E+02  0.21201948394E+03  0.12500000000E+03 0.  0.
         25    1    1    2    0    0  0.20765398730E+02  0.86073982192E+02 -0.26450868547E+03  0.30566284838E+03  0.12500000000E+03 0.  0.
</event>
<event>
 5    0  0.5583350E-005  0.2495320E+03  0.7546771E-02  0.1113601E+00
         21   -1    0    0  502  501  0.00000000000E+00  0.00000000000E+00  0.18340217213E+03  0.18340217213E+03  0.00000000000E+00 0. -1.
         21   -1    0    0  501  502 -0.00000000000E+00 -0.00000000000E+00 -0.33950639582E+03  0.33950639582E+03  0.00000000000E+00 0. -1.
         25    1    1    2    0    0  0.21363517157E+02 -0.13187312458E+02 -0.99172018485E+02  0.16152521266E+03  0.12500000000E+03 0.  0.
         25    1    1    2    0    0 -0.75541684650E+02  0.32073962942E+02  0.78046396207E+02  0.16867579903E+03  0.12500000000E+03 0.  0.
         25    1    1    2    0    0  0.54178167493E+02 -0.18886650484E+02 -0.13497860142E+03  0.19270755626E+03  0.12500000000E+03 0.  0.
</event>
<event>
 5    0  0.5583350E-005  0.2648438E+03  0.7546771E-02  0.1104267E+00
         21   -1    0    0  502  501  0.00000000000E+00  0.00000000000E+00  0.35602583702E+03  0.35602583702E+03  0.00000000000E+00 0. -1.
         21   -1    0    0  501  502 -0.00000000000E+00 -0.00000000000E+00 -0.19701448088E+03  0.19701448088E+03  0.00000000000E+00 0. -1.
         25    1    1    2    0    0 -0.42445688129E+01 -0.29997116519E+02  0.54125576155E+02  0.13954361812E+03  0.12500000000E+03 0.  0.
         25    1    1    2    0    0 -0.36439868470E+02 -0.20997845247E+02  0.20274470335E+03  0.24186605437E+03  0.12500000000E+03 0.  0.
         25    1    1    2    0    0  0.40684437283E+02  0.50994961766E+02 -0.97858923370E+02  0.17163064542E+03  0.12500000000E+03 0.  0.
</event>
<event>
 5    0  0.5583350E-005  0.4970186E+03  0.7546771E-02  0.1014560E+00
         21   -1    0    0  502  501  0.00000000000E+00  0.00000000000E+00  0.10983886512E+04  0.10983886512E+04  0.00000000000E+00 0. -1.
         21   -1    0    0  501  502 -0.00000000000E+00 -0.00000000000E+00 -0.22489986485E+03  0.22489986485E+03  0.00000000000E+00 0. -1.
         25    1    1    2    0    0 -0.16389386645E+03 -0.85805225966E+02  0.63081456369E+02  0.23200863432E+03  0.12500000000E+03 0.  0.
         25    1    1    2    0    0  0.37604709010E+03  0.21644022024E+03  0.52173638090E+03  0.68999393770E+03  0.12500000000E+03 0.  0.
         25    1    1    2    0    0 -0.21215322365E+03 -0.13063499427E+03  0.28867094910E+03  0.40128594404E+03  0.12500000000E+03 0.  0.
</event>
<event>
 5    0  0.5583350E-005  0.5058963E+03  0.7546771E-02  0.1012251E+00
         21   -1    0    0  502  501  0.00000000000E+00  0.00000000000E+00  0.17132169116E+04  0.17132169116E+04  0.00000000000E+00 0. -1.
         21   -1    0    0  501  502 -0.00000000000E+00 -0.00000000000E+00 -0.14938627085E+03  0.14938627085E+03  0.00000000000E+00 0.  1.
         25    1    1    2    0    0  0.85348712638E+02 -0.12537171880E+03  0.53360501330E+03  0.56864908410E+03  0.12500000000E+03 0.  0.
         25    1    1    2    0    0 -0.20140812595E+03 -0.24776336603E+03  0.64844755062E+03  0.73352651258E+03  0.12500000000E+03 0.  0.
         25    1    1    2    0    0  0.11605941332E+03  0.37313508483E+03  0.38177807681E+03  0.56042758576E+03  0.12500000000E+03 0.  0.
</event>
<event>
 5    0  0.5583350E-005  0.2685700E+03  0.7546771E-02  0.1102101E+00
         21   -1    0    0  502  501  0.00000000000E+00  0.00000000000E+00  0.54686171932E+03  0.54686171932E+03  0.00000000000E+00 0. -1.
         21   -1    0    0  501  502 -0.00000000000E+00 -0.00000000000E+00 -0.13189776437E+03  0.13189776437E+03  0.00000000000E+00 0. -1.
         25    1    1    2    0    0  0.10457041230E+03 -0.14781195586E+01  0.88176922013E+02  0.18530333387E+03  0.12500000000E+03 0.  0.
         25    1    1    2    0    0 -0.36173305177E+02  0.12442748401E+03  0.13762736409E+03  0.22662082457E+03  0.12500000000E+03 0.  0.
         25    1    1    2    0    0 -0.68397107126E+02 -0.12294936445E+03  0.18915966885E+03  0.26683532525E+03  0.12500000000E+03 0.  0.
</event>
<event>
 5    0  0.5583350E-005  0.2554211E+03  0.7546771E-02  0.1109926E+00
         21   -1    0    0  502  501  0.00000000000E+00  0.00000000000E+00  0.33302982561E+02  0.33302982561E+02  0.00000000000E+00 0.  1.
         21   -1    0    0  501  502 -0.00000000000E+00 -0.00000000000E+00 -0.19589816443E+04  0.19589816443E+04  0.00000000000E+00 0.  1.
         25    1    1    2    0    0  0.74524671172E+02 -0.75102271136E+02 -0.45642021725E+03  0.48491101499E+03  0.12500000000E+03 0.  0.
         25    1    1    2    0    0  0.44815286706E+02 -0.27143071110E+02 -0.55251337657E+03  0.56889470689E+03  0.12500000000E+03 0.  0.
         25    1    1    2    0    0 -0.11933995788E+03  0.10224534225E+03 -0.91674506796E+03  0.93847890503E+03  0.12500000000E+03 0.  0.
</event>
<event>
 5    0  0.5583350E-005  0.3453294E+03  0.7546771E-02  0.1064549E+00
         21   -1    0    0  502  501  0.00000000000E+00  0.00000000000E+00  0.18905206225E+04  0.18905206225E+04  0.00000000000E+00 0. -1.
         21   -1    0    0  501  502 -0.00000000000E+00 -0.00000000000E+00 -0.63079138700E+02  0.63079138700E+02  0.00000000000E+00 0. -1.
         25    1    1    2    0    0  0.49519647958E+02 -0.23677082917E+02  0.14237332758E+04  0.14302636961E+04  0.12500000000E+03 0.  0.
         25    1    1    2    0    0 -0.49799938015E+02 -0.91132378237E+02  0.21539721521E+03  0.26982606344E+03  0.12500000000E+03 0.  0.
         25    1    1    2    0    0  0.28029005748E+00  0.11480946115E+03  0.18831099280E+03  0.25351000166E+03  0.12500000000E+03 0.  0.
</event>
<event>
 5    0  0.5583350E-005  0.3661587E+03  0.7546771E-02  0.1056172E+00
         21   -1    0    0  502  501  0.00000000000E+00  0.00000000000E+00  0.33199132841E+03  0.33199132841E+03  0.00000000000E+00 0.  1.
         21   -1    0    0  501  502 -0.00000000000E+00 -0.00000000000E+00 -0.40384240755E+03  0.40384240755E+03  0.00000000000E+00 0.  1.
         25    1    1    2    0    0 -0.71252108796E+02 -0.11757422550E+03 -0.38304699424E+02  0.18971771532E+03  0.12500000000E+03 0.  0.
         25    1    1    2    0    0  0.37536629541E+02  0.28910007519E+03  0.38352637525E+02  0.31950551926E+03  0.12500000000E+03 0.  0.
         25    1    1    2    0    0  0.33715479254E+02 -0.17152584969E+03 -0.71899017247E+02  0.22661050138E+03  0.12500000000E+03 0.  0.
</event>
<event>
 5    0  0.7429434E-005  0.6182468E+03  0.7546771E-02  0.9868256E-01
         21   -1    0    0  502  501  0.00000000000E+00  0.00000000000E+00  0.15798816078E+04  0.15798816078E+04  0.00000000000E+00 0. -1.
         21   -1    0    0  501  502 -0.00000000000E+00 -0.00000000000E+00 -0.24193532177E+03  0.24193532177E+03  0.00000000000E+00 0. -1.
         25    1    1    2    0    0 -0.23123996193E+03  0.45710531575E+02  0.84309420831E+03  0.88430436886E+03  0.12500000000E+03 0.  0.
         25    1    1    2    0    0 -0.11444234693E+03 -0.11142970048E+03 -0.10693060106E+03  0.22928755388E+03  0.12500000000E+03 0.  0.
         25    1    1    2    0    0  0.34568230886E+03  0.65719168909E+02  0.60178267877E+03  0.70822500682E+03  0.12500000000E+03 0.  0.
</event>
<event>
 5    0  0.5583350E-005  0.3948444E+03  0.7546771E-02  0.1045580E+00
         21   -1    0    0  502  501  0.00000000000E+00  0.00000000000E+00  0.27305726520E+04  0.27305726520E+04  0.00000000000E+00 0.  1.
         21   -1    0    0  501  502 -0.00000000000E+00 -0.00000000000E+00 -0.57095024950E+02  0.57095024950E+02  0.00000000000E+00 0.  1.
         25    1    1    2    0    0 -0.87868190538E+02  0.69806595068E+02  0.12450594767E+04  0.12563406704E+04  0.12500000000E+03 0.  0.
         25    1    1    2    0    0  0.16808980848E+03 -0.82575183769E+02  0.22361160069E+03  0.31733262148E+03  0.12500000000E+03 0.  0.
         25    1    1    2    0    0 -0.80221617944E+02  0.12768588701E+02  0.12048065496E+04  0.12139943850E+04  0.12500000000E+03 0.  0.
</event>
<event>
 5    0  0.5583350E-005  0.3286609E+03  0.7546771E-02  0.1071731E+00
         21   -1    0    0  502  501  0.00000000000E+00  0.00000000000E+00  0.63366755762E+03  0.63366755762E+03  0.00000000000E+00 0.  1.
         21   -1    0    0  501  502 -0.00000000000E+00 -0.00000000000E+00 -0.17046478940E+03  0.17046478940E+03  0.00000000000E+00 0.  1.
         25    1    1    2    0    0  0.44258181863E+02 -0.13349541472E+02 -0.10356691888E+02  0.13367594393E+03  0.12500000000E+03 0.  0.
         25    1    1    2    0    0  0.14582117191E+00  0.17194801882E+03  0.39632957455E+03  0.44974245308E+03  0.12500000000E+03 0.  0.
         25    1    1    2    0    0 -0.44404003034E+02 -0.15859847735E+03  0.77229885553E+02  0.22071395000E+03  0.12500000000E+03 0.  0.
</event>
<event>
 5    0  0.5583350E-005  0.2158291E+03  0.7546771E-02  0.1137031E+00
         21   -1    0    0  502  501  0.00000000000E+00  0.00000000000E+00  0.10417099846E+04  0.10417099846E+04  0.00000000000E+00 0.  1.
         21   -1    0    0  501  502 -0.00000000000E+00 -0.00000000000E+00 -0.44717039059E+02  0.44717039059E+02  0.00000000000E+00 0.  1.
         25    1    1    2    0    0  0.43880590436E+00 -0.38898735703E+02  0.27066881133E+03  0.30066577727E+03  0.12500000000E+03 0.  0.
         25    1    1    2    0    0  0.42645405635E+02  0.65150008141E+02  0.51034511707E+03  0.53116879869E+03  0.12500000000E+03 0.  0.
         25    1    1    2    0    0 -0.43084211539E+02 -0.26251272438E+02  0.21597901718E+03  0.25459244775E+03  0.12500000000E+03 0.  0.
</event>
<event>
 5    0  0.5583350E-005  0.4073631E+03  0.7546771E-02  0.1041260E+00
         21   -1    0    0  502  501  0.00000000000E+00  0.00000000000E+00  0.69235498171E+03  0.69235498171E+03  0.00000000000E+00 0. -1.
         21   -1    0    0  501  502 -0.00000000000E+00 -0.00000000000E+00 -0.23968146931E+03  0.23968146931E+03  0.00000000000E+00 0. -1.
         25    1    1    2    0    0  0.23808839601E+03 -0.39751010763E+02  0.28409779222E+03  0.39319560363E+03  0.12500000000E+03 0.  0.
         25    1    1    2    0    0 -0.12392207743E+03  0.16781987969E+03  0.21146421273E+03  0.32227675461E+03  0.12500000000E+03 0.  0.
         25    1    1    2    0    0 -0.11416631858E+03 -0.12806886893E+03 -0.42888492554E+02  0.21656409278E+03  0.12500000000E+03 0.  0.
</event>
<event>
 5    0  0.5583350E-005  0.2441734E+03  0.7546771E-02  0.1117043E+00
         21   -1    0    0  502  501  0.00000000000E+00  0.00000000000E+00  0.97934776333E+03  0.97934776333E+03  0.00000000000E+00 0.  1.
         21   -1    0    0  501  502 -0.00000000000E+00 -0.00000000000E+00 -0.60877937036E+02  0.60877937036E+02  0.00000000000E+00 0.  1.
         25    1    1    2    0    0  0.20567661119E+02  0.12184325073E+03  0.23874370112E+03  0.29646645891E+03  0.12500000000E+03 0.  0.
         25    1    1    2    0    0 -0.54325159545E+01 -0.88273947193E+01  0.21142798388E+03  0.24583373953E+03  0.12500000000E+03 0.  0.
         25    1    1    2    0    0 -0.15135145164E+02 -0.11301585601E+03  0.46829814130E+03  0.49792550193E+03  0.12500000000E+03 0.  0.
</event>
<event>
 5    0  0.5583350E-005  0.2466009E+03  0.7546771E-02  0.1115472E+00
         21   -1    0    0  502  501  0.00000000000E+00  0.00000000000E+00  0.15717563167E+03  0.15717563167E+03  0.00000000000E+00 0. -1.
         21   -1    0    0  501  502 -0.00000000000E+00 -0.00000000000E+00 -0.38690476057E+03  0.38690476057E+03  0.00000000000E+00 0. -1.
         25    1    1    2    0    0 -0.37996053687E+02  0.12548704449E+03 -0.88579513605E+02  0.20164827959E+03  0.12500000000E+03 0.  0.
         25    1    1    2    0    0  0.26175627529E+02 -0.12668576227E+03 -0.48272342731E+02  0.18625161720E+03  0.12500000000E+03 0.  0.
         25    1    1    2    0    0  0.11820426158E+02  0.11987177768E+01 -0.92877272572E+02  0.15618049545E+03  0.12500000000E+03 0.  0.
</event>
<event>
 5    0  0.5583350E-005  0.2568400E+03  0.7546771E-02  0.1109057E+00
         21   -1    0    0  502  501  0.00000000000E+00  0.00000000000E+00  0.71044048271E+03  0.71044048271E+03  0.00000000000E+00 0.  1.
         21   -1    0    0  501  502 -0.00000000000E+00 -0.00000000000E+00 -0.92853341234E+02  0.92853341234E+02  0.00000000000E+00 0.  1.
         25    1    1    2    0    0 -0.42292706559E+02  0.85948474075E+01  0.65517596510E+02  0.14758082491E+03  0.12500000000E+03 0.  0.
         25    1    1    2    0    0 -0.31195210604E+02 -0.33196195496E+02  0.67242919416E+02  0.14906957695E+03  0.12500000000E+03 0.  0.
         25    1    1    2    0    0  0.73487917163E+02  0.24601348088E+02  0.48482662555E+03  0.50664342208E+03  0.12500000000E+03 0.  0.
</event>
<event>
 5    0  0.5583350E-005  0.2923341E+03  0.7546771E-02  0.1089137E+00
         21   -1    0    0  502  501  0.00000000000E+00  0.00000000000E+00  0.49430251911E+03  0.49430251911E+03  0.00000000000E+00 0.  1.
         21   -1    0    0  501  502 -0.00000000000E+00 -0.00000000000E+00 -0.17288845659E+03  0.17288845659E+03  0.00000000000E+00 0.  1.
         25    1    1    2    0    0 -0.14137958671E+03  0.17705969446E+02  0.13773035304E+03  0.23429967785E+03  0.12500000000E+03 0.  0.
         25    1    1    2    0    0  0.16264050457E+03  0.68516643503E+02  0.17690996586E+03  0.27940758792E+03  0.12500000000E+03 0.  0.
         25    1    1    2    0    0 -0.21260917857E+02 -0.86222612948E+02  0.67737436169E+01  0.15348370993E+03  0.12500000000E+03 0.  0.
</event>
<event>
 5    0  0.5583350E-005  0.3996767E+03  0.7546771E-02  0.1043892E+00
         21   -1    0    0  502  501  0.00000000000E+00  0.00000000000E+00  0.14182446496E+04  0.14182446496E+04  0.00000000000E+00 0. -1.
         21   -1    0    0  501  502 -0.00000000000E+00 -0.00000000000E+00 -0.11263319998E+03  0.11263319998E+03  0.00000000000E+00 0. -1.
         25    1    1    2    0    0  0.93565811494E+02  0.15417288656E+01  0.25512608099E+03  0.29911746056E+03  0.12500000000E+03 0.  0.
         25    1    1    2    0    0 -0.10734989504E+03  0.13001767968E+03  0.10270306444E+04  0.10482583372E+04  0.12500000000E+03 0.  0.
         25    1    1    2    0    0  0.13784083550E+02 -0.13155940854E+03  0.23454724252E+02  0.18350205183E+03  0.12500000000E+03 0.  0.
</event>
<event>
 5    0  0.5583350E-005  0.3676745E+03  0.7546771E-02  0.1055586E+00
         21   -1    0    0  502  501  0.00000000000E+00  0.00000000000E+00  0.27725603030E+03  0.27725603030E+03  0.00000000000E+00 0. -1.
         21   -1    0    0  501  502 -0.00000000000E+00 -0.00000000000E+00 -0.48758005040E+03  0.48758005040E+03  0.00000000000E+00 0. -1.
         25    1    1    2    0    0  0.11794521205E+03 -0.10311023707E+03 -0.98051541525E+02  0.22311857571E+03  0.12500000000E+03 0.  0.
         25    1    1    2    0    0  0.53389354330E+02 -0.14172105644E+03 -0.92863287329E+02  0.21721848708E+03  0.12500000000E+03 0.  0.
         25    1    1    2    0    0 -0.17133456638E+03  0.24483129352E+03 -0.19409191247E+02  0.32449901791E+03  0.12500000000E+03 0.  0.
</event>
<event>
 5    0  0.5583350E-005  0.4009865E+03  0.7546771E-02  0.1043439E+00
         21   -1    0    0  502  501  0.00000000000E+00  0.00000000000E+00  0.57345024693E+03  0.57345024693E+03  0.00000000000E+00 0. -1.
         21   -1    0    0  501  502 -0.00000000000E+00 -0.00000000000E+00 -0.28039073769E+03  0.28039073769E+03  0.00000000000E+00 0. -1.
         25    1    1    2    0    0  0.31853439547E+03  0.13675396273E+03  0.18029501741E+03  0.41024029632E+03  0.12500000000E+03 0.  0.
         25    1    1    2    0    0 -0.13421017351E+03 -0.66807501989E+02  0.60872784926E+02  0.20446542236E+03  0.12500000000E+03 0.  0.
         25    1    1    2    0    0 -0.18432422197E+03 -0.69946460736E+02  0.51891706903E+02  0.23913526594E+03  0.12500000000E+03 0.  0.
</event>
<event>
 5    0  0.5583350E-005  0.2896257E+03  0.7546771E-02  0.1090545E+00
         21   -1    0    0  502  501  0.00000000000E+00  0.00000000000E+00  0.99556955235E+03  0.99556955235E+03  0.00000000000E+00 0.  1.
         21   -1    0    0  501  502 -0.00000000000E+00 -0.00000000000E+00 -0.84256338276E+02  0.84256338276E+02  0.00000000000E+00 0.  1.
         25    1    1    2    0    0 -0.13272606259E+02 -0.81367907229E+02  0.14412065128E+03  0.20782844013E+03  0.12500000000E+03 0.  0.
         25    1    1    2    0    0  0.16674586018E+03  0.39642705996E+02  0.40018605997E+03  0.45293444186E+03  0.12500000000E+03 0.  0.
         25    1    1    2    0    0 -0.15347325392E+03  0.41725201233E+02  0.36700650283E+03  0.41906300864E+03  0.12500000000E+03 0.  0.
</event>
<event>
 5    0  0.5583350E-005  0.3215733E+03  0.7546771E-02  0.1074927E+00
         21   -1    0    0  502  501  0.00000000000E+00  0.00000000000E+00  0.25450550395E+03  0.25450550395E+03  0.00000000000E+00 0.  1.
         21   -1    0    0  501  502 -0.00000000000E+00 -0.00000000000E+00 -0.40631503788E+03  0.40631503788E+03  0.00000000000E+00 0.  1.
         25    1    1    2    0    0  0.16920274871E+03 -0.43796354242E+01 -0.13849769250E+03  0.25190347795E+03  0.12500000000E+03 0.  0.
         25    1    1    2    0    0  0.65172742097E+02  0.20719196151E+02 -0.86988534672E+01  0.14274957602E+03  0.12500000000E+03 0.  0.
         25    1    1    2    0    0 -0.23437549080E+03 -0.16339560727E+02 -0.46129879606E+01  0.26616748786E+03  0.12500000000E+03 0.  0.
</event>
<event>
 5    0  0.5583350E-005  0.3694974E+03  0.7546771E-02  0.1054885E+00
         21   -1    0    0  502  501  0.00000000000E+00  0.00000000000E+00  0.10666863064E+03  0.10666863064E+03  0.00000000000E+00 0. -1.
         21   -1    0    0  501  502 -0.00000000000E+00 -0.00000000000E+00 -0.12799296497E+04  0.12799296497E+04  0.00000000000E+00 0. -1.
         25    1    1    2    0    0  0.14360850102E+03  0.11743922976E+03 -0.46242876439E+03  0.51369323179E+03  0.12500000000E+03 0.  0.
         25    1    1    2    0    0  0.81928315792E+02  0.47438144257E+02 -0.42932942014E+03  0.45706824158E+03  0.12500000000E+03 0.  0.
         25    1    1    2    0    0 -0.22553681681E+03 -0.16487737402E+03 -0.28150283457E+03  0.41583680702E+03  0.12500000000E+03 0.  0.
</event>
<event>
 5    0  0.5583350E-005  0.3981398E+03  0.7546771E-02  0.1044426E+00
         21   -1    0    0  502  501  0.00000000000E+00  0.00000000000E+00  0.16756386269E+03  0.16756386269E+03  0.00000000000E+00 0.  1.
         21   -1    0    0  501  502 -0.00000000000E+00 -0.00000000000E+00 -0.94599925861E+03  0.94599925861E+03  0.00000000000E+00 0.  1.
         25    1    1    2    0    0 -0.34904226736E+02  0.35147327700E+02 -0.82701272293E+01  0.13471093012E+03  0.12500000000E+03 0.  0.
         25    1    1    2    0    0  0.72826587978E+02 -0.10812259104E+03 -0.80517562184E+03  0.82518300310E+03  0.12500000000E+03 0.  0.
         25    1    1    2    0    0 -0.37922361241E+02  0.72975263337E+02  0.35010353144E+02  0.15366918809E+03  0.12500000000E+03 0.  0.
</event>
<event>
 5    0  0.5583350E-005  0.2420237E+03  0.7546771E-02  0.1118452E+00
         21   -1    0    0  502  501  0.00000000000E+00  0.00000000000E+00  0.16806461861E+03  0.16806461861E+03  0.00000000000E+00 0.  1.
         21   -1    0    0  501  502 -0.00000000000E+00 -0.00000000000E+00 -0.34852945453E+03  0.34852945453E+03  0.00000000000E+00 0.  1.
         25    1    1    2    0    0  0.10076791144E+03 -0.20983347593E+02 -0.59963349495E+00  0.16192539150E+03  0.12500000000E+03 0.  0.
         25    1    1    2    0    0 -0.31556798141E+02 -0.27754710221E+02 -0.15185865886E+03  0.20112734205E+03  0.12500000000E+03 0.  0.
         25    1    1    2    0    0 -0.69211113295E+02  0.48738057814E+02 -0.28006543571E+02  0.15354133960E+03  0.12500000000E+03 0.  0.
</event>
<event>
 5    0  0.5583350E-005  0.2112405E+03  0.7546771E-02  0.1140587E+00
         21   -1    0    0  502  501  0.00000000000E+00  0.00000000000E+00  0.63048202992E+03  0.63048202992E+03  0.00000000000E+00 0.  1.
         21   -1    0    0  501  502 -0.00000000000E+00 -0.00000000000E+00 -0.70775323183E+02  0.70775323183E+02  0.00000000000E+00 0.  1.
         25    1    1    2    0    0  0.27182573172E+02  0.42032401310E+02  0.11292406798E+03  0.17573406093E+03  0.12500000000E+03 0.  0.
         25    1    1    2    0    0 -0.43589061991E+02 -0.13766170527E+02  0.31001731922E+03  0.33737998162E+03  0.12500000000E+03 0.  0.
         25    1    1    2    0    0  0.16406488819E+02 -0.28266230783E+02  0.13676531954E+03  0.18814331056E+03  0.12500000000E+03 0.  0.
</event>
<event>
 5    0  0.5583350E-005  0.3659482E+03  0.7546771E-02  0.1056253E+00
         21   -1    0    0  502  501  0.00000000000E+00  0.00000000000E+00  0.13196194116E+04  0.13196194116E+04  0.00000000000E+00 0.  1.
         21   -1    0    0  501  502 -0.00000000000E+00 -0.00000000000E+00 -0.10148236474E+03  0.10148236474E+03  0.00000000000E+00 0.  1.
         25    1    1    2    0    0 -0.10237619874E+03  0.61249314322E+02  0.47747803556E+03  0.50778207827E+03  0.12500000000E+03 0.  0.
         25    1    1    2    0    0 -0.18122781777E+03 -0.11145581388E+02  0.30710527258E+03  0.37802962101E+03  0.12500000000E+03 0.  0.
         25    1    1    2    0    0  0.28360401650E+03 -0.50103732934E+02  0.43355373870E+03  0.53529007703E+03  0.12500000000E+03 0.  0.
</event>
<event>
 5    0  0.5583350E-005  0.2430451E+03  0.7546771E-02  0.1117781E+00
         21   -1    0    0  502  501  0.00000000000E+00  0.00000000000E+00  0.10317348855E+04  0.10317348855E+04  0.00000000000E+00 0.  1.
         21   -1    0    0  501  502 -0.00000000000E+00 -0.00000000000E+00 -0.57253953944E+02  0.57253953944E+02  0.00000000000E+00 0.  1.
         25    1    1    2    0    0  0.11538933986E+01  0.80863581176E+02  0.50789856547E+03  0.52926949944E+03  0.12500000000E+03 0.  0.
         25    1    1    2    0    0 -0.71292222912E+02  0.13934260361E+01  0.21853820061E+03  0.26166480048E+03  0.12500000000E+03 0.  0.
         25    1    1    2    0    0  0.70138329513E+02 -0.82257007212E+02  0.24804416545E+03  0.29805453950E+03  0.12500000000E+03 0.  0.
</event>
<event>
 5    0  0.5583350E-005  0.2254979E+03  0.7546771E-02  0.1129849E+00
         21   -1    0    0  502  501  0.00000000000E+00  0.00000000000E+00  0.22339771937E+02  0.22339771937E+02  0.00000000000E+00 0. -1.
         21   -1    0    0  501  502 -0.00000000000E+00 -0.00000000000E+00 -0.22761790794E+04  0.22761790794E+04  0.00000000000E+00 0. -1.
         25    1    1    2    0    0 -0.55560979449E+02  0.12798890387E+01 -0.43327550547E+03  0.45435814529E+03  0.12500000000E+03 0.  0.
         25    1    1    2    0    0  0.20249527196E+02  0.68515890260E+02 -0.10227550546E+04  0.10328394707E+04  0.12500000000E+03 0.  0.
         25    1    1    2    0    0  0.35311452253E+02 -0.69795779299E+02 -0.79780874739E+03  0.81132123532E+03  0.12500000000E+03 0.  0.
</event>
<event>
 5    0  0.5583350E-005  0.2356773E+03  0.7546771E-02  0.1122706E+00
         21   -1    0    0  502  501  0.00000000000E+00  0.00000000000E+00  0.11658277116E+04  0.11658277116E+04  0.00000000000E+00 0.  1.
         21   -1    0    0  501  502 -0.00000000000E+00 -0.00000000000E+00 -0.47643238740E+02  0.47643238740E+02  0.00000000000E+00 0.  1.
         25    1    1    2    0    0 -0.48922537404E+02  0.52110794381E+02  0.60431570231E+03  0.62123378661E+03  0.12500000000E+03 0.  0.
         25    1    1    2    0    0  0.43610234532E+02  0.36730772886E+02  0.28908600006E+03  0.32007298802E+03  0.12500000000E+03 0.  0.
         25    1    1    2    0    0  0.53123028719E+01 -0.88841567267E+02  0.22478277053E+03  0.27216417575E+03  0.12500000000E+03 0.  0.
</event>
<event>
 5    0  0.5583350E-005  0.3706974E+03  0.7546771E-02  0.1054427E+00
         21   -1    0    0  502  501  0.00000000000E+00  0.00000000000E+00  0.13029635660E+03  0.13029635660E+03  0.00000000000E+00 0.  1.
         21   -1    0    0  501  502 -0.00000000000E+00 -0.00000000000E+00 -0.10546463330E+04  0.10546463330E+04  0.00000000000E+00 0.  1.
         25    1    1    2    0    0 -0.15702939228E+03  0.52898282186E+02 -0.10847608035E+03  0.23419760526E+03  0.12500000000E+03 0.  0.
         25    1    1    2    0    0 -0.51855900329E+02  0.12626948811E+03 -0.28411261505E+03  0.33908405456E+03  0.12500000000E+03 0.  0.
         25    1    1    2    0    0  0.20888529261E+03 -0.17916777029E+03 -0.53176128100E+03  0.61166102978E+03  0.12500000000E+03 0.  0.
</event>
<event>
 5    0  0.5583350E-005  0.3511713E+03  0.7546771E-02  0.1062135E+00
         21   -1    0    0  502  501  0.00000000000E+00  0.00000000000E+00  0.17591394148E+03  0.17591394148E+03  0.00000000000E+00 0. -1.
         21   -1    0    0  501  502 -0.00000000000E+00 -0.00000000000E+00 -0.70103186579E+03  0.70103186579E+03  0.00000000000E+00 0. -1.
         25    1    1    2    0    0 -0.20317958354E+03  0.56999714600E+02 -0.63865629054E+01  0.24535015553E+03  0.12500000000E+03 0.  0.
         25    1    1    2    0    0  0.14553955505E+03  0.34438098364E+02 -0.28982466147E+03  0.34927221346E+03  0.12500000000E+03 0.  0.
         25    1    1    2    0    0  0.57640028487E+02 -0.91437812965E+02 -0.22890669994E+03  0.28232343828E+03  0.12500000000E+03 0.  0.
</event>
<event>
 5    0  0.5583350E-005  0.5471807E+03  0.7546771E-02  0.1002149E+00
         21   -1    0    0  502  501  0.00000000000E+00  0.00000000000E+00  0.20086611158E+03  0.20086611158E+03  0.00000000000E+00 0.  1.
         21   -1    0    0  501  502 -0.00000000000E+00 -0.00000000000E+00 -0.14905787075E+04  0.14905787075E+04  0.00000000000E+00 0.  1.
         25    1    1    2    0    0 -0.14282348918E+02 -0.18372727647E+03 -0.28964264933E+03  0.36534581141E+03  0.12500000000E+03 0.  0.
         25    1    1    2    0    0  0.37975851829E+03  0.12496493080E+03 -0.27087775677E+03  0.49883115907E+03  0.12500000000E+03 0.  0.
         25    1    1    2    0    0 -0.36547616937E+03  0.58762345669E+02 -0.72919218987E+03  0.82726784865E+03  0.12500000000E+03 0.  0.
</event>
<event>
 5    0  0.5583350E-005  0.2456475E+03  0.7546771E-02  0.1116087E+00
         21   -1    0    0  502  501  0.00000000000E+00  0.00000000000E+00  0.17015488816E+03  0.17015488816E+03  0.00000000000E+00 0. -1.
         21   -1    0    0  501  502 -0.00000000000E+00 -0.00000000000E+00 -0.35463396031E+03  0.35463396031E+03  0.00000000000E+00 0. -1.
         25    1    1    2    0    0 -0.78746066454E+02  0.49050931065E+02 -0.14836018880E+03  0.21504111802E+03  0.12500000000E+03 0.  0.
         25    1    1    2    0    0 -0.35685403995E+02 -0.32785406331E+02  0.65852983045E+01  0.13422629057E+03  0.12500000000E+03 0.  0.
         25    1    1    2    0    0  0.11443147045E+03 -0.16265524734E+02 -0.42704181654E+02  0.17552143987E+03  0.12500000000E+03 0.  0.
</event>
<event>
 5    0  0.5583350E-005  0.6367141E+03  0.7546771E-02  0.9832034E-01
         21   -1    0    0  502  501  0.00000000000E+00  0.00000000000E+00  0.55457888296E+03  0.55457888296E+03  0.00000000000E+00 0.  1.
         21   -1    0    0  501  502 -0.00000000000E+00 -0.00000000000E+00 -0.73101388137E+03  0.73101388137E+03  0.00000000000E+00 0.  1.
         25    1    1    2    0    0  0.29675344015E+03 -0.13966433467E+03  0.30410796466E+03  0.46440863987E+03  0.12500000000E+03 0.  0.
         25    1    1    2    0    0 -0.41606078457E+03  0.63836797042E+02 -0.45229339768E+03  0.63037768893E+03  0.12500000000E+03 0.  0.
         25    1    1    2    0    0  0.11930734442E+03  0.75827537624E+02 -0.28249565390E+02  0.19080643553E+03  0.12500000000E+03 0.  0.
</event>
<event>
 5    0  0.5583350E-005  0.3527934E+03  0.7546771E-02  0.1061474E+00
         21   -1    0    0  502  501  0.00000000000E+00  0.00000000000E+00  0.52010385217E+03  0.52010385217E+03  0.00000000000E+00 0.  1.
         21   -1    0    0  501  502 -0.00000000000E+00 -0.00000000000E+00 -0.23930446198E+03  0.23930446198E+03  0.00000000000E+00 0.  1.
         25    1    1    2    0    0  0.79327671250E+02 -0.13760964417E+02 -0.13942237579E+03  0.20382797266E+03  0.12500000000E+03 0.  0.
         25    1    1    2    0    0  0.50558114595E+02  0.50408403960E+02  0.70182278930E+02  0.16014893823E+03  0.12500000000E+03 0.  0.
         25    1    1    2    0    0 -0.12988578585E+03 -0.36647439544E+02  0.35003948705E+03  0.39543140326E+03  0.12500000000E+03 0.  0.
</event>
<event>
 5    0  0.5583350E-005  0.3532415E+03  0.7546771E-02  0.1061292E+00
         21   -1    0    0  502  501  0.00000000000E+00  0.00000000000E+00  0.70325727210E+03  0.70325727210E+03  0.00000000000E+00 0. -1.
         21   -1    0    0  501  502 -0.00000000000E+00 -0.00000000000E+00 -0.17743086248E+03  0.17743086248E+03  0.00000000000E+00 0. -1.
         25    1    1    2    0    0 -0.12876514730E+03  0.31951214965E+02  0.51109654594E+03  0.54262880735E+03  0.12500000000E+03 0.  0.
         25    1    1    2    0    0  0.10426838169E+03  0.67388382504E+02  0.98315425273E+01  0.17645041441E+03  0.12500000000E+03 0.  0.
         25    1    1    2    0    0  0.24496765607E+02 -0.99339597469E+02  0.48983211442E+01  0.16160891281E+03  0.12500000000E+03 0.  0.
</event>
<event>
 5    0  0.5583350E-005  0.3014260E+03  0.7546771E-02  0.1084530E+00
         21   -1    0    0  502  501  0.00000000000E+00  0.00000000000E+00  0.15832228115E+04  0.15832228115E+04  0.00000000000E+00 0. -1.
         21   -1    0    0  501  502 -0.00000000000E+00 -0.00000000000E+00 -0.57387759065E+02  0.57387759065E+02  0.00000000000E+00 0. -1.
         25    1    1    2    0    0 -0.17501141771E+02 -0.14531091379E+03  0.36266962448E+03  0.41057984382E+03  0.12500000000E+03 0.  0.
         25    1    1    2    0    0  0.30298787024E+02 -0.16665379891E+02  0.15916412948E+03  0.20531432365E+03  0.12500000000E+03 0.  0.
         25    1    1    2    0    0 -0.12797645253E+02  0.16197629368E+03  0.10040012985E+04  0.10247164031E+04  0.12500000000E+03 0.  0.
</event>
<event>
 5    0  0.5583350E-005  0.2688517E+03  0.7546771E-02  0.1101939E+00
         21   -1    0    0  502  501  0.00000000000E+00  0.00000000000E+00  0.93310758049E+02  0.93310758049E+02  0.00000000000E+00 0. -1.
         21   -1    0    0  501  502 -0.00000000000E+00 -0.00000000000E+00 -0.77462899735E+03  0.77462899735E+03  0.00000000000E+00 0. -1.
         25    1    1    2    0    0  0.59298655224E+02 -0.69033811315E+02 -0.42395177854E+03  0.45126722476E+03  0.12500000000E+03 0.  0.
         25    1    1    2    0    0 -0.76150521133E+02  0.97621515677E+02 -0.70767178010E+02  0.18963611385E+03  0.12500000000E+03 0.  0.
         25    1    1    2    0    0  0.16851865909E+02 -0.28587704362E+02 -0.18659928275E+03  0.22703641679E+03  0.12500000000E+03 0.  0.
</event>
<event>
 5    0  0.5583350E-005  0.2977121E+03  0.7546771E-02  0.1086390E+00
         21   -1    0    0  502  501  0.00000000000E+00  0.00000000000E+00  0.99215428230E+02  0.99215428230E+02  0.00000000000E+00 0.  1.
         21   -1    0    0  501  502 -0.00000000000E+00 -0.00000000000E+00 -0.89333367015E+03  0.89333367015E+03  0.00000000000E+00 0.  1.
         25    1    1    2    0    0 -0.50268232505E+02 -0.69454608288E+02 -0.67728592232E+01  0.15172906588E+03  0.12500000000E+03 0.  0.
         25    1    1    2    0    0  0.77096926379E+01 -0.21924364191E+02 -0.25754924965E+03  0.28722244533E+03  0.12500000000E+03 0.  0.
         25    1    1    2    0    0  0.42558539868E+02  0.91378972479E+02 -0.52979613304E+03  0.55359758717E+03  0.12500000000E+03 0.  0.
</event>
<event>
 5    0  0.5583350E-005  0.2591560E+03  0.7546771E-02  0.1107651E+00
         21   -1    0    0  502  501  0.00000000000E+00  0.00000000000E+00  0.25276781290E+03  0.25276781290E+03  0.00000000000E+00 0.  1.
         21   -1    0    0  501  502 -0.00000000000E+00 -0.00000000000E+00 -0.26570563556E+03  0.26570563556E+03  0.00000000000E+00 0.  1.
         25    1    1    2    0    0  0.85794940670E+02  0.69608684546E+02  0.86168852442E+02  0.18776637596E+03  0.12500000000E+03 0.  0.
         25    1    1    2    0    0 -0.90212075749E+02  0.26718227187E+02 -0.63646537675E+02  0.16890223217E+03  0.12500000000E+03 0.  0.
         25    1    1    2    0    0  0.44171350789E+01 -0.96326911732E+02 -0.35460137431E+02  0.16180484033E+03  0.12500000000E+03 0.  0.
</event>
<event>
 5    0  0.5583350E-005  0.2487773E+03  0.7546771E-02  0.1114080E+00
         21   -1    0    0  502  501  0.00000000000E+00  0.00000000000E+00  0.30410117275E+03  0.30410117275E+03  0.00000000000E+00 0.  1.
         21   -1    0    0  501  502 -0.00000000000E+00 -0.00000000000E+00 -0.20351829475E+03  0.20351829475E+03  0.00000000000E+00 0.  1.
         25    1    1    2    0    0  0.66647788157E+01  0.13936658621E+03  0.65891329399E+02  0.19858029086E+03  0.12500000000E+03 0.  0.
         25    1    1    2    0    0 -0.42612814828E+02 -0.31255166100E+02  0.34001905934E+02  0.13990663674E+03  0.12500000000E+03 0.  0.
         25    1    1    2    0    0  0.35948036013E+02 -0.10811142011E+03  0.68964266726E+00  0.16913253991E+03  0.12500000000E+03 0.  0.
</event>
<event>
 5    0  0.5583350E-005  0.2282385E+03  0.7546771E-02  0.1127886E+00
         21   -1    0    0  502  501  0.00000000000E+00  0.00000000000E+00  0.26173337791E+03  0.26173337791E+03  0.00000000000E+00 0.  1.
         21   -1    0    0  501  502 -0.00000000000E+00 -0.00000000000E+00 -0.19903008475E+03  0.19903008475E+03  0.00000000000E+00 0.  1.
         25    1    1    2    0    0  0.46109178609E+02  0.28921650323E+01  0.38676622946E+02  0.13876347550E+03  0.12500000000E+03 0.  0.
         25    1    1    2    0    0 -0.89852699452E+02 -0.72970875973E+02  0.24857379888E+02  0.17216604100E+03  0.12500000000E+03 0.  0.
         25    1    1    2    0    0  0.43743520843E+02  0.70078710940E+02 -0.83070966575E+00  0.14983394616E+03  0.12500000000E+03 0.  0.
</event>
<event>
 5    0  0.5583350E-005  0.2716271E+03  0.7546771E-02  0.1100352E+00
         21   -1    0    0  502  501  0.00000000000E+00  0.00000000000E+00  0.35216990632E+03  0.35216990632E+03  0.00000000000E+00 0. -1.
         21   -1    0    0  501  502 -0.00000000000E+00 -0.00000000000E+00 -0.20950485087E+03  0.20950485087E+03  0.00000000000E+00 0. -1.
         25    1    1    2    0    0  0.46424937732E+02  0.20574481128E+02  0.98307601392E+02  0.16693701989E+03  0.12500000000E+03 0.  0.
         25    1    1    2    0    0  0.10673012150E+03 -0.13544986162E+02 -0.54369420849E+02  0.17365431008E+03  0.12500000000E+03 0.  0.
         25    1    1    2    0    0 -0.15315505923E+03 -0.70294949665E+01  0.98726874906E+02  0.22108342723E+03  0.12500000000E+03 0.  0.
</event>
<event>
 5    0  0.5583350E-005  0.4867355E+03  0.7546771E-02  0.1017300E+00
         21   -1    0    0  502  501  0.00000000000E+00  0.00000000000E+00  0.10097075381E+04  0.10097075381E+04  0.00000000000E+00 0.  1.
         21   -1    0    0  501  502 -0.00000000000E+00 -0.00000000000E+00 -0.23463369440E+03  0.23463369440E+03  0.00000000000E+00 0.  1.
         25    1    1    2    0    0 -0.87393904909E+02  0.17915491089E+03  0.20637221817E+03  0.31296752090E+03  0.12500000000E+03 0.  0.
         25    1    1    2    0    0  0.17112388995E+03 -0.13327251623E+03  0.68918249636E+03  0.73324106717E+03  0.12500000000E+03 0.  0.
         25    1    1    2    0    0 -0.83729985042E+02 -0.45882394659E+02 -0.12048087086E+03  0.19813264440E+03  0.12500000000E+03 0.  0.
</event>
<event>
 5    0  0.5583350E-005  0.3016994E+03  0.7546771E-02  0.1084394E+00
         21   -1    0    0  502  501  0.00000000000E+00  0.00000000000E+00  0.32763121704E+03  0.32763121704E+03  0.00000000000E+00 0. -1.
         21   -1    0    0  501  502 -0.00000000000E+00 -0.00000000000E+00 -0.27782012598E+03  0.27782012598E+03  0.00000000000E+00 0. -1.
         25    1    1    2    0    0 -0.96791530504E+02  0.16473579415E+02  0.17516004830E+03  0.23652911389E+03  0.12500000000E+03 0.  0.
         25    1    1    2    0    0  0.79537235867E+01  0.91969807174E+02 -0.83844756664E+02  0.17656910933E+03  0.12500000000E+03 0.  0.
         25    1    1    2    0    0  0.88837806918E+02 -0.10844338659E+03 -0.41504200575E+02  0.19235311980E+03  0.12500000000E+03 0.  0.
</event>
<event>
 5    0  0.5583350E-005  0.6370007E+03  0.7546771E-02  0.9831482E-01
         21   -1    0    0  502  501  0.00000000000E+00  0.00000000000E+00  0.39951259986E+03  0.39951259986E+03  0.00000000000E+00 0.  1.
         21   -1    0    0  501  502 -0.00000000000E+00 -0.00000000000E+00 -0.10156622682E+04  0.10156622682E+04  0.00000000000E+00 0.  1.
         25    1    1    2    0    0  0.15186031229E+03 -0.13140597534E+03  0.12655178578E+01  0.23654954309E+03  0.12500000000E+03 0.  0.
         25    1    1    2    0    0  0.65838751003E+02 -0.27474604242E+03  0.93026259613E+02  0.32264378800E+03  0.12500000000E+03 0.  0.
         25    1    1    2    0    0 -0.21769906329E+03  0.40615201776E+03 -0.71044144583E+03  0.85598153697E+03  0.12500000000E+03 0.  0.
</event>
<event>
 5    0  0.5583350E-005  0.2995694E+03  0.7546771E-02  0.1085456E+00
         21   -1    0    0  502  501  0.00000000000E+00  0.00000000000E+00  0.12960469023E+03  0.12960469023E+03  0.00000000000E+00 0. -1.
         21   -1    0    0  501  502 -0.00000000000E+00 -0.00000000000E+00 -0.69242708701E+03  0.69242708701E+03  0.00000000000E+00 0. -1.
         25    1    1    2    0    0 -0.10067886016E+03  0.98683494069E+02 -0.21754349857E+03  0.28779304831E+03  0.12500000000E+03 0.  0.
         25    1    1    2    0    0  0.10262511777E+03 -0.64116651024E+02 -0.36375920415E+03  0.40322278996E+03  0.12500000000E+03 0.  0.
         25    1    1    2    0    0 -0.19462576093E+01 -0.34566843045E+02  0.18480305934E+02  0.13101593897E+03  0.12500000000E+03 0.  0.
</event>
<event>
 5    0  0.5583350E-005  0.2721346E+03  0.7546771E-02  0.1100064E+00
         21   -1    0    0  502  501  0.00000000000E+00  0.00000000000E+00  0.34967531409E+03  0.34967531409E+03  0.00000000000E+00 0.  1.
         21   -1    0    0  501  502 -0.00000000000E+00 -0.00000000000E+00 -0.21178863020E+03  0.21178863020E+03  0.00000000000E+00 0.  1.
         25    1    1    2    0    0  0.10996861707E+03 -0.12554680416E+03  0.13270601972E+03  0.24716590469E+03  0.12500000000E+03 0.  0.
         25    1    1    2    0    0 -0.54049902397E+02  0.10997933974E+03  0.17543448086E+02  0.17592503997E+03  0.12500000000E+03 0.  0.
         25    1    1    2    0    0 -0.55918714671E+02  0.15567464413E+02 -0.12362783906E+02  0.13837299962E+03  0.12500000000E+03 0.  0.
</event>
<event>
 5    0  0.5583350E-005  0.3987603E+03  0.7546771E-02  0.1044210E+00
         21   -1    0    0  502  501  0.00000000000E+00  0.00000000000E+00  0.19775375085E+03  0.19775375085E+03  0.00000000000E+00 0.  1.
         21   -1    0    0  501  502 -0.00000000000E+00 -0.00000000000E+00 -0.80407974120E+03  0.80407974120E+03  0.00000000000E+00 0.  1.
         25    1    1    2    0    0 -0.40718988078E+02  0.92254856109E+02 -0.43309116544E+03  0.46191119498E+03  0.12500000000E+03 0.  0.
         25    1    1    2    0    0  0.21903006560E+03 -0.88349868873E+02 -0.93961833123E+01  0.26738204358E+03  0.12500000000E+03 0.  0.
         25    1    1    2    0    0 -0.17831107752E+03 -0.39049872367E+01 -0.16383864159E+03  0.27254025349E+03  0.12500000000E+03 0.  0.
</event>
<event>
 5    0  0.5852071E-005  0.2650605E+03  0.7546771E-02  0.1104140E+00
         21   -1    0    0  502  501  0.00000000000E+00  0.00000000000E+00  0.10902226111E+03  0.10902226111E+03  0.00000000000E+00 0.  1.
         21   -1    0    0  501  502 -0.00000000000E+00 -0.00000000000E+00 -0.64442854664E+03  0.64442854664E+03  0.00000000000E+00 0.  1.
         25    1    1    2    0    0  0.26413596563E+01  0.73002792571E+02 -0.30304854356E+03  0.33585682107E+03  0.12500000000E+03 0.  0.
         25    1    1    2    0    0 -0.83963378516E+02 -0.11065435311E+03 -0.87596948331E+02  0.20637940825E+03  0.12500000000E+03 0.  0.
         25    1    1    2    0    0  0.81322018859E+02  0.37651560541E+02 -0.14476079364E+03  0.21121457842E+03  0.12500000000E+03 0.  0.
</event>
<event>
 5    0  0.5583350E-005  0.3187280E+03  0.7546771E-02  0.1076236E+00
         21   -1    0    0  502  501  0.00000000000E+00  0.00000000000E+00  0.92260827454E+03  0.92260827454E+03  0.00000000000E+00 0. -1.
         21   -1    0    0  501  502 -0.00000000000E+00 -0.00000000000E+00 -0.11010909176E+03  0.11010909176E+03  0.00000000000E+00 0. -1.
         25    1    1    2    0    0  0.49246157050E+01 -0.69718759532E+02  0.15718646480E+03  0.21264416754E+03  0.12500000000E+03 0.  0.
         25    1    1    2    0    0 -0.23101170201E+02 -0.15621650108E+03  0.43804933032E+03  0.48213014329E+03  0.12500000000E+03 0.  0.
         25    1    1    2    0    0  0.18176554496E+02  0.22593526061E+03  0.21726338766E+03  0.33794305547E+03  0.12500000000E+03 0.  0.
</event>
<event>
 5    0  0.5583350E-005  0.3430318E+03  0.7546771E-02  0.1065512E+00
         21   -1    0    0  502  501  0.00000000000E+00  0.00000000000E+00  0.13084257614E+04  0.13084257614E+04  0.00000000000E+00 0. -1.
         21   -1    0    0  501  502 -0.00000000000E+00 -0.00000000000E+00 -0.89933138714E+02  0.89933138714E+02  0.00000000000E+00 0. -1.
         25    1    1    2    0    0 -0.25440434715E+03 -0.52314721495E+02  0.76882006898E+03  0.82107715862E+03  0.12500000000E+03 0.  0.
         25    1    1    2    0    0  0.12458400214E+03  0.42453986921E+02  0.22442935819E+03  0.28864693210E+03  0.12500000000E+03 0.  0.
         25    1    1    2    0    0  0.12982034501E+03  0.98607345736E+01  0.22524319549E+03  0.28863480937E+03  0.12500000000E+03 0.  0.
</event>
<event>
 5    0  0.5583350E-005  0.3551109E+03  0.7546771E-02  0.1060537E+00
         21   -1    0    0  502  501  0.00000000000E+00  0.00000000000E+00  0.15227507462E+03  0.15227507462E+03  0.00000000000E+00 0. -1.
         21   -1    0    0  501  502 -0.00000000000E+00 -0.00000000000E+00 -0.82813116196E+03  0.82813116196E+03  0.00000000000E+00 0. -1.
         25    1    1    2    0    0 -0.15994097293E+03 -0.13411198396E+03 -0.14719587899E+03  0.28435675806E+03  0.12500000000E+03 0.  0.
         25    1    1    2    0    0 -0.73234602391E+02 -0.13776682993E+02 -0.12910895904E+03  0.19454363851E+03  0.12500000000E+03 0.  0.
         25    1    1    2    0    0  0.23317557532E+03  0.14788866695E+03 -0.39955124932E+03  0.50150584002E+03  0.12500000000E+03 0.  0.
</event>
<event>
 5    0  0.5583350E-005  0.5029156E+03  0.7546771E-02  0.1013021E+00
         21   -1    0    0  502  501  0.00000000000E+00  0.00000000000E+00  0.20668983989E+04  0.20668983989E+04  0.00000000000E+00 0. -1.
         21   -1    0    0  501  502 -0.00000000000E+00 -0.00000000000E+00 -0.12236889310E+03  0.12236889310E+03  0.00000000000E+00 0. -1.
         25    1    1    2    0    0 -0.55463439917E+02  0.18025371321E+03  0.37154309530E+03  0.43501363882E+03  0.12500000000E+03 0.  0.
         25    1    1    2    0    0 -0.28176549313E+02  0.26741938855E+03  0.73119535728E+03  0.78903656304E+03  0.12500000000E+03 0.  0.
         25    1    1    2    0    0  0.83639989230E+02 -0.44767310176E+03  0.84179105325E+03  0.96521709018E+03  0.12500000000E+03 0.  0.
</event>
<event>
 5    0  0.5583350E-005  0.3881011E+03  0.7546771E-02  0.1047980E+00
         21   -1    0    0  502  501  0.00000000000E+00  0.00000000000E+00  0.23429979853E+03  0.23429979853E+03  0.00000000000E+00 0. -1.
         21   -1    0    0  501  502 -0.00000000000E+00 -0.00000000000E+00 -0.64286198134E+03  0.64286198134E+03  0.00000000000E+00 0. -1.
         25    1    1    2    0    0 -0.96910435426E+02 -0.67357758895E+02 -0.15831587973E+03  0.23370412481E+03  0.12500000000E+03 0.  0.
         25    1    1    2    0    0 -0.78325926517E+02 -0.27456682979E+01  0.13280965999E+03  0.19850918177E+03  0.12500000000E+03 0.  0.
         25    1    1    2    0    0  0.17523636194E+03  0.70103427193E+02 -0.38305596306E+03  0.44494847329E+03  0.12500000000E+03 0.  0.
</event>
<event>
 5    0  0.5583350E-005  0.8132554E+03  0.7546771E-02  0.9541026E-01
         21   -1    0    0  502  501  0.00000000000E+00  0.00000000000E+00  0.60178926448E+03  0.60178926448E+03  0.00000000000E+00 0.  1.
         21   -1    0    0  501  502 -0.00000000000E+00 -0.00000000000E+00 -0.10990298928E+04  0.10990298928E+04  0.00000000000E+00 0.  1.
         25    1    1    2    0    0  0.13553853505E+03  0.12652576813E+02 -0.39462579968E+03  0.43575830911E+03  0.12500000000E+03 0.  0.
         25    1    1    2    0    0 -0.58391119944E+03  0.12846552352E+03 -0.36586777665E+03  0.71199712750E+03  0.12500000000E+03 0.  0.
         25    1    1    2    0    0  0.44837266439E+03 -0.14111810033E+03  0.26325294806E+03  0.55306372063E+03  0.12500000000E+03 0.  0.
</event>
<event>
 5    0  0.5583350E-005  0.3420985E+03  0.7546771E-02  0.1065906E+00
         21   -1    0    0  502  501  0.00000000000E+00  0.00000000000E+00  0.23850813376E+03  0.23850813376E+03  0.00000000000E+00 0.  1.
         21   -1    0    0  501  502 -0.00000000000E+00 -0.00000000000E+00 -0.49068102452E+03  0.49068102452E+03  0.00000000000E+00 0.  1.
         25    1    1    2    0    0 -0.16321766115E+03  0.15712117874E+03  0.25210654739E+02  0.25997624282E+03  0.12500000000E+03 0.  0.
         25    1    1    2    0    0  0.55539865098E+02 -0.24122543075E+02 -0.20023403035E+03  0.24369087100E+03  0.12500000000E+03 0.  0.
         25    1    1    2    0    0  0.10767779605E+03 -0.13299863566E+03 -0.77149515145E+02  0.22552204446E+03  0.12500000000E+03 0.  0.
</event>
<event>
 5    0  0.5583350E-005  0.4541761E+03  0.7546771E-02  0.1026484E+00
         21   -1    0    0  502  501  0.00000000000E+00  0.00000000000E+00  0.21892830537E+03  0.21892830537E+03  0.00000000000E+00 0. -1.
         21   -1    0    0  501  502 -0.00000000000E+00 -0.00000000000E+00 -0.94220759628E+03  0.94220759628E+03  0.00000000000E+00 0. -1.
         25    1    1    2    0    0  0.23052928466E+03 -0.13402963064E+02 -0.42201607354E+03  0.49703717852E+03  0.12500000000E+03 0.  0.
         25    1    1    2    0    0 -0.21650735168E+02  0.19447233388E+03  0.60379942396E+01  0.23227074795E+03  0.12500000000E+03 0.  0.
         25    1    1    2    0    0 -0.20887854949E+03 -0.18106937082E+03 -0.30730121161E+03  0.43182797518E+03  0.12500000000E+03 0.  0.
</event>
<event>
 5    0  0.5583350E-005  0.3150488E+03  0.7546771E-02  0.1077951E+00
         21   -1    0    0  502  501  0.00000000000E+00  0.00000000000E+00  0.13261280425E+03  0.13261280425E+03  0.00000000000E+00 0. -1.
         21   -1    0    0  501  502 -0.00000000000E+00 -0.00000000000E+00 -0.74846262648E+03  0.74846262648E+03  0.00000000000E+00 0. -1.
         25    1    1    2    0    0 -0.29641333457E+00 -0.11549071630E+03 -0.71278360216E+02  0.18450961505E+03  0.12500000000E+03 0.  0.
         25    1    1    2    0    0 -0.95065818876E+01  0.14602737802E+03 -0.70047697235E+02  0.20480734879E+03  0.12500000000E+03 0.  0.
         25    1    1    2    0    0  0.98029952222E+01 -0.30536661715E+02 -0.47452376477E+03  0.49175846689E+03  0.12500000000E+03 0.  0.
</event>
<event>
 5    0  0.5583350E-005  0.4086273E+03  0.7546771E-02  0.1040833E+00
         21   -1    0    0  502  501  0.00000000000E+00  0.00000000000E+00  0.54572696318E+03  0.54572696318E+03  0.00000000000E+00 0.  1.
         21   -1    0    0  501  502 -0.00000000000E+00 -0.00000000000E+00 -0.30597029317E+03  0.30597029317E+03  0.00000000000E+00 0.  1.
         25    1    1    2    0    0 -0.24663272562E+03  0.13608808949E+03  0.23641697397E+03  0.38841428273E+03  0.12500000000E+03 0.  0.
         25    1    1    2    0    0  0.23900940505E+03 -0.21340678267E+02 -0.68120739347E+02  0.27900959729E+03  0.12500000000E+03 0.  0.
         25    1    1    2    0    0  0.76233205685E+01 -0.11474741122E+03  0.71460435387E+02  0.18427337633E+03  0.12500000000E+03 0.  0.
</event>
<event>
 5    0  0.5583350E-005  0.3922295E+03  0.7546771E-02  0.1046504E+00
         21   -1    0    0  502  501  0.00000000000E+00  0.00000000000E+00  0.36368049517E+03  0.36368049517E+03  0.00000000000E+00 0.  1.
         21   -1    0    0  501  502 -0.00000000000E+00 -0.00000000000E+00 -0.42301963505E+03  0.42301963505E+03  0.00000000000E+00 0.  1.
         25    1    1    2    0    0 -0.19006890395E+03  0.21308212430E+03 -0.25102306950E+02  0.31270642104E+03  0.12500000000E+03 0.  0.
         25    1    1    2    0    0  0.10654993724E+03 -0.24384686262E+03 -0.94967959263E+02  0.30896293439E+03  0.12500000000E+03 0.  0.
         25    1    1    2    0    0  0.83518966712E+02  0.30764738319E+02  0.60731126334E+02  0.16503077480E+03  0.12500000000E+03 0.  0.
</event>
<event>
 5    0  0.5583350E-005  0.3272411E+03  0.7546771E-02  0.1072364E+00
         21   -1    0    0  502  501  0.00000000000E+00  0.00000000000E+00  0.11119607835E+03  0.11119607835E+03  0.00000000000E+00 0. -1.
         21   -1    0    0  501  502 -0.00000000000E+00 -0.00000000000E+00 -0.96304443483E+03  0.96304443483E+03  0.00000000000E+00 0. -1.
         25    1    1    2    0    0  0.47454588406E+02 -0.13235929605E+03 -0.16887465222E+03  0.25281330933E+03  0.12500000000E+03 0.  0.
         25    1    1    2    0    0 -0.11615906124E+03  0.70534393859E+01 -0.58168459480E+03  0.60623811027E+03  0.12500000000E+03 0.  0.
         25    1    1    2    0    0  0.68704472836E+02  0.12530585667E+03 -0.10128910946E+03  0.21518909358E+03  0.12500000000E+03 0.  0.
</event>
<event>
 5    0  0.5583350E-005  0.4619055E+03  0.7546771E-02  0.1024230E+00
         21   -1    0    0  502  501  0.00000000000E+00  0.00000000000E+00  0.70981899646E+03  0.70981899646E+03  0.00000000000E+00 0. -1.
         21   -1    0    0  501  502 -0.00000000000E+00 -0.00000000000E+00 -0.30057902315E+03  0.30057902315E+03  0.00000000000E+00 0. -1.
         25    1    1    2    0    0 -0.16423669007E+03 -0.14720162469E+03  0.32586182493E+03  0.41285946474E+03  0.12500000000E+03 0.  0.
         25    1    1    2    0    0  0.15670636729E+03  0.31999335776E+03  0.39282895600E+02  0.37963242808E+03  0.12500000000E+03 0.  0.
         25    1    1    2    0    0  0.75303227827E+01 -0.17279173308E+03  0.44095252785E+02  0.21790612680E+03  0.12500000000E+03 0.  0.
</event>
<event>
 5    0  0.5583350E-005  0.3029436E+03  0.7546771E-02  0.1083778E+00
         21   -1    0    0  502  501  0.00000000000E+00  0.00000000000E+00  0.10193115838E+04  0.10193115838E+04  0.00000000000E+00 0.  1.
         21   -1    0    0  501  502 -0.00000000000E+00 -0.00000000000E+00 -0.90036067546E+02  0.90036067546E+02  0.00000000000E+00 0.  1.
         25    1    1    2    0    0  0.28280086664E+02 -0.15086865983E+03  0.31448436951E+03  0.37159996567E+03  0.12500000000E+03 0.  0.
         25    1    1    2    0    0 -0.15336903009E+03  0.78637784691E+02  0.27311188607E+03  0.34629620686E+03  0.12500000000E+03 0.  0.
         25    1    1    2    0    0  0.12508894343E+03  0.72230875136E+02  0.34167926064E+03  0.39145147878E+03  0.12500000000E+03 0.  0.
</event>
<event>
 5    0  0.5583350E-005  0.3457652E+03  0.7546771E-02  0.1064367E+00
         21   -1    0    0  502  501  0.00000000000E+00  0.00000000000E+00  0.32020529335E+03  0.32020529335E+03  0.00000000000E+00 0.  1.
         21   -1    0    0  501  502 -0.00000000000E+00 -0.00000000000E+00 -0.37336530037E+03  0.37336530037E+03  0.00000000000E+00 0.  1.
         25    1    1    2    0    0 -0.12022335830E+03 -0.10250936779E+02 -0.21307459237E+02  0.17503641165E+03  0.12500000000E+03 0.  0.
         25    1    1    2    0    0  0.22127465729E+03 -0.12355128829E+03  0.61996851724E+02  0.28930261738E+03  0.12500000000E+03 0.  0.
         25    1    1    2    0    0 -0.10105129899E+03  0.13380222507E+03 -0.93849399513E+02  0.22923156469E+03  0.12500000000E+03 0.  0.
</event>
<event>
 5    0  0.5583350E-005  0.2235643E+03  0.7546771E-02  0.1131253E+00
         21   -1    0    0  502  501  0.00000000000E+00  0.00000000000E+00  0.26727539488E+03  0.26727539488E+03  0.00000000000E+00 0. -1.
         21   -1    0    0  501  502 -0.00000000000E+00 -0.00000000000E+00 -0.18700189971E+03  0.18700189971E+03  0.00000000000E+00 0. -1.
         25    1    1    2    0    0 -0.22518692832E+02  0.75451639903E+02  0.16136809113E+02  0.14861170243E+03  0.12500000000E+03 0.  0.
         25    1    1    2    0    0  0.27037149859E+02  0.33456056045E+02  0.17248422992E+02  0.13331475258E+03  0.12500000000E+03 0.  0.
         25    1    1    2    0    0 -0.45184570276E+01 -0.10890769595E+03  0.46888263071E+02  0.17235083958E+03  0.12500000000E+03 0.  0.
</event>
<event>
 5    0  0.5583350E-005  0.2210326E+03  0.7546771E-02  0.1133116E+00
         21   -1    0    0  502  501  0.00000000000E+00  0.00000000000E+00  0.40559323917E+02  0.40559323917E+02  0.00000000000E+00 0.  1.
         21   -1    0    0  501  502 -0.00000000000E+00 -0.00000000000E+00 -0.12045415766E+04  0.12045415766E+04  0.00000000000E+00 0.  1.
         25    1    1    2    0    0 -0.13645307804E+02  0.48712224336E+02 -0.17051041353E+03  0.21738876775E+03  0.12500000000E+03 0.  0.
         25    1    1    2    0    0 -0.41605776864E+01 -0.37324343753E+02 -0.61072979217E+03  0.62452085320E+03  0.12500000000E+03 0.  0.
         25    1    1    2    0    0  0.17805885491E+02 -0.11387880583E+02 -0.38274204702E+03  0.40319127960E+03  0.12500000000E+03 0.  0.
</event>
<event>
 5    0  0.5583350E-005  0.3102071E+03  0.7546771E-02  0.1080247E+00
         21   -1    0    0  502  501  0.00000000000E+00  0.00000000000E+00  0.47994658893E+02  0.47994658893E+02  0.00000000000E+00 0.  1.
         21   -1    0    0  501  502 -0.00000000000E+00 -0.00000000000E+00 -0.20049818631E+04  0.20049818631E+04  0.00000000000E+00 0.  1.
         25    1    1    2    0    0  0.88818800044E+01  0.49496125727E+02 -0.14521458055E+03  0.19809348465E+03  0.12500000000E+03 0.  0.
         25    1    1    2    0    0 -0.26193212874E+01 -0.87575738555E+01 -0.16042620529E+04  0.16091504871E+04  0.12500000000E+03 0.  0.
         25    1    1    2    0    0 -0.62625587170E+01 -0.40738551872E+02 -0.20751057080E+03  0.24573255023E+03  0.12500000000E+03 0.  0.
</event>
<event>
 5    0  0.5583350E-005  0.4786605E+03  0.7546771E-02  0.1019504E+00
         21   -1    0    0  502  501  0.00000000000E+00  0.00000000000E+00  0.24331339865E+03  0.24331339865E+03  0.00000000000E+00 0.  1.
         21   -1    0    0  501  502 -0.00000000000E+00 -0.00000000000E+00 -0.94164925649E+03  0.94164925649E+03  0.00000000000E+00 0.  1.
         25    1    1    2    0    0 -0.14672963528E+03  0.36368688442E+03 -0.36530443683E+03  0.55033632202E+03  0.12500000000E+03 0.  0.
         25    1    1    2    0    0  0.18785375079E+03 -0.10270033350E+03 -0.15583936992E+03  0.29282639806E+03  0.12500000000E+03 0.  0.
         25    1    1    2    0    0 -0.41124115506E+02 -0.26098655092E+03 -0.17719205110E+03  0.34179993506E+03  0.12500000000E+03 0.  0.
</event>
<event>
 5    0  0.5583350E-005  0.2897611E+03  0.7546771E-02  0.1090474E+00
         21   -1    0    0  502  501  0.00000000000E+00  0.00000000000E+00  0.14933966088E+03  0.14933966088E+03  0.00000000000E+00 0.  1.
         21   -1    0    0  501  502 -0.00000000000E+00 -0.00000000000E+00 -0.56221850637E+03  0.56221850637E+03  0.00000000000E+00 0.  1.
         25    1    1    2    0    0  0.94634911914E+02  0.69296169853E+02 -0.54790950795E+02  0.17995770058E+03  0.12500000000E+03 0.  0.
         25    1    1    2    0    0  0.91883955767E+02 -0.63822399410E+02 -0.16710651887E+03  0.23678164760E+03  0.12500000000E+03 0.  0.
         25    1    1    2    0    0 -0.18651886768E+03 -0.54737704430E+01 -0.19098137582E+03  0.29481881907E+03  0.12500000000E+03 0.  0.
</event>
<event>
 5    0  0.5583350E-005  0.4803763E+03  0.7546771E-02  0.1019032E+00
         21   -1    0    0  502  501  0.00000000000E+00  0.00000000000E+00  0.26108756805E+03  0.26108756805E+03  0.00000000000E+00 0. -1.
         21   -1    0    0  501  502 -0.00000000000E+00 -0.00000000000E+00 -0.88384666222E+03  0.88384666222E+03  0.00000000000E+00 0. -1.
         25    1    1    2    0    0 -0.80132074169E+02 -0.26901317853E+03 -0.12338628331E+03  0.33111691959E+03  0.12500000000E+03 0.  0.
         25    1    1    2    0    0 -0.94559645220E+01 -0.12197782781E+03 -0.19478046693E+02  0.17598977256E+03  0.12500000000E+03 0.  0.
         25    1    1    2    0    0  0.89588038691E+02  0.39099100633E+03 -0.47989476417E+03  0.63782753813E+03  0.12500000000E+03 0.  0.
</event>
<event>
 5    0  0.5583350E-005  0.2480577E+03  0.7546771E-02  0.1114539E+00
         21   -1    0    0  502  501  0.00000000000E+00  0.00000000000E+00  0.12768116027E+03  0.12768116027E+03  0.00000000000E+00 0.  1.
         21   -1    0    0  501  502 -0.00000000000E+00 -0.00000000000E+00 -0.48192397231E+03  0.48192397231E+03  0.00000000000E+00 0.  1.
         25    1    1    2    0    0 -0.67276667150E+02  0.69003456712E+02 -0.86194208601E+02  0.17983900739E+03  0.12500000000E+03 0.  0.
         25    1    1    2    0    0  0.42792394951E+02 -0.48264236406E+02 -0.26576454651E+03  0.30069323199E+03  0.12500000000E+03 0.  0.
         25    1    1    2    0    0  0.24484272199E+02 -0.20739220306E+02 -0.22840569343E+01  0.12907289320E+03  0.12500000000E+03 0.  0.
</event>
<event>
 5    0  0.5583350E-005  0.2768550E+03  0.7546771E-02  0.1097419E+00
         21   -1    0    0  502  501  0.00000000000E+00  0.00000000000E+00  0.79847718732E+03  0.79847718732E+03  0.00000000000E+00 0. -1.
         21   -1    0    0  501  502 -0.00000000000E+00 -0.00000000000E+00 -0.95993562278E+02  0.95993562278E+02  0.00000000000E+00 0. -1.
         25    1    1    2    0    0  0.10405530395E+03 -0.18506215719E+01  0.23834509667E+03  0.28855556863E+03  0.12500000000E+03 0.  0.
         25    1    1    2    0    0 -0.16552213978E+03  0.47115525636E+02  0.15296101715E+03  0.26199145842E+03  0.12500000000E+03 0.  0.
         25    1    1    2    0    0  0.61466835833E+02 -0.45264904064E+02  0.31117751121E+03  0.34392372255E+03  0.12500000000E+03 0.  0.
</event>
<event>
 5    0  0.5583350E-005  0.3122380E+03  0.7546771E-02  0.1079278E+00
         21   -1    0    0  502  501  0.00000000000E+00  0.00000000000E+00  0.26556011175E+03  0.26556011175E+03  0.00000000000E+00 0.  1.
         21   -1    0    0  501  502 -0.00000000000E+00 -0.00000000000E+00 -0.36712042576E+03  0.36712042576E+03  0.00000000000E+00 0.  1.
         25    1    1    2    0    0  0.28636794328E+02  0.11108570619E+03 -0.62708433428E+02  0.18087964985E+03  0.12500000000E+03 0.  0.
         25    1    1    2    0    0  0.78855957162E+02  0.40030609541E+02 -0.13896109857E+03  0.20677499509E+03  0.12500000000E+03 0.  0.
         25    1    1    2    0    0 -0.10749275149E+03 -0.15111631573E+03  0.10010921798E+03  0.24502589256E+03  0.12500000000E+03 0.  0.
</event>
<event>
 5    0  0.5583350E-005  0.3186348E+03  0.7546771E-02  0.1076279E+00
         21   -1    0    0  502  501  0.00000000000E+00  0.00000000000E+00  0.28738667804E+03  0.28738667804E+03  0.00000000000E+00 0. -1.
         21   -1    0    0  501  502 -0.00000000000E+00 -0.00000000000E+00 -0.35328068431E+03  0.35328068431E+03  0.00000000000E+00 0. -1.
         25    1    1    2    0    0 -0.19430243840E+03 -0.99171866955E+02 -0.11320838273E+03  0.27573471795E+03  0.12500000000E+03 0.  0.
         25    1    1    2    0    0  0.14066384176E+02  0.22303471551E+02  0.24161207051E-01  0.12775096317E+03  0.12500000000E+03 0.  0.
         25    1    1    2    0    0  0.18023605422E+03  0.76868395404E+02  0.47290215254E+02  0.23718168123E+03  0.12500000000E+03 0.  0.
</event>
<event>
 5    0  0.6736557E-005  0.6588575E+03  0.7546771E-02  0.9790299E-01
         21   -1    0    0  502  501  0.00000000000E+00  0.00000000000E+00  0.37319341876E+03  0.37319341876E+03  0.00000000000E+00 0. -1.
         21   -1    0    0  501  502 -0.00000000000E+00 -0.00000000000E+00 -0.11631854514E+04  0.11631854514E+04  0.00000000000E+00 0. -1.
         25    1    1    2    0    0 -0.24484623819E+02  0.64678529260E+01  0.16121307763E+03  0.20556260926E+03  0.12500000000E+03 0.  0.
         25    1    1    2    0    0  0.44808032914E+03 -0.71179962637E+02 -0.37380961854E+03  0.60100016585E+03  0.12500000000E+03 0.  0.
         25    1    1    2    0    0 -0.42359570532E+03  0.64712109711E+02 -0.57739549172E+03  0.72981609503E+03  0.12500000000E+03 0.  0.
</event>
<event>
 5    0  0.6219226E-005  0.2959791E+03  0.7546771E-02  0.1087268E+00
         21   -1    0    0  502  501  0.00000000000E+00  0.00000000000E+00  0.64271882076E+03  0.64271882076E+03  0.00000000000E+00 0. -1.
         21   -1    0    0  501  502 -0.00000000000E+00 -0.00000000000E+00 -0.13630165126E+03  0.13630165126E+03  0.00000000000E+00 0. -1.
         25    1    1    2    0    0 -0.57235553589E+02  0.66518133751E+02  0.64396875617E+02  0.16574838853E+03  0.12500000000E+03 0.  0.
         25    1    1    2    0    0 -0.10604634430E+03 -0.14107611825E+02  0.57878828644E+02  0.17441275944E+03  0.12500000000E+03 0.  0.
         25    1    1    2    0    0  0.16328189789E+03 -0.52410521926E+02  0.38414146524E+03  0.43885932405E+03  0.12500000000E+03 0.  0.
</event>
<event>
 5    0  0.5583350E-005  0.3369999E+03  0.7546771E-02  0.1068081E+00
         21   -1    0    0  502  501  0.00000000000E+00  0.00000000000E+00  0.98805328038E+02  0.98805328038E+02  0.00000000000E+00 0.  1.
         21   -1    0    0  501  502 -0.00000000000E+00 -0.00000000000E+00 -0.11494211460E+04  0.11494211460E+04  0.00000000000E+00 0.  1.
         25    1    1    2    0    0 -0.10756348595E+03  0.66147080722E+02 -0.59845332014E+03  0.62427295007E+03  0.12500000000E+03 0.  0.
         25    1    1    2    0    0  0.10735480554E+01 -0.71887447083E+02 -0.43555548441E+03  0.45880555528E+03  0.12500000000E+03 0.  0.
         25    1    1    2    0    0  0.10648993790E+03  0.57403663604E+01 -0.16607013446E+02  0.16514796873E+03  0.12500000000E+03 0.  0.
</event>
<event>
 5    0  0.5583350E-005  0.3300513E+03  0.7546771E-02  0.1071114E+00
         21   -1    0    0  502  501  0.00000000000E+00  0.00000000000E+00  0.83000521573E+03  0.83000521573E+03  0.00000000000E+00 0. -1.
         21   -1    0    0  501  502 -0.00000000000E+00 -0.00000000000E+00 -0.13124481264E+03  0.13124481264E+03  0.00000000000E+00 0. -1.
         25    1    1    2    0    0 -0.15088790599E+03  0.90458182208E+01  0.48753330861E+02  0.20211599212E+03  0.12500000000E+03 0.  0.
         25    1    1    2    0    0  0.98312642534E+01  0.99390057356E+02  0.17733660038E+03  0.23884787437E+03  0.12500000000E+03 0.  0.
         25    1    1    2    0    0  0.14105664174E+03 -0.10843587558E+03  0.47267047184E+03  0.52028616188E+03  0.12500000000E+03 0.  0.
</event>
<event>
 5    0  0.5583350E-005  0.2877644E+03  0.7546771E-02  0.1091522E+00
         21   -1    0    0  502  501  0.00000000000E+00  0.00000000000E+00  0.17604316017E+03  0.17604316017E+03  0.00000000000E+00 0.  1.
         21   -1    0    0  501  502 -0.00000000000E+00 -0.00000000000E+00 -0.47038656284E+03  0.47038656284E+03  0.00000000000E+00 0.  1.
         25    1    1    2    0    0  0.16954471747E+02  0.41527584439E+02  0.17627472260E+02  0.13396910898E+03  0.12500000000E+03 0.  0.
         25    1    1    2    0    0  0.14805996478E+01 -0.97938847365E+02 -0.33635131884E+03  0.37195620667E+03  0.12500000000E+03 0.  0.
         25    1    1    2    0    0 -0.18435071395E+02  0.56411262926E+02  0.24380443913E+02  0.14050440736E+03  0.12500000000E+03 0.  0.
</event>
<event>
 5    0  0.5583350E-005  0.3252929E+03  0.7546771E-02  0.1073239E+00
         21   -1    0    0  502  501  0.00000000000E+00  0.00000000000E+00  0.10971516980E+04  0.10971516980E+04  0.00000000000E+00 0. -1.
         21   -1    0    0  501  502 -0.00000000000E+00 -0.00000000000E+00 -0.96445601579E+02  0.96445601579E+02  0.00000000000E+00 0. -1.
         25    1    1    2    0    0 -0.14899344984E+03  0.68992587359E+02  0.12248989217E+03  0.23997457967E+03  0.12500000000E+03 0.  0.
         25    1    1    2    0    0  0.18764459212E+03 -0.75718993224E+01  0.57664425495E+03  0.61920224756E+03  0.12500000000E+03 0.  0.
         25    1    1    2    0    0 -0.38651142284E+02 -0.61420688037E+02  0.30157194926E+03  0.33442047231E+03  0.12500000000E+03 0.  0.
</event>
<event>
 5    0  0.5583350E-005  0.4161474E+03  0.7546771E-02  0.1038328E+00
         21   -1    0    0  502  501  0.00000000000E+00  0.00000000000E+00  0.38592225327E+03  0.38592225327E+03  0.00000000000E+00 0. -1.
         21   -1    0    0  501  502 -0.00000000000E+00 -0.00000000000E+00 -0.44873982196E+03  0.44873982196E+03  0.00000000000E+00 0. -1.
         25    1    1    2    0    0 -0.35375054251E+02  0.15916911489E+03 -0.27801587577E+03  0.34569354749E+03  0.12500000000E+03 0.  0.
         25    1    1    2    0    0  0.38009938833E+02 -0.67946663963E+02  0.28375686691E+03  0.31969432919E+03  0.12500000000E+03 0.  0.
         25    1    1    2    0    0 -0.26348845820E+01 -0.91222450928E+02 -0.68558559834E+02  0.16927419856E+03  0.12500000000E+03 0.  0.
</event>
<event>
 5    0  0.5583350E-005  0.2352446E+03  0.7546771E-02  0.1123002E+00
         21   -1    0    0  502  501  0.00000000000E+00  0.00000000000E+00  0.27792223091E+03  0.27792223091E+03  0.00000000000E+00 0.  1.
         21   -1    0    0  501  502 -0.00000000000E+00 -0.00000000000E+00 -0.19912058570E+03  0.19912058570E+03  0.00000000000E+00 0.  1.
         25    1    1    2    0    0  0.49285203578E+01  0.56621355362E+02  0.66741563956E+02  0.15267516024E+03  0.12500000000E+03 0.  0.
         25    1    1    2    0    0  0.22408698735E+02  0.68385127712E+02 -0.74331042021E+01  0.14442619745E+03  0.12500000000E+03 0.  0.
         25    1    1    2    0    0 -0.27337219092E+02 -0.12500648307E+03  0.19493185457E+02  0.17994145892E+03  0.12500000000E+03 0.  0.
</event>
<event>
 5    0  0.5583350E-005  0.4100214E+03  0.7546771E-02  0.1040364E+00
         21   -1    0    0  502  501  0.00000000000E+00  0.00000000000E+00  0.28887447831E+03  0.28887447831E+03  0.00000000000E+00 0. -1.
         21   -1    0    0  501  502 -0.00000000000E+00 -0.00000000000E+00 -0.58197443470E+03  0.58197443470E+03  0.00000000000E+00 0. -1.
         25    1    1    2    0    0 -0.19850440139E+03  0.18158543733E+03 -0.14393991626E+03  0.32972862768E+03  0.12500000000E+03 0.  0.
         25    1    1    2    0    0  0.44899540726E+02  0.10307554148E+03 -0.85269140741E+02  0.18851090783E+03  0.12500000000E+03 0.  0.
         25    1    1    2    0    0  0.15360486066E+03 -0.28466097881E+03 -0.63890899389E+02  0.35260937750E+03  0.12500000000E+03 0.  0.
</event>
<event>
 5    0  0.5583350E-005  0.3502599E+03  0.7546771E-02  0.1062508E+00
         21   -1    0    0  502  501  0.00000000000E+00  0.00000000000E+00  0.13431303181E+04  0.13431303181E+04  0.00000000000E+00 0. -1.
         21   -1    0    0  501  502 -0.00000000000E+00 -0.00000000000E+00 -0.91340334157E+02  0.91340334157E+02  0.00000000000E+00 0. -1.
         25    1    1    2    0    0  0.17967279714E+03 -0.73557643067E+02  0.64094790294E+03  0.68127252636E+03  0.12500000000E+03 0.  0.
         25    1    1    2    0    0 -0.25746736704E+03  0.52148028386E+02  0.42723229385E+03  0.51687647931E+03  0.12500000000E+03 0.  0.
         25    1    1    2    0    0  0.77794569898E+02  0.21409614681E+02  0.18360978714E+03  0.23632164658E+03  0.12500000000E+03 0.  0.
</event>
<event>
 5    0  0.5583350E-005  0.2145061E+03  0.7546771E-02  0.1138047E+00
         21   -1    0    0  502  501  0.00000000000E+00  0.00000000000E+00  0.25139285514E+03  0.25139285514E+03  0.00000000000E+00 0. -1.
         21   -1    0    0  501  502 -0.00000000000E+00 -0.00000000000E+00 -0.18303166475E+03  0.18303166475E+03  0.00000000000E+00 0. -1.
         25    1    1    2    0    0 -0.60856210698E+00  0.27739497980E+02  0.10206021811E+03  0.16374107064E+03  0.12500000000E+03 0.  0.
         25    1    1    2    0    0 -0.31538109969E+02 -0.27331771962E+02  0.15213742551E+02  0.13265796660E+03  0.12500000000E+03 0.  0.
         25    1    1    2    0    0  0.32146672075E+02 -0.40772601865E+00 -0.48912770264E+02  0.13802548265E+03  0.12500000000E+03 0.  0.
</event>
<event>
 5    0  0.5583350E-005  0.2291277E+03  0.7546771E-02  0.1127255E+00
         21   -1    0    0  502  501  0.00000000000E+00  0.00000000000E+00  0.15143705591E+03  0.15143705591E+03  0.00000000000E+00 0. -1.
         21   -1    0    0  501  502 -0.00000000000E+00 -0.00000000000E+00 -0.34667526526E+03  0.34667526526E+03  0.00000000000E+00 0. -1.
         25    1    1    2    0    0 -0.58372526711E+01  0.44021899265E+02 -0.12099013555E+03  0.17954279165E+03  0.12500000000E+03 0.  0.
         25    1    1    2    0    0 -0.68413706271E+02 -0.72860851274E+02 -0.54331758609E+02  0.16901502551E+03  0.12500000000E+03 0.  0.
         25    1    1    2    0    0  0.74250958942E+02  0.28838952009E+02 -0.19916315192E+02  0.14955450400E+03  0.12500000000E+03 0.  0.
</event>
<event>
 5    0  0.5583350E-005  0.2426490E+03  0.7546771E-02  0.1118041E+00
         21   -1    0    0  502  501  0.00000000000E+00  0.00000000000E+00  0.46031232722E+03  0.46031232722E+03  0.00000000000E+00 0.  1.
         21   -1    0    0  501  502 -0.00000000000E+00 -0.00000000000E+00 -0.12790994064E+03  0.12790994064E+03  0.00000000000E+00 0.  1.
         25    1    1    2    0    0 -0.50227396343E+02 -0.14958871865E+02 -0.16914081567E+02  0.13659299157E+03  0.12500000000E+03 0.  0.
         25    1    1    2    0    0 -0.32124439025E+02  0.20429177982E+02  0.20837727848E+03  0.24595816938E+03  0.12500000000E+03 0.  0.
         25    1    1    2    0    0  0.82351835368E+02 -0.54703061171E+01  0.14093918966E+03  0.20567110692E+03  0.12500000000E+03 0.  0.
</event>
<event>
 5    0  0.5583350E-005  0.4411957E+03  0.7546771E-02  0.1030381E+00
         21   -1    0    0  502  501  0.00000000000E+00  0.00000000000E+00  0.36454963174E+03  0.36454963174E+03  0.00000000000E+00 0.  1.
         21   -1    0    0  501  502 -0.00000000000E+00 -0.00000000000E+00 -0.53395659161E+03  0.53395659161E+03  0.00000000000E+00 0.  1.
         25    1    1    2    0    0  0.20185429385E+03  0.20512227394E+03 -0.30405311532E+03  0.43691372163E+03  0.12500000000E+03 0.  0.
         25    1    1    2    0    0  0.10051494027E+02 -0.78686681940E+02  0.10889732595E+03  0.18378317128E+03  0.12500000000E+03 0.  0.
         25    1    1    2    0    0 -0.21190578787E+03 -0.12643559200E+03  0.25748829504E+02  0.27780933044E+03  0.12500000000E+03 0.  0.
</event>
<event>
 5    0  0.5583350E-005  0.7528890E+03  0.7546771E-02  0.9630829E-01
         21   -1    0    0  502  501  0.00000000000E+00  0.00000000000E+00  0.22106426695E+03  0.22106426695E+03  0.00000000000E+00 0. -1.
         21   -1    0    0  501  502 -0.00000000000E+00 -0.00000000000E+00 -0.25641498346E+04  0.25641498346E+04  0.00000000000E+00 0. -1.
         25    1    1    2    0    0 -0.50549812479E+03 -0.27422949619E+03 -0.17609305143E+04  0.18566721431E+04  0.12500000000E+03 0.  0.
         25    1    1    2    0    0  0.41773508791E+03  0.68048005289E+02 -0.24469978389E+03  0.50461482235E+03  0.12500000000E+03 0.  0.
         25    1    1    2    0    0  0.87763036871E+02  0.20618149090E+03 -0.33745526939E+03  0.42392713604E+03  0.12500000000E+03 0.  0.
</event>
<event>
 5    0  0.5583350E-005  0.3059643E+03  0.7546771E-02  0.1082297E+00
         21   -1    0    0  502  501  0.00000000000E+00  0.00000000000E+00  0.12517747893E+03  0.12517747893E+03  0.00000000000E+00 0. -1.
         21   -1    0    0  501  502 -0.00000000000E+00 -0.00000000000E+00 -0.74785128461E+03  0.74785128461E+03  0.00000000000E+00 0. -1.
         25    1    1    2    0    0  0.17644266688E+03  0.43755010494E+02 -0.39576529713E+03  0.45310229094E+03  0.12500000000E+03 0.  0.
         25    1    1    2    0    0 -0.73024102138E+02 -0.11065681660E+02 -0.78785315880E+01  0.14540302632E+03  0.12500000000E+03 0.  0.
         25    1    1    2    0    0 -0.10341856474E+03 -0.32689328834E+02 -0.21902997696E+03  0.27452344628E+03  0.12500000000E+03 0.  0.
</event>
<event>
 5    0  0.5583350E-005  0.2734533E+03  0.7546771E-02  0.1099319E+00
         21   -1    0    0  502  501  0.00000000000E+00  0.00000000000E+00  0.10294669791E+03  0.10294669791E+03  0.00000000000E+00 0.  1.
         21   -1    0    0  501  502 -0.00000000000E+00 -0.00000000000E+00 -0.72636325444E+03  0.72636325444E+03  0.00000000000E+00 0.  1.
         25    1    1    2    0    0 -0.90538449897E+01  0.46182008594E+02 -0.42940392503E+02  0.14029835115E+03  0.12500000000E+03 0.  0.
         25    1    1    2    0    0  0.17882227810E+02  0.10188734326E+03 -0.36290459411E+03  0.39752427500E+03  0.12500000000E+03 0.  0.
         25    1    1    2    0    0 -0.88283828201E+01 -0.14806935185E+03 -0.21757156992E+03  0.29148732621E+03  0.12500000000E+03 0.  0.
</event>
<event>
 5    0  0.5768449E-005  0.3098245E+03  0.7546771E-02  0.1080430E+00
         21   -1    0    0  502  501  0.00000000000E+00  0.00000000000E+00  0.45891902822E+03  0.45891902822E+03  0.00000000000E+00 0. -1.
         21   -1    0    0  501  502 -0.00000000000E+00 -0.00000000000E+00 -0.20916808383E+03  0.20916808383E+03  0.00000000000E+00 0. -1.
         25    1    1    2    0    0  0.52131384781E+02  0.43203759663E+02 -0.58633745775E+02  0.15377633847E+03  0.12500000000E+03 0.  0.
         25    1    1    2    0    0  0.68263896567E+02 -0.14884579185E+03  0.12743467655E+03  0.24223877913E+03  0.12500000000E+03 0.  0.
         25    1    1    2    0    0 -0.12039528135E+03  0.10564203219E+03  0.18095001362E+03  0.27207199445E+03  0.12500000000E+03 0.  0.
</event>
<event>
 5    0  0.5583350E-005  0.4176537E+03  0.7546771E-02  0.1037833E+00
         21   -1    0    0  502  501  0.00000000000E+00  0.00000000000E+00  0.35812007372E+03  0.35812007372E+03  0.00000000000E+00 0. -1.
         21   -1    0    0  501  502 -0.00000000000E+00 -0.00000000000E+00 -0.48708424587E+03  0.48708424587E+03  0.00000000000E+00 0. -1.
         25    1    1    2    0    0  0.90703074753E+02 -0.28255655501E+03 -0.20776197020E+03  0.38321702834E+03  0.12500000000E+03 0.  0.
         25    1    1    2    0    0 -0.53580666997E+02  0.28869105132E+03  0.88269445182E+02  0.33110407116E+03  0.12500000000E+03 0.  0.
         25    1    1    2    0    0 -0.37122407756E+02 -0.61344963080E+01 -0.94716471364E+01  0.13088322009E+03  0.12500000000E+03 0.  0.
</event>
<event>
 5    0  0.5583350E-005  0.4416665E+03  0.7546771E-02  0.1030237E+00
         21   -1    0    0  502  501  0.00000000000E+00  0.00000000000E+00  0.59808938315E+03  0.59808938315E+03  0.00000000000E+00 0. -1.
         21   -1    0    0  501  502 -0.00000000000E+00 -0.00000000000E+00 -0.32615410976E+03  0.32615410976E+03  0.00000000000E+00 0. -1.
         25    1    1    2    0    0  0.10129251804E+03 -0.14457304124E+03  0.48992744001E+02  0.22178103488E+03  0.12500000000E+03 0.  0.
         25    1    1    2    0    0  0.42428382989E+02  0.35420904359E+03  0.85149702192E+02  0.38747862655E+03  0.12500000000E+03 0.  0.
         25    1    1    2    0    0 -0.14372090103E+03 -0.20963600235E+03  0.13779282720E+03  0.31498383149E+03  0.12500000000E+03 0.  0.
</event>
<event>
 5    0  0.5583350E-005  0.2421313E+03  0.7546771E-02  0.1118381E+00
         21   -1    0    0  502  501  0.00000000000E+00  0.00000000000E+00  0.53905560570E+02  0.53905560570E+02  0.00000000000E+00 0. -1.
         21   -1    0    0  501  502 -0.00000000000E+00 -0.00000000000E+00 -0.10875981139E+04  0.10875981139E+04  0.00000000000E+00 0. -1.
         25    1    1    2    0    0  0.48626290390E+02  0.40966667056E+02 -0.18184798760E+03  0.22964423468E+03  0.12500000000E+03 0.  0.
         25    1    1    2    0    0  0.45964741984E+02 -0.75097434116E+02 -0.53916932823E+03  0.56042925211E+03  0.12500000000E+03 0.  0.
         25    1    1    2    0    0 -0.94591032373E+02  0.34130767060E+02 -0.31267523745E+03  0.35143018764E+03  0.12500000000E+03 0.  0.
</event>
<event>
 5    0  0.6209455E-005  0.2825190E+03  0.7546771E-02  0.1094321E+00
         21   -1    0    0  502  501  0.00000000000E+00  0.00000000000E+00  0.28178387095E+03  0.28178387095E+03  0.00000000000E+00 0.  1.
         21   -1    0    0  501  502 -0.00000000000E+00 -0.00000000000E+00 -0.28325602850E+03  0.28325602850E+03  0.00000000000E+00 0.  1.
         25    1    1    2    0    0  0.28593430997E+02  0.84891022498E+02  0.12306490052E+01  0.15378746533E+03  0.12500000000E+03 0.  0.
         25    1    1    2    0    0  0.72001171387E+02 -0.17302026224E+03 -0.25805557604E+02  0.22674017427E+03  0.12500000000E+03 0.  0.
         25    1    1    2    0    0 -0.10059460238E+03  0.88129239742E+02  0.23102751039E+02  0.18451225984E+03  0.12500000000E+03 0.  0.
</event>
<event>
 5    0  0.5583350E-005  0.3802059E+03  0.7546771E-02  0.1050858E+00
         21   -1    0    0  502  501  0.00000000000E+00  0.00000000000E+00  0.15271992667E+03  0.15271992667E+03  0.00000000000E+00 0. -1.
         21   -1    0    0  501  502 -0.00000000000E+00 -0.00000000000E+00 -0.94654635715E+03  0.94654635715E+03  0.00000000000E+00 0. -1.
         25    1    1    2    0    0 -0.14385663927E+03 -0.10507700698E+03 -0.19760809641E+03  0.29395555757E+03  0.12500000000E+03 0.  0.
         25    1    1    2    0    0  0.10373400882E+03  0.97402063186E+02 -0.63942726318E+03  0.66688839500E+03  0.12500000000E+03 0.  0.
         25    1    1    2    0    0  0.40122630444E+02  0.76749437917E+01  0.43208929106E+02  0.13842233126E+03  0.12500000000E+03 0.  0.
</event>
<event>
 5    0  0.6226764E-005  0.3171429E+03  0.7546771E-02  0.1076972E+00
         21   -1    0    0  502  501  0.00000000000E+00  0.00000000000E+00  0.63390937893E+03  0.63390937893E+03  0.00000000000E+00 0.  1.
         21   -1    0    0  501  502 -0.00000000000E+00 -0.00000000000E+00 -0.15866565284E+03  0.15866565284E+03  0.00000000000E+00 0.  1.
         25    1    1    2    0    0  0.63120785486E+02  0.84517908995E+00  0.11551778379E+01  0.14004028822E+03  0.12500000000E+03 0.  0.
         25    1    1    2    0    0 -0.15290374470E+02 -0.13816209101E+03  0.40957516632E+03  0.45022147417E+03  0.12500000000E+03 0.  0.
         25    1    1    2    0    0 -0.47830411016E+02  0.13731691192E+03  0.64513381944E+02  0.20231326938E+03  0.12500000000E+03 0.  0.
</event>
<event>
 5    0  0.5583350E-005  0.2360281E+03  0.7546771E-02  0.1122467E+00
         21   -1    0    0  502  501  0.00000000000E+00  0.00000000000E+00  0.63967133061E+03  0.63967133061E+03  0.00000000000E+00 0.  1.
         21   -1    0    0  501  502 -0.00000000000E+00 -0.00000000000E+00 -0.87090439515E+02  0.87090439515E+02  0.00000000000E+00 0.  1.
         25    1    1    2    0    0  0.42840194565E+02 -0.10240542158E+03  0.31221827263E+03  0.35415731308E+03  0.12500000000E+03 0.  0.
         25    1    1    2    0    0 -0.25192422150E+02  0.92807265206E+02  0.12354337513E+03  0.20033924265E+03  0.12500000000E+03 0.  0.
         25    1    1    2    0    0 -0.17647772415E+02  0.95981563760E+01  0.11681924333E+03  0.17226521439E+03  0.12500000000E+03 0.  0.
</event>
<event>
 5    0  0.5583350E-005  0.2812955E+03  0.7546771E-02  0.1094983E+00
         21   -1    0    0  502  501  0.00000000000E+00  0.00000000000E+00  0.49636389786E+03  0.49636389786E+03  0.00000000000E+00 0. -1.
         21   -1    0    0  501  502 -0.00000000000E+00 -0.00000000000E+00 -0.15941364890E+03  0.15941364890E+03  0.00000000000E+00 0. -1.
         25    1    1    2    0    0  0.94643807930E+02  0.71237842389E+02 -0.43257092086E+02  0.17756254274E+03  0.12500000000E+03 0.  0.
         25    1    1    2    0    0 -0.90780015286E+02 -0.49584173636E+02  0.23172326040E+03  0.28287854436E+03  0.12500000000E+03 0.  0.
         25    1    1    2    0    0 -0.38637926442E+01 -0.21653668752E+02  0.14848408065E+03  0.19533645965E+03  0.12500000000E+03 0.  0.
</event>
<event>
 5    0  0.5583350E-005  0.1152163E+04  0.7546771E-02  0.9155790E-01
         21   -1    0    0  502  501  0.00000000000E+00  0.00000000000E+00  0.22371929651E+04  0.22371929651E+04  0.00000000000E+00 0. -1.
         21   -1    0    0  501  502 -0.00000000000E+00 -0.00000000000E+00 -0.59336877203E+03  0.59336877203E+03  0.00000000000E+00 0. -1.
         25    1    1    2    0    0  0.44658732887E+03  0.22695753970E+02  0.97357422724E+03  0.10786227865E+04  0.12500000000E+03 0.  0.
         25    1    1    2    0    0  0.25557540334E+03 -0.60371080285E+03  0.45334004972E+03  0.80680091779E+03  0.12500000000E+03 0.  0.
         25    1    1    2    0    0 -0.70216273221E+03  0.58101504888E+03  0.21690991617E+03  0.94513803291E+03  0.12500000000E+03 0.  0.
</event>
<event>
 5    0  0.5583350E-005  0.3274749E+03  0.7546771E-02  0.1072260E+00
         21   -1    0    0  502  501  0.00000000000E+00  0.00000000000E+00  0.19251231560E+03  0.19251231560E+03  0.00000000000E+00 0.  1.
         21   -1    0    0  501  502 -0.00000000000E+00 -0.00000000000E+00 -0.55705414545E+03  0.55705414545E+03  0.00000000000E+00 0.  1.
         25    1    1    2    0    0  0.11232506489E+03  0.14565775000E+03 -0.62524490102E+02  0.23101387881E+03  0.12500000000E+03 0.  0.
         25    1    1    2    0    0 -0.94943931794E+02 -0.66451616188E+02  0.12103755568E+02  0.17088495656E+03  0.12500000000E+03 0.  0.
         25    1    1    2    0    0 -0.17381133099E+02 -0.79206133817E+02 -0.31412109531E+03  0.34766762568E+03  0.12500000000E+03 0.  0.
</event>
<event>
 5    0  0.5583350E-005  0.3152643E+03  0.7546771E-02  0.1077850E+00
         21   -1    0    0  502  501  0.00000000000E+00  0.00000000000E+00  0.85740792098E+03  0.85740792098E+03  0.00000000000E+00 0.  1.
         21   -1    0    0  501  502 -0.00000000000E+00 -0.00000000000E+00 -0.11592101445E+03  0.11592101445E+03  0.00000000000E+00 0.  1.
         25    1    1    2    0    0 -0.37823026379E+02 -0.88229786815E+02  0.10763173235E+03  0.19085247290E+03  0.12500000000E+03 0.  0.
         25    1    1    2    0    0 -0.44077962749E+02  0.20547475787E+03  0.22778021566E+03  0.33417296355E+03  0.12500000000E+03 0.  0.
         25    1    1    2    0    0  0.81900989128E+02 -0.11724497106E+03  0.40607495852E+03  0.44830349898E+03  0.12500000000E+03 0.  0.
</event>
<event>
 5    0  0.5583350E-005  0.4464506E+03  0.7546771E-02  0.1028786E+00
         21   -1    0    0  502  501  0.00000000000E+00  0.00000000000E+00  0.40875620699E+03  0.40875620699E+03  0.00000000000E+00 0. -1.
         21   -1    0    0  501  502 -0.00000000000E+00 -0.00000000000E+00 -0.48762111313E+03  0.48762111313E+03  0.00000000000E+00 0. -1.
         25    1    1    2    0    0  0.18514370146E+03  0.13755732862E+03 -0.21588481493E+03  0.33975205984E+03  0.12500000000E+03 0.  0.
         25    1    1    2    0    0 -0.22578099149E+03  0.92569860599E+02  0.60319760744E+02  0.28073066941E+03  0.12500000000E+03 0.  0.
         25    1    1    2    0    0  0.40637290030E+02 -0.23012718922E+03  0.76700148046E+02  0.27589459086E+03  0.12500000000E+03 0.  0.
</event>
<event>
 5    0  0.5583350E-005  0.3208929E+03  0.7546771E-02  0.1075239E+00
         21   -1    0    0  502  501  0.00000000000E+00  0.00000000000E+00  0.43335282736E+03  0.43335282736E+03  0.00000000000E+00 0. -1.
         21   -1    0    0  501  502 -0.00000000000E+00 -0.00000000000E+00 -0.23761751942E+03  0.23761751942E+03  0.00000000000E+00 0. -1.
         25    1    1    2    0    0 -0.21861344704E+03  0.77145949150E+02  0.58169743300E+01  0.26344292339E+03  0.12500000000E+03 0.  0.
         25    1    1    2    0    0  0.12396365599E+03 -0.69160808719E+01  0.14943396874E+03  0.23102019651E+03  0.12500000000E+03 0.  0.
         25    1    1    2    0    0  0.94649791048E+02 -0.70229868278E+02  0.40484364870E+02  0.17650722689E+03  0.12500000000E+03 0.  0.
</event>
<event>
 5    0  0.5865789E-005  0.4600047E+03  0.7546771E-02  0.1024780E+00
         21   -1    0    0  502  501  0.00000000000E+00  0.00000000000E+00  0.76253194134E+03  0.76253194134E+03  0.00000000000E+00 0.  1.
         21   -1    0    0  501  502 -0.00000000000E+00 -0.00000000000E+00 -0.27750223200E+03  0.27750223200E+03  0.00000000000E+00 0.  1.
         25    1    1    2    0    0 -0.18013770029E+03 -0.62150747623E+01  0.24859401236E+03  0.33153009094E+03  0.12500000000E+03 0.  0.
         25    1    1    2    0    0  0.15594667068E+03 -0.24960784058E+03 -0.25611715984E+02  0.32078715400E+03  0.12500000000E+03 0.  0.
         25    1    1    2    0    0  0.24191029615E+02  0.25582291534E+03  0.26204741296E+03  0.38771692840E+03  0.12500000000E+03 0.  0.
</event>
<event>
 5    0  0.5583350E-005  0.2674483E+03  0.7546771E-02  0.1102749E+00
         21   -1    0    0  502  501  0.00000000000E+00  0.00000000000E+00  0.32729016807E+03  0.32729016807E+03  0.00000000000E+00 0.  1.
         21   -1    0    0  501  502 -0.00000000000E+00 -0.00000000000E+00 -0.21854796584E+03  0.21854796584E+03  0.00000000000E+00 0.  1.
         25    1    1    2    0    0  0.26616416618E+01 -0.66088389574E+02  0.37295313226E+01  0.14146967511E+03  0.12500000000E+03 0.  0.
         25    1    1    2    0    0  0.64340181373E+01  0.13182667379E+03 -0.55795822324E+02  0.19015215566E+03  0.12500000000E+03 0.  0.
         25    1    1    2    0    0 -0.90956597991E+01 -0.65738284215E+02  0.16080849323E+03  0.21421630314E+03  0.12500000000E+03 0.  0.
</event>
<event>
 5    0  0.5583350E-005  0.2746734E+03  0.7546771E-02  0.1098634E+00
         21   -1    0    0  502  501  0.00000000000E+00  0.00000000000E+00  0.71615432547E+03  0.71615432547E+03  0.00000000000E+00 0.  1.
         21   -1    0    0  501  502 -0.00000000000E+00 -0.00000000000E+00 -0.10534806411E+03  0.10534806411E+03  0.00000000000E+00 0.  1.
         25    1    1    2    0    0 -0.11445260796E+03 -0.34669316763E+01  0.19618980604E+03  0.25928142833E+03  0.12500000000E+03 0.  0.
         25    1    1    2    0    0 -0.10468503498E+02 -0.11212186706E+03  0.19514614618E+03  0.25765853568E+03  0.12500000000E+03 0.  0.
         25    1    1    2    0    0  0.12492111146E+03  0.11558879873E+03  0.21947030914E+03  0.30456242558E+03  0.12500000000E+03 0.  0.
</event>
<event>
 5    0  0.5592311E-005  0.5580039E+03  0.7546771E-02  0.9996581E-01
         21   -1    0    0  502  501  0.00000000000E+00  0.00000000000E+00  0.31771760875E+03  0.31771760875E+03  0.00000000000E+00 0. -1.
         21   -1    0    0  501  502 -0.00000000000E+00 -0.00000000000E+00 -0.98001621172E+03  0.98001621172E+03  0.00000000000E+00 0. -1.
         25    1    1    2    0    0  0.25448026720E+03  0.24460745888E+03 -0.43318969156E+03  0.57260049267E+03  0.12500000000E+03 0.  0.
         25    1    1    2    0    0  0.17322444539E+01  0.64228004504E+02  0.11526814641E+03  0.18176903700E+03  0.12500000000E+03 0.  0.
         25    1    1    2    0    0 -0.25621251165E+03 -0.30883546339E+03 -0.34437705782E+03  0.54336429081E+03  0.12500000000E+03 0.  0.
</event>
<event>
 5    0  0.5583350E-005  0.3308459E+03  0.7546771E-02  0.1070763E+00
         21   -1    0    0  502  501  0.00000000000E+00  0.00000000000E+00  0.23591233712E+03  0.23591233712E+03  0.00000000000E+00 0. -1.
         21   -1    0    0  501  502 -0.00000000000E+00 -0.00000000000E+00 -0.46398172296E+03  0.46398172296E+03  0.00000000000E+00 0. -1.
         25    1    1    2    0    0  0.66046332296E+02 -0.10878372492E+03 -0.70466893846E+01  0.17852359129E+03  0.12500000000E+03 0.  0.
         25    1    1    2    0    0 -0.21086766001E+03  0.15346119988E+02 -0.55789165986E+02  0.25186922098E+03  0.12500000000E+03 0.  0.
         25    1    1    2    0    0  0.14482132772E+03  0.93437604927E+02 -0.16523353047E+03  0.26950124781E+03  0.12500000000E+03 0.  0.
</event>
<event>
 5    0  0.5583350E-005  0.3459823E+03  0.7546771E-02  0.1064276E+00
         21   -1    0    0  502  501  0.00000000000E+00  0.00000000000E+00  0.31568800929E+03  0.31568800929E+03  0.00000000000E+00 0.  1.
         21   -1    0    0  501  502 -0.00000000000E+00 -0.00000000000E+00 -0.37918368513E+03  0.37918368513E+03  0.00000000000E+00 0.  1.
         25    1    1    2    0    0  0.15689251339E+03  0.12303806845E+03 -0.70442850649E+02  0.24564368963E+03  0.12500000000E+03 0.  0.
         25    1    1    2    0    0 -0.86700011132E+02  0.10026639287E+03  0.21544739529E+02  0.18346503011E+03  0.12500000000E+03 0.  0.
         25    1    1    2    0    0 -0.70192502263E+02 -0.22330446132E+03 -0.14597564721E+02  0.26576297469E+03  0.12500000000E+03 0.  0.
</event>
<event>
 5    0  0.5899652E-005  0.2805630E+03  0.7546771E-02  0.1095382E+00
         21   -1    0    0  502  501  0.00000000000E+00  0.00000000000E+00  0.97071407763E+03  0.97071407763E+03  0.00000000000E+00 0. -1.
         21   -1    0    0  501  502 -0.00000000000E+00 -0.00000000000E+00 -0.81090394519E+02  0.81090394519E+02  0.00000000000E+00 0. -1.
         25    1    1    2    0    0 -0.64931482518E+02 -0.43651371619E+02  0.14071030041E+03  0.20382818330E+03  0.12500000000E+03 0.  0.
         25    1    1    2    0    0  0.17661639601E+03  0.69350121030E+02  0.45729368889E+03  0.51063226350E+03  0.12500000000E+03 0.  0.
         25    1    1    2    0    0 -0.11168491349E+03 -0.25698749411E+02  0.29161969381E+03  0.33734402535E+03  0.12500000000E+03 0.  0.
</event>
<event>
 5    0  0.5583350E-005  0.2560426E+03  0.7546771E-02  0.1109544E+00
         21   -1    0    0  502  501  0.00000000000E+00  0.00000000000E+00  0.11525520887E+03  0.11525520887E+03  0.00000000000E+00 0.  1.
         21   -1    0    0  501  502 -0.00000000000E+00 -0.00000000000E+00 -0.56880575612E+03  0.56880575612E+03  0.00000000000E+00 0.  1.
         25    1    1    2    0    0  0.69375311993E+02  0.10344086241E+03 -0.23094550846E+03  0.29064372315E+03  0.12500000000E+03 0.  0.
         25    1    1    2    0    0  0.15933054529E+01  0.61029125648E+01 -0.15783532995E+03  0.20143677803E+03  0.12500000000E+03 0.  0.
         25    1    1    2    0    0 -0.70968617446E+02 -0.10954377497E+03 -0.64769708839E+02  0.19198046380E+03  0.12500000000E+03 0.  0.
</event>
<event>
 5    0  0.5583350E-005  0.5616148E+03  0.7546771E-02  0.9988408E-01
         21   -1    0    0  502  501  0.00000000000E+00  0.00000000000E+00  0.91210743119E+03  0.91210743119E+03  0.00000000000E+00 0. -1.
         21   -1    0    0  501  502 -0.00000000000E+00 -0.00000000000E+00 -0.34580482278E+03  0.34580482278E+03  0.00000000000E+00 0. -1.
         25    1    1    2    0    0  0.10774033267E+03 -0.10719802759E+03  0.10450195285E+03  0.22281170201E+03  0.12500000000E+03 0.  0.
         25    1    1    2    0    0 -0.22871194249E+03  0.38862017680E+03  0.11253291637E+01  0.46793275245E+03  0.12500000000E+03 0.  0.
         25    1    1    2    0    0  0.12097160981E+03 -0.28142214921E+03  0.46067532641E+03  0.56716779951E+03  0.12500000000E+03 0.  0.
</event>
<event>
 5    0  0.5583350E-005  0.3453472E+03  0.7546771E-02  0.1064541E+00
         21   -1    0    0  502  501  0.00000000000E+00  0.00000000000E+00  0.50398859685E+02  0.50398859685E+02  0.00000000000E+00 0.  1.
         21   -1    0    0  501  502 -0.00000000000E+00 -0.00000000000E+00 -0.23664169721E+04  0.23664169721E+04  0.00000000000E+00 0.  1.
         25    1    1    2    0    0 -0.13338464518E+03  0.80378428733E+02 -0.45869223191E+03  0.50027564301E+03  0.12500000000E+03 0.  0.
         25    1    1    2    0    0  0.58977123364E+02 -0.12493901661E+02 -0.16425452253E+04  0.16483974690E+04  0.12500000000E+03 0.  0.
         25    1    1    2    0    0  0.74407521812E+02 -0.67884527072E+02 -0.21478065522E+03  0.26814271979E+03  0.12500000000E+03 0.  0.
</event>
<event>
 5    0  0.5583350E-005  0.5365910E+03  0.7546771E-02  0.1004646E+00
         21   -1    0    0  502  501  0.00000000000E+00  0.00000000000E+00  0.42091572027E+03  0.42091572027E+03  0.00000000000E+00 0.  1.
         21   -1    0    0  501  502 -0.00000000000E+00 -0.00000000000E+00 -0.68405603227E+03  0.68405603227E+03  0.00000000000E+00 0.  1.
         25    1    1    2    0    0  0.43639444136E+03 -0.38903446827E+02  0.68139755099E+00  0.45560844036E+03  0.12500000000E+03 0.  0.
         25    1    1    2    0    0 -0.11217478903E+03 -0.61650697260E+02 -0.22214503970E+03  0.28523220440E+03  0.12500000000E+03 0.  0.
         25    1    1    2    0    0 -0.32421965233E+03  0.10055414409E+03 -0.41676669851E+02  0.36413110779E+03  0.12500000000E+03 0.  0.
</event>
<event>
 5    0  0.5583350E-005  0.3146245E+03  0.7546771E-02  0.1078150E+00
         21   -1    0    0  502  501  0.00000000000E+00  0.00000000000E+00  0.84215606957E+03  0.84215606957E+03  0.00000000000E+00 0.  1.
         21   -1    0    0  501  502 -0.00000000000E+00 -0.00000000000E+00 -0.11754183476E+03  0.11754183476E+03  0.00000000000E+00 0.  1.
         25    1    1    2    0    0 -0.29435853011E+01  0.43782210086E+02 -0.36980704485E+02  0.13754315366E+03  0.12500000000E+03 0.  0.
         25    1    1    2    0    0  0.88821143126E+02 -0.82940540398E+01  0.35790957406E+03  0.38946405483E+03  0.12500000000E+03 0.  0.
         25    1    1    2    0    0 -0.85877557824E+02 -0.35488156046E+02  0.40368536524E+03  0.43269069584E+03  0.12500000000E+03 0.  0.
</event>
<event>
 5    0  0.5583350E-005  0.3440770E+03  0.7546771E-02  0.1065073E+00
         21   -1    0    0  502  501  0.00000000000E+00  0.00000000000E+00  0.10824337515E+03  0.10824337515E+03  0.00000000000E+00 0.  1.
         21   -1    0    0  501  502 -0.00000000000E+00 -0.00000000000E+00 -0.10937298820E+04  0.10937298820E+04  0.00000000000E+00 0.  1.
         25    1    1    2    0    0  0.25827148625E+02 -0.47882062420E+02 -0.13246645307E+03  0.19008444096E+03  0.12500000000E+03 0.  0.
         25    1    1    2    0    0 -0.22921788809E+03  0.92214067015E+02 -0.30189762980E+03  0.40964796259E+03  0.12500000000E+03 0.  0.
         25    1    1    2    0    0  0.20339073946E+03 -0.44332004594E+02 -0.55112242394E+03  0.60224085356E+03  0.12500000000E+03 0.  0.
</event>
<event>
 5    0  0.5583350E-005  0.4379595E+03  0.7546771E-02  0.1031375E+00
         21   -1    0    0  502  501  0.00000000000E+00  0.00000000000E+00  0.15184855666E+03  0.15184855666E+03  0.00000000000E+00 0. -1.
         21   -1    0    0  501  502 -0.00000000000E+00 -0.00000000000E+00 -0.12631566991E+04  0.12631566991E+04  0.00000000000E+00 0. -1.
         25    1    1    2    0    0  0.20231915819E+02  0.14270278831E+02 -0.84380810592E+03  0.85337570325E+03  0.12500000000E+03 0.  0.
         25    1    1    2    0    0  0.14492243038E+03 -0.74488217131E+02 -0.27805008575E+03  0.34567015420E+03  0.12500000000E+03 0.  0.
         25    1    1    2    0    0 -0.16515434620E+03  0.60217938300E+02  0.10550049261E+02  0.21595939827E+03  0.12500000000E+03 0.  0.
</event>
<event>
 5    0  0.5583350E-005  0.4001840E+03  0.7546771E-02  0.1043716E+00
         21   -1    0    0  502  501  0.00000000000E+00  0.00000000000E+00  0.12658614420E+03  0.12658614420E+03  0.00000000000E+00 0. -1.
         21   -1    0    0  501  502 -0.00000000000E+00 -0.00000000000E+00 -0.12651247469E+04  0.12651247469E+04  0.00000000000E+00 0. -1.
         25    1    1    2    0    0  0.19366885938E+03 -0.23124766546E+02 -0.53739574476E+03  0.58520216029E+03  0.12500000000E+03 0.  0.
         25    1    1    2    0    0  0.10265333005E+03 -0.26682948535E+02 -0.59081827531E+02  0.17425655872E+03  0.12500000000E+03 0.  0.
         25    1    1    2    0    0 -0.29632218943E+03  0.49807715080E+02 -0.54206103043E+03  0.63225217212E+03  0.12500000000E+03 0.  0.
</event>
<event>
 5    0  0.5583350E-005  0.1992621E+03  0.7546771E-02  0.1150363E+00
         21   -1    0    0  502  501  0.00000000000E+00  0.00000000000E+00  0.86805442994E+02  0.86805442994E+02  0.00000000000E+00 0. -1.
         21   -1    0    0  501  502 -0.00000000000E+00 -0.00000000000E+00 -0.45740639951E+03  0.45740639951E+03  0.00000000000E+00 0. -1.
         25    1    1    2    0    0  0.16844054656E+02 -0.26976952901E+02 -0.17839054498E+03  0.22013555984E+03  0.12500000000E+03 0.  0.
         25    1    1    2    0    0 -0.38456920306E+02  0.40560125872E+01 -0.81495087698E+02  0.15414874400E+03  0.12500000000E+03 0.  0.
         25    1    1    2    0    0  0.21612865650E+02  0.22920940314E+02 -0.11071532384E+03  0.16992753867E+03  0.12500000000E+03 0.  0.
</event>
<event>
 5    0  0.5778918E-005  0.3052395E+03  0.7546771E-02  0.1082650E+00
         21   -1    0    0  502  501  0.00000000000E+00  0.00000000000E+00  0.45988602310E+03  0.45988602310E+03  0.00000000000E+00 0. -1.
         21   -1    0    0  501  502 -0.00000000000E+00 -0.00000000000E+00 -0.20259617470E+03  0.20259617470E+03  0.00000000000E+00 0. -1.
         25    1    1    2    0    0  0.16647882207E+03 -0.29586667082E+02  0.74498124181E+02  0.22308191225E+03  0.12500000000E+03 0.  0.
         25    1    1    2    0    0 -0.15411092440E+03  0.81362655962E+02  0.35598595622E+01  0.21449412907E+03  0.12500000000E+03 0.  0.
         25    1    1    2    0    0 -0.12367897671E+02 -0.51775988879E+02  0.17923186466E+03  0.22490615649E+03  0.12500000000E+03 0.  0.
</event>
<event>
 5    0  0.5583350E-005  0.2203999E+03  0.7546771E-02  0.1133585E+00
         21   -1    0    0  502  501  0.00000000000E+00  0.00000000000E+00  0.63291625128E+02  0.63291625128E+02  0.00000000000E+00 0.  1.
         21   -1    0    0  501  502 -0.00000000000E+00 -0.00000000000E+00 -0.76749639669E+03  0.76749639669E+03  0.00000000000E+00 0.  1.
         25    1    1    2    0    0 -0.51945506729E+02  0.57341473903E+02 -0.26739109431E+03  0.30513829261E+03  0.12500000000E+03 0.  0.
         25    1    1    2    0    0  0.29183304249E+02 -0.31841426302E+02 -0.10320341228E+03  0.16775424282E+03  0.12500000000E+03 0.  0.
         25    1    1    2    0    0  0.22762202480E+02 -0.25500047601E+02 -0.33361026497E+03  0.35789548640E+03  0.12500000000E+03 0.  0.
</event>
<event>
 5    0  0.5583350E-005  0.3390485E+03  0.7546771E-02  0.1067202E+00
         21   -1    0    0  502  501  0.00000000000E+00  0.00000000000E+00  0.47745929505E+03  0.47745929505E+03  0.00000000000E+00 0.  1.
         21   -1    0    0  501  502 -0.00000000000E+00 -0.00000000000E+00 -0.24076165757E+03  0.24076165757E+03  0.00000000000E+00 0.  1.
         25    1    1    2    0    0  0.10993363509E+03 -0.28765948605E+02  0.17393817331E+03  0.24247138400E+03  0.12500000000E+03 0.  0.
         25    1    1    2    0    0 -0.13123075234E+03  0.18374904649E+03  0.90702153240E+02  0.27356370930E+03  0.12500000000E+03 0.  0.
         25    1    1    2    0    0  0.21297117256E+02 -0.15498309788E+03 -0.27942689070E+02  0.20218585931E+03  0.12500000000E+03 0.  0.
</event>
<event>
 5    0  0.5583350E-005  0.2630695E+03  0.7546771E-02  0.1105313E+00
         21   -1    0    0  502  501  0.00000000000E+00  0.00000000000E+00  0.46764155489E+03  0.46764155489E+03  0.00000000000E+00 0. -1.
         21   -1    0    0  501  502 -0.00000000000E+00 -0.00000000000E+00 -0.14798847109E+03  0.14798847109E+03  0.00000000000E+00 0. -1.
         25    1    1    2    0    0 -0.24679549230E+02  0.62788784551E+02  0.89449278610E+02  0.16786210132E+03  0.12500000000E+03 0.  0.
         25    1    1    2    0    0 -0.32860713240E+02  0.83846925762E+02  0.17496387194E+02  0.15505243306E+03  0.12500000000E+03 0.  0.
         25    1    1    2    0    0  0.57540262470E+02 -0.14663571031E+03  0.21270741800E+03  0.29271549159E+03  0.12500000000E+03 0.  0.
</event>
<event>
 5    0  0.5583350E-005  0.3656635E+03  0.7546771E-02  0.1056364E+00
         21   -1    0    0  502  501  0.00000000000E+00  0.00000000000E+00  0.26846836553E+03  0.26846836553E+03  0.00000000000E+00 0.  1.
         21   -1    0    0  501  502 -0.00000000000E+00 -0.00000000000E+00 -0.49804686992E+03  0.49804686992E+03  0.00000000000E+00 0.  1.
         25    1    1    2    0    0  0.10652891909E+03 -0.41491399480E+02 -0.25724536910E+03  0.30800994588E+03  0.12500000000E+03 0.  0.
         25    1    1    2    0    0 -0.53504753198E+02  0.20439407679E+03  0.19872536878E+02  0.24629172736E+03  0.12500000000E+03 0.  0.
         25    1    1    2    0    0 -0.53024165897E+02 -0.16290267731E+03  0.77943278310E+01  0.21221356222E+03  0.12500000000E+03 0.  0.
</event>
<event>
 5    0  0.5583350E-005  0.3012370E+03  0.7546771E-02  0.1084624E+00
         21   -1    0    0  502  501  0.00000000000E+00  0.00000000000E+00  0.52928851476E+02  0.52928851476E+02  0.00000000000E+00 0.  1.
         21   -1    0    0  501  502 -0.00000000000E+00 -0.00000000000E+00 -0.17144472994E+04  0.17144472994E+04  0.00000000000E+00 0.  1.
         25    1    1    2    0    0 -0.73546293121E+02  0.10048954928E+03 -0.27532053521E+03  0.32700703946E+03  0.12500000000E+03 0.  0.
         25    1    1    2    0    0 -0.12505254277E+02 -0.59553527716E+02 -0.11388537162E+04  0.11473080628E+04  0.12500000000E+03 0.  0.
         25    1    1    2    0    0  0.86051547398E+02 -0.40936021565E+02 -0.24734419650E+03  0.29306104861E+03  0.12500000000E+03 0.  0.
</event>
<event>
 5    0  0.5583350E-005  0.2884067E+03  0.7546771E-02  0.1091184E+00
         21   -1    0    0  502  501  0.00000000000E+00  0.00000000000E+00  0.27736439869E+03  0.27736439869E+03  0.00000000000E+00 0. -1.
         21   -1    0    0  501  502 -0.00000000000E+00 -0.00000000000E+00 -0.29988863877E+03  0.29988863877E+03  0.00000000000E+00 0. -1.
         25    1    1    2    0    0 -0.52144406251E+02 -0.16135669874E+03  0.57908470201E+02  0.21847977996E+03  0.12500000000E+03 0.  0.
         25    1    1    2    0    0  0.63541773333E+02  0.94555612917E+01  0.12132397811E+02  0.14106438131E+03  0.12500000000E+03 0.  0.
         25    1    1    2    0    0 -0.11397367082E+02  0.15190113745E+03 -0.92565108089E+02  0.21770887619E+03  0.12500000000E+03 0.  0.
</event>
<event>
 5    0  0.5583350E-005  0.2401808E+03  0.7546771E-02  0.1119672E+00
         21   -1    0    0  502  501  0.00000000000E+00  0.00000000000E+00  0.15621795961E+03  0.15621795961E+03  0.00000000000E+00 0. -1.
         21   -1    0    0  501  502 -0.00000000000E+00 -0.00000000000E+00 -0.36927127210E+03  0.36927127210E+03  0.00000000000E+00 0. -1.
         25    1    1    2    0    0  0.95432119538E+02 -0.12737026046E+02 -0.36180317768E+02  0.16187506499E+03  0.12500000000E+03 0.  0.
         25    1    1    2    0    0  0.25593317581E+02 -0.31336212598E+02 -0.11239207377E+03  0.17289868239E+03  0.12500000000E+03 0.  0.
         25    1    1    2    0    0 -0.12102543712E+03  0.44073238644E+02 -0.64480920954E+02  0.19071548433E+03  0.12500000000E+03 0.  0.
</event>
<event>
 5    0  0.5855063E-005  0.2688650E+03  0.7546771E-02  0.1101931E+00
         21   -1    0    0  502  501  0.00000000000E+00  0.00000000000E+00  0.34081589381E+03  0.34081589381E+03  0.00000000000E+00 0.  1.
         21   -1    0    0  501  502 -0.00000000000E+00 -0.00000000000E+00 -0.21210388264E+03  0.21210388264E+03  0.00000000000E+00 0.  1.
         25    1    1    2    0    0 -0.83831667552E+02 -0.53635662117E+02 -0.92338427585E+02  0.18454245567E+03  0.12500000000E+03 0.  0.
         25    1    1    2    0    0 -0.75879250805E+01 -0.10389520647E+02  0.11292864708E+03  0.16894791528E+03  0.12500000000E+03 0.  0.
         25    1    1    2    0    0  0.91419592633E+02  0.64025182765E+02  0.10812179167E+03  0.19942940550E+03  0.12500000000E+03 0.  0.
</event>
<event>
 5    0  0.5583350E-005  0.2740160E+03  0.7546771E-02  0.1099003E+00
         21   -1    0    0  502  501  0.00000000000E+00  0.00000000000E+00  0.67099652349E+02  0.67099652349E+02  0.00000000000E+00 0. -1.
         21   -1    0    0  501  502 -0.00000000000E+00 -0.00000000000E+00 -0.11190039319E+04  0.11190039319E+04  0.00000000000E+00 0. -1.
         25    1    1    2    0    0  0.21970066105E+02 -0.17645685635E+02 -0.46721072120E+03  0.48446353013E+03  0.12500000000E+03 0.  0.
         25    1    1    2    0    0 -0.13173069498E+03  0.79370987468E+02 -0.39479839327E+03  0.44175049630E+03  0.12500000000E+03 0.  0.
         25    1    1    2    0    0  0.10976062888E+03 -0.61725301833E+02 -0.18989516506E+03  0.25988955780E+03  0.12500000000E+03 0.  0.
</event>
<event>
 5    0  0.5583350E-005  0.4076032E+03  0.7546771E-02  0.1041178E+00
         21   -1    0    0  502  501  0.00000000000E+00  0.00000000000E+00  0.12906163714E+04  0.12906163714E+04  0.00000000000E+00 0. -1.
         21   -1    0    0  501  502 -0.00000000000E+00 -0.00000000000E+00 -0.12872947235E+03  0.12872947235E+03  0.00000000000E+00 0. -1.
         25    1    1    2    0    0 -0.28234888093E+02 -0.55219881485E+02  0.56436159425E+02  0.15052071056E+03  0.12500000000E+03 0.  0.
         25    1    1    2    0    0 -0.24952606416E+03  0.13181212055E+03  0.53699003842E+03  0.61937145008E+03  0.12500000000E+03 0.  0.
         25    1    1    2    0    0  0.27776095225E+03 -0.76592239065E+02  0.56846070123E+03  0.64945368312E+03  0.12500000000E+03 0.  0.
</event>
<event>
 5    0  0.5583350E-005  0.2942954E+03  0.7546771E-02  0.1088128E+00
         21   -1    0    0  502  501  0.00000000000E+00  0.00000000000E+00  0.10849501351E+03  0.10849501351E+03  0.00000000000E+00 0.  1.
         21   -1    0    0  501  502 -0.00000000000E+00 -0.00000000000E+00 -0.79828341613E+03  0.79828341613E+03  0.00000000000E+00 0.  1.
         25    1    1    2    0    0 -0.56329297384E+02 -0.76388555724E+02 -0.12524923770E+03  0.20079983250E+03  0.12500000000E+03 0.  0.
         25    1    1    2    0    0 -0.74536897981E+02 -0.95057109115E+02 -0.21086112484E+03  0.27327461851E+03  0.12500000000E+03 0.  0.
         25    1    1    2    0    0  0.13086619537E+03  0.17144566484E+03 -0.35367804009E+03  0.43270397863E+03  0.12500000000E+03 0.  0.
</event>
<event>
 5    0  0.5583350E-005  0.2473286E+03  0.7546771E-02  0.1115005E+00
         21   -1    0    0  502  501  0.00000000000E+00  0.00000000000E+00  0.75923139421E+03  0.75923139421E+03  0.00000000000E+00 0.  1.
         21   -1    0    0  501  502 -0.00000000000E+00 -0.00000000000E+00 -0.80570213008E+02  0.80570213008E+02  0.00000000000E+00 0.  1.
         25    1    1    2    0    0  0.88575578675E+02  0.74987320461E+02  0.28683201439E+03  0.33371595084E+03  0.12500000000E+03 0.  0.
         25    1    1    2    0    0 -0.42744001295E+02 -0.94872108614E+01  0.30892088236E+03  0.33611630186E+03  0.12500000000E+03 0.  0.
         25    1    1    2    0    0 -0.45831577380E+02 -0.65500109600E+02  0.82908284443E+02  0.16996935451E+03  0.12500000000E+03 0.  0.
</event>
<event>
 5    0  0.5583350E-005  0.2638259E+03  0.7546771E-02  0.1104866E+00
         21   -1    0    0  502  501  0.00000000000E+00  0.00000000000E+00  0.47308463811E+03  0.47308463811E+03  0.00000000000E+00 0.  1.
         21   -1    0    0  501  502 -0.00000000000E+00 -0.00000000000E+00 -0.14712825577E+03  0.14712825577E+03  0.00000000000E+00 0.  1.
         25    1    1    2    0    0 -0.10812570178E+03  0.14561183401E+02  0.18294895224E+03  0.24697877353E+03  0.12500000000E+03 0.  0.
         25    1    1    2    0    0  0.12711708833E+03  0.57965734369E+02  0.12736025405E+03  0.22663718763E+03  0.12500000000E+03 0.  0.
         25    1    1    2    0    0 -0.18991386552E+02 -0.72526917769E+02  0.15647176049E+02  0.14659693272E+03  0.12500000000E+03 0.  0.
</event>
<event>
 5    0  0.5583350E-005  0.3158189E+03  0.7546771E-02  0.1077590E+00
         21   -1    0    0  502  501  0.00000000000E+00  0.00000000000E+00  0.33163219584E+03  0.33163219584E+03  0.00000000000E+00 0.  1.
         21   -1    0    0  501  502 -0.00000000000E+00 -0.00000000000E+00 -0.30075972830E+03  0.30075972830E+03  0.00000000000E+00 0.  1.
         25    1    1    2    0    0 -0.79315206642E+02 -0.18947679431E+03  0.28972266586E+02  0.24219155604E+03  0.12500000000E+03 0.  0.
         25    1    1    2    0    0  0.64704444729E+02  0.10606241139E+03  0.10705321844E+03  0.20620691515E+03  0.12500000000E+03 0.  0.
         25    1    1    2    0    0  0.14610761914E+02  0.83414382917E+02 -0.10515301748E+03  0.18399345295E+03  0.12500000000E+03 0.  0.
</event>
<event>
 5    0  0.5583350E-005  0.3340314E+03  0.7546771E-02  0.1069367E+00
         21   -1    0    0  502  501  0.00000000000E+00  0.00000000000E+00  0.92396516341E+03  0.92396516341E+03  0.00000000000E+00 0.  1.
         21   -1    0    0  501  502 -0.00000000000E+00 -0.00000000000E+00 -0.12075889125E+03  0.12075889125E+03  0.00000000000E+00 0.  1.
         25    1    1    2    0    0 -0.38521950618E+02 -0.18234154259E+03  0.59542396999E+03  0.63630738081E+03  0.12500000000E+03 0.  0.
         25    1    1    2    0    0  0.66153865673E+02  0.99047333512E+02  0.32085261087E+02  0.17561654876E+03  0.12500000000E+03 0.  0.
         25    1    1    2    0    0 -0.27631915055E+02  0.83294209083E+02  0.17569704109E+03  0.23280012510E+03  0.12500000000E+03 0.  0.
</event>
<event>
 5    0  0.5583350E-005  0.4447533E+03  0.7546771E-02  0.1029298E+00
         21   -1    0    0  502  501  0.00000000000E+00  0.00000000000E+00  0.19458734263E+03  0.19458734263E+03  0.00000000000E+00 0.  1.
         21   -1    0    0  501  502 -0.00000000000E+00 -0.00000000000E+00 -0.10165384574E+04  0.10165384574E+04  0.00000000000E+00 0.  1.
         25    1    1    2    0    0  0.42282087126E+02  0.17333535958E+03  0.16328363915E+02  0.21845946361E+03  0.12500000000E+03 0.  0.
         25    1    1    2    0    0 -0.14956990195E+03 -0.27477404914E+03 -0.56560815341E+03  0.65833845160E+03  0.12500000000E+03 0.  0.
         25    1    1    2    0    0  0.10728781483E+03  0.10143868956E+03 -0.27267132527E+03  0.33432788483E+03  0.12500000000E+03 0.  0.
</event>
<event>
 5    0  0.5583350E-005  0.4788965E+03  0.7546771E-02  0.1019439E+00
         21   -1    0    0  502  501  0.00000000000E+00  0.00000000000E+00  0.10377650308E+03  0.10377650308E+03  0.00000000000E+00 0. -1.
         21   -1    0    0  501  502 -0.00000000000E+00 -0.00000000000E+00 -0.22099596939E+04  0.22099596939E+04  0.00000000000E+00 0. -1.
         25    1    1    2    0    0 -0.41789732166E+02  0.23063376628E+03 -0.96696600258E+03  0.10027893926E+04  0.12500000000E+03 0.  0.
         25    1    1    2    0    0 -0.81934307237E+02 -0.35389538961E+03 -0.94992409981E+03  0.10246638341E+04  0.12500000000E+03 0.  0.
         25    1    1    2    0    0  0.12372403940E+03  0.12326162333E+03 -0.18929308839E+03  0.28628297020E+03  0.12500000000E+03 0.  0.
</event>
<event>
 5    0  0.5583350E-005  0.3227679E+03  0.7546771E-02  0.1074382E+00
         21   -1    0    0  502  501  0.00000000000E+00  0.00000000000E+00  0.10891304566E+04  0.10891304566E+04  0.00000000000E+00 0.  1.
         21   -1    0    0  501  502 -0.00000000000E+00 -0.00000000000E+00 -0.95653465590E+02  0.95653465590E+02  0.00000000000E+00 0.  1.
         25    1    1    2    0    0  0.35184726088E+02  0.26641363014E+02  0.15768976752E+03  0.20600677162E+03  0.12500000000E+03 0.  0.
         25    1    1    2    0    0  0.97391726749E+02  0.60908050091E+02  0.73221014041E+03  0.75163264214E+03  0.12500000000E+03 0.  0.
         25    1    1    2    0    0 -0.13257645284E+03 -0.87549413105E+02  0.10357708312E+03  0.22714450847E+03  0.12500000000E+03 0.  0.
</event>
<event>
 5    0  0.5583350E-005  0.2613478E+03  0.7546771E-02  0.1106336E+00
         21   -1    0    0  502  501  0.00000000000E+00  0.00000000000E+00  0.61339018017E+02  0.61339018017E+02  0.00000000000E+00 0. -1.
         21   -1    0    0  501  502 -0.00000000000E+00 -0.00000000000E+00 -0.11135269739E+04  0.11135269739E+04  0.00000000000E+00 0. -1.
         25    1    1    2    0    0  0.44354841347E+02 -0.11980624667E+03 -0.47868613614E+03  0.51096605135E+03  0.12500000000E+03 0.  0.
         25    1    1    2    0    0  0.49627093998E+02  0.99144196617E+02 -0.37353613757E+03  0.40920247586E+03  0.12500000000E+03 0.  0.
         25    1    1    2    0    0 -0.93981935345E+02  0.20662050057E+02 -0.19996568218E+03  0.25469746472E+03  0.12500000000E+03 0.  0.
</event>
<event>
 5    0  0.5583350E-005  0.4566713E+03  0.7546771E-02  0.1025751E+00
         21   -1    0    0  502  501  0.00000000000E+00  0.00000000000E+00  0.15813760022E+04  0.15813760022E+04  0.00000000000E+00 0.  1.
         21   -1    0    0  501  502 -0.00000000000E+00 -0.00000000000E+00 -0.13187795958E+03  0.13187795958E+03  0.00000000000E+00 0.  1.
         25    1    1    2    0    0 -0.28603735997E+03  0.75336324540E+02  0.83393679239E+03  0.89362660367E+03  0.12500000000E+03 0.  0.
         25    1    1    2    0    0  0.22558687104E+03 -0.16502134021E+03  0.57183474964E+03  0.64864586641E+03  0.12500000000E+03 0.  0.
         25    1    1    2    0    0  0.60450488934E+02  0.89685015665E+02  0.43726500591E+02  0.17098149169E+03  0.12500000000E+03 0.  0.
</event>
<event>
 5    0  0.5583350E-005  0.2730422E+03  0.7546771E-02  0.1099551E+00
         21   -1    0    0  502  501  0.00000000000E+00  0.00000000000E+00  0.10518462800E+03  0.10518462800E+03  0.00000000000E+00 0. -1.
         21   -1    0    0  501  502 -0.00000000000E+00 -0.00000000000E+00 -0.70877323458E+03  0.70877323458E+03  0.00000000000E+00 0. -1.
         25    1    1    2    0    0  0.75848789391E+02 -0.38090082170E+02 -0.47846987953E+03  0.50175922396E+03  0.12500000000E+03 0.  0.
         25    1    1    2    0    0 -0.37678824760E+01 -0.11689367079E+02 -0.92826271972E+02  0.15618116087E+03  0.12500000000E+03 0.  0.
         25    1    1    2    0    0 -0.72080906915E+02  0.49779449249E+02 -0.32292455074E+02  0.15601747775E+03  0.12500000000E+03 0.  0.
</event>
<event>
 5    0  0.5583350E-005  0.4783108E+03  0.7546771E-02  0.1019600E+00
         21   -1    0    0  502  501  0.00000000000E+00  0.00000000000E+00  0.11518818196E+03  0.11518818196E+03  0.00000000000E+00 0.  1.
         21   -1    0    0  501  502 -0.00000000000E+00 -0.00000000000E+00 -0.19861514668E+04  0.19861514668E+04  0.00000000000E+00 0.  1.
         25    1    1    2    0    0 -0.13503389797E+03  0.31306144216E+02 -0.31815591575E+03  0.36886639179E+03  0.12500000000E+03 0.  0.
         25    1    1    2    0    0  0.23535398781E+03  0.27092191132E+03 -0.51704630418E+03  0.64167909602E+03  0.12500000000E+03 0.  0.
         25    1    1    2    0    0 -0.10032008983E+03 -0.30222805553E+03 -0.10357610649E+04  0.10907941610E+04  0.12500000000E+03 0.  0.
</event>
<event>
 5    0  0.5583350E-005  0.3568258E+03  0.7546771E-02  0.1059848E+00
         21   -1    0    0  502  501  0.00000000000E+00  0.00000000000E+00  0.28715942894E+03  0.28715942894E+03  0.00000000000E+00 0. -1.
         21   -1    0    0  501  502 -0.00000000000E+00 -0.00000000000E+00 -0.44339365429E+03  0.44339365429E+03  0.00000000000E+00 0. -1.
         25    1    1    2    0    0  0.11978220931E+02 -0.20475629118E+03  0.20197957700E+02  0.24104268097E+03  0.12500000000E+03 0.  0.
         25    1    1    2    0    0 -0.10280779179E+03  0.23983340039E+03 -0.67128971861E+02  0.29701986610E+03  0.12500000000E+03 0.  0.
         25    1    1    2    0    0  0.90829570861E+02 -0.35077109205E+02 -0.10930321120E+03  0.19249053616E+03  0.12500000000E+03 0.  0.
</event>
<event>
 5    0  0.5583350E-005  0.6102536E+03  0.7546771E-02  0.9884359E-01
         21   -1    0    0  502  501  0.00000000000E+00  0.00000000000E+00  0.24459190993E+03  0.24459190993E+03  0.00000000000E+00 0.  1.
         21   -1    0    0  501  502 -0.00000000000E+00 -0.00000000000E+00 -0.15225746626E+04  0.15225746626E+04  0.00000000000E+00 0.  1.
         25    1    1    2    0    0  0.38459038061E+03 -0.13021324752E+03 -0.67271168869E+02  0.43013446833E+03  0.12500000000E+03 0.  0.
         25    1    1    2    0    0 -0.10201157391E+03 -0.69994445377E+02 -0.23035121249E+03  0.28981418994E+03  0.12500000000E+03 0.  0.
         25    1    1    2    0    0 -0.28257880670E+03  0.20020769290E+03 -0.98036037131E+03  0.10472179142E+04  0.12500000000E+03 0.  0.
</event>
<event>
 5    0  0.5583350E-005  0.3686576E+03  0.7546771E-02  0.1055207E+00
         21   -1    0    0  502  501  0.00000000000E+00  0.00000000000E+00  0.31108445068E+03  0.31108445068E+03  0.00000000000E+00 0.  1.
         21   -1    0    0  501  502 -0.00000000000E+00 -0.00000000000E+00 -0.43688588574E+03  0.43688588574E+03  0.00000000000E+00 0.  1.
         25    1    1    2    0    0  0.17462065468E+03  0.14089332650E+03 -0.15840386920E+03  0.30176164148E+03  0.12500000000E+03 0.  0.
         25    1    1    2    0    0 -0.59179851559E+02 -0.11761138694E+03  0.15222035156E+03  0.23691924488E+03  0.12500000000E+03 0.  0.
         25    1    1    2    0    0 -0.11544080312E+03 -0.23281939567E+02 -0.11961791742E+03  0.20928945005E+03  0.12500000000E+03 0.  0.
</event>
<event>
 5    0  0.5583350E-005  0.6654393E+03  0.7546771E-02  0.9778232E-01
         21   -1    0    0  502  501  0.00000000000E+00  0.00000000000E+00  0.31661000769E+03  0.31661000769E+03  0.00000000000E+00 0.  1.
         21   -1    0    0  501  502 -0.00000000000E+00 -0.00000000000E+00 -0.13985960472E+04  0.13985960472E+04  0.00000000000E+00 0. -1.
         25    1    1    2    0    0 -0.44363105225E+03  0.12864116415E+03 -0.27519278858E+03  0.55200827034E+03  0.12500000000E+03 0.  0.
         25    1    1    2    0    0  0.41992444105E+03 -0.34726815920E+03 -0.67978542933E+03  0.88015052151E+03  0.12500000000E+03 0.  0.
         25    1    1    2    0    0  0.23706611206E+02  0.21862699505E+03 -0.12700782164E+03  0.28304726308E+03  0.12500000000E+03 0.  0.
</event>
<event>
 5    0  0.5583350E-005  0.2433041E+03  0.7546771E-02  0.1117611E+00
         21   -1    0    0  502  501  0.00000000000E+00  0.00000000000E+00  0.10530333612E+03  0.10530333612E+03  0.00000000000E+00 0. -1.
         21   -1    0    0  501  502 -0.00000000000E+00 -0.00000000000E+00 -0.56215575490E+03  0.56215575490E+03  0.00000000000E+00 0. -1.
         25    1    1    2    0    0 -0.36205545947E+02  0.46331524545E+02 -0.67919742839E+01  0.13830611931E+03  0.12500000000E+03 0.  0.
         25    1    1    2    0    0  0.47700755834E+02 -0.69312066839E+02 -0.24462431507E+03  0.28730746639E+03  0.12500000000E+03 0.  0.
         25    1    1    2    0    0 -0.11495209887E+02  0.22980542294E+02 -0.20543612942E+03  0.24184550532E+03  0.12500000000E+03 0.  0.
</event>
<event>
 5    0  0.5583350E-005  0.6390061E+03  0.7546771E-02  0.9827630E-01
         21   -1    0    0  502  501  0.00000000000E+00  0.00000000000E+00  0.11357496623E+04  0.11357496623E+04  0.00000000000E+00 0. -1.
         21   -1    0    0  501  502 -0.00000000000E+00 -0.00000000000E+00 -0.35952363610E+03  0.35952363610E+03  0.00000000000E+00 0. -1.
         25    1    1    2    0    0  0.74046486585E+02 -0.45224082255E+03 -0.61903324498E+02  0.47902157085E+03  0.12500000000E+03 0.  0.
         25    1    1    2    0    0 -0.71468452549E+02  0.72027983591E+02  0.34819507736E+03  0.38361514833E+03  0.12500000000E+03 0.  0.
         25    1    1    2    0    0 -0.25780340360E+01  0.38021283896E+03  0.48993427329E+03  0.63263657918E+03  0.12500000000E+03 0.  0.
</event>
<event>
 5    0  0.5583350E-005  0.2413944E+03  0.7546771E-02  0.1118867E+00
         21   -1    0    0  502  501  0.00000000000E+00  0.00000000000E+00  0.21328892532E+02  0.21328892532E+02  0.00000000000E+00 0.  1.
         21   -1    0    0  501  502 -0.00000000000E+00 -0.00000000000E+00 -0.27320334107E+04  0.27320334107E+04  0.00000000000E+00 0.  1.
         25    1    1    2    0    0 -0.12193757682E+03  0.49465777730E+01 -0.77086481839E+03  0.79041179742E+03  0.12500000000E+03 0.  0.
         25    1    1    2    0    0  0.70477913948E+02 -0.10821978233E+02 -0.63438457661E+03  0.65050214650E+03  0.12500000000E+03 0.  0.
         25    1    1    2    0    0  0.51459662875E+02  0.58754004605E+01 -0.13054551231E+04  0.13124483593E+04  0.12500000000E+03 0.  0.
</event>
<event>
 5    0  0.5583350E-005  0.3173731E+03  0.7546771E-02  0.1076865E+00
         21   -1    0    0  502  501  0.00000000000E+00  0.00000000000E+00  0.67742903785E+03  0.67742903785E+03  0.00000000000E+00 0.  1.
         21   -1    0    0  501  502 -0.00000000000E+00 -0.00000000000E+00 -0.14868812901E+03  0.14868812901E+03  0.00000000000E+00 0.  1.
         25    1    1    2    0    0  0.88815334167E+02 -0.58864709057E+02  0.33124177065E+02  0.16755723996E+03  0.12500000000E+03 0.  0.
         25    1    1    2    0    0 -0.17721476958E+03  0.11770003397E+03  0.18892941942E+03  0.31076952566E+03  0.12500000000E+03 0.  0.
         25    1    1    2    0    0  0.88399435411E+02 -0.58835324918E+02  0.30668731235E+03  0.34779040124E+03  0.12500000000E+03 0.  0.
</event>
<event>
 5    0  0.5583350E-005  0.2580899E+03  0.7546771E-02  0.1108296E+00
         21   -1    0    0  502  501  0.00000000000E+00  0.00000000000E+00  0.41179400694E+02  0.41179400694E+02  0.00000000000E+00 0.  1.
         21   -1    0    0  501  502 -0.00000000000E+00 -0.00000000000E+00 -0.16175665470E+04  0.16175665470E+04  0.00000000000E+00 0.  1.
         25    1    1    2    0    0 -0.39363036763E+02 -0.11820967396E+03 -0.54991146110E+03  0.57753838896E+03  0.12500000000E+03 0.  0.
         25    1    1    2    0    0  0.58212169264E+02 -0.33737100766E+02 -0.42206459714E+03  0.44529807183E+03  0.12500000000E+03 0.  0.
         25    1    1    2    0    0 -0.18849132501E+02  0.15194677472E+03 -0.60441108804E+03  0.63590948687E+03  0.12500000000E+03 0.  0.
</event>
<event>
 5    0  0.5583350E-005  0.2771799E+03  0.7546771E-02  0.1097239E+00
         21   -1    0    0  502  501  0.00000000000E+00  0.00000000000E+00  0.52792802923E+02  0.52792802923E+02  0.00000000000E+00 0. -1.
         21   -1    0    0  501  502 -0.00000000000E+00 -0.00000000000E+00 -0.14552869932E+04  0.14552869932E+04  0.00000000000E+00 0. -1.
         25    1    1    2    0    0  0.82921291867E+02 -0.28188945193E+02 -0.21782337846E+03  0.26597477602E+03  0.12500000000E+03 0.  0.
         25    1    1    2    0    0  0.46676419549E+02 -0.82695890884E+02 -0.40784966202E+03  0.43701675634E+03  0.12500000000E+03 0.  0.
         25    1    1    2    0    0 -0.12959771142E+03  0.11088483608E+03 -0.77682114975E+03  0.80508826372E+03  0.12500000000E+03 0.  0.
</event>
<event>
 5    0  0.5583350E-005  0.3260341E+03  0.7546771E-02  0.1072905E+00
         21   -1    0    0  502  501  0.00000000000E+00  0.00000000000E+00  0.19713626612E+04  0.19713626612E+04  0.00000000000E+00 0.  1.
         21   -1    0    0  501  502 -0.00000000000E+00 -0.00000000000E+00 -0.53921204698E+02  0.53921204698E+02  0.00000000000E+00 0.  1.
         25    1    1    2    0    0  0.35190951876E+02 -0.18590187559E+03  0.80177288776E+03  0.83322426392E+03  0.12500000000E+03 0.  0.
         25    1    1    2    0    0  0.77487015039E+02  0.19502444662E+03  0.76388408564E+03  0.80198670100E+03  0.12500000000E+03 0.  0.
         25    1    1    2    0    0 -0.11267796692E+03 -0.91225710280E+01  0.35178448311E+03  0.39007290099E+03  0.12500000000E+03 0.  0.
</event>
<event>
 5    0  0.5583350E-005  0.2759870E+03  0.7546771E-02  0.1097901E+00
         21   -1    0    0  502  501  0.00000000000E+00  0.00000000000E+00  0.26785727655E+03  0.26785727655E+03  0.00000000000E+00 0. -1.
         21   -1    0    0  501  502 -0.00000000000E+00 -0.00000000000E+00 -0.28436346868E+03  0.28436346868E+03  0.00000000000E+00 0. -1.
         25    1    1    2    0    0  0.39478640412E+02  0.29439059376E+02  0.10826364962E+03  0.17254344118E+03  0.12500000000E+03 0.  0.
         25    1    1    2    0    0 -0.50251981625E+02  0.10611649134E+03 -0.81960915892E+02  0.19007515125E+03  0.12500000000E+03 0.  0.
         25    1    1    2    0    0  0.10773341212E+02 -0.13555555071E+03 -0.42808925859E+02  0.18960215279E+03  0.12500000000E+03 0.  0.
</event>
<event>
 5    0  0.5583350E-005  0.3388802E+03  0.7546771E-02  0.1067274E+00
         21   -1    0    0  502  501  0.00000000000E+00  0.00000000000E+00  0.29683570522E+03  0.29683570522E+03  0.00000000000E+00 0. -1.
         21   -1    0    0  501  502 -0.00000000000E+00 -0.00000000000E+00 -0.38687991754E+03  0.38687991754E+03  0.00000000000E+00 0. -1.
         25    1    1    2    0    0 -0.10028396048E+03  0.37451658759E+02 -0.88724283047E+02  0.18696656887E+03  0.12500000000E+03 0.  0.
         25    1    1    2    0    0 -0.36412573849E+02 -0.15931853366E+03 -0.12708915752E+03  0.24183656601E+03  0.12500000000E+03 0.  0.
         25    1    1    2    0    0  0.13669653433E+03  0.12186687490E+03  0.12576922825E+03  0.25491248787E+03  0.12500000000E+03 0.  0.
</event>
<event>
 5    0  0.5583350E-005  0.2935184E+03  0.7546771E-02  0.1088526E+00
         21   -1    0    0  502  501  0.00000000000E+00  0.00000000000E+00  0.15302592826E+03  0.15302592826E+03  0.00000000000E+00 0. -1.
         21   -1    0    0  501  502 -0.00000000000E+00 -0.00000000000E+00 -0.56299628176E+03  0.56299628176E+03  0.00000000000E+00 0.  1.
         25    1    1    2    0    0 -0.55977455273E+02  0.16710607215E+03 -0.11339940062E+03  0.24401298922E+03  0.12500000000E+03 0.  0.
         25    1    1    2    0    0 -0.90666114820E+01  0.60732110250E+01 -0.39555030487E+02  0.13156248619E+03  0.12500000000E+03 0.  0.
         25    1    1    2    0    0  0.65044066755E+02 -0.17317928317E+03 -0.25701592239E+03  0.34044673460E+03  0.12500000000E+03 0.  0.
</event>
<event>
 5    0  0.5583350E-005  0.4208837E+03  0.7546771E-02  0.1036779E+00
         21   -1    0    0  502  501  0.00000000000E+00  0.00000000000E+00  0.27453967323E+03  0.27453967323E+03  0.00000000000E+00 0. -1.
         21   -1    0    0  501  502 -0.00000000000E+00 -0.00000000000E+00 -0.64523668081E+03  0.64523668081E+03  0.00000000000E+00 0. -1.
         25    1    1    2    0    0 -0.88697772480E+02 -0.25436986742E+03  0.57024926328E+02  0.30240397900E+03  0.12500000000E+03 0.  0.
         25    1    1    2    0    0  0.88037074219E+02  0.27837148910E+03 -0.29463693714E+03  0.43321719392E+03  0.12500000000E+03 0.  0.
         25    1    1    2    0    0  0.66069826074E+00 -0.24001621676E+02 -0.13308499677E+03  0.18415518111E+03  0.12500000000E+03 0.  0.
</event>
<event>
 5    0  0.9200048E-005  0.4368757E+03  0.7546771E-02  0.1031710E+00
         21   -1    0    0  502  501  0.00000000000E+00  0.00000000000E+00  0.25787190717E+03  0.25787190717E+03  0.00000000000E+00 0.  1.
         21   -1    0    0  501  502 -0.00000000000E+00 -0.00000000000E+00 -0.74013638076E+03  0.74013638076E+03  0.00000000000E+00 0.  1.
         25    1    1    2    0    0  0.72386472635E+02  0.26257116991E+03 -0.23838227577E+03  0.38292888385E+03  0.12500000000E+03 0.  0.
         25    1    1    2    0    0 -0.12816757026E+02 -0.10102558772E+03  0.11487822878E+03  0.19797082129E+03  0.12500000000E+03 0.  0.
         25    1    1    2    0    0 -0.59569715609E+02 -0.16154558218E+03 -0.35876042660E+03  0.41710858279E+03  0.12500000000E+03 0.  0.
</event>
<event>
 5    0  0.5583350E-005  0.2696107E+03  0.7546771E-02  0.1101503E+00
         21   -1    0    0  502  501  0.00000000000E+00  0.00000000000E+00  0.78534704308E+03  0.78534704308E+03  0.00000000000E+00 0.  1.
         21   -1    0    0  501  502 -0.00000000000E+00 -0.00000000000E+00 -0.92557738278E+02  0.92557738278E+02  0.00000000000E+00 0.  1.
         25    1    1    2    0    0  0.72033112798E+01  0.64209408334E+02  0.55908269832E+03  0.57651816916E+03  0.12500000000E+03 0.  0.
         25    1    1    2    0    0  0.45165163798E+01 -0.48939665388E+02  0.10794669044E+03  0.17231650456E+03  0.12500000000E+03 0.  0.
         25    1    1    2    0    0 -0.11719827660E+02 -0.15269742946E+02  0.25759916045E+02  0.12907010763E+03  0.12500000000E+03 0.  0.
</event>
<event>
 5    0  0.5583350E-005  0.4354026E+03  0.7546771E-02  0.1032167E+00
         21   -1    0    0  502  501  0.00000000000E+00  0.00000000000E+00  0.24524252446E+03  0.24524252446E+03  0.00000000000E+00 0.  1.
         21   -1    0    0  501  502 -0.00000000000E+00 -0.00000000000E+00 -0.77301216467E+03  0.77301216467E+03  0.00000000000E+00 0.  1.
         25    1    1    2    0    0  0.30889469057E+03 -0.60381814122E+01 -0.15210050038E+03  0.36634949394E+03  0.12500000000E+03 0.  0.
         25    1    1    2    0    0 -0.19175938794E+03 -0.40791753221E+02  0.42280232231E+01  0.23254785782E+03  0.12500000000E+03 0.  0.
         25    1    1    2    0    0 -0.11713530263E+03  0.46829934633E+02 -0.37989716306E+03  0.41935733736E+03  0.12500000000E+03 0.  0.
</event>
<event>
 5    0  0.5583350E-005  0.3007323E+03  0.7546771E-02  0.1084875E+00
         21   -1    0    0  502  501  0.00000000000E+00  0.00000000000E+00  0.96382810014E+02  0.96382810014E+02  0.00000000000E+00 0.  1.
         21   -1    0    0  501  502 -0.00000000000E+00 -0.00000000000E+00 -0.93834044981E+03  0.93834044981E+03  0.00000000000E+00 0.  1.
         25    1    1    2    0    0  0.20019699157E+03  0.59315979589E+02 -0.43732090126E+03  0.50047156917E+03  0.12500000000E+03 0.  0.
         25    1    1    2    0    0 -0.70420066967E+02  0.31305458196E+02 -0.18163330457E+03  0.23356942196E+03  0.12500000000E+03 0.  0.
         25    1    1    2    0    0 -0.12977692461E+03 -0.90621437785E+02 -0.22300343396E+03  0.30068226869E+03  0.12500000000E+03 0.  0.
</event>
<event>
 5    0  0.5583350E-005  0.3959062E+03  0.7546771E-02  0.1045206E+00
         21   -1    0    0  502  501  0.00000000000E+00  0.00000000000E+00  0.19146738188E+03  0.19146738188E+03  0.00000000000E+00 0. -1.
         21   -1    0    0  501  502 -0.00000000000E+00 -0.00000000000E+00 -0.81863421589E+03  0.81863421589E+03  0.00000000000E+00 0. -1.
         25    1    1    2    0    0 -0.15420157679E+03  0.21557866385E+03 -0.31501875730E+03  0.43024888616E+03  0.12500000000E+03 0.  0.
         25    1    1    2    0    0  0.19003587491E+03 -0.12253244845E+03 -0.32983712668E+03  0.41898134184E+03  0.12500000000E+03 0.  0.
         25    1    1    2    0    0 -0.35834298127E+02 -0.93046215402E+02  0.17689049961E+02  0.16087136977E+03  0.12500000000E+03 0.  0.
</event>
<event>
 5    0  0.5583350E-005  0.3315041E+03  0.7546771E-02  0.1070473E+00
         21   -1    0    0  502  501  0.00000000000E+00  0.00000000000E+00  0.90767432888E+02  0.90767432888E+02  0.00000000000E+00 0.  1.
         21   -1    0    0  501  502 -0.00000000000E+00 -0.00000000000E+00 -0.12107309822E+04  0.12107309822E+04  0.00000000000E+00 0.  1.
         25    1    1    2    0    0  0.12188578557E+03  0.13489835533E+03 -0.37252595432E+03  0.43295992614E+03  0.12500000000E+03 0.  0.
         25    1    1    2    0    0 -0.17688305975E+03 -0.19299696073E+03 -0.54662363579E+03  0.61883587718E+03  0.12500000000E+03 0.  0.
         25    1    1    2    0    0  0.54997274183E+02  0.58098605397E+02 -0.20081395920E+03  0.24970261177E+03  0.12500000000E+03 0.  0.
</event>
<event>
 5    0  0.5583350E-005  0.2256157E+03  0.7546771E-02  0.1129764E+00
         21   -1    0    0  502  501  0.00000000000E+00  0.00000000000E+00  0.18567122565E+03  0.18567122565E+03  0.00000000000E+00 0. -1.
         21   -1    0    0  501  502 -0.00000000000E+00 -0.00000000000E+00 -0.27415363114E+03  0.27415363114E+03  0.00000000000E+00 0. -1.
         25    1    1    2    0    0  0.79279918234E+02 -0.56821224730E+02  0.25161149243E+01  0.15857265795E+03  0.12500000000E+03 0.  0.
         25    1    1    2    0    0 -0.79032325223E+01 -0.27358723378E+01 -0.71532236909E+02  0.14426297862E+03  0.12500000000E+03 0.  0.
         25    1    1    2    0    0 -0.71376685712E+02  0.59557097068E+02 -0.19466283500E+02  0.15698922023E+03  0.12500000000E+03 0.  0.
</event>
<event>
 5    0  0.5583350E-005  0.3779884E+03  0.7546771E-02  0.1051680E+00
         21   -1    0    0  502  501  0.00000000000E+00  0.00000000000E+00  0.62883523943E+03  0.62883523943E+03  0.00000000000E+00 0.  1.
         21   -1    0    0  501  502 -0.00000000000E+00 -0.00000000000E+00 -0.22720617628E+03  0.22720617628E+03  0.00000000000E+00 0.  1.
         25    1    1    2    0    0  0.27610542064E+03 -0.70703993261E+02  0.21051033973E+03  0.37572977139E+03  0.12500000000E+03 0.  0.
         25    1    1    2    0    0 -0.17512513154E+03  0.14729171846E+03  0.13527017590E+03  0.29374594893E+03  0.12500000000E+03 0.  0.
         25    1    1    2    0    0 -0.10098028910E+03 -0.76587725203E+02  0.55848547520E+02  0.18656569540E+03  0.12500000000E+03 0.  0.
</event>
<event>
 5    0  0.5583350E-005  0.2684146E+03  0.7546771E-02  0.1102190E+00
         21   -1    0    0  502  501  0.00000000000E+00  0.00000000000E+00  0.60143825911E+02  0.60143825911E+02  0.00000000000E+00 0. -1.
         21   -1    0    0  501  502 -0.00000000000E+00 -0.00000000000E+00 -0.11979016046E+04  0.11979016046E+04  0.00000000000E+00 0. -1.
         25    1    1    2    0    0  0.41642998260E+02  0.29483070462E+02 -0.21875166344E+03  0.25706162881E+03  0.12500000000E+03 0.  0.
         25    1    1    2    0    0 -0.84358949373E+02 -0.12759099687E+03 -0.69823112570E+03  0.72563599671E+03  0.12500000000E+03 0.  0.
         25    1    1    2    0    0  0.42715951114E+02  0.98107926409E+02 -0.22077498955E+03  0.27534780499E+03  0.12500000000E+03 0.  0.
</event>
<event>
 5    0  0.5583350E-005  0.2154603E+03  0.7546771E-02  0.1137314E+00
         21   -1    0    0  502  501  0.00000000000E+00  0.00000000000E+00  0.77674241970E+02  0.77674241970E+02  0.00000000000E+00 0.  1.
         21   -1    0    0  501  502 -0.00000000000E+00 -0.00000000000E+00 -0.59766430582E+03  0.59766430582E+03  0.00000000000E+00 0.  1.
         25    1    1    2    0    0 -0.24999280232E+02 -0.45387954040E+02 -0.18834404234E+03  0.23191271779E+03  0.12500000000E+03 0.  0.
         25    1    1    2    0    0 -0.40258393192E+02  0.18671470308E+01 -0.22789844802E+03  0.26303407967E+03  0.12500000000E+03 0.  0.
         25    1    1    2    0    0  0.65257673423E+02  0.43520807009E+02 -0.10374757349E+03  0.18039175033E+03  0.12500000000E+03 0.  0.
</event>
<event>
 5    0  0.5583350E-005  0.3303684E+03  0.7546771E-02  0.1070974E+00
         21   -1    0    0  502  501  0.00000000000E+00  0.00000000000E+00  0.11729937367E+03  0.11729937367E+03  0.00000000000E+00 0.  1.
         21   -1    0    0  501  502 -0.00000000000E+00 -0.00000000000E+00 -0.93046744733E+03  0.93046744733E+03  0.00000000000E+00 0.  1.
         25    1    1    2    0    0  0.90145546270E+02 -0.10019808045E+03 -0.25281731882E+03  0.31258194371E+03  0.12500000000E+03 0.  0.
         25    1    1    2    0    0 -0.30971369182E+02  0.10135675791E+03 -0.57331196480E+03  0.59627512699E+03  0.12500000000E+03 0.  0.
         25    1    1    2    0    0 -0.59174177088E+02 -0.11586774689E+01  0.12961209960E+02  0.13890975031E+03  0.12500000000E+03 0.  0.
</event>
<event>
 5    0  0.5583350E-005  0.2519400E+03  0.7546771E-02  0.1112085E+00
         21   -1    0    0  502  501  0.00000000000E+00  0.00000000000E+00  0.52953022419E+03  0.52953022419E+03  0.00000000000E+00 0.  1.
         21   -1    0    0  501  502 -0.00000000000E+00 -0.00000000000E+00 -0.11986808115E+03  0.11986808115E+03  0.00000000000E+00 0.  1.
         25    1    1    2    0    0 -0.97458660424E+01 -0.13896753192E+03  0.17124689573E+03  0.25368771380E+03  0.12500000000E+03 0.  0.
         25    1    1    2    0    0 -0.32063003294E+02  0.19349991011E+02  0.14362739946E+03  0.19405228215E+03  0.12500000000E+03 0.  0.
         25    1    1    2    0    0  0.41808869336E+02  0.11961754091E+03  0.94787847847E+02  0.20165830940E+03  0.12500000000E+03 0.  0.
</event>
<event>
 5    0  0.5583350E-005  0.2750593E+03  0.7546771E-02  0.1098418E+00
         21   -1    0    0  502  501  0.00000000000E+00  0.00000000000E+00  0.11526553048E+03  0.11526553048E+03  0.00000000000E+00 0. -1.
         21   -1    0    0  501  502 -0.00000000000E+00 -0.00000000000E+00 -0.65637687299E+03  0.65637687299E+03  0.00000000000E+00 0. -1.
         25    1    1    2    0    0 -0.78322161905E+02  0.10205958185E+03 -0.43924602200E+02  0.18467509299E+03  0.12500000000E+03 0.  0.
         25    1    1    2    0    0 -0.75572786572E+01 -0.28120874758E+02 -0.12904737427E+03  0.18200582645E+03  0.12500000000E+03 0.  0.
         25    1    1    2    0    0  0.85879440563E+02 -0.73938707091E+02 -0.36813936604E+03  0.40496148403E+03  0.12500000000E+03 0.  0.
</event>
<event>
 5    0  0.5583350E-005  0.3346143E+03  0.7546771E-02  0.1069113E+00
         21   -1    0    0  502  501  0.00000000000E+00  0.00000000000E+00  0.11471121469E+04  0.11471121469E+04  0.00000000000E+00 0. -1.
         21   -1    0    0  501  502 -0.00000000000E+00 -0.00000000000E+00 -0.97607500871E+02  0.97607500871E+02  0.00000000000E+00 0. -1.
         25    1    1    2    0    0  0.80087761149E+02 -0.14653605679E+03  0.31562658553E+03  0.37832790925E+03  0.12500000000E+03 0.  0.
         25    1    1    2    0    0  0.10686744995E+03  0.12213409028E+03  0.50323311943E+03  0.54332859335E+03  0.12500000000E+03 0.  0.
         25    1    1    2    0    0 -0.18695521110E+03  0.24401966509E+02  0.23064494109E+03  0.32306314519E+03  0.12500000000E+03 0.  0.
</event>
<event>
 5    0  0.5583350E-005  0.3118197E+03  0.7546771E-02  0.1079477E+00
         21   -1    0    0  502  501  0.00000000000E+00  0.00000000000E+00  0.51166244051E+03  0.51166244051E+03  0.00000000000E+00 0. -1.
         21   -1    0    0  501  502 -0.00000000000E+00 -0.00000000000E+00 -0.19003059156E+03  0.19003059156E+03  0.00000000000E+00 0. -1.
         25    1    1    2    0    0  0.15703624413E+03 -0.11656334311E+03  0.54604624628E+02  0.23844089406E+03  0.12500000000E+03 0.  0.
         25    1    1    2    0    0 -0.42028627471E+02  0.14885933785E+03  0.18603109080E+03  0.27231980232E+03  0.12500000000E+03 0.  0.
         25    1    1    2    0    0 -0.11500761666E+03 -0.32295994733E+02  0.80996133526E+02  0.19093233569E+03  0.12500000000E+03 0.  0.
</event>
<event>
 5    0  0.6953202E-005  0.4479126E+03  0.7546771E-02  0.1028346E+00
         21   -1    0    0  502  501  0.00000000000E+00  0.00000000000E+00  0.11464680533E+03  0.11464680533E+03  0.00000000000E+00 0. -1.
         21   -1    0    0  501  502 -0.00000000000E+00 -0.00000000000E+00 -0.17499455877E+04  0.17499455877E+04  0.00000000000E+00 0. -1.
         25    1    1    2    0    0 -0.24371547262E+03  0.14354991710E+02 -0.63106194387E+03  0.68808972844E+03  0.12500000000E+03 0.  0.
         25    1    1    2    0    0  0.91468984230E+02 -0.21561512662E+02 -0.96236092488E+03  0.97498462739E+03  0.12500000000E+03 0.  0.
         25    1    1    2    0    0  0.15224648839E+03  0.72065209525E+01 -0.41875913614E+02  0.20151803719E+03  0.12500000000E+03 0.  0.
</event>
<event>
 5    0  0.5583350E-005  0.3224954E+03  0.7546771E-02  0.1074507E+00
         21   -1    0    0  502  501  0.00000000000E+00  0.00000000000E+00  0.27262955005E+03  0.27262955005E+03  0.00000000000E+00 0.  1.
         21   -1    0    0  501  502 -0.00000000000E+00 -0.00000000000E+00 -0.38148213352E+03  0.38148213352E+03  0.00000000000E+00 0.  1.
         25    1    1    2    0    0 -0.45045275039E+02 -0.18715937913E+03 -0.43416408553E+02  0.23359729136E+03  0.12500000000E+03 0.  0.
         25    1    1    2    0    0  0.49898771698E+02  0.20462897396E+03 -0.13147808961E+03  0.27798271969E+03  0.12500000000E+03 0.  0.
         25    1    1    2    0    0 -0.48534966591E+01 -0.17469594828E+02  0.66041914692E+02  0.14253167251E+03  0.12500000000E+03 0.  0.
</event>
<event>
 5    0  0.5583350E-005  0.2933301E+03  0.7546771E-02  0.1088623E+00
         21   -1    0    0  502  501  0.00000000000E+00  0.00000000000E+00  0.27014854756E+03  0.27014854756E+03  0.00000000000E+00 0.  1.
         21   -1    0    0  501  502 -0.00000000000E+00 -0.00000000000E+00 -0.31850078959E+03  0.31850078959E+03  0.00000000000E+00 0.  1.
         25    1    1    2    0    0  0.96203846611E+02 -0.63991411577E+02 -0.61404635819E+02  0.18095748163E+03  0.12500000000E+03 0.  0.
         25    1    1    2    0    0  0.47088204545E+02 -0.91348479468E+02  0.10087828252E+02  0.16213762052E+03  0.12500000000E+03 0.  0.
         25    1    1    2    0    0 -0.14329205116E+03  0.15533989105E+03  0.29645655338E+01  0.24555423499E+03  0.12500000000E+03 0.  0.
</event>
<event>
 5    0  0.5583350E-005  0.2680546E+03  0.7546771E-02  0.1102398E+00
         21   -1    0    0  502  501  0.00000000000E+00  0.00000000000E+00  0.33469562811E+03  0.33469562811E+03  0.00000000000E+00 0. -1.
         21   -1    0    0  501  502 -0.00000000000E+00 -0.00000000000E+00 -0.21468243539E+03  0.21468243539E+03  0.00000000000E+00 0. -1.
         25    1    1    2    0    0  0.78907600958E+02 -0.63914900952E+01 -0.82372124714E+02  0.16934410992E+03  0.12500000000E+03 0.  0.
         25    1    1    2    0    0 -0.11410558104E+03  0.27864265921E+02  0.17606154961E+03  0.24580311265E+03  0.12500000000E+03 0.  0.
         25    1    1    2    0    0  0.35197980083E+02 -0.21472775826E+02  0.26323767820E+02  0.13423084093E+03  0.12500000000E+03 0.  0.
</event>
<event>
 5    0  0.5583350E-005  0.4325797E+03  0.7546771E-02  0.1033048E+00
         21   -1    0    0  502  501  0.00000000000E+00  0.00000000000E+00  0.17276212588E+03  0.17276212588E+03  0.00000000000E+00 0. -1.
         21   -1    0    0  501  502 -0.00000000000E+00 -0.00000000000E+00 -0.10831379096E+04  0.10831379096E+04  0.00000000000E+00 0. -1.
         25    1    1    2    0    0 -0.15981785448E+03  0.53083424365E+02 -0.33579784645E+03  0.39591007846E+03  0.12500000000E+03 0.  0.
         25    1    1    2    0    0  0.36588061314E+03  0.20576839011E+02 -0.32870402887E+03  0.50790094307E+03  0.12500000000E+03 0.  0.
         25    1    1    2    0    0 -0.20606275866E+03 -0.73660263376E+02 -0.24587390845E+03  0.35208901398E+03  0.12500000000E+03 0.  0.
</event>
<event>
 5    0  0.5583350E-005  0.3151605E+03  0.7546771E-02  0.1077898E+00
         21   -1    0    0  502  501  0.00000000000E+00  0.00000000000E+00  0.91402111704E+02  0.91402111704E+02  0.00000000000E+00 0. -1.
         21   -1    0    0  501  502 -0.00000000000E+00 -0.00000000000E+00 -0.10866938992E+04  0.10866938992E+04  0.00000000000E+00 0. -1.
         25    1    1    2    0    0  0.44523340919E+02  0.14850443903E+03 -0.48141590775E+03  0.52098193110E+03  0.12500000000E+03 0.  0.
         25    1    1    2    0    0  0.87328487594E+02 -0.16476370813E+03 -0.24611397297E+03  0.33312224776E+03  0.12500000000E+03 0.  0.
         25    1    1    2    0    0 -0.13185182851E+03  0.16259269100E+02 -0.26776190679E+03  0.32399183206E+03  0.12500000000E+03 0.  0.
</event>
<event>
 5    0  0.5583350E-005  0.3208397E+03  0.7546771E-02  0.1075263E+00
         21   -1    0    0  502  501  0.00000000000E+00  0.00000000000E+00  0.52980773386E+03  0.52980773386E+03  0.00000000000E+00 0.  1.
         21   -1    0    0  501  502 -0.00000000000E+00 -0.00000000000E+00 -0.19429335624E+03  0.19429335624E+03  0.00000000000E+00 0.  1.
         25    1    1    2    0    0  0.15729484617E+03  0.42373695272E+02  0.74978397795E+02  0.21859542269E+03  0.12500000000E+03 0.  0.
         25    1    1    2    0    0  0.35284058999E+02 -0.85105643278E+01 -0.30083643947E+02  0.13359423699E+03  0.12500000000E+03 0.  0.
         25    1    1    2    0    0 -0.19257890517E+03 -0.33863130944E+02  0.29061962377E+03  0.37191143042E+03  0.12500000000E+03 0.  0.
</event>
<event>
 5    0  0.7600809E-005  0.4202271E+03  0.7546771E-02  0.1036992E+00
         21   -1    0    0  502  501  0.00000000000E+00  0.00000000000E+00  0.26422761505E+03  0.26422761505E+03  0.00000000000E+00 0. -1.
         21   -1    0    0  501  502 -0.00000000000E+00 -0.00000000000E+00 -0.66832840276E+03  0.66832840276E+03  0.00000000000E+00 0. -1.
         25    1    1    2    0    0  0.75678787704E+02 -0.15865545918E+03  0.10218460547E+03  0.23867452154E+03  0.12500000000E+03 0.  0.
         25    1    1    2    0    0 -0.11913080825E+03  0.23979886297E+03 -0.22065719160E+03  0.36879566206E+03  0.12500000000E+03 0.  0.
         25    1    1    2    0    0  0.43452020542E+02 -0.81143403785E+02 -0.28562820158E+03  0.32508583421E+03  0.12500000000E+03 0.  0.
</event>
<event>
 5    0  0.5583350E-005  0.4330783E+03  0.7546771E-02  0.1032892E+00
         21   -1    0    0  502  501  0.00000000000E+00  0.00000000000E+00  0.36051739347E+03  0.36051739347E+03  0.00000000000E+00 0. -1.
         21   -1    0    0  501  502 -0.00000000000E+00 -0.00000000000E+00 -0.52024333584E+03  0.52024333584E+03  0.00000000000E+00 0. -1.
         25    1    1    2    0    0 -0.16780363693E+03 -0.12672668581E+03  0.18759160093E+03  0.30827475116E+03  0.12500000000E+03 0.  0.
         25    1    1    2    0    0  0.20987453415E+03  0.14604064990E+03 -0.11978993522E+03  0.30878766181E+03  0.12500000000E+03 0.  0.
         25    1    1    2    0    0 -0.42070897217E+02 -0.19313964086E+02 -0.22752760808E+03  0.26369831634E+03  0.12500000000E+03 0.  0.
</event>
<event>
 5    0  0.5583350E-005  0.5388515E+03  0.7546771E-02  0.1004108E+00
         21   -1    0    0  502  501  0.00000000000E+00  0.00000000000E+00  0.11864150183E+03  0.11864150183E+03  0.00000000000E+00 0.  1.
         21   -1    0    0  501  502 -0.00000000000E+00 -0.00000000000E+00 -0.24473806741E+04  0.24473806741E+04  0.00000000000E+00 0.  1.
         25    1    1    2    0    0  0.14855410748E+02  0.19486713224E+03 -0.40705517933E+03  0.46852193276E+03  0.12500000000E+03 0.  0.
         25    1    1    2    0    0 -0.19321567930E+03 -0.24287604703E+03 -0.18232829262E+04  0.18537277853E+04  0.12500000000E+03 0.  0.
         25    1    1    2    0    0  0.17836026855E+03  0.48008914791E+02 -0.98401066747E+02  0.24377245791E+03  0.12500000000E+03 0.  0.
</event>
<event>
 5    0  0.5583350E-005  0.2298608E+03  0.7546771E-02  0.1126738E+00
         21   -1    0    0  502  501  0.00000000000E+00  0.00000000000E+00  0.50188028998E+03  0.50188028998E+03  0.00000000000E+00 0. -1.
         21   -1    0    0  501  502 -0.00000000000E+00 -0.00000000000E+00 -0.10527610201E+03  0.10527610201E+03  0.00000000000E+00 0. -1.
         25    1    1    2    0    0 -0.18446763784E+02  0.39640812415E+01  0.10135412290E+03  0.16202979745E+03  0.12500000000E+03 0.  0.
         25    1    1    2    0    0  0.45560150636E+02  0.33333236683E+01  0.28746271377E+03  0.31677539390E+03  0.12500000000E+03 0.  0.
         25    1    1    2    0    0 -0.27113386852E+02 -0.72974049098E+01  0.77873513115E+01  0.12835120064E+03  0.12500000000E+03 0.  0.
</event>
<event>
 5    0  0.5583350E-005  0.2725306E+03  0.7546771E-02  0.1099840E+00
         21   -1    0    0  502  501  0.00000000000E+00  0.00000000000E+00  0.10577931629E+03  0.10577931629E+03  0.00000000000E+00 0. -1.
         21   -1    0    0  501  502 -0.00000000000E+00 -0.00000000000E+00 -0.70214971682E+03  0.70214971682E+03  0.00000000000E+00 0. -1.
         25    1    1    2    0    0  0.75106458940E+02  0.44888461340E+02 -0.26974558516E+03  0.30990907514E+03  0.12500000000E+03 0.  0.
         25    1    1    2    0    0  0.83655140052E+02  0.41202069538E+02 -0.14642177172E+03  0.21391617102E+03  0.12500000000E+03 0.  0.
         25    1    1    2    0    0 -0.15876159899E+03 -0.86090530878E+02 -0.18020304365E+03  0.28410378695E+03  0.12500000000E+03 0.  0.
</event>
<event>
 5    0  0.5583350E-005  0.2243412E+03  0.7546771E-02  0.1130687E+00
         21   -1    0    0  502  501  0.00000000000E+00  0.00000000000E+00  0.54891009876E+02  0.54891009876E+02  0.00000000000E+00 0. -1.
         21   -1    0    0  501  502 -0.00000000000E+00 -0.00000000000E+00 -0.91688920304E+03  0.91688920304E+03  0.00000000000E+00 0. -1.
         25    1    1    2    0    0  0.11070916961E+03  0.39083671130E+02 -0.34331043830E+03  0.38375918312E+03  0.12500000000E+03 0.  0.
         25    1    1    2    0    0 -0.51335923266E+02 -0.18724756367E+02 -0.23509874684E+03  0.27181319740E+03  0.12500000000E+03 0.  0.
         25    1    1    2    0    0 -0.59373246342E+02 -0.20358914763E+02 -0.28358900803E+03  0.31620783239E+03  0.12500000000E+03 0.  0.
</event>
<event>
 5    0  0.5583350E-005  0.3793557E+03  0.7546771E-02  0.1051172E+00
         21   -1    0    0  502  501  0.00000000000E+00  0.00000000000E+00  0.11137131962E+04  0.11137131962E+04  0.00000000000E+00 0. -1.
         21   -1    0    0  501  502 -0.00000000000E+00 -0.00000000000E+00 -0.12921706128E+03  0.12921706128E+03  0.00000000000E+00 0. -1.
         25    1    1    2    0    0  0.20059915503E+03 -0.23035847321E+02  0.21593365128E+03  0.32097198166E+03  0.12500000000E+03 0.  0.
         25    1    1    2    0    0 -0.14730666317E+03  0.17020824681E+03  0.62369167123E+03  0.67474913935E+03  0.12500000000E+03 0.  0.
         25    1    1    2    0    0 -0.53292491857E+02 -0.14717239949E+03  0.14487081239E+03  0.24720913644E+03  0.12500000000E+03 0.  0.
</event>
<event>
 5    0  0.5583350E-005  0.2916754E+03  0.7546771E-02  0.1089478E+00
         21   -1    0    0  502  501  0.00000000000E+00  0.00000000000E+00  0.17047654476E+03  0.17047654476E+03  0.00000000000E+00 0.  1.
         21   -1    0    0  501  502 -0.00000000000E+00 -0.00000000000E+00 -0.49903948963E+03  0.49903948963E+03  0.00000000000E+00 0.  1.
         25    1    1    2    0    0 -0.37058136698E+02 -0.44151674317E+02 -0.74575944751E+02  0.15655429530E+03  0.12500000000E+03 0.  0.
         25    1    1    2    0    0 -0.29498804555E+02 -0.11177990502E+03  0.15444660959E+02  0.17096334165E+03  0.12500000000E+03 0.  0.
         25    1    1    2    0    0  0.66556941253E+02  0.15593157934E+03 -0.26943166107E+03  0.34199839744E+03  0.12500000000E+03 0.  0.
</event>
<event>
 5    0  0.5583350E-005  0.2527108E+03  0.7546771E-02  0.1111604E+00
         21   -1    0    0  502  501  0.00000000000E+00  0.00000000000E+00  0.24748990676E+02  0.24748990676E+02  0.00000000000E+00 0. -1.
         21   -1    0    0  501  502 -0.00000000000E+00 -0.00000000000E+00 -0.25804179457E+04  0.25804179457E+04  0.00000000000E+00 0. -1.
         25    1    1    2    0    0  0.99789060187E+02  0.10311263636E+03 -0.69854174605E+03  0.72399975365E+03  0.12500000000E+03 0.  0.
         25    1    1    2    0    0 -0.15493668761E+02 -0.20046737296E+02 -0.76606572119E+03  0.77661033641E+03  0.12500000000E+03 0.  0.
         25    1    1    2    0    0 -0.84295391426E+02 -0.83065899061E+02 -0.10910614878E+04  0.11045568463E+04  0.12500000000E+03 0.  0.
</event>
<event>
 5    0  0.5583350E-005  0.2226325E+03  0.7546771E-02  0.1131935E+00
         21   -1    0    0  502  501  0.00000000000E+00  0.00000000000E+00  0.58138487307E+02  0.58138487307E+02  0.00000000000E+00 0.  1.
         21   -1    0    0  501  502 -0.00000000000E+00 -0.00000000000E+00 -0.85253747306E+03  0.85253747306E+03  0.00000000000E+00 0.  1.
         25    1    1    2    0    0  0.67044759031E+02 -0.26247670695E+02 -0.19243953851E+03  0.24050346341E+03  0.12500000000E+03 0.  0.
         25    1    1    2    0    0 -0.59653064446E+02  0.15462079106E+02 -0.16748417718E+03  0.21788417472E+03  0.12500000000E+03 0.  0.
         25    1    1    2    0    0 -0.73916945847E+01  0.10785591588E+02 -0.43447527006E+03  0.45228832224E+03  0.12500000000E+03 0.  0.
</event>
<event>
 5    0  0.5583350E-005  0.2447222E+03  0.7546771E-02  0.1116686E+00
         21   -1    0    0  502  501  0.00000000000E+00  0.00000000000E+00  0.69856090217E+03  0.69856090217E+03  0.00000000000E+00 0.  1.
         21   -1    0    0  501  502 -0.00000000000E+00 -0.00000000000E+00 -0.85731907025E+02  0.85731907025E+02  0.00000000000E+00 0.  1.
         25    1    1    2    0    0 -0.86735064472E+02  0.62283442100E+01  0.33456845606E+03  0.36759055411E+03  0.12500000000E+03 0.  0.
         25    1    1    2    0    0  0.31723744444E+02 -0.16507665822E+02  0.30401529169E+02  0.13352210292E+03  0.12500000000E+03 0.  0.
         25    1    1    2    0    0  0.55011320028E+02  0.10279321612E+02  0.24785900992E+03  0.28318015217E+03  0.12500000000E+03 0.  0.
</event>
<event>
 5    0  0.5583350E-005  0.4677200E+03  0.7546771E-02  0.1022566E+00
         21   -1    0    0  502  501  0.00000000000E+00  0.00000000000E+00  0.15142015072E+04  0.15142015072E+04  0.00000000000E+00 0. -1.
         21   -1    0    0  501  502 -0.00000000000E+00 -0.00000000000E+00 -0.14447352406E+03  0.14447352406E+03  0.00000000000E+00 0. -1.
         25    1    1    2    0    0  0.31694255661E+03 -0.14796112406E+03  0.25496476159E+03  0.45052980820E+03  0.12500000000E+03 0.  0.
         25    1    1    2    0    0 -0.38125888279E+02  0.75803111751E+02  0.39390939240E+03  0.42188778666E+03  0.12500000000E+03 0.  0.
         25    1    1    2    0    0 -0.27881666834E+03  0.72158012311E+02  0.72085382914E+03  0.78625743639E+03  0.12500000000E+03 0.  0.
</event>
<event>
 5    0  0.5583350E-005  0.1995140E+03  0.7546771E-02  0.1150150E+00
         21   -1    0    0  502  501  0.00000000000E+00  0.00000000000E+00  0.15528065646E+03  0.15528065646E+03  0.00000000000E+00 0.  1.
         21   -1    0    0  501  502 -0.00000000000E+00 -0.00000000000E+00 -0.25634766861E+03  0.25634766861E+03  0.00000000000E+00 0.  1.
         25    1    1    2    0    0  0.32771634598E+02  0.17767151832E+02 -0.49727487112E+02  0.13959754544E+03  0.12500000000E+03 0.  0.
         25    1    1    2    0    0 -0.42171379889E+02 -0.30837909521E+02 -0.54321170458E+02  0.14596297991E+03  0.12500000000E+03 0.  0.
         25    1    1    2    0    0  0.93997452912E+01  0.13070757689E+02  0.29816454199E+01  0.12606779973E+03  0.12500000000E+03 0.  0.
</event>
<event>
 5    0  0.5583350E-005  0.4478006E+03  0.7546771E-02  0.1028380E+00
         21   -1    0    0  502  501  0.00000000000E+00  0.00000000000E+00  0.81788278716E+03  0.81788278716E+03  0.00000000000E+00 0. -1.
         21   -1    0    0  501  502 -0.00000000000E+00 -0.00000000000E+00 -0.24517619556E+03  0.24517619556E+03  0.00000000000E+00 0. -1.
         25    1    1    2    0    0 -0.28429112704E+02 -0.18053185744E+03  0.11871897043E+03  0.25123526810E+03  0.12500000000E+03 0.  0.
         25    1    1    2    0    0  0.48464656573E+02  0.31992011188E+03  0.30321521473E+02  0.34819835666E+03  0.12500000000E+03 0.  0.
         25    1    1    2    0    0 -0.20035543869E+02 -0.13938825444E+03  0.42366609970E+03  0.46362535794E+03  0.12500000000E+03 0.  0.
</event>
<event>
 5    0  0.5583350E-005  0.4043892E+03  0.7546771E-02  0.1042270E+00
         21   -1    0    0  502  501  0.00000000000E+00  0.00000000000E+00  0.52341800243E+03  0.52341800243E+03  0.00000000000E+00 0.  1.
         21   -1    0    0  501  502 -0.00000000000E+00 -0.00000000000E+00 -0.31242839373E+03  0.31242839373E+03  0.00000000000E+00 0.  1.
         25    1    1    2    0    0 -0.11476012574E+03 -0.16426260712E+03 -0.96901138960E+02  0.25527812536E+03  0.12500000000E+03 0.  0.
         25    1    1    2    0    0  0.14550006612E+03  0.21925707789E+03  0.32851223890E+03  0.43907769990E+03  0.12500000000E+03 0.  0.
         25    1    1    2    0    0 -0.30739940381E+02 -0.54994470771E+02 -0.20621491234E+02  0.14149057089E+03  0.12500000000E+03 0.  0.
</event>
<event>
 5    0  0.5583350E-005  0.3401450E+03  0.7546771E-02  0.1066734E+00
         21   -1    0    0  502  501  0.00000000000E+00  0.00000000000E+00  0.80204471495E+02  0.80204471495E+02  0.00000000000E+00 0. -1.
         21   -1    0    0  501  502 -0.00000000000E+00 -0.00000000000E+00 -0.14425454362E+04  0.14425454362E+04  0.00000000000E+00 0. -1.
         25    1    1    2    0    0  0.55981495786E+02  0.11302876778E+03 -0.21963386275E+03  0.28244196551E+03  0.12500000000E+03 0.  0.
         25    1    1    2    0    0 -0.71924428317E+02 -0.23646806320E+03 -0.89015886401E+03  0.93225429550E+03  0.12500000000E+03 0.  0.
         25    1    1    2    0    0  0.15942932531E+02  0.12343929542E+03 -0.25254823800E+03  0.30805364673E+03  0.12500000000E+03 0.  0.
</event>
<event>
 5    0  0.5583350E-005  0.4531886E+03  0.7546771E-02  0.1026775E+00
         21   -1    0    0  502  501  0.00000000000E+00  0.00000000000E+00  0.38809742197E+03  0.38809742197E+03  0.00000000000E+00 0.  1.
         21   -1    0    0  501  502 -0.00000000000E+00 -0.00000000000E+00 -0.52919667402E+03  0.52919667402E+03  0.00000000000E+00 0.  1.
         25    1    1    2    0    0 -0.21294571865E+03  0.41735027298E+02  0.56415440200E+02  0.25670098069E+03  0.12500000000E+03 0.  0.
         25    1    1    2    0    0  0.20980785090E+03  0.60303911234E+02 -0.35500278261E+03  0.43509524437E+03  0.12500000000E+03 0.  0.
         25    1    1    2    0    0  0.31378677424E+01 -0.10203893853E+03  0.15748809036E+03  0.22549787094E+03  0.12500000000E+03 0.  0.
</event>
<event>
 5    0  0.5583350E-005  0.3534080E+03  0.7546771E-02  0.1061225E+00
         21   -1    0    0  502  501  0.00000000000E+00  0.00000000000E+00  0.95559213548E+03  0.95559213548E+03  0.00000000000E+00 0. -1.
         21   -1    0    0  501  502 -0.00000000000E+00 -0.00000000000E+00 -0.13070135910E+03  0.13070135910E+03  0.00000000000E+00 0. -1.
         25    1    1    2    0    0 -0.54584964482E+02 -0.16906175558E+03  0.11970727319E+03  0.24802464959E+03  0.12500000000E+03 0.  0.
         25    1    1    2    0    0 -0.58903344921E+01 -0.89488097203E+02  0.30950224421E+03  0.34562907104E+03  0.12500000000E+03 0.  0.
         25    1    1    2    0    0  0.60475298975E+02  0.25854985278E+03  0.39568125898E+03  0.49263977394E+03  0.12500000000E+03 0.  0.
</event>
<event>
 5    0  0.5583350E-005  0.4980046E+03  0.7546771E-02  0.1014301E+00
         21   -1    0    0  502  501  0.00000000000E+00  0.00000000000E+00  0.14349337907E+03  0.14349337907E+03  0.00000000000E+00 0.  1.
         21   -1    0    0  501  502 -0.00000000000E+00 -0.00000000000E+00 -0.17283623788E+04  0.17283623788E+04  0.00000000000E+00 0.  1.
         25    1    1    2    0    0  0.54735345925E+02  0.41407294614E+02 -0.12764201050E+03  0.19138444290E+03  0.12500000000E+03 0.  0.
         25    1    1    2    0    0  0.34875700467E+03 -0.11424430416E+03 -0.87890320715E+03  0.96061389584E+03  0.12500000000E+03 0.  0.
         25    1    1    2    0    0 -0.40349235059E+03  0.72837009550E+02 -0.57832378205E+03  0.71985741910E+03  0.12500000000E+03 0.  0.
</event>
<event>
 5    0  0.5583350E-005  0.2402278E+03  0.7546771E-02  0.1119641E+00
         21   -1    0    0  502  501  0.00000000000E+00  0.00000000000E+00  0.10919871035E+03  0.10919871035E+03  0.00000000000E+00 0.  1.
         21   -1    0    0  501  502 -0.00000000000E+00 -0.00000000000E+00 -0.52848066918E+03  0.52848066918E+03  0.00000000000E+00 0.  1.
         25    1    1    2    0    0 -0.25252206756E+02 -0.63982401989E+02 -0.24343119716E+03  0.28216160168E+03  0.12500000000E+03 0.  0.
         25    1    1    2    0    0  0.73306490241E+02  0.23507360719E+02 -0.15600237122E+03  0.21421525936E+03  0.12500000000E+03 0.  0.
         25    1    1    2    0    0 -0.48054283485E+02  0.40475041270E+02 -0.19848390449E+02  0.14130251849E+03  0.12500000000E+03 0.  0.
</event>
<event>
 5    0  0.5583350E-005  0.3130987E+03  0.7546771E-02  0.1078870E+00
         21   -1    0    0  502  501  0.00000000000E+00  0.00000000000E+00  0.10795310992E+04  0.10795310992E+04  0.00000000000E+00 0. -1.
         21   -1    0    0  501  502 -0.00000000000E+00 -0.00000000000E+00 -0.90808690551E+02  0.90808690551E+02  0.00000000000E+00 0. -1.
         25    1    1    2    0    0 -0.37633018228E+02 -0.13539411951E+03  0.18609447839E+03  0.26458262706E+03  0.12500000000E+03 0.  0.
         25    1    1    2    0    0  0.36347345818E+02 -0.76749401772E+02  0.45736627442E+03  0.48168507264E+03  0.12500000000E+03 0.  0.
         25    1    1    2    0    0  0.12856724103E+01  0.21214352128E+03  0.34526165589E+03  0.42407209010E+03  0.12500000000E+03 0.  0.
</event>
<event>
 5    0  0.5583350E-005  0.7883145E+03  0.7546771E-02  0.9577087E-01
         21   -1    0    0  502  501  0.00000000000E+00  0.00000000000E+00  0.38191485906E+03  0.38191485906E+03  0.00000000000E+00 0. -1.
         21   -1    0    0  501  502 -0.00000000000E+00 -0.00000000000E+00 -0.16271683889E+04  0.16271683889E+04  0.00000000000E+00 0. -1.
         25    1    1    2    0    0  0.13285468938E+03  0.32439130748E+02 -0.77566637693E+03  0.79748730021E+03  0.12500000000E+03 0.  0.
         25    1    1    2    0    0 -0.26573732994E+03 -0.39862750342E+03  0.10510499104E+03  0.50615439753E+03  0.12500000000E+03 0.  0.
         25    1    1    2    0    0  0.13288264055E+03  0.36618837267E+03 -0.57469214391E+03  0.70544155017E+03  0.12500000000E+03 0.  0.
</event>
<event>
 5    0  0.5583350E-005  0.2824260E+03  0.7546771E-02  0.1094371E+00
         21   -1    0    0  502  501  0.00000000000E+00  0.00000000000E+00  0.14563559671E+04  0.14563559671E+04  0.00000000000E+00 0.  1.
         21   -1    0    0  501  502 -0.00000000000E+00 -0.00000000000E+00 -0.54769890212E+02  0.54769890212E+02  0.00000000000E+00 0.  1.
         25    1    1    2    0    0  0.86186752105E+02  0.19489747653E+02  0.82057744655E+03  0.83473370142E+03  0.12500000000E+03 0.  0.
         25    1    1    2    0    0 -0.13824729419E+03 -0.54429480447E+02  0.42271047144E+03  0.46517096358E+03  0.12500000000E+03 0.  0.
         25    1    1    2    0    0  0.52060542090E+02  0.34939732795E+02  0.15829815891E+03  0.21122119232E+03  0.12500000000E+03 0.  0.
</event>
<event>
 5    0  0.5583350E-005  0.2232779E+03  0.7546771E-02  0.1131463E+00
         21   -1    0    0  502  501  0.00000000000E+00  0.00000000000E+00  0.57804152773E+02  0.57804152773E+02  0.00000000000E+00 0. -1.
         21   -1    0    0  501  502 -0.00000000000E+00 -0.00000000000E+00 -0.86244698226E+03  0.86244698226E+03  0.00000000000E+00 0. -1.
         25    1    1    2    0    0 -0.43502770063E+02  0.28295361840E+02 -0.43137480476E+03  0.45210877086E+03  0.12500000000E+03 0.  0.
         25    1    1    2    0    0  0.11678074940E+01  0.10505812463E+02 -0.93744166040E+02  0.15660365429E+03  0.12500000000E+03 0.  0.
         25    1    1    2    0    0  0.42334962569E+02 -0.38801174303E+02 -0.27952385868E+03  0.31153870989E+03  0.12500000000E+03 0.  0.
</event>
<event>
 5    0  0.5583350E-005  0.4963473E+03  0.7546771E-02  0.1014737E+00
         21   -1    0    0  502  501  0.00000000000E+00  0.00000000000E+00  0.12509215158E+03  0.12509215158E+03  0.00000000000E+00 0.  1.
         21   -1    0    0  501  502 -0.00000000000E+00 -0.00000000000E+00 -0.19694330053E+04  0.19694330053E+04  0.00000000000E+00 0.  1.
         25    1    1    2    0    0  0.26035041542E+02  0.15025584629E+03 -0.34279842512E+03  0.39546226495E+03  0.12500000000E+03 0.  0.
         25    1    1    2    0    0  0.81055220198E+02  0.12064023992E+03 -0.13198517146E+04  0.13337007028E+04  0.12500000000E+03 0.  0.
         25    1    1    2    0    0 -0.10709026174E+03 -0.27089608621E+03 -0.18169071406E+03  0.36536218915E+03  0.12500000000E+03 0.  0.
</event>
<event>
 5    0  0.5583350E-005  0.3542710E+03  0.7546771E-02  0.1060876E+00
         21   -1    0    0  502  501  0.00000000000E+00  0.00000000000E+00  0.16241414263E+04  0.16241414263E+04  0.00000000000E+00 0.  1.
         21   -1    0    0  501  502 -0.00000000000E+00 -0.00000000000E+00 -0.77276477601E+02  0.77276477601E+02  0.00000000000E+00 0.  1.
         25    1    1    2    0    0  0.13481359346E+03  0.32791897893E+02  0.35675116813E+03  0.40267407355E+03  0.12500000000E+03 0.  0.
         25    1    1    2    0    0 -0.16010304268E+03  0.79171994556E+02  0.20543980562E+03  0.29955250413E+03  0.12500000000E+03 0.  0.
         25    1    1    2    0    0  0.25289449211E+02 -0.11196389245E+03  0.98467397499E+03  0.99919132626E+03  0.12500000000E+03 0.  0.
</event>
<event>
 5    0  0.5583350E-005  0.3256874E+03  0.7546771E-02  0.1073061E+00
         21   -1    0    0  502  501  0.00000000000E+00  0.00000000000E+00  0.27753405101E+03  0.27753405101E+03  0.00000000000E+00 0.  1.
         21   -1    0    0  501  502 -0.00000000000E+00 -0.00000000000E+00 -0.38219557865E+03  0.38219557865E+03  0.00000000000E+00 0.  1.
         25    1    1    2    0    0 -0.10387244013E+03 -0.18182081162E+03 -0.12932610753E+03  0.27604081844E+03  0.12500000000E+03 0.  0.
         25    1    1    2    0    0  0.15085072121E+03  0.10894252563E+03  0.49452034972E+02  0.22955373607E+03  0.12500000000E+03 0.  0.
         25    1    1    2    0    0 -0.46978281083E+02  0.72878285988E+02 -0.24787455083E+02  0.15413507515E+03  0.12500000000E+03 0.  0.
</event>
<event>
 5    0  0.5583350E-005  0.2380395E+03  0.7546771E-02  0.1121106E+00
         21   -1    0    0  502  501  0.00000000000E+00  0.00000000000E+00  0.57228512151E+03  0.57228512151E+03  0.00000000000E+00 0.  1.
         21   -1    0    0  501  502 -0.00000000000E+00 -0.00000000000E+00 -0.99011459776E+02  0.99011459776E+02  0.00000000000E+00 0.  1.
         25    1    1    2    0    0  0.29113517839E+02  0.54475425585E+02  0.78373647135E+02  0.15994560788E+03  0.12500000000E+03 0.  0.
         25    1    1    2    0    0 -0.46955241591E+02  0.66673760213E+02  0.16604773211E+03  0.22326449416E+03  0.12500000000E+03 0.  0.
         25    1    1    2    0    0  0.17841723752E+02 -0.12114918580E+03  0.22885228249E+03  0.28808647925E+03  0.12500000000E+03 0.  0.
</event>
<event>
 5    0  0.5583350E-005  0.3782708E+03  0.7546771E-02  0.1051575E+00
         21   -1    0    0  502  501  0.00000000000E+00  0.00000000000E+00  0.11642951852E+03  0.11642951852E+03  0.00000000000E+00 0.  1.
         21   -1    0    0  501  502 -0.00000000000E+00 -0.00000000000E+00 -0.12289736527E+04  0.12289736527E+04  0.00000000000E+00 0.  1.
         25    1    1    2    0    0  0.22661508144E+03  0.11598101638E+03 -0.65757739092E+03  0.71612779330E+03  0.12500000000E+03 0.  0.
         25    1    1    2    0    0 -0.99751846704E+02  0.51555675533E+02 -0.28719162349E+03  0.33273480011E+03  0.12500000000E+03 0.  0.
         25    1    1    2    0    0 -0.12686323474E+03 -0.16753669191E+03 -0.16777511974E+03  0.29654057778E+03  0.12500000000E+03 0.  0.
</event>
<event>
 5    0  0.5583350E-005  0.5320749E+03  0.7546771E-02  0.1005730E+00
         21   -1    0    0  502  501  0.00000000000E+00  0.00000000000E+00  0.38803530382E+03  0.38803530382E+03  0.00000000000E+00 0. -1.
         21   -1    0    0  501  502 -0.00000000000E+00 -0.00000000000E+00 -0.72958242363E+03  0.72958242363E+03  0.00000000000E+00 0. -1.
         25    1    1    2    0    0 -0.43609980769E+03  0.31404947753E+02 -0.16719631120E+03  0.48450894676E+03  0.12500000000E+03 0.  0.
         25    1    1    2    0    0  0.27738833372E+03 -0.18246822800E+03 -0.12440701894E+03  0.37595351877E+03  0.12500000000E+03 0.  0.
         25    1    1    2    0    0  0.15871147398E+03  0.15106328024E+03 -0.49943789669E+02  0.25715526193E+03  0.12500000000E+03 0.  0.
</event>
<event>
 5    0  0.5583350E-005  0.2883125E+03  0.7546771E-02  0.1091234E+00
         21   -1    0    0  502  501  0.00000000000E+00  0.00000000000E+00  0.38022540794E+03  0.38022540794E+03  0.00000000000E+00 0. -1.
         21   -1    0    0  501  502 -0.00000000000E+00 -0.00000000000E+00 -0.21861790348E+03  0.21861790348E+03  0.00000000000E+00 0. -1.
         25    1    1    2    0    0  0.16450963938E+02 -0.31378527052E+02 -0.11800506269E+03  0.17551478854E+03  0.12500000000E+03 0.  0.
         25    1    1    2    0    0 -0.96765789846E+02  0.38791375457E+02  0.10391287048E+03  0.19310948591E+03  0.12500000000E+03 0.  0.
         25    1    1    2    0    0  0.80314825908E+02 -0.74128484046E+01  0.17569969666E+03  0.23021903698E+03  0.12500000000E+03 0.  0.
</event>
<event>
 5    0  0.5583350E-005  0.2049382E+03  0.7546771E-02  0.1145638E+00
         21   -1    0    0  502  501  0.00000000000E+00  0.00000000000E+00  0.10678137510E+03  0.10678137510E+03  0.00000000000E+00 0.  1.
         21   -1    0    0  501  502 -0.00000000000E+00 -0.00000000000E+00 -0.39332403904E+03  0.39332403904E+03  0.00000000000E+00 0.  1.
         25    1    1    2    0    0  0.20378099130E+02 -0.19657394478E+02 -0.13370197479E+03  0.18521041587E+03  0.12500000000E+03 0.  0.
         25    1    1    2    0    0  0.20084601563E+02  0.22619826759E+02 -0.12741731439E+03  0.18103927692E+03  0.12500000000E+03 0.  0.
         25    1    1    2    0    0 -0.40462700694E+02 -0.29624322810E+01 -0.25423374758E+02  0.13385572134E+03  0.12500000000E+03 0.  0.
</event>
<event>
 5    0  0.5583350E-005  0.2504596E+03  0.7546771E-02  0.1113015E+00
         21   -1    0    0  502  501  0.00000000000E+00  0.00000000000E+00  0.21779388596E+03  0.21779388596E+03  0.00000000000E+00 0.  1.
         21   -1    0    0  501  502 -0.00000000000E+00 -0.00000000000E+00 -0.28802475430E+03  0.28802475430E+03  0.00000000000E+00 0.  1.
         25    1    1    2    0    0  0.49113757856E+02 -0.46020161000E+02  0.42513271933E+02  0.14819714815E+03  0.12500000000E+03 0.  0.
         25    1    1    2    0    0  0.65714158044E+02  0.67868117227E+02 -0.10029264546E+03  0.18603238061E+03  0.12500000000E+03 0.  0.
         25    1    1    2    0    0 -0.11482791590E+03 -0.21847956228E+02 -0.12451494809E+02  0.17158911150E+03  0.12500000000E+03 0.  0.
</event>
<event>
 5    0  0.5583350E-005  0.3210552E+03  0.7546771E-02  0.1075165E+00
         21   -1    0    0  502  501  0.00000000000E+00  0.00000000000E+00  0.47312599415E+03  0.47312599415E+03  0.00000000000E+00 0.  1.
         21   -1    0    0  501  502 -0.00000000000E+00 -0.00000000000E+00 -0.21786256036E+03  0.21786256036E+03  0.00000000000E+00 0.  1.
         25    1    1    2    0    0  0.11196451876E+03 -0.18595311726E+02  0.74586577716E+02  0.18458059664E+03  0.12500000000E+03 0.  0.
         25    1    1    2    0    0  0.50409728354E+02 -0.14957682193E+03  0.12024764299E+03  0.23451836179E+03  0.12500000000E+03 0.  0.
         25    1    1    2    0    0 -0.16237424711E+03  0.16817213366E+03  0.60429213090E+02  0.27188959608E+03  0.12500000000E+03 0.  0.
</event>
<event>
 5    0  0.5583350E-005  0.6234229E+03  0.7546771E-02  0.9857968E-01
         21   -1    0    0  502  501  0.00000000000E+00  0.00000000000E+00  0.26765593037E+03  0.26765593037E+03  0.00000000000E+00 0. -1.
         21   -1    0    0  501  502 -0.00000000000E+00 -0.00000000000E+00 -0.14520734454E+04  0.14520734454E+04  0.00000000000E+00 0. -1.
         25    1    1    2    0    0  0.28210395060E+03 -0.53405973832E+02 -0.20057180341E+03  0.37187213570E+03  0.12500000000E+03 0.  0.
         25    1    1    2    0    0  0.29676147236E+03  0.14835436492E+02 -0.41809458243E+03  0.52793516791E+03  0.12500000000E+03 0.  0.
         25    1    1    2    0    0 -0.57886542296E+03  0.38570537340E+02 -0.56575112917E+03  0.81992207216E+03  0.12500000000E+03 0.  0.
</event>
<event>
 5    0  0.5583350E-005  0.5531914E+03  0.7546771E-02  0.1000758E+00
         21   -1    0    0  502  501  0.00000000000E+00  0.00000000000E+00  0.38485006405E+03  0.38485006405E+03  0.00000000000E+00 0.  1.
         21   -1    0    0  501  502 -0.00000000000E+00 -0.00000000000E+00 -0.79516866599E+03  0.79516866599E+03  0.00000000000E+00 0.  1.
         25    1    1    2    0    0 -0.40915639206E+02 -0.21422742007E+03 -0.52797433074E+03  0.58476437217E+03  0.12500000000E+03 0.  0.
         25    1    1    2    0    0  0.55633302218E+02  0.17873557177E+03 -0.16814166156E+03  0.28095922709E+03  0.12500000000E+03 0.  0.
         25    1    1    2    0    0 -0.14717663012E+02  0.35491848293E+02  0.28579739036E+03  0.31429513079E+03  0.12500000000E+03 0.  0.
</event>
<event>
 5    0  0.5583350E-005  0.4612287E+03  0.7546771E-02  0.1024425E+00
         21   -1    0    0  502  501  0.00000000000E+00  0.00000000000E+00  0.36993232033E+03  0.36993232033E+03  0.00000000000E+00 0. -1.
         21   -1    0    0  501  502 -0.00000000000E+00 -0.00000000000E+00 -0.57505640488E+03  0.57505640488E+03  0.00000000000E+00 0. -1.
         25    1    1    2    0    0 -0.50713303763E+02  0.12621458741E+03  0.20701734155E+03  0.27745835896E+03  0.12500000000E+03 0.  0.
         25    1    1    2    0    0 -0.11232020205E+03  0.35035753223E+02  0.90934163027E+01  0.17190410703E+03  0.12500000000E+03 0.  0.
         25    1    1    2    0    0  0.16303350581E+03 -0.16125034064E+03 -0.42123484240E+03  0.49562625922E+03  0.12500000000E+03 0.  0.
</event>
<event>
 5    0  0.5583350E-005  0.2840455E+03  0.7546771E-02  0.1093500E+00
         21   -1    0    0  502  501  0.00000000000E+00  0.00000000000E+00  0.31012708486E+03  0.31012708486E+03  0.00000000000E+00 0.  1.
         21   -1    0    0  501  502 -0.00000000000E+00 -0.00000000000E+00 -0.26015743222E+03  0.26015743222E+03  0.00000000000E+00 0.  1.
         25    1    1    2    0    0 -0.12540683634E+03  0.96312055876E+02 -0.40214707495E+01  0.20160371756E+03  0.12500000000E+03 0.  0.
         25    1    1    2    0    0  0.36488291282E+02  0.62035037377E+02  0.21857434269E+02  0.14588519012E+03  0.12500000000E+03 0.  0.
         25    1    1    2    0    0  0.88918545053E+02 -0.15834709325E+03  0.32133689119E+02  0.22279560941E+03  0.12500000000E+03 0.  0.
</event>
<event>
 5    0  0.5583350E-005  0.3762677E+03  0.7546771E-02  0.1052322E+00
         21   -1    0    0  502  501  0.00000000000E+00  0.00000000000E+00  0.24054833110E+03  0.24054833110E+03  0.00000000000E+00 0.  1.
         21   -1    0    0  501  502 -0.00000000000E+00 -0.00000000000E+00 -0.58856117062E+03  0.58856117062E+03  0.00000000000E+00 0.  1.
         25    1    1    2    0    0  0.17491694546E+03  0.10655418447E+03 -0.20195402681E+03  0.31362423533E+03  0.12500000000E+03 0.  0.
         25    1    1    2    0    0  0.54128697688E+01 -0.21470345606E+03 -0.91832680971E+02  0.26492473365E+03  0.12500000000E+03 0.  0.
         25    1    1    2    0    0 -0.18032981523E+03  0.10814927159E+03 -0.54226131729E+02  0.25056053274E+03  0.12500000000E+03 0.  0.
</event>
<event>
 5    0  0.5583350E-005  0.4677979E+03  0.7546771E-02  0.1022544E+00
         21   -1    0    0  502  501  0.00000000000E+00  0.00000000000E+00  0.24441270795E+03  0.24441270795E+03  0.00000000000E+00 0. -1.
         21   -1    0    0  501  502 -0.00000000000E+00 -0.00000000000E+00 -0.89534968933E+03  0.89534968933E+03  0.00000000000E+00 0. -1.
         25    1    1    2    0    0 -0.19679968807E+03 -0.47352106913E+02  0.10191778206E+01  0.23790413611E+03  0.12500000000E+03 0.  0.
         25    1    1    2    0    0  0.27035080663E+03 -0.12408117243E+03 -0.15802828860E+03  0.35928211199E+03  0.12500000000E+03 0.  0.
         25    1    1    2    0    0 -0.73551118562E+02  0.17143327934E+03 -0.49392787059E+03  0.54257614918E+03  0.12500000000E+03 0.  0.
</event>
<event>
 5    0  0.5583350E-005  0.2635914E+03  0.7546771E-02  0.1105004E+00
         21   -1    0    0  502  501  0.00000000000E+00  0.00000000000E+00  0.34118334833E+03  0.34118334833E+03  0.00000000000E+00 0. -1.
         21   -1    0    0  501  502 -0.00000000000E+00 -0.00000000000E+00 -0.20364545116E+03  0.20364545116E+03  0.00000000000E+00 0. -1.
         25    1    1    2    0    0 -0.35225114410E+02 -0.23819027201E+02  0.80313363822E+02  0.15454252214E+03  0.12500000000E+03 0.  0.
         25    1    1    2    0    0  0.28825449209E+02 -0.13335831133E+03  0.31923410672E+02  0.18777499799E+03  0.12500000000E+03 0.  0.
         25    1    1    2    0    0  0.63996652007E+01  0.15717733853E+03  0.25301122677E+02  0.20251127936E+03  0.12500000000E+03 0.  0.
</event>
<event>
 5    0  0.5583350E-005  0.3850384E+03  0.7546771E-02  0.1049087E+00
         21   -1    0    0  502  501  0.00000000000E+00  0.00000000000E+00  0.11976640776E+04  0.11976640776E+04  0.00000000000E+00 0. -1.
         21   -1    0    0  501  502 -0.00000000000E+00 -0.00000000000E+00 -0.12378644544E+03  0.12378644544E+03  0.00000000000E+00 0. -1.
         25    1    1    2    0    0  0.11365138459E+03  0.20889168186E+03  0.35256479380E+03  0.44325986260E+03  0.12500000000E+03 0.  0.
         25    1    1    2    0    0 -0.16649526843E+01  0.82852667928E+02  0.13323185253E+03  0.20060673762E+03  0.12500000000E+03 0.  0.
         25    1    1    2    0    0 -0.11198643190E+03 -0.29174434979E+03  0.58808098584E+03  0.67758392282E+03  0.12500000000E+03 0.  0.
</event>
<event>
 5    0  0.5583350E-005  0.3529595E+03  0.7546771E-02  0.1061407E+00
         21   -1    0    0  502  501  0.00000000000E+00  0.00000000000E+00  0.18241560041E+03  0.18241560041E+03  0.00000000000E+00 0. -1.
         21   -1    0    0  501  502 -0.00000000000E+00 -0.00000000000E+00 -0.68294811115E+03  0.68294811115E+03  0.00000000000E+00 0. -1.
         25    1    1    2    0    0 -0.13608285622E+03 -0.81250322676E+01  0.86906020630E+01  0.18516232465E+03  0.12500000000E+03 0.  0.
         25    1    1    2    0    0 -0.88183660669E+02 -0.80546170385E+02 -0.14374878428E+03  0.22483940169E+03  0.12500000000E+03 0.  0.
         25    1    1    2    0    0  0.22426651689E+03  0.88671202652E+02 -0.36547432851E+03  0.45536198522E+03  0.12500000000E+03 0.  0.
</event>
<event>
 5    0  0.5583350E-005  0.3390034E+03  0.7546771E-02  0.1067221E+00
         21   -1    0    0  502  501  0.00000000000E+00  0.00000000000E+00  0.37150781594E+03  0.37150781594E+03  0.00000000000E+00 0.  1.
         21   -1    0    0  501  502 -0.00000000000E+00 -0.00000000000E+00 -0.30934295117E+03  0.30934295117E+03  0.00000000000E+00 0.  1.
         25    1    1    2    0    0 -0.30918677826E+02  0.45818034281E+02  0.78378001512E+02  0.15755433356E+03  0.12500000000E+03 0.  0.
         25    1    1    2    0    0 -0.16217010217E+02 -0.70040821171E+02  0.21280409728E+03  0.25705892684E+03  0.12500000000E+03 0.  0.
         25    1    1    2    0    0  0.47135688043E+02  0.24222786890E+02 -0.22901723403E+03  0.26623750670E+03  0.12500000000E+03 0.  0.
</event>
<event>
 5    0  0.5583350E-005  0.3890075E+03  0.7546771E-02  0.1047654E+00
         21   -1    0    0  502  501  0.00000000000E+00  0.00000000000E+00  0.10006484030E+03  0.10006484030E+03  0.00000000000E+00 0. -1.
         21   -1    0    0  501  502 -0.00000000000E+00 -0.00000000000E+00 -0.15122876683E+04  0.15122876683E+04  0.00000000000E+00 0. -1.
         25    1    1    2    0    0 -0.10602909270E+03 -0.51408760587E+02 -0.21290430313E+03  0.27356584483E+03  0.12500000000E+03 0.  0.
         25    1    1    2    0    0 -0.15594907657E+03  0.17584782978E+02 -0.89365945735E+03  0.91590477932E+03  0.12500000000E+03 0.  0.
         25    1    1    2    0    0  0.26197816927E+03  0.33823977609E+02 -0.30565906748E+03  0.42288188442E+03  0.12500000000E+03 0.  0.
</event>
<event>
 5    0  0.5583350E-005  0.3693098E+03  0.7546771E-02  0.1054957E+00
         21   -1    0    0  502  501  0.00000000000E+00  0.00000000000E+00  0.17513285133E+04  0.17513285133E+04  0.00000000000E+00 0.  1.
         21   -1    0    0  501  502 -0.00000000000E+00 -0.00000000000E+00 -0.77877858306E+02  0.77877858306E+02  0.00000000000E+00 0.  1.
         25    1    1    2    0    0 -0.21693048139E+03  0.73334983676E+02  0.23625965824E+03  0.35196658890E+03  0.12500000000E+03 0.  0.
         25    1    1    2    0    0  0.10111289746E+03 -0.55669120918E+02  0.69209105558E+03  0.71269762050E+03  0.12500000000E+03 0.  0.
         25    1    1    2    0    0  0.11581758393E+03 -0.17665862758E+02  0.74509994117E+03  0.76454216220E+03  0.12500000000E+03 0.  0.
</event>
<event>
 5    0  0.5583350E-005  0.3043757E+03  0.7546771E-02  0.1083073E+00
         21   -1    0    0  502  501  0.00000000000E+00  0.00000000000E+00  0.32450200941E+04  0.32450200941E+04  0.00000000000E+00 0. -1.
         21   -1    0    0  501  502 -0.00000000000E+00 -0.00000000000E+00 -0.28549774159E+02  0.28549774159E+02  0.00000000000E+00 0. -1.
         25    1    1    2    0    0 -0.21690784840E+02 -0.48276459969E+01  0.24865165530E+04  0.24897556837E+04  0.12500000000E+03 0.  0.
         25    1    1    2    0    0  0.14579309162E+02 -0.68334049149E+01  0.55016309747E+03  0.56441446251E+03  0.12500000000E+03 0.  0.
         25    1    1    2    0    0  0.71114756784E+01  0.11661050912E+02  0.17979066950E+03  0.21939972205E+03  0.12500000000E+03 0.  0.
</event>
<event>
 5    0  0.5583350E-005  0.2170581E+03  0.7546771E-02  0.1136096E+00
         21   -1    0    0  502  501  0.00000000000E+00  0.00000000000E+00  0.80834630511E+02  0.80834630511E+02  0.00000000000E+00 0. -1.
         21   -1    0    0  501  502 -0.00000000000E+00 -0.00000000000E+00 -0.58284676043E+03  0.58284676043E+03  0.00000000000E+00 0. -1.
         25    1    1    2    0    0 -0.49555159276E+02  0.17175296762E+02 -0.15030779756E+03  0.20240587600E+03  0.12500000000E+03 0.  0.
         25    1    1    2    0    0 -0.44634101506E+02 -0.37470299253E+02 -0.19522510321E+03  0.23902733581E+03  0.12500000000E+03 0.  0.
         25    1    1    2    0    0  0.94189260781E+02  0.20295002491E+02 -0.15647922915E+03  0.22224817913E+03  0.12500000000E+03 0.  0.
</event>
<event>
 5    0  0.5583350E-005  0.2407507E+03  0.7546771E-02  0.1119294E+00
         21   -1    0    0  502  501  0.00000000000E+00  0.00000000000E+00  0.23579213062E+03  0.23579213062E+03  0.00000000000E+00 0. -1.
         21   -1    0    0  501  502 -0.00000000000E+00 -0.00000000000E+00 -0.24581352937E+03  0.24581352937E+03  0.00000000000E+00 0. -1.
         25    1    1    2    0    0 -0.22954795616E+02 -0.76273717300E+02  0.59455444547E+02  0.15970144795E+03  0.12500000000E+03 0.  0.
         25    1    1    2    0    0  0.26594070462E+01 -0.34725538293E+02 -0.81243294616E+02  0.15309607564E+03  0.12500000000E+03 0.  0.
         25    1    1    2    0    0  0.20295388570E+02  0.11099925559E+03  0.11766451322E+02  0.16880813640E+03  0.12500000000E+03 0.  0.
</event>
<event>
 5    0  0.5583350E-005  0.3918530E+03  0.7546771E-02  0.1046638E+00
         21   -1    0    0  502  501  0.00000000000E+00  0.00000000000E+00  0.16232694982E+03  0.16232694982E+03  0.00000000000E+00 0. -1.
         21   -1    0    0  501  502 -0.00000000000E+00 -0.00000000000E+00 -0.94592298554E+03  0.94592298554E+03  0.00000000000E+00 0. -1.
         25    1    1    2    0    0 -0.44428738392E+02 -0.44714154446E+02 -0.81177483564E+02  0.16182722960E+03  0.12500000000E+03 0.  0.
         25    1    1    2    0    0 -0.11900823356E+03 -0.23210907199E+03 -0.31090557089E+03  0.42464674138E+03  0.12500000000E+03 0.  0.
         25    1    1    2    0    0  0.16343697196E+03  0.27682322643E+03 -0.39151298127E+03  0.52177596437E+03  0.12500000000E+03 0.  0.
</event>
<event>
 5    0  0.5583350E-005  0.3497970E+03  0.7546771E-02  0.1062698E+00
         21   -1    0    0  502  501  0.00000000000E+00  0.00000000000E+00  0.40319542613E+03  0.40319542613E+03  0.00000000000E+00 0. -1.
         21   -1    0    0  501  502 -0.00000000000E+00 -0.00000000000E+00 -0.30347064029E+03  0.30347064029E+03  0.00000000000E+00 0. -1.
         25    1    1    2    0    0 -0.25447136148E+02 -0.16009420895E+03  0.15970845166E+03  0.25963339926E+03  0.12500000000E+03 0.  0.
         25    1    1    2    0    0 -0.10293383148E+03  0.84769023656E+02  0.87887709672E+02  0.20280633754E+03  0.12500000000E+03 0.  0.
         25    1    1    2    0    0  0.12838096763E+03  0.75325185293E+02 -0.14787137550E+03  0.24422632962E+03  0.12500000000E+03 0.  0.
</event>
<event>
 5    0  0.5583350E-005  0.4234974E+03  0.7546771E-02  0.1035934E+00
         21   -1    0    0  502  501  0.00000000000E+00  0.00000000000E+00  0.55115420226E+03  0.55115420226E+03  0.00000000000E+00 0.  1.
         21   -1    0    0  501  502 -0.00000000000E+00 -0.00000000000E+00 -0.32540803992E+03  0.32540803992E+03  0.00000000000E+00 0.  1.
         25    1    1    2    0    0 -0.11783299780E+03  0.18041098129E+03  0.15100409811E+03  0.29130735519E+03  0.12500000000E+03 0.  0.
         25    1    1    2    0    0 -0.18434533466E+03 -0.97172307818E+02  0.33672642823E+02  0.24532530790E+03  0.12500000000E+03 0.  0.
         25    1    1    2    0    0  0.30217833246E+03 -0.83238673475E+02  0.41069421413E+02  0.33992957910E+03  0.12500000000E+03 0.  0.
</event>
<event>
 5    0  0.5583350E-005  0.5023361E+03  0.7546771E-02  0.1013171E+00
         21   -1    0    0  502  501  0.00000000000E+00  0.00000000000E+00  0.99348962483E+03  0.99348962483E+03  0.00000000000E+00 0. -1.
         21   -1    0    0  501  502 -0.00000000000E+00 -0.00000000000E+00 -0.25399518349E+03  0.25399518349E+03  0.00000000000E+00 0. -1.
         25    1    1    2    0    0  0.10906625262E+03  0.34431864484E+03  0.60999561033E+03  0.71984055267E+03  0.12500000000E+03 0.  0.
         25    1    1    2    0    0  0.48525331823E+02 -0.22427643138E+03  0.13336194412E+03  0.29336842646E+03  0.12500000000E+03 0.  0.
         25    1    1    2    0    0 -0.15759158444E+03 -0.12004221346E+03 -0.38631131114E+01  0.23427582919E+03  0.12500000000E+03 0.  0.
</event>
<event>
 5    0  0.5583350E-005  0.2589760E+03  0.7546771E-02  0.1107760E+00
         21   -1    0    0  502  501  0.00000000000E+00  0.00000000000E+00  0.17888984953E+03  0.17888984953E+03  0.00000000000E+00 0. -1.
         21   -1    0    0  501  502 -0.00000000000E+00 -0.00000000000E+00 -0.37491553970E+03  0.37491553970E+03  0.00000000000E+00 0. -1.
         25    1    1    2    0    0  0.32399978385E+02 -0.40646084115E+02 -0.14148591174E+02  0.13611408959E+03  0.12500000000E+03 0.  0.
         25    1    1    2    0    0  0.94435731243E+02  0.35282573735E+02 -0.17766055349E+03  0.23948118843E+03  0.12500000000E+03 0.  0.
         25    1    1    2    0    0 -0.12683570963E+03  0.53635103803E+01 -0.42165455104E+01  0.17821011121E+03  0.12500000000E+03 0.  0.
</event>
<event>
 5    0  0.5583350E-005  0.3173261E+03  0.7546771E-02  0.1076887E+00
         21   -1    0    0  502  501  0.00000000000E+00  0.00000000000E+00  0.37125492325E+03  0.37125492325E+03  0.00000000000E+00 0. -1.
         21   -1    0    0  501  502 -0.00000000000E+00 -0.00000000000E+00 -0.27123097935E+03  0.27123097935E+03  0.00000000000E+00 0. -1.
         25    1    1    2    0    0  0.19012754558E+03 -0.13797358974E+03  0.11101677786E+03  0.28833126785E+03  0.12500000000E+03 0.  0.
         25    1    1    2    0    0 -0.10186308113E+03  0.27586322026E+02 -0.22452246702E+02  0.16512478870E+03  0.12500000000E+03 0.  0.
         25    1    1    2    0    0 -0.88264464448E+02  0.11038726772E+03  0.11459412745E+02  0.18902984605E+03  0.12500000000E+03 0.  0.
</event>
<event>
 5    0  0.5583350E-005  0.2082383E+03  0.7546771E-02  0.1142969E+00
         21   -1    0    0  502  501  0.00000000000E+00  0.00000000000E+00  0.19609463780E+03  0.19609463780E+03  0.00000000000E+00 0.  1.
         21   -1    0    0  501  502 -0.00000000000E+00 -0.00000000000E+00 -0.22113394320E+03  0.22113394320E+03  0.00000000000E+00 0.  1.
         25    1    1    2    0    0 -0.87173834348E+01  0.25394771637E+02 -0.53371887622E+02  0.13854402040E+03  0.12500000000E+03 0.  0.
         25    1    1    2    0    0 -0.39420315619E+02  0.22005850391E+02  0.31404997042E+02  0.13656314501E+03  0.12500000000E+03 0.  0.
         25    1    1    2    0    0  0.48137699054E+02 -0.47400622028E+02 -0.30724148184E+01  0.14212141560E+03  0.12500000000E+03 0.  0.
</event>
<event>
 5    0  0.5583350E-005  0.2427469E+03  0.7546771E-02  0.1117976E+00
         21   -1    0    0  502  501  0.00000000000E+00  0.00000000000E+00  0.62413561431E+02  0.62413561431E+02  0.00000000000E+00 0. -1.
         21   -1    0    0  501  502 -0.00000000000E+00 -0.00000000000E+00 -0.94412250463E+03  0.94412250463E+03  0.00000000000E+00 0. -1.
         25    1    1    2    0    0  0.88288203874E+02 -0.36955117201E+02 -0.13043170337E+03  0.20444538849E+03  0.12500000000E+03 0.  0.
         25    1    1    2    0    0 -0.52422810098E+02  0.51737038642E+02 -0.31920273171E+03  0.35062837324E+03  0.12500000000E+03 0.  0.
         25    1    1    2    0    0 -0.35865393776E+02 -0.14781921441E+02 -0.43207450812E+03  0.45146230434E+03  0.12500000000E+03 0.  0.
</event>
<event>
 5    0  0.5583350E-005  0.2992517E+03  0.7546771E-02  0.1085615E+00
         21   -1    0    0  502  501  0.00000000000E+00  0.00000000000E+00  0.48633915935E+02  0.48633915935E+02  0.00000000000E+00 0.  1.
         21   -1    0    0  501  502 -0.00000000000E+00 -0.00000000000E+00 -0.18413398277E+04  0.18413398277E+04  0.00000000000E+00 0.  1.
         25    1    1    2    0    0 -0.56707068639E+01 -0.13304152457E+03 -0.46275903905E+03  0.49749686672E+03  0.12500000000E+03 0.  0.
         25    1    1    2    0    0  0.70187916423E+02  0.20476720089E+02 -0.19269838509E+03  0.24104627625E+03  0.12500000000E+03 0.  0.
         25    1    1    2    0    0 -0.64517209559E+02  0.11256480448E+03 -0.11372484876E+04  0.11514306006E+04  0.12500000000E+03 0.  0.
</event>
<event>
 5    0  0.5583350E-005  0.3702856E+03  0.7546771E-02  0.1054584E+00
         21   -1    0    0  502  501  0.00000000000E+00  0.00000000000E+00  0.35165472554E+03  0.35165472554E+03  0.00000000000E+00 0.  1.
         21   -1    0    0  501  502 -0.00000000000E+00 -0.00000000000E+00 -0.38990361499E+03  0.38990361499E+03  0.00000000000E+00 0.  1.
         25    1    1    2    0    0  0.20302382164E+03 -0.12946296371E+03  0.29140577457E+02  0.27286169460E+03  0.12500000000E+03 0.  0.
         25    1    1    2    0    0 -0.17543743800E+03 -0.34677430524E+02  0.57907320317E+02  0.22574117167E+03  0.12500000000E+03 0.  0.
         25    1    1    2    0    0 -0.27586383642E+02  0.16414039423E+03 -0.12529678723E+03  0.24295547426E+03  0.12500000000E+03 0.  0.
</event>
<event>
 5    0  0.5583350E-005  0.2926806E+03  0.7546771E-02  0.1088958E+00
         21   -1    0    0  502  501  0.00000000000E+00  0.00000000000E+00  0.90530683540E+02  0.90530683540E+02  0.00000000000E+00 0. -1.
         21   -1    0    0  501  502 -0.00000000000E+00 -0.00000000000E+00 -0.94622002701E+03  0.94622002701E+03  0.00000000000E+00 0. -1.
         25    1    1    2    0    0  0.14185121381E+02  0.11256552229E+03 -0.42359851183E+03  0.45599661589E+03  0.12500000000E+03 0.  0.
         25    1    1    2    0    0  0.68257822296E+02 -0.16301939369E+03 -0.17224372906E+03  0.27663578081E+03  0.12500000000E+03 0.  0.
         25    1    1    2    0    0 -0.82442943677E+02  0.50453871400E+02 -0.25984710258E+03  0.30411831385E+03  0.12500000000E+03 0.  0.
</event>
<event>
 5    0  0.5583350E-005  0.3252243E+03  0.7546771E-02  0.1073270E+00
         21   -1    0    0  502  501  0.00000000000E+00  0.00000000000E+00  0.60485164922E+03  0.60485164922E+03  0.00000000000E+00 0. -1.
         21   -1    0    0  501  502 -0.00000000000E+00 -0.00000000000E+00 -0.17487077462E+03  0.17487077462E+03  0.00000000000E+00 0. -1.
         25    1    1    2    0    0  0.19324133151E+03 -0.68818794971E+01  0.25361447449E+03  0.34254178451E+03  0.12500000000E+03 0.  0.
         25    1    1    2    0    0  0.10274021805E+02 -0.39863928044E+02 -0.80218316438E+01  0.13184854215E+03  0.12500000000E+03 0.  0.
         25    1    1    2    0    0 -0.20351535331E+03  0.46745807541E+02  0.18438823177E+03  0.30533209718E+03  0.12500000000E+03 0.  0.
</event>
<event>
 5    0  0.5583350E-005  0.2337881E+03  0.7546771E-02  0.1124002E+00
         21   -1    0    0  502  501  0.00000000000E+00  0.00000000000E+00  0.55036576925E+03  0.55036576925E+03  0.00000000000E+00 0.  1.
         21   -1    0    0  501  502 -0.00000000000E+00 -0.00000000000E+00 -0.99310119382E+02  0.99310119382E+02  0.00000000000E+00 0.  1.
         25    1    1    2    0    0 -0.86453309578E+02 -0.29404838294E+02  0.26262648794E+03  0.30485486944E+03  0.12500000000E+03 0.  0.
         25    1    1    2    0    0  0.47378725939E+02 -0.10552032507E+01  0.15798984404E+03  0.20695808258E+03  0.12500000000E+03 0.  0.
         25    1    1    2    0    0  0.39074583638E+02  0.30460041544E+02  0.30439317884E+02  0.13786293661E+03  0.12500000000E+03 0.  0.
</event>
<event>
 5    0  0.5583350E-005  0.3409499E+03  0.7546771E-02  0.1066392E+00
         21   -1    0    0  502  501  0.00000000000E+00  0.00000000000E+00  0.20828437925E+03  0.20828437925E+03  0.00000000000E+00 0. -1.
         21   -1    0    0  501  502 -0.00000000000E+00 -0.00000000000E+00 -0.55811602244E+03  0.55811602244E+03  0.00000000000E+00 0. -1.
         25    1    1    2    0    0 -0.11125023076E+03 -0.78108017834E+02 -0.22724605713E+03  0.29281947813E+03  0.12500000000E+03 0.  0.
         25    1    1    2    0    0 -0.10880209333E+03 -0.43293324743E+02 -0.82258986393E+02  0.19000986375E+03  0.12500000000E+03 0.  0.
         25    1    1    2    0    0  0.22005232410E+03  0.12140134258E+03 -0.40326599670E+02  0.28357105981E+03  0.12500000000E+03 0.  0.
</event>
<event>
 5    0  0.5583350E-005  0.3203959E+03  0.7546771E-02  0.1075467E+00
         21   -1    0    0  502  501  0.00000000000E+00  0.00000000000E+00  0.91868274283E+03  0.91868274283E+03  0.00000000000E+00 0. -1.
         21   -1    0    0  501  502 -0.00000000000E+00 -0.00000000000E+00 -0.11173993930E+03  0.11173993930E+03  0.00000000000E+00 0. -1.
         25    1    1    2    0    0 -0.17825593731E+02  0.79516956281E+02  0.56567859913E+03  0.58502818363E+03  0.12500000000E+03 0.  0.
         25    1    1    2    0    0 -0.97841904104E+02 -0.11831395036E+03  0.14951739029E+03  0.24809610849E+03  0.12500000000E+03 0.  0.
         25    1    1    2    0    0  0.11566749783E+03  0.38796994078E+02  0.91746814113E+02  0.19729839002E+03  0.12500000000E+03 0.  0.
</event>
<event>
 5    0  0.6237713E-005  0.3287726E+03  0.7546771E-02  0.1071681E+00
         21   -1    0    0  502  501  0.00000000000E+00  0.00000000000E+00  0.53686179331E+03  0.53686179331E+03  0.00000000000E+00 0. -1.
         21   -1    0    0  501  502 -0.00000000000E+00 -0.00000000000E+00 -0.20133942728E+03  0.20133942728E+03  0.00000000000E+00 0. -1.
         25    1    1    2    0    0  0.14927025090E+01  0.44932453433E+02 -0.40486670199E+02  0.13887160976E+03  0.12500000000E+03 0.  0.
         25    1    1    2    0    0  0.52942059151E+02  0.13707171356E+03  0.30537350756E+03  0.36120561375E+03  0.12500000000E+03 0.  0.
         25    1    1    2    0    0 -0.54434761660E+02 -0.18200416699E+03  0.70635528663E+02  0.23812399709E+03  0.12500000000E+03 0.  0.
</event>
<event>
 5    0  0.5583350E-005  0.4056917E+03  0.7546771E-02  0.1041826E+00
         21   -1    0    0  502  501  0.00000000000E+00  0.00000000000E+00  0.10033354208E+04  0.10033354208E+04  0.00000000000E+00 0. -1.
         21   -1    0    0  501  502 -0.00000000000E+00 -0.00000000000E+00 -0.16403860171E+03  0.16403860171E+03  0.00000000000E+00 0. -1.
         25    1    1    2    0    0 -0.51878033548E+02  0.91964403598E+02  0.50046948134E+02  0.17110955237E+03  0.12500000000E+03 0.  0.
         25    1    1    2    0    0 -0.24571316351E+03 -0.16290118198E+02  0.34369565946E+03  0.44089911885E+03  0.12500000000E+03 0.  0.
         25    1    1    2    0    0  0.29759119705E+03 -0.75674285400E+02  0.44555421152E+03  0.55536535131E+03  0.12500000000E+03 0.  0.
</event>
<event>
 5    0  0.5583350E-005  0.3361574E+03  0.7546771E-02  0.1068444E+00
         21   -1    0    0  502  501  0.00000000000E+00  0.00000000000E+00  0.48476671896E+02  0.48476671896E+02  0.00000000000E+00 0.  1.
         21   -1    0    0  501  502 -0.00000000000E+00 -0.00000000000E+00 -0.23310558782E+04  0.23310558782E+04  0.00000000000E+00 0.  1.
         25    1    1    2    0    0 -0.45274510470E+02 -0.18116535968E+03 -0.33002046333E+03  0.39926078578E+03  0.12500000000E+03 0.  0.
         25    1    1    2    0    0  0.43778971896E+02  0.15230972968E+03 -0.11941969423E+04  0.12111342573E+04  0.12500000000E+03 0.  0.
         25    1    1    2    0    0  0.14955385740E+01  0.28855629998E+02 -0.75836180065E+03  0.76913750702E+03  0.12500000000E+03 0.  0.
</event>
<event>
 5    0  0.5583350E-005  0.3696921E+03  0.7546771E-02  0.1054811E+00
         21   -1    0    0  502  501  0.00000000000E+00  0.00000000000E+00  0.13766620844E+03  0.13766620844E+03  0.00000000000E+00 0. -1.
         21   -1    0    0  501  502 -0.00000000000E+00 -0.00000000000E+00 -0.99278004476E+03  0.99278004476E+03  0.00000000000E+00 0. -1.
         25    1    1    2    0    0 -0.29587241006E+03 -0.60531878848E+01 -0.51161862783E+03  0.60411567142E+03  0.12500000000E+03 0.  0.
         25    1    1    2    0    0  0.19870617102E+03 -0.29237195579E+02 -0.20145238749E+03  0.31072016418E+03  0.12500000000E+03 0.  0.
         25    1    1    2    0    0  0.97166239039E+02  0.35290383464E+02 -0.14204282101E+03  0.21561041759E+03  0.12500000000E+03 0.  0.
</event>
<event>
 5    0  0.5583350E-005  0.5266221E+03  0.7546771E-02  0.1007055E+00
         21   -1    0    0  502  501  0.00000000000E+00  0.00000000000E+00  0.55583974678E+03  0.55583974678E+03  0.00000000000E+00 0. -1.
         21   -1    0    0  501  502 -0.00000000000E+00 -0.00000000000E+00 -0.49894021253E+03  0.49894021253E+03  0.00000000000E+00 0. -1.
         25    1    1    2    0    0  0.50344202602E+02  0.39159099505E+03 -0.22250379105E+03  0.47011805238E+03  0.12500000000E+03 0.  0.
         25    1    1    2    0    0  0.61788019028E+02 -0.19479086940E+03  0.63831896498E+02  0.24791279335E+03  0.12500000000E+03 0.  0.
         25    1    1    2    0    0 -0.11213222163E+03 -0.19680012565E+03  0.21557142879E+03  0.33674911358E+03  0.12500000000E+03 0.  0.
</event>
<event>
 5    0  0.5583350E-005  0.4103585E+03  0.7546771E-02  0.1040251E+00
         21   -1    0    0  502  501  0.00000000000E+00  0.00000000000E+00  0.27203919721E+03  0.27203919721E+03  0.00000000000E+00 0. -1.
         21   -1    0    0  501  502 -0.00000000000E+00 -0.00000000000E+00 -0.61900675448E+03  0.61900675448E+03  0.00000000000E+00 0. -1.
         25    1    1    2    0    0 -0.29613230551E+02  0.16977658133E+02  0.15257041538E+03  0.20016971786E+03  0.12500000000E+03 0.  0.
         25    1    1    2    0    0 -0.13858996143E+03  0.86755322249E+02 -0.10208283685E+03  0.22973804415E+03  0.12500000000E+03 0.  0.
         25    1    1    2    0    0  0.16820319199E+03 -0.10373298038E+03 -0.39745513580E+03  0.46113818968E+03  0.12500000000E+03 0.  0.
</event>
<event>
 5    0  0.5583350E-005  0.2668449E+03  0.7546771E-02  0.1103099E+00
         21   -1    0    0  502  501  0.00000000000E+00  0.00000000000E+00  0.10516106892E+04  0.10516106892E+04  0.00000000000E+00 0. -1.
         21   -1    0    0  501  502 -0.00000000000E+00 -0.00000000000E+00 -0.67711539422E+02  0.67711539422E+02  0.00000000000E+00 0. -1.
         25    1    1    2    0    0 -0.10389255943E+03  0.12647595277E+03  0.37593705828E+03  0.42865312588E+03  0.12500000000E+03 0.  0.
         25    1    1    2    0    0  0.18819182088E+02 -0.49198344787E+01  0.17221764321E+03  0.21368734875E+03  0.12500000000E+03 0.  0.
         25    1    1    2    0    0  0.85073377339E+02 -0.12155611830E+03  0.43574444830E+03  0.47698175400E+03  0.12500000000E+03 0.  0.
</event>
<event>
 5    0  0.5583350E-005  0.4548190E+03  0.7546771E-02  0.1026295E+00
         21   -1    0    0  502  501  0.00000000000E+00  0.00000000000E+00  0.22866767982E+03  0.22866767982E+03  0.00000000000E+00 0.  1.
         21   -1    0    0  501  502 -0.00000000000E+00 -0.00000000000E+00 -0.90463312852E+03  0.90463312852E+03  0.00000000000E+00 0.  1.
         25    1    1    2    0    0  0.23455069250E+03 -0.25007386990E+03 -0.88758845130E+02  0.37557169802E+03  0.12500000000E+03 0.  0.
         25    1    1    2    0    0 -0.13630904810E+03  0.12142379699E+03 -0.47606532865E+03  0.52496389610E+03  0.12500000000E+03 0.  0.
         25    1    1    2    0    0 -0.98241644405E+02  0.12865007291E+03 -0.11114127492E+03  0.23276521421E+03  0.12500000000E+03 0.  0.
</event>
<event>
 5    0  0.5583350E-005  0.6776451E+03  0.7546771E-02  0.9756245E-01
         21   -1    0    0  502  501  0.00000000000E+00  0.00000000000E+00  0.20355070691E+03  0.20355070691E+03  0.00000000000E+00 0.  1.
         21   -1    0    0  501  502 -0.00000000000E+00 -0.00000000000E+00 -0.22559632651E+04  0.22559632651E+04  0.00000000000E+00 0.  1.
         25    1    1    2    0    0 -0.17417559191E+03  0.44048989514E+02  0.35091794515E+02  0.22166164381E+03  0.12500000000E+03 0.  0.
         25    1    1    2    0    0  0.92749075760E+02 -0.32824191005E+03 -0.49890246429E+03  0.61714974798E+03  0.12500000000E+03 0.  0.
         25    1    1    2    0    0  0.81426516148E+02  0.28419292053E+03 -0.15886018884E+04  0.16207025802E+04  0.12500000000E+03 0.  0.
</event>
<event>
 5    0  0.5583350E-005  0.4301951E+03  0.7546771E-02  0.1033798E+00
         21   -1    0    0  502  501  0.00000000000E+00  0.00000000000E+00  0.10859169664E+04  0.10859169664E+04  0.00000000000E+00 0. -1.
         21   -1    0    0  501  502 -0.00000000000E+00 -0.00000000000E+00 -0.17042539376E+03  0.17042539376E+03  0.00000000000E+00 0. -1.
         25    1    1    2    0    0 -0.25280107804E+03 -0.14844788908E+03  0.28764240154E+03  0.42931143939E+03  0.12500000000E+03 0.  0.
         25    1    1    2    0    0  0.25150785740E+03  0.20745345145E+03  0.58680891855E+03  0.68283441898E+03  0.12500000000E+03 0.  0.
         25    1    1    2    0    0  0.12932206320E+01 -0.59005562373E+02  0.41040252602E+02  0.14419650184E+03  0.12500000000E+03 0.  0.
</event>
<event>
 5    0  0.5583350E-005  0.3249169E+03  0.7546771E-02  0.1073408E+00
         21   -1    0    0  502  501  0.00000000000E+00  0.00000000000E+00  0.59618061600E+03  0.59618061600E+03  0.00000000000E+00 0.  1.
         21   -1    0    0  501  502 -0.00000000000E+00 -0.00000000000E+00 -0.17707884089E+03  0.17707884089E+03  0.00000000000E+00 0.  1.
         25    1    1    2    0    0 -0.39068705393E+02 -0.25970439201E+02 -0.71515996079E+02  0.15146077099E+03  0.12500000000E+03 0.  0.
         25    1    1    2    0    0  0.13363863225E+03  0.93032567953E+02  0.32301475847E+03  0.38272428316E+03  0.12500000000E+03 0.  0.
         25    1    1    2    0    0 -0.94569926854E+02 -0.67062128751E+02  0.16760301271E+03  0.23907440275E+03  0.12500000000E+03 0.  0.
</event>
<event>
 5    0  0.5583350E-005  0.2192742E+03  0.7546771E-02  0.1134425E+00
         21   -1    0    0  502  501  0.00000000000E+00  0.00000000000E+00  0.60919563877E+03  0.60919563877E+03  0.00000000000E+00 0. -1.
         21   -1    0    0  501  502 -0.00000000000E+00 -0.00000000000E+00 -0.78925679968E+02  0.78925679968E+02  0.00000000000E+00 0. -1.
         25    1    1    2    0    0  0.50898231027E+02 -0.40631930140E+02  0.24337945855E+03  0.28124747912E+03  0.12500000000E+03 0.  0.
         25    1    1    2    0    0 -0.25496439612E+02 -0.44533758747E+02  0.13218123584E+03  0.18902434554E+03  0.12500000000E+03 0.  0.
         25    1    1    2    0    0 -0.25401791415E+02  0.85165688887E+02  0.15470926441E+03  0.21784949407E+03  0.12500000000E+03 0.  0.
</event>
<event>
 5    0  0.5583350E-005  0.2738023E+03  0.7546771E-02  0.1099123E+00
         21   -1    0    0  502  501  0.00000000000E+00  0.00000000000E+00  0.24161912186E+03  0.24161912186E+03  0.00000000000E+00 0.  1.
         21   -1    0    0  501  502 -0.00000000000E+00 -0.00000000000E+00 -0.31027231576E+03  0.31027231576E+03  0.00000000000E+00 0.  1.
         25    1    1    2    0    0  0.15129201068E+02  0.17361682212E+02  0.10693658961E+03  0.16610465054E+03  0.12500000000E+03 0.  0.
         25    1    1    2    0    0  0.76220464402E+02 -0.64160701276E+02 -0.15514761665E+03  0.22275982074E+03  0.12500000000E+03 0.  0.
         25    1    1    2    0    0 -0.91349665470E+02  0.46799019064E+02 -0.20442166861E+02  0.16302696634E+03  0.12500000000E+03 0.  0.
</event>
<event>
 5    0  0.5583350E-005  0.3595439E+03  0.7546771E-02  0.1058765E+00
         21   -1    0    0  502  501  0.00000000000E+00  0.00000000000E+00  0.52498693496E+03  0.52498693496E+03  0.00000000000E+00 0. -1.
         21   -1    0    0  501  502 -0.00000000000E+00 -0.00000000000E+00 -0.24623822476E+03  0.24623822476E+03  0.00000000000E+00 0. -1.
         25    1    1    2    0    0 -0.59716283804E+02 -0.45171684968E+01 -0.22315662132E+02  0.14039027081E+03  0.12500000000E+03 0.  0.
         25    1    1    2    0    0  0.79102768632E+02  0.20151288695E+03  0.66113994221E+00  0.24998025666E+03  0.12500000000E+03 0.  0.
         25    1    1    2    0    0 -0.19386484828E+02 -0.19699571845E+03  0.30040323239E+03  0.38085463226E+03  0.12500000000E+03 0.  0.
</event>
<event>
 5    0  0.5583350E-005  0.4637272E+03  0.7546771E-02  0.1023706E+00
         21   -1    0    0  502  501  0.00000000000E+00  0.00000000000E+00  0.16031204027E+03  0.16031204027E+03  0.00000000000E+00 0. -1.
         21   -1    0    0  501  502 -0.00000000000E+00 -0.00000000000E+00 -0.13414022871E+04  0.13414022871E+04  0.00000000000E+00 0. -1.
         25    1    1    2    0    0  0.81818971602E+02 -0.16395116666E+02 -0.10906410214E+04  0.11009477651E+04  0.12500000000E+03 0.  0.
         25    1    1    2    0    0  0.72370080949E+02 -0.36556804805E+02 -0.12245071752E+03  0.19285488538E+03  0.12500000000E+03 0.  0.
         25    1    1    2    0    0 -0.15418905255E+03  0.52951921471E+02  0.32001492029E+02  0.20791167694E+03  0.12500000000E+03 0.  0.
</event>
<event>
 5    0  0.5583350E-005  0.4941733E+03  0.7546771E-02  0.1015311E+00
         21   -1    0    0  502  501  0.00000000000E+00  0.00000000000E+00  0.89539355328E+03  0.89539355328E+03  0.00000000000E+00 0.  1.
         21   -1    0    0  501  502 -0.00000000000E+00 -0.00000000000E+00 -0.27273730562E+03  0.27273730562E+03  0.00000000000E+00 0.  1.
         25    1    1    2    0    0 -0.29131025702E+03  0.24558479186E+03  0.17391992766E+03  0.43708888922E+03  0.12500000000E+03 0.  0.
         25    1    1    2    0    0 -0.19376020401E+02  0.34571684343E+02  0.51907337232E+02  0.14103192257E+03  0.12500000000E+03 0.  0.
         25    1    1    2    0    0  0.31068627742E+03 -0.28015647620E+03  0.39682898277E+03  0.59001004712E+03  0.12500000000E+03 0.  0.
</event>
<event>
 5    0  0.5583350E-005  0.3139150E+03  0.7546771E-02  0.1078484E+00
         21   -1    0    0  502  501  0.00000000000E+00  0.00000000000E+00  0.22261878636E+03  0.22261878636E+03  0.00000000000E+00 0.  1.
         21   -1    0    0  501  502 -0.00000000000E+00 -0.00000000000E+00 -0.44265175635E+03  0.44265175635E+03  0.00000000000E+00 0.  1.
         25    1    1    2    0    0 -0.12650001607E+03 -0.14292046419E+03 -0.15787837042E+03  0.27745106415E+03  0.12500000000E+03 0.  0.
         25    1    1    2    0    0 -0.47097259565E+02  0.88293160683E+02 -0.71148412817E+01  0.16027930324E+03  0.12500000000E+03 0.  0.
         25    1    1    2    0    0  0.17359727563E+03  0.54627303508E+02 -0.55039758288E+02  0.22754017533E+03  0.12500000000E+03 0.  0.
</event>
<event>
 5    0  0.5583350E-005  0.2686691E+03  0.7546771E-02  0.1102044E+00
         21   -1    0    0  502  501  0.00000000000E+00  0.00000000000E+00  0.22128709162E+04  0.22128709162E+04  0.00000000000E+00 0. -1.
         21   -1    0    0  501  502 -0.00000000000E+00 -0.00000000000E+00 -0.32619665393E+02  0.32619665393E+02  0.00000000000E+00 0. -1.
         25    1    1    2    0    0 -0.25151965886E+02  0.13135260390E+02  0.95445012682E+03  0.96301879579E+03  0.12500000000E+03 0.  0.
         25    1    1    2    0    0 -0.49935418066E+02 -0.13055150084E+03  0.68395781360E+03  0.70919710316E+03  0.12500000000E+03 0.  0.
         25    1    1    2    0    0  0.75087383951E+02  0.11741624045E+03  0.54184331043E+03  0.57327468269E+03  0.12500000000E+03 0.  0.
</event>
<event>
 5    0  0.5583350E-005  0.4845305E+03  0.7546771E-02  0.1017897E+00
         21   -1    0    0  502  501  0.00000000000E+00  0.00000000000E+00  0.66256988377E+03  0.66256988377E+03  0.00000000000E+00 0.  1.
         21   -1    0    0  501  502 -0.00000000000E+00 -0.00000000000E+00 -0.35433210212E+03  0.35433210212E+03  0.00000000000E+00 0.  1.
         25    1    1    2    0    0  0.83691155471E+02  0.21326556685E+03  0.62648299605E+02  0.26839564257E+03  0.12500000000E+03 0.  0.
         25    1    1    2    0    0  0.57296519996E+02  0.20489252439E+03  0.61599244374E+02  0.25432912665E+03  0.12500000000E+03 0.  0.
         25    1    1    2    0    0 -0.14098767547E+03 -0.41815809125E+03  0.18399023768E+03  0.49417721666E+03  0.12500000000E+03 0.  0.
</event>
<event>
 5    0  0.5583350E-005  0.3959398E+03  0.7546771E-02  0.1045195E+00
         21   -1    0    0  502  501  0.00000000000E+00  0.00000000000E+00  0.37696869528E+03  0.37696869528E+03  0.00000000000E+00 0.  1.
         21   -1    0    0  501  502 -0.00000000000E+00 -0.00000000000E+00 -0.41586555363E+03  0.41586555363E+03  0.00000000000E+00 0.  1.
         25    1    1    2    0    0  0.50778450898E+02  0.17553091215E+03  0.12736957737E+03  0.25541644707E+03  0.12500000000E+03 0.  0.
         25    1    1    2    0    0  0.41221054180E+02  0.81052723773E+02  0.55728436448E+02  0.16431487446E+03  0.12500000000E+03 0.  0.
         25    1    1    2    0    0 -0.91999505077E+02 -0.25658363593E+03 -0.22199487216E+03  0.37310292738E+03  0.12500000000E+03 0.  0.
</event>
<event>
 5    0  0.5583350E-005  0.3475807E+03  0.7546771E-02  0.1063612E+00
         21   -1    0    0  502  501  0.00000000000E+00  0.00000000000E+00  0.60382972363E+03  0.60382972363E+03  0.00000000000E+00 0. -1.
         21   -1    0    0  501  502 -0.00000000000E+00 -0.00000000000E+00 -0.20007684360E+03  0.20007684360E+03  0.00000000000E+00 0. -1.
         25    1    1    2    0    0  0.64852380407E+01  0.13972719949E+03  0.17170686078E+03  0.25431082287E+03  0.12500000000E+03 0.  0.
         25    1    1    2    0    0  0.92620093464E+02 -0.39712229089E+02 -0.84383944086E+02  0.18138685970E+03  0.12500000000E+03 0.  0.
         25    1    1    2    0    0 -0.99105331504E+02 -0.10001497040E+03  0.31642996335E+03  0.36820888466E+03  0.12500000000E+03 0.  0.
</event>
<event>
 5    0  0.5583350E-005  0.2534922E+03  0.7546771E-02  0.1111118E+00
         21   -1    0    0  502  501  0.00000000000E+00  0.00000000000E+00  0.72074906233E+03  0.72074906233E+03  0.00000000000E+00 0. -1.
         21   -1    0    0  501  502 -0.00000000000E+00 -0.00000000000E+00 -0.89154867597E+02  0.89154867597E+02  0.00000000000E+00 0. -1.
         25    1    1    2    0    0  0.80870383037E+02  0.48092432235E+01  0.35582583809E+03  0.38574625692E+03  0.12500000000E+03 0.  0.
         25    1    1    2    0    0 -0.41513994720E+02  0.66139182057E+02  0.53993192161E+02  0.15696518073E+03  0.12500000000E+03 0.  0.
         25    1    1    2    0    0 -0.39356388317E+02 -0.70948425280E+02  0.22177516448E+03  0.26719249228E+03  0.12500000000E+03 0.  0.
</event>
<event>
 5    0  0.5583350E-005  0.2411602E+03  0.7546771E-02  0.1119022E+00
         21   -1    0    0  502  501  0.00000000000E+00  0.00000000000E+00  0.20891325950E+03  0.20891325950E+03  0.00000000000E+00 0. -1.
         21   -1    0    0  501  502 -0.00000000000E+00 -0.00000000000E+00 -0.27838468133E+03  0.27838468133E+03  0.00000000000E+00 0. -1.
         25    1    1    2    0    0  0.18436978701E+02  0.33929685697E+02 -0.72602556412E+02  0.14962378472E+03  0.12500000000E+03 0.  0.
         25    1    1    2    0    0  0.71382112867E+02 -0.69049141814E+02  0.58996865551E+02  0.17020229190E+03  0.12500000000E+03 0.  0.
         25    1    1    2    0    0 -0.89819091568E+02  0.35119456117E+02 -0.55865730966E+02  0.16747186422E+03  0.12500000000E+03 0.  0.
</event>
<event>
 5    0  0.5583350E-005  0.3003209E+03  0.7546771E-02  0.1085080E+00
         21   -1    0    0  502  501  0.00000000000E+00  0.00000000000E+00  0.10534389363E+03  0.10534389363E+03  0.00000000000E+00 0.  1.
         21   -1    0    0  501  502 -0.00000000000E+00 -0.00000000000E+00 -0.85617342672E+03  0.85617342672E+03  0.00000000000E+00 0.  1.
         25    1    1    2    0    0 -0.16367533398E+03  0.37684543833E+02 -0.24996886762E+03  0.32606621195E+03  0.12500000000E+03 0.  0.
         25    1    1    2    0    0 -0.52682824992E+02  0.12423511297E+02 -0.17649230025E+03  0.22294473694E+03  0.12500000000E+03 0.  0.
         25    1    1    2    0    0  0.21635815897E+03 -0.50108055130E+02 -0.32436836521E+03  0.41250637145E+03  0.12500000000E+03 0.  0.
</event>
<event>
 5    0  0.5583350E-005  0.2365143E+03  0.7546771E-02  0.1122137E+00
         21   -1    0    0  502  501  0.00000000000E+00  0.00000000000E+00  0.19970718616E+03  0.19970718616E+03  0.00000000000E+00 0.  1.
         21   -1    0    0  501  502 -0.00000000000E+00 -0.00000000000E+00 -0.28010525001E+03  0.28010525001E+03  0.00000000000E+00 0.  1.
         25    1    1    2    0    0  0.48012042424E+02 -0.22548876826E+02 -0.11225547170E+03  0.17618143770E+03  0.12500000000E+03 0.  0.
         25    1    1    2    0    0 -0.54771606058E+01 -0.57786677595E+02  0.52948831322E+02  0.14764104488E+03  0.12500000000E+03 0.  0.
         25    1    1    2    0    0 -0.42534881819E+02  0.80335554420E+02 -0.21091423472E+02  0.15598995358E+03  0.12500000000E+03 0.  0.
</event>
<event>
 5    0  0.5743346E-005  0.3017769E+03  0.7546771E-02  0.1084356E+00
         21   -1    0    0  502  501  0.00000000000E+00  0.00000000000E+00  0.13164627880E+03  0.13164627880E+03  0.00000000000E+00 0.  1.
         21   -1    0    0  501  502 -0.00000000000E+00 -0.00000000000E+00 -0.69177281377E+03  0.69177281377E+03  0.00000000000E+00 0.  1.
         25    1    1    2    0    0  0.24777027177E+02 -0.74262683269E+02 -0.74781413723E+02  0.16536658381E+03  0.12500000000E+03 0.  0.
         25    1    1    2    0    0 -0.81567980200E+02  0.13448434019E+03 -0.46526642216E+03  0.50679109773E+03  0.12500000000E+03 0.  0.
         25    1    1    2    0    0  0.56790953023E+02 -0.60221656925E+02 -0.20078699088E+02  0.15126141102E+03  0.12500000000E+03 0.  0.
</event>
<event>
 5    0  0.5583350E-005  0.3298263E+03  0.7546771E-02  0.1071214E+00
         21   -1    0    0  502  501  0.00000000000E+00  0.00000000000E+00  0.48112923027E+03  0.48112923027E+03  0.00000000000E+00 0. -1.
         21   -1    0    0  501  502 -0.00000000000E+00 -0.00000000000E+00 -0.22610435576E+03  0.22610435576E+03  0.00000000000E+00 0. -1.
         25    1    1    2    0    0  0.61821274917E+02  0.19970536321E+03  0.50891076887E+02  0.24883529459E+03  0.12500000000E+03 0.  0.
         25    1    1    2    0    0 -0.34251293128E+02 -0.67075837904E+02  0.22987326420E+03  0.27228484480E+03  0.12500000000E+03 0.  0.
         25    1    1    2    0    0 -0.27569981789E+02 -0.13262952531E+03 -0.25739466576E+02  0.18611344664E+03  0.12500000000E+03 0.  0.
</event>
<event>
 5    0  0.5583350E-005  0.4025203E+03  0.7546771E-02  0.1042910E+00
         21   -1    0    0  502  501  0.00000000000E+00  0.00000000000E+00  0.31979006819E+03  0.31979006819E+03  0.00000000000E+00 0. -1.
         21   -1    0    0  501  502 -0.00000000000E+00 -0.00000000000E+00 -0.50665309471E+03  0.50665309471E+03  0.00000000000E+00 0. -1.
         25    1    1    2    0    0  0.18715548038E+02  0.15642458415E+03 -0.73099800292E+02  0.21398014643E+03  0.12500000000E+03 0.  0.
         25    1    1    2    0    0  0.69853818752E+02 -0.30625543619E+03  0.51332885679E+02  0.34195323268E+03  0.12500000000E+03 0.  0.
         25    1    1    2    0    0 -0.88569366791E+02  0.14983085204E+03 -0.16509611190E+03  0.27050978378E+03  0.12500000000E+03 0.  0.
</event>
<event>
 5    0  0.6321463E-005  0.3383034E+03  0.7546771E-02  0.1067521E+00
         21   -1    0    0  502  501  0.00000000000E+00  0.00000000000E+00  0.54404709200E+03  0.54404709200E+03  0.00000000000E+00 0. -1.
         21   -1    0    0  501  502 -0.00000000000E+00 -0.00000000000E+00 -0.21036629295E+03  0.21036629295E+03  0.00000000000E+00 0. -1.
         25    1    1    2    0    0 -0.12835735282E+03 -0.34531093956E+02  0.35038197334E+03  0.39504497683E+03  0.12500000000E+03 0.  0.
         25    1    1    2    0    0 -0.17254455668E+01  0.94407821979E+02 -0.53920837046E+02  0.16567519634E+03  0.12500000000E+03 0.  0.
         25    1    1    2    0    0  0.13008279839E+03 -0.59876728022E+02  0.37219662751E+02  0.19369321178E+03  0.12500000000E+03 0.  0.
</event>
<event>
 5    0  0.5583350E-005  0.3272948E+03  0.7546771E-02  0.1072340E+00
         21   -1    0    0  502  501  0.00000000000E+00  0.00000000000E+00  0.16288354648E+03  0.16288354648E+03  0.00000000000E+00 0. -1.
         21   -1    0    0  501  502 -0.00000000000E+00 -0.00000000000E+00 -0.65765950693E+03  0.65765950693E+03  0.00000000000E+00 0. -1.
         25    1    1    2    0    0  0.74516742261E+02  0.16612697786E+02 -0.12734115280E+03  0.19408631018E+03  0.12500000000E+03 0.  0.
         25    1    1    2    0    0 -0.15615305742E+03 -0.86097379151E+02 -0.40292029396E+03  0.45800251018E+03  0.12500000000E+03 0.  0.
         25    1    1    2    0    0  0.81636315158E+02  0.69484681365E+02  0.35485486309E+02  0.16845423306E+03  0.12500000000E+03 0.  0.
</event>
<event>
 5    0  0.5583350E-005  0.5334038E+03  0.7546771E-02  0.1005410E+00
         21   -1    0    0  502  501  0.00000000000E+00  0.00000000000E+00  0.86366362346E+03  0.86366362346E+03  0.00000000000E+00 0. -1.
         21   -1    0    0  501  502 -0.00000000000E+00 -0.00000000000E+00 -0.32943342646E+03  0.32943342646E+03  0.00000000000E+00 0. -1.
         25    1    1    2    0    0 -0.26475016393E+02 -0.53411451242E+02 -0.98409377145E+02  0.16989148044E+03  0.12500000000E+03 0.  0.
         25    1    1    2    0    0 -0.13236354935E+03 -0.23411177224E+03 -0.33232522299E+01  0.29658805624E+03  0.12500000000E+03 0.  0.
         25    1    1    2    0    0  0.15883856574E+03  0.28752322348E+03  0.63596282638E+03  0.72661751324E+03  0.12500000000E+03 0.  0.
</event>
<event>
 5    0  0.5583350E-005  0.3083218E+03  0.7546771E-02  0.1081153E+00
         21   -1    0    0  502  501  0.00000000000E+00  0.00000000000E+00  0.72048885026E+03  0.72048885026E+03  0.00000000000E+00 0. -1.
         21   -1    0    0  501  502 -0.00000000000E+00 -0.00000000000E+00 -0.13194143423E+03  0.13194143423E+03  0.00000000000E+00 0. -1.
         25    1    1    2    0    0 -0.25076311545E+02  0.18509558933E+02  0.54040845206E+03  0.55555172597E+03  0.12500000000E+03 0.  0.
         25    1    1    2    0    0  0.64978435893E+02  0.31392056706E+02  0.59323015637E+02  0.15605088446E+03  0.12500000000E+03 0.  0.
         25    1    1    2    0    0 -0.39902124348E+02 -0.49901615639E+02 -0.11184051663E+02  0.14082767406E+03  0.12500000000E+03 0.  0.
</event>
<event>
 5    0  0.5583350E-005  0.3043156E+03  0.7546771E-02  0.1083103E+00
         21   -1    0    0  502  501  0.00000000000E+00  0.00000000000E+00  0.20344020375E+03  0.20344020375E+03  0.00000000000E+00 0.  1.
         21   -1    0    0  501  502 -0.00000000000E+00 -0.00000000000E+00 -0.45520974686E+03  0.45520974686E+03  0.00000000000E+00 0.  1.
         25    1    1    2    0    0 -0.30407832461E+02  0.16629510456E+02 -0.52360815742E+02  0.13988506682E+03  0.12500000000E+03 0.  0.
         25    1    1    2    0    0  0.13491853091E+02  0.16150322992E+03  0.24426271783E+02  0.20612366707E+03  0.12500000000E+03 0.  0.
         25    1    1    2    0    0  0.16915979370E+02 -0.17813274037E+03 -0.22383499915E+03  0.31264121673E+03  0.12500000000E+03 0.  0.
</event>
<event>
 5    0  0.5583350E-005  0.3887983E+03  0.7546771E-02  0.1047729E+00
         21   -1    0    0  502  501  0.00000000000E+00  0.00000000000E+00  0.28605312986E+03  0.28605312986E+03  0.00000000000E+00 0. -1.
         21   -1    0    0  501  502 -0.00000000000E+00 -0.00000000000E+00 -0.52844779907E+03  0.52844779907E+03  0.00000000000E+00 0. -1.
         25    1    1    2    0    0  0.83815523421E+02  0.63795354903E+02 -0.84878898634E+02  0.18418554967E+03  0.12500000000E+03 0.  0.
         25    1    1    2    0    0 -0.27960389079E+03 -0.68112978901E+02 -0.22763650014E+03  0.38763525361E+03  0.12500000000E+03 0.  0.
         25    1    1    2    0    0  0.19578836737E+03  0.43176239973E+01  0.70120729564E+02  0.24268012566E+03  0.12500000000E+03 0.  0.
</event>
<event>
 5    0  0.5635800E-005  0.3150034E+03  0.7546771E-02  0.1077972E+00
         21   -1    0    0  502  501  0.00000000000E+00  0.00000000000E+00  0.85990586300E+03  0.85990586300E+03  0.00000000000E+00 0. -1.
         21   -1    0    0  501  502 -0.00000000000E+00 -0.00000000000E+00 -0.11539305713E+03  0.11539305713E+03  0.00000000000E+00 0. -1.
         25    1    1    2    0    0 -0.38336447805E+02 -0.89340586500E+02  0.15198661269E+02  0.15908306928E+03  0.12500000000E+03 0.  0.
         25    1    1    2    0    0 -0.75302346760E+02 -0.19817550619E+01  0.47889707367E+03  0.50064136660E+03  0.12500000000E+03 0.  0.
         25    1    1    2    0    0  0.11363879457E+03  0.91322341562E+02  0.25041707093E+03  0.31557448425E+03  0.12500000000E+03 0.  0.
</event>
<event>
 5    0  0.5583350E-005  0.3828478E+03  0.7546771E-02  0.1049886E+00
         21   -1    0    0  502  501  0.00000000000E+00  0.00000000000E+00  0.67719305903E+03  0.67719305903E+03  0.00000000000E+00 0. -1.
         21   -1    0    0  501  502 -0.00000000000E+00 -0.00000000000E+00 -0.21644111966E+03  0.21644111966E+03  0.00000000000E+00 0. -1.
         25    1    1    2    0    0  0.34829035141E+01 -0.20194430646E+03  0.20144917617E+03  0.31144887881E+03  0.12500000000E+03 0.  0.
         25    1    1    2    0    0  0.41623614535E+02  0.27624911765E+03  0.29577875118E+03  0.42562444706E+03  0.12500000000E+03 0.  0.
         25    1    1    2    0    0 -0.45106518049E+02 -0.74304811183E+02 -0.36475987980E+02  0.15656085282E+03  0.12500000000E+03 0.  0.
</event>
<event>
 5    0  0.5583350E-005  0.3517729E+03  0.7546771E-02  0.1061890E+00
         21   -1    0    0  502  501  0.00000000000E+00  0.00000000000E+00  0.77743002584E+02  0.77743002584E+02  0.00000000000E+00 0.  1.
         21   -1    0    0  501  502 -0.00000000000E+00 -0.00000000000E+00 -0.15917077429E+04  0.15917077429E+04  0.00000000000E+00 0.  1.
         25    1    1    2    0    0  0.11876530264E+03  0.10489349219E+03 -0.98015497660E+03  0.10007180522E+04  0.12500000000E+03 0.  0.
         25    1    1    2    0    0  0.77913159245E+02 -0.46342011824E+00 -0.20382106720E+03  0.25147306531E+03  0.12500000000E+03 0.  0.
         25    1    1    2    0    0 -0.19667846189E+03 -0.10443007208E+03 -0.32998869654E+03  0.41725962801E+03  0.12500000000E+03 0.  0.
</event>
<event>
 5    0  0.5688026E-005  0.4034345E+03  0.7546771E-02  0.1042597E+00
         21   -1    0    0  502  501  0.00000000000E+00  0.00000000000E+00  0.52521378568E+03  0.52521378568E+03  0.00000000000E+00 0. -1.
         21   -1    0    0  501  502 -0.00000000000E+00 -0.00000000000E+00 -0.30989177845E+03  0.30989177845E+03  0.00000000000E+00 0. -1.
         25    1    1    2    0    0  0.80255055276E+02  0.23643873132E+02  0.23389318429E+03  0.27808439059E+03  0.12500000000E+03 0.  0.
         25    1    1    2    0    0 -0.28183100244E+03 -0.54960486811E+02 -0.44741594148E+02  0.31634819313E+03  0.12500000000E+03 0.  0.
         25    1    1    2    0    0  0.20157594717E+03  0.31316613678E+02  0.26170417092E+02  0.24067298041E+03  0.12500000000E+03 0.  0.
</event>
<event>
 5    0  0.5583350E-005  0.2728177E+03  0.7546771E-02  0.1099678E+00
         21   -1    0    0  502  501  0.00000000000E+00  0.00000000000E+00  0.74254898897E+03  0.74254898897E+03  0.00000000000E+00 0. -1.
         21   -1    0    0  501  502 -0.00000000000E+00 -0.00000000000E+00 -0.10023515154E+03  0.10023515154E+03  0.00000000000E+00 0. -1.
         25    1    1    2    0    0 -0.14271198265E+02 -0.15241700446E+02  0.31852049091E+03  0.34280647553E+03  0.12500000000E+03 0.  0.
         25    1    1    2    0    0  0.99859332946E+02  0.63223406329E+02  0.29050187984E+03  0.33761727988E+03  0.12500000000E+03 0.  0.
         25    1    1    2    0    0 -0.85588134680E+02 -0.47981705883E+02  0.33291466675E+02  0.16236038510E+03  0.12500000000E+03 0.  0.
</event>
<event>
 5    0  0.5583350E-005  0.3669774E+03  0.7546771E-02  0.1055855E+00
         21   -1    0    0  502  501  0.00000000000E+00  0.00000000000E+00  0.40587603636E+03  0.40587603636E+03  0.00000000000E+00 0. -1.
         21   -1    0    0  501  502 -0.00000000000E+00 -0.00000000000E+00 -0.33180667404E+03  0.33180667404E+03  0.00000000000E+00 0. -1.
         25    1    1    2    0    0 -0.88833039690E+02  0.22558466446E+03  0.12476607347E+02  0.27305753150E+03  0.12500000000E+03 0.  0.
         25    1    1    2    0    0  0.13237377423E+03 -0.26184031218E+03  0.13506041426E+02  0.31920303624E+03  0.12500000000E+03 0.  0.
         25    1    1    2    0    0 -0.43540734541E+02  0.36255647723E+02  0.48086713547E+02  0.14542214266E+03  0.12500000000E+03 0.  0.
</event>
<event>
 5    0  0.6616839E-005  0.2930149E+03  0.7546771E-02  0.1088785E+00
         21   -1    0    0  502  501  0.00000000000E+00  0.00000000000E+00  0.90596072037E+02  0.90596072037E+02  0.00000000000E+00 0.  1.
         21   -1    0    0  501  502 -0.00000000000E+00 -0.00000000000E+00 -0.94769828656E+03  0.94769828656E+03  0.00000000000E+00 0.  1.
         25    1    1    2    0    0 -0.10893728573E+03 -0.77988426538E+02 -0.37257674254E+03  0.41519628609E+03  0.12500000000E+03 0.  0.
         25    1    1    2    0    0  0.16203686174E+03  0.50267686852E+02 -0.42063825282E+03  0.47047244834E+03  0.12500000000E+03 0.  0.
         25    1    1    2    0    0 -0.53099576018E+02  0.27720739686E+02 -0.63887219150E+02  0.15262562417E+03  0.12500000000E+03 0.  0.
</event>
<event>
 5    0  0.5583350E-005  0.3680495E+03  0.7546771E-02  0.1055441E+00
         21   -1    0    0  502  501  0.00000000000E+00  0.00000000000E+00  0.11819325577E+03  0.11819325577E+03  0.00000000000E+00 0.  1.
         21   -1    0    0  501  502 -0.00000000000E+00 -0.00000000000E+00 -0.11460926869E+04  0.11460926869E+04  0.00000000000E+00 0.  1.
         25    1    1    2    0    0  0.62398542537E+02  0.81858506273E+01 -0.40897522271E+03  0.43225723713E+03  0.12500000000E+03 0.  0.
         25    1    1    2    0    0 -0.10926124845E+03  0.22535753525E+03 -0.38192848768E+03  0.47351706284E+03  0.12500000000E+03 0.  0.
         25    1    1    2    0    0  0.46862705912E+02 -0.23354338587E+03 -0.23699572069E+03  0.35851164265E+03  0.12500000000E+03 0.  0.
</event>
<event>
 5    0  0.5583350E-005  0.3039692E+03  0.7546771E-02  0.1083273E+00
         21   -1    0    0  502  501  0.00000000000E+00  0.00000000000E+00  0.97629763563E+02  0.97629763563E+02  0.00000000000E+00 0.  1.
         21   -1    0    0  501  502 -0.00000000000E+00 -0.00000000000E+00 -0.94640483851E+03  0.94640483851E+03  0.00000000000E+00 0.  1.
         25    1    1    2    0    0  0.15123561174E+03 -0.72639535787E+01 -0.88635024275E+02  0.21542085045E+03  0.12500000000E+03 0.  0.
         25    1    1    2    0    0 -0.87545356450E+02  0.44915643132E+02 -0.55434756978E+03  0.57672162484E+03  0.12500000000E+03 0.  0.
         25    1    1    2    0    0 -0.63690255290E+02 -0.37651689553E+02 -0.20579248089E+03  0.25189212678E+03  0.12500000000E+03 0.  0.
</event>
<event>
 5    0  0.5583350E-005  0.2841722E+03  0.7546771E-02  0.1093432E+00
         21   -1    0    0  502  501  0.00000000000E+00  0.00000000000E+00  0.18320481509E+04  0.18320481509E+04  0.00000000000E+00 0.  1.
         21   -1    0    0  501  502 -0.00000000000E+00 -0.00000000000E+00 -0.44078459775E+02  0.44078459775E+02  0.00000000000E+00 0.  1.
         25    1    1    2    0    0  0.35054230502E+02 -0.96828597001E+02  0.35045515688E+03  0.38606786094E+03  0.12500000000E+03 0.  0.
         25    1    1    2    0    0  0.83371638640E+02 -0.43303173259E+02  0.79607452114E+03  0.81128640944E+03  0.12500000000E+03 0.  0.
         25    1    1    2    0    0 -0.11842586914E+03  0.14013177026E+03  0.64144001313E+03  0.67877234030E+03  0.12500000000E+03 0.  0.
</event>
<event>
 5    0  0.5583350E-005  0.2700488E+03  0.7546771E-02  0.1101252E+00
         21   -1    0    0  502  501  0.00000000000E+00  0.00000000000E+00  0.24790423026E+03  0.24790423026E+03  0.00000000000E+00 0. -1.
         21   -1    0    0  501  502 -0.00000000000E+00 -0.00000000000E+00 -0.29417141790E+03  0.29417141790E+03  0.00000000000E+00 0. -1.
         25    1    1    2    0    0  0.13566842293E+03  0.33399767281E+02 -0.32163663367E+02  0.19021295086E+03  0.12500000000E+03 0.  0.
         25    1    1    2    0    0 -0.99401596313E+02  0.28792738726E+02  0.78681402742E+02  0.18034816963E+03  0.12500000000E+03 0.  0.
         25    1    1    2    0    0 -0.36266826615E+02 -0.62192506007E+02 -0.92784927015E+02  0.17151452766E+03  0.12500000000E+03 0.  0.
</event>
<event>
 5    0  0.5583350E-005  0.4226625E+03  0.7546771E-02  0.1036203E+00
         21   -1    0    0  502  501  0.00000000000E+00  0.00000000000E+00  0.94234469113E+03  0.94234469113E+03  0.00000000000E+00 0. -1.
         21   -1    0    0  501  502 -0.00000000000E+00 -0.00000000000E+00 -0.18957351319E+03  0.18957351319E+03  0.00000000000E+00 0. -1.
         25    1    1    2    0    0  0.19424172021E+03 -0.17106365409E+03  0.23812180956E+03  0.37325542971E+03  0.12500000000E+03 0.  0.
         25    1    1    2    0    0  0.58517092830E+02  0.37271394434E+02  0.40230155400E+03  0.42694841298E+03  0.12500000000E+03 0.  0.
         25    1    1    2    0    0 -0.25275881304E+03  0.13379225965E+03  0.11234781438E+03  0.33171436163E+03  0.12500000000E+03 0.  0.
</event>
<event>
 5    0  0.5583350E-005  0.3242362E+03  0.7546771E-02  0.1073716E+00
         21   -1    0    0  502  501  0.00000000000E+00  0.00000000000E+00  0.11031616739E+03  0.11031616739E+03  0.00000000000E+00 0.  1.
         21   -1    0    0  501  502 -0.00000000000E+00 -0.00000000000E+00 -0.95298000573E+03  0.95298000573E+03  0.00000000000E+00 0.  1.
         25    1    1    2    0    0 -0.18357528492E+03 -0.15490692805E+03 -0.50218255470E+03  0.57053339940E+03  0.12500000000E+03 0.  0.
         25    1    1    2    0    0  0.11456781739E+03  0.12411240284E+03 -0.20319589479E+03  0.29230676520E+03  0.12500000000E+03 0.  0.
         25    1    1    2    0    0  0.69007467530E+02  0.30794525216E+02 -0.13728538885E+03  0.20045600852E+03  0.12500000000E+03 0.  0.
</event>
<event>
 5    0  0.5583350E-005  0.2523682E+03  0.7546771E-02  0.1111817E+00
         21   -1    0    0  502  501  0.00000000000E+00  0.00000000000E+00  0.21133345981E+04  0.21133345981E+04  0.00000000000E+00 0.  1.
         21   -1    0    0  501  502 -0.00000000000E+00 -0.00000000000E+00 -0.30137058380E+02  0.30137058380E+02  0.00000000000E+00 0.  1.
         25    1    1    2    0    0 -0.73202405034E+02 -0.18506193819E+02  0.10803784480E+04  0.10902034958E+04  0.12500000000E+03 0.  0.
         25    1    1    2    0    0  0.69659368347E+02 -0.64603186676E+02  0.35323301103E+03  0.38655473016E+03  0.12500000000E+03 0.  0.
         25    1    1    2    0    0  0.35430366874E+01  0.83109380495E+02  0.64958608070E+03  0.66671343055E+03  0.12500000000E+03 0.  0.
</event>
