<event>
 4    0  0.2233588E-002  0.1673797E+03  0.7546771E-02  0.1180608E+00
         21   -1    0    0  502  501  0.00000000000E+00  0.00000000000E+00  0.92576207765E+03  0.92576207765E+03  0.00000000000E+00 0. -1.
         21   -1    0    0  501  502 -0.00000000000E+00 -0.00000000000E+00 -0.30262604958E+02  0.30262604958E+02  0.00000000000E+00 0. -1.
         25    1    1    2    0    0 -0.19255354959E+02 -0.10444853278E+03  0.35257184392E+03  0.38886009029E+03  0.12500000000E+03 0.  0.
         25    1    1    2    0    0  0.19255354959E+02  0.10444853278E+03  0.54292762877E+03  0.56716459231E+03  0.12500000000E+03 0.  0.
</event>
<event>
 4    0  0.2233588E-002  0.1757989E+03  0.7546771E-02  0.1171932E+00
         21   -1    0    0  502  501  0.00000000000E+00  0.00000000000E+00  0.11742167895E+03  0.11742167895E+03  0.00000000000E+00 0. -1.
         21   -1    0    0  501  502 -0.00000000000E+00 -0.00000000000E+00 -0.26319873058E+03  0.26319873058E+03  0.00000000000E+00 0. -1.
         25    1    1    2    0    0 -0.77801242680E+02  0.66027492417E+02 -0.14841553851E+03  0.21923693847E+03  0.12500000000E+03 0.  0.
         25    1    1    2    0    0  0.77801242680E+02 -0.66027492417E+02  0.26384868841E+01  0.16138347106E+03  0.12500000000E+03 0.  0.
</event>
<event>
 4    0  0.2233588E-002  0.1902600E+03  0.7546771E-02  0.1158227E+00
         21   -1    0    0  502  501  0.00000000000E+00  0.00000000000E+00  0.67119665057E+03  0.67119665057E+03  0.00000000000E+00 0. -1.
         21   -1    0    0  501  502 -0.00000000000E+00 -0.00000000000E+00 -0.53931831625E+02  0.53931831625E+02  0.00000000000E+00 0. -1.
         25    1    1    2    0    0  0.10948623875E+03 -0.44892628821E+02  0.15415588694E+03  0.23106627204E+03  0.12500000000E+03 0.  0.
         25    1    1    2    0    0 -0.10948623875E+03  0.44892628821E+02  0.46310893200E+03  0.49406221015E+03  0.12500000000E+03 0.  0.
</event>
<event>
 4    0  0.2233588E-002  0.2022341E+03  0.7546771E-02  0.1147868E+00
         21   -1    0    0  502  501  0.00000000000E+00  0.00000000000E+00  0.26950421918E+03  0.26950421918E+03  0.00000000000E+00 0.  1.
         21   -1    0    0  501  502 -0.00000000000E+00 -0.00000000000E+00 -0.15175510637E+03  0.15175510637E+03  0.00000000000E+00 0.  1.
         25    1    1    2    0    0  0.63853987239E+02 -0.13992516260E+03  0.10075920063E+03  0.22233712988E+03  0.12500000000E+03 0.  0.
         25    1    1    2    0    0 -0.63853987239E+02  0.13992516260E+03  0.16989912178E+02  0.19892219567E+03  0.12500000000E+03 0.  0.
</event>
<event>
 4    0  0.2233588E-002  0.2212792E+03  0.7546771E-02  0.1132933E+00
         21   -1    0    0  502  501  0.00000000000E+00  0.00000000000E+00  0.33950554741E+04  0.33950554741E+04  0.00000000000E+00 0.  1.
         21   -1    0    0  501  502 -0.00000000000E+00 -0.00000000000E+00 -0.14422296444E+02  0.14422296444E+02  0.00000000000E+00 0.  1.
         25    1    1    2    0    0  0.17539508570E+03 -0.10959581670E+02  0.13085246079E+04  0.13261769106E+04  0.12500000000E+03 0.  0.
         25    1    1    2    0    0 -0.17539508570E+03  0.10959581670E+02  0.20721085697E+04  0.20833008600E+04  0.12500000000E+03 0.  0.
</event>
<event>
 4    0  0.2233588E-002  0.2668217E+03  0.7546771E-02  0.1103113E+00
         21   -1    0    0  502  501  0.00000000000E+00  0.00000000000E+00  0.62981919565E+02  0.62981919565E+02  0.00000000000E+00 0. -1.
         21   -1    0    0  501  502 -0.00000000000E+00 -0.00000000000E+00 -0.11303851145E+04  0.11303851145E+04  0.00000000000E+00 0. -1.
         25    1    1    2    0    0 -0.72566552021E+02 -0.21743459185E+03 -0.41070473014E+03  0.48666937603E+03  0.12500000000E+03 0.  0.
         25    1    1    2    0    0  0.72566552021E+02  0.21743459185E+03 -0.65669846478E+03  0.70669765802E+03  0.12500000000E+03 0.  0.
</event>
<event>
 4    0  0.2233588E-002  0.1988116E+03  0.7546771E-02  0.1150746E+00
         21   -1    0    0  502  501  0.00000000000E+00  0.00000000000E+00  0.90395368270E+02  0.90395368270E+02  0.00000000000E+00 0. -1.
         21   -1    0    0  501  502 -0.00000000000E+00 -0.00000000000E+00 -0.43725763072E+03  0.43725763072E+03  0.00000000000E+00 0. -1.
         25    1    1    2    0    0 -0.12841550925E+03  0.85290934730E+02 -0.18890542875E+03  0.27399880944E+03  0.12500000000E+03 0.  0.
         25    1    1    2    0    0  0.12841550925E+03 -0.85290934730E+02 -0.15795683369E+03  0.25365418954E+03  0.12500000000E+03 0.  0.
</event>
<event>
 4    0  0.2233588E-002  0.1836532E+03  0.7546771E-02  0.1164314E+00
         21   -1    0    0  502  501  0.00000000000E+00  0.00000000000E+00  0.11169444349E+03  0.11169444349E+03  0.00000000000E+00 0. -1.
         21   -1    0    0  501  502 -0.00000000000E+00 -0.00000000000E+00 -0.30197097559E+03  0.30197097559E+03  0.00000000000E+00 0. -1.
         25    1    1    2    0    0  0.48707850824E+02 -0.10310135724E+03 -0.17557496969E+03  0.24383173415E+03  0.12500000000E+03 0.  0.
         25    1    1    2    0    0 -0.48707850824E+02  0.10310135724E+03 -0.14701562413E+02  0.16983368492E+03  0.12500000000E+03 0.  0.
</event>
<event>
 4    0  0.2233588E-002  0.2387490E+03  0.7546771E-02  0.1120629E+00
         21   -1    0    0  502  501  0.00000000000E+00  0.00000000000E+00  0.54735839883E+02  0.54735839883E+02  0.00000000000E+00 0. -1.
         21   -1    0    0  501  502 -0.00000000000E+00 -0.00000000000E+00 -0.10413848726E+04  0.10413848726E+04  0.00000000000E+00 0. -1.
         25    1    1    2    0    0 -0.62853576304E+02 -0.11498719769E+03 -0.85045381630E+03  0.86952246742E+03  0.12500000000E+03 0.  0.
         25    1    1    2    0    0  0.62853576304E+02  0.11498719769E+03 -0.13619521639E+03  0.22659824503E+03  0.12500000000E+03 0.  0.
</event>
<event>
 4    0  0.2233588E-002  0.2461941E+03  0.7546771E-02  0.1115734E+00
         21   -1    0    0  502  501  0.00000000000E+00  0.00000000000E+00  0.30604195660E+03  0.30604195660E+03  0.00000000000E+00 0.  1.
         21   -1    0    0  501  502 -0.00000000000E+00 -0.00000000000E+00 -0.19804972886E+03  0.19804972886E+03  0.00000000000E+00 0.  1.
         25    1    1    2    0    0 -0.19844339148E+03 -0.44025008314E+02 -0.80120519111E+01  0.23876175145E+03  0.12500000000E+03 0.  0.
         25    1    1    2    0    0  0.19844339148E+03  0.44025008314E+02  0.11600427965E+03  0.26532993400E+03  0.12500000000E+03 0.  0.
</event>
<event>
 4    0  0.2233588E-002  0.1733206E+03  0.7546771E-02  0.1174429E+00
         21   -1    0    0  502  501  0.00000000000E+00  0.00000000000E+00  0.14948154547E+03  0.14948154547E+03  0.00000000000E+00 0.  1.
         21   -1    0    0  501  502 -0.00000000000E+00 -0.00000000000E+00 -0.20096147702E+03  0.20096147702E+03  0.00000000000E+00 0.  1.
         25    1    1    2    0    0  0.56978429845E+00  0.73224824648E+02  0.70449933301E+02  0.16109125582E+03  0.12500000000E+03 0.  0.
         25    1    1    2    0    0 -0.56978429845E+00 -0.73224824648E+02 -0.12192986485E+03  0.18935176667E+03  0.12500000000E+03 0.  0.
</event>
<event>
 4    0  0.2233588E-002  0.2854444E+03  0.7546771E-02  0.1092752E+00
         21   -1    0    0  502  501  0.00000000000E+00  0.00000000000E+00  0.79456342014E+03  0.79456342014E+03  0.00000000000E+00 0.  1.
         21   -1    0    0  501  502 -0.00000000000E+00 -0.00000000000E+00 -0.10254498674E+03  0.10254498674E+03  0.00000000000E+00 0.  1.
         25    1    1    2    0    0 -0.59392278074E+02  0.48156208061E+02 -0.38932080121E+02  0.15161520350E+03  0.12500000000E+03 0.  0.
         25    1    1    2    0    0  0.59392278074E+02 -0.48156208061E+02  0.73095051352E+03  0.74549320338E+03  0.12500000000E+03 0.  0.
</event>
<event>
 4    0  0.2233588E-002  0.2015588E+03  0.7546771E-02  0.1148430E+00
         21   -1    0    0  502  501  0.00000000000E+00  0.00000000000E+00  0.99993922240E+03  0.99993922240E+03  0.00000000000E+00 0. -1.
         21   -1    0    0  501  502 -0.00000000000E+00 -0.00000000000E+00 -0.40628419721E+02  0.40628419721E+02  0.00000000000E+00 0. -1.
         25    1    1    2    0    0  0.17791614527E+01 -0.59580201565E+01  0.88748687639E+03  0.89626816254E+03  0.12500000000E+03 0.  0.
         25    1    1    2    0    0 -0.17791614527E+01  0.59580201565E+01  0.71823926289E+02  0.14429947958E+03  0.12500000000E+03 0.  0.
</event>
<event>
 4    0  0.2233588E-002  0.2028055E+03  0.7546771E-02  0.1147393E+00
         21   -1    0    0  502  501  0.00000000000E+00  0.00000000000E+00  0.15677102921E+02  0.15677102921E+02  0.00000000000E+00 0.  1.
         21   -1    0    0  501  502 -0.00000000000E+00 -0.00000000000E+00 -0.26235757890E+04  0.26235757890E+04  0.00000000000E+00 0.  1.
         25    1    1    2    0    0 -0.30912291501E+01  0.11565192547E+03 -0.20202992192E+04  0.20274661178E+04  0.12500000000E+03 0.  0.
         25    1    1    2    0    0  0.30912291501E+01 -0.11565192547E+03 -0.58759946688E+03  0.61178677416E+03  0.12500000000E+03 0.  0.
</event>
<event>
 4    0  0.2233588E-002  0.2410641E+03  0.7546771E-02  0.1119086E+00
         21   -1    0    0  502  501  0.00000000000E+00  0.00000000000E+00  0.94205568909E+03  0.94205568909E+03  0.00000000000E+00 0. -1.
         21   -1    0    0  501  502 -0.00000000000E+00 -0.00000000000E+00 -0.61686290929E+02  0.61686290929E+02  0.00000000000E+00 0. -1.
         25    1    1    2    0    0  0.78392733950E+02  0.89205911035E+02  0.89437032600E+02  0.19423464701E+03  0.12500000000E+03 0.  0.
         25    1    1    2    0    0 -0.78392733950E+02 -0.89205911035E+02  0.79093236556E+03  0.80950733300E+03  0.12500000000E+03 0.  0.
</event>
<event>
 4    0  0.2233588E-002  0.2363745E+03  0.7546771E-02  0.1122232E+00
         21   -1    0    0  502  501  0.00000000000E+00  0.00000000000E+00  0.29361311600E+03  0.29361311600E+03  0.00000000000E+00 0. -1.
         21   -1    0    0  501  502 -0.00000000000E+00 -0.00000000000E+00 -0.19029436703E+03  0.19029436703E+03  0.00000000000E+00 0.  1.
         25    1    1    2    0    0 -0.18958036131E+03 -0.56580592440E+02  0.85698533682E+02  0.24922141864E+03  0.12500000000E+03 0.  0.
         25    1    1    2    0    0  0.18958036131E+03  0.56580592440E+02  0.17620215289E+02  0.23468606439E+03  0.12500000000E+03 0.  0.
</event>
<event>
 4    0  0.2233588E-002  0.2558993E+03  0.7546771E-02  0.1109632E+00
         21   -1    0    0  502  501  0.00000000000E+00  0.00000000000E+00  0.13717284831E+03  0.13717284831E+03  0.00000000000E+00 0. -1.
         21   -1    0    0  501  502 -0.00000000000E+00 -0.00000000000E+00 -0.47738644479E+03  0.47738644479E+03  0.00000000000E+00 0. -1.
         25    1    1    2    0    0  0.29631207780E+02  0.20816248092E+03 -0.26036411538E+03  0.35724515324E+03  0.12500000000E+03 0.  0.
         25    1    1    2    0    0 -0.29631207780E+02 -0.20816248092E+03 -0.79849481105E+02  0.25731413986E+03  0.12500000000E+03 0.  0.
</event>
<event>
 4    0  0.2233588E-002  0.2160062E+03  0.7546771E-02  0.1136896E+00
         21   -1    0    0  502  501  0.00000000000E+00  0.00000000000E+00  0.23405600970E+03  0.23405600970E+03  0.00000000000E+00 0. -1.
         21   -1    0    0  501  502 -0.00000000000E+00 -0.00000000000E+00 -0.19934837563E+03  0.19934837563E+03  0.00000000000E+00 0. -1.
         25    1    1    2    0    0 -0.60663316144E+01 -0.82091455649E+02  0.17360505228E+03  0.22921501183E+03  0.12500000000E+03 0.  0.
         25    1    1    2    0    0  0.60663316144E+01  0.82091455649E+02 -0.13889741821E+03  0.20418937351E+03  0.12500000000E+03 0.  0.
</event>
<event>
 4    0  0.2233588E-002  0.2752452E+03  0.7546771E-02  0.1098315E+00
         21   -1    0    0  502  501  0.00000000000E+00  0.00000000000E+00  0.36271997849E+03  0.36271997849E+03  0.00000000000E+00 0.  1.
         21   -1    0    0  501  502 -0.00000000000E+00 -0.00000000000E+00 -0.20886612137E+03  0.20886612137E+03  0.00000000000E+00 0.  1.
         25    1    1    2    0    0 -0.21872494397E+03 -0.56931257504E+02  0.17572118169E+03  0.31238550365E+03  0.12500000000E+03 0.  0.
         25    1    1    2    0    0  0.21872494397E+03  0.56931257504E+02 -0.21867324574E+02  0.25920059622E+03  0.12500000000E+03 0.  0.
</event>
<event>
 4    0  0.2233588E-002  0.2041864E+03  0.7546771E-02  0.1146254E+00
         21   -1    0    0  502  501  0.00000000000E+00  0.00000000000E+00  0.11522306108E+03  0.11522306108E+03  0.00000000000E+00 0.  1.
         21   -1    0    0  501  502 -0.00000000000E+00 -0.00000000000E+00 -0.36183816143E+03  0.36183816143E+03  0.00000000000E+00 0.  1.
         25    1    1    2    0    0  0.86328833595E+02 -0.51971017250E+02  0.24059148996E+02  0.16234992083E+03  0.12500000000E+03 0.  0.
         25    1    1    2    0    0 -0.86328833595E+02  0.51971017250E+02 -0.27067424935E+03  0.31471130168E+03  0.12500000000E+03 0.  0.
</event>
<event>
 4    0  0.2233588E-002  0.1896954E+03  0.7546771E-02  0.1158736E+00
         21   -1    0    0  502  501  0.00000000000E+00  0.00000000000E+00  0.54292832672E+03  0.54292832672E+03  0.00000000000E+00 0.  1.
         21   -1    0    0  501  502 -0.00000000000E+00 -0.00000000000E+00 -0.66278226645E+02  0.66278226645E+02  0.00000000000E+00 0.  1.
         25    1    1    2    0    0  0.14208216485E+03  0.64750666377E+01  0.25663754308E+03  0.31893117843E+03  0.12500000000E+03 0.  0.
         25    1    1    2    0    0 -0.14208216485E+03 -0.64750666377E+01  0.22001255699E+03  0.29027537493E+03  0.12500000000E+03 0.  0.
</event>
<event>
 4    0  0.2233588E-002  0.1922896E+03  0.7546771E-02  0.1156412E+00
         21   -1    0    0  502  501  0.00000000000E+00  0.00000000000E+00  0.94481470784E+03  0.94481470784E+03  0.00000000000E+00 0. -1.
         21   -1    0    0  501  502 -0.00000000000E+00 -0.00000000000E+00 -0.39134973497E+02  0.39134973497E+02  0.00000000000E+00 0. -1.
         25    1    1    2    0    0  0.42033126491E+02  0.63465525813E+02  0.13373677178E+03  0.19825534247E+03  0.12500000000E+03 0.  0.
         25    1    1    2    0    0 -0.42033126491E+02 -0.63465525813E+02  0.77194296256E+03  0.78569433887E+03  0.12500000000E+03 0.  0.
</event>
<event>
 4    0  0.2233588E-002  0.1875659E+03  0.7546771E-02  0.1160675E+00
         21   -1    0    0  502  501  0.00000000000E+00  0.00000000000E+00  0.11603397001E+04  0.11603397001E+04  0.00000000000E+00 0. -1.
         21   -1    0    0  501  502 -0.00000000000E+00 -0.00000000000E+00 -0.30319551458E+02  0.30319551458E+02  0.00000000000E+00 0. -1.
         25    1    1    2    0    0  0.94590012819E+02  0.62876307339E+02  0.82394262930E+03  0.84107500078E+03  0.12500000000E+03 0.  0.
         25    1    1    2    0    0 -0.94590012819E+02 -0.62876307339E+02  0.30607751935E+03  0.34958425079E+03  0.12500000000E+03 0.  0.
</event>
<event>
 4    0  0.2233588E-002  0.1679434E+03  0.7546771E-02  0.1180010E+00
         21   -1    0    0  502  501  0.00000000000E+00  0.00000000000E+00  0.51096277990E+02  0.51096277990E+02  0.00000000000E+00 0.  1.
         21   -1    0    0  501  502 -0.00000000000E+00 -0.00000000000E+00 -0.55199694718E+03  0.55199694718E+03  0.00000000000E+00 0.  1.
         25    1    1    2    0    0 -0.60352833647E+01 -0.91736691300E+02 -0.36581117118E+03  0.39735985975E+03  0.12500000000E+03 0.  0.
         25    1    1    2    0    0  0.60352833647E+01  0.91736691300E+02 -0.13508949801E+03  0.20573336542E+03  0.12500000000E+03 0.  0.
</event>
<event>
 4    0  0.2233588E-002  0.2254818E+03  0.7546771E-02  0.1129861E+00
         21   -1    0    0  502  501  0.00000000000E+00  0.00000000000E+00  0.87762775257E+02  0.87762775257E+02  0.00000000000E+00 0. -1.
         21   -1    0    0  501  502 -0.00000000000E+00 -0.00000000000E+00 -0.57931198173E+03  0.57931198173E+03  0.00000000000E+00 0. -1.
         25    1    1    2    0    0  0.78614319417E+02  0.39423635806E+02 -0.55118921862E+00  0.15283892857E+03  0.12500000000E+03 0.  0.
         25    1    1    2    0    0 -0.78614319417E+02 -0.39423635806E+02 -0.49099801726E+03  0.51423582842E+03  0.12500000000E+03 0.  0.
</event>
<event>
 4    0  0.2233588E-002  0.2670567E+03  0.7546771E-02  0.1102976E+00
         21   -1    0    0  502  501  0.00000000000E+00  0.00000000000E+00  0.51322043079E+02  0.51322043079E+02  0.00000000000E+00 0. -1.
         21   -1    0    0  501  502 -0.00000000000E+00 -0.00000000000E+00 -0.13896420711E+04  0.13896420711E+04  0.00000000000E+00 0. -1.
         25    1    1    2    0    0  0.58696371898E+02  0.16123973679E+03 -0.23205014630E+03  0.31450880304E+03  0.12500000000E+03 0.  0.
         25    1    1    2    0    0 -0.58696371898E+02 -0.16123973679E+03 -0.11062698818E+04  0.11264553112E+04  0.12500000000E+03 0.  0.
</event>
<event>
 4    0  0.2233588E-002  0.3175349E+03  0.7546771E-02  0.1076789E+00
         21   -1    0    0  502  501  0.00000000000E+00  0.00000000000E+00  0.66161104952E+03  0.66161104952E+03  0.00000000000E+00 0.  1.
         21   -1    0    0  501  502 -0.00000000000E+00 -0.00000000000E+00 -0.15239832532E+03  0.15239832532E+03  0.00000000000E+00 0.  1.
         25    1    1    2    0    0 -0.14051679400E+03 -0.11670029079E+03 -0.37229254426E+02  0.22444363357E+03  0.12500000000E+03 0.  0.
         25    1    1    2    0    0  0.14051679400E+03  0.11670029079E+03  0.54644197863E+03  0.58956574126E+03  0.12500000000E+03 0.  0.
</event>
<event>
 4    0  0.2233588E-002  0.1602221E+03  0.7546771E-02  0.1188446E+00
         21   -1    0    0  502  501  0.00000000000E+00  0.00000000000E+00  0.98664261888E+02  0.98664261888E+02  0.00000000000E+00 0.  1.
         21   -1    0    0  501  502 -0.00000000000E+00 -0.00000000000E+00 -0.26018663365E+03  0.26018663365E+03  0.00000000000E+00 0.  1.
         25    1    1    2    0    0 -0.20614463212E+02  0.28827726306E+01 -0.19055751576E+03  0.22884587233E+03  0.12500000000E+03 0.  0.
         25    1    1    2    0    0  0.20614463212E+02 -0.28827726306E+01  0.29035143997E+02  0.13000502320E+03  0.12500000000E+03 0.  0.
</event>
<event>
 4    0  0.2233588E-002  0.2896586E+03  0.7546771E-02  0.1090528E+00
         21   -1    0    0  502  501  0.00000000000E+00  0.00000000000E+00  0.26824297505E+03  0.26824297505E+03  0.00000000000E+00 0.  1.
         21   -1    0    0  501  502 -0.00000000000E+00 -0.00000000000E+00 -0.31278393945E+03  0.31278393945E+03  0.00000000000E+00 0.  1.
         25    1    1    2    0    0  0.19246532871E+03  0.73758948987E+02 -0.18334898884E+03  0.30286158063E+03  0.12500000000E+03 0.  0.
         25    1    1    2    0    0 -0.19246532871E+03 -0.73758948987E+02  0.13880802444E+03  0.27816533386E+03  0.12500000000E+03 0.  0.
</event>
<event>
 4    0  0.2233588E-002  0.3018892E+03  0.7546771E-02  0.1084300E+00
         21   -1    0    0  502  501  0.00000000000E+00  0.00000000000E+00  0.10267269484E+03  0.10267269484E+03  0.00000000000E+00 0. -1.
         21   -1    0    0  501  502 -0.00000000000E+00 -0.00000000000E+00 -0.88764698338E+03  0.88764698338E+03  0.00000000000E+00 0. -1.
         25    1    1    2    0    0 -0.13788119959E+03 -0.23080509755E+03 -0.29927089365E+03  0.42127222320E+03  0.12500000000E+03 0.  0.
         25    1    1    2    0    0  0.13788119959E+03  0.23080509755E+03 -0.48570339489E+03  0.56904745502E+03  0.12500000000E+03 0.  0.
</event>
<event>
 4    0  0.2233588E-002  0.2432239E+03  0.7546771E-02  0.1117664E+00
         21   -1    0    0  502  501  0.00000000000E+00  0.00000000000E+00  0.23359911941E+03  0.23359911941E+03  0.00000000000E+00 0.  1.
         21   -1    0    0  501  502 -0.00000000000E+00 -0.00000000000E+00 -0.25324527753E+03  0.25324527753E+03  0.00000000000E+00 0.  1.
         25    1    1    2    0    0 -0.82906825834E+02  0.10988718331E+03 -0.16674420061E+03  0.24975460609E+03  0.12500000000E+03 0.  0.
         25    1    1    2    0    0  0.82906825834E+02 -0.10988718331E+03  0.14709804249E+03  0.23708979086E+03  0.12500000000E+03 0.  0.
</event>
<event>
 4    0  0.2233588E-002  0.2192756E+03  0.7546771E-02  0.1134424E+00
         21   -1    0    0  502  501  0.00000000000E+00  0.00000000000E+00  0.55382072379E+02  0.55382072379E+02  0.00000000000E+00 0.  1.
         21   -1    0    0  501  502 -0.00000000000E+00 -0.00000000000E+00 -0.86818319699E+03  0.86818319699E+03  0.00000000000E+00 0.  1.
         25    1    1    2    0    0 -0.15470633855E+03  0.14309187993E+02 -0.59846911309E+03  0.63081620411E+03  0.12500000000E+03 0.  0.
         25    1    1    2    0    0  0.15470633855E+03 -0.14309187993E+02 -0.21433201153E+03  0.29274906526E+03  0.12500000000E+03 0.  0.
</event>
<event>
 4    0  0.2233588E-002  0.2921802E+03  0.7546771E-02  0.1089216E+00
         21   -1    0    0  502  501  0.00000000000E+00  0.00000000000E+00  0.25527055260E+03  0.25527055260E+03  0.00000000000E+00 0.  1.
         21   -1    0    0  501  502 -0.00000000000E+00 -0.00000000000E+00 -0.33442667045E+03  0.33442667045E+03  0.00000000000E+00 0.  1.
         25    1    1    2    0    0 -0.23184081129E+03 -0.12123120513E+03 -0.75922447260E+02  0.29972718408E+03  0.12500000000E+03 0.  0.
         25    1    1    2    0    0  0.23184081129E+03  0.12123120513E+03 -0.32336705914E+01  0.28997003898E+03  0.12500000000E+03 0.  0.
</event>
<event>
 4    0  0.2233588E-002  0.1815055E+03  0.7546771E-02  0.1166354E+00
         21   -1    0    0  502  501  0.00000000000E+00  0.00000000000E+00  0.56787934877E+03  0.56787934877E+03  0.00000000000E+00 0. -1.
         21   -1    0    0  501  502 -0.00000000000E+00 -0.00000000000E+00 -0.58012752211E+02  0.58012752211E+02  0.00000000000E+00 0. -1.
         25    1    1    2    0    0 -0.56049406980E+02 -0.11906609980E+03  0.25663298306E+03  0.31433065415E+03  0.12500000000E+03 0.  0.
         25    1    1    2    0    0  0.56049406980E+02  0.11906609980E+03  0.25323361349E+03  0.31156144682E+03  0.12500000000E+03 0.  0.
</event>
<event>
 4    0  0.2233588E-002  0.2148251E+03  0.7546771E-02  0.1137801E+00
         21   -1    0    0  502  501  0.00000000000E+00  0.00000000000E+00  0.57226984784E+03  0.57226984784E+03  0.00000000000E+00 0.  1.
         21   -1    0    0  501  502 -0.00000000000E+00 -0.00000000000E+00 -0.80643482696E+02  0.80643482696E+02  0.00000000000E+00 0.  1.
         25    1    1    2    0    0  0.12180016469E+03 -0.10948820307E+03  0.15335357622E+03  0.25683704185E+03  0.12500000000E+03 0.  0.
         25    1    1    2    0    0 -0.12180016469E+03  0.10948820307E+03  0.33827278892E+03  0.39607628868E+03  0.12500000000E+03 0.  0.
</event>
<event>
 4    0  0.2233588E-002  0.1835019E+03  0.7546771E-02  0.1164456E+00
         21   -1    0    0  502  501  0.00000000000E+00  0.00000000000E+00  0.21281646307E+03  0.21281646307E+03  0.00000000000E+00 0. -1.
         21   -1    0    0  501  502 -0.00000000000E+00 -0.00000000000E+00 -0.15822526020E+03  0.15822526020E+03  0.00000000000E+00 0. -1.
         25    1    1    2    0    0 -0.12140089967E+03 -0.57062626030E+02  0.34698633225E+02  0.18661006639E+03  0.12500000000E+03 0.  0.
         25    1    1    2    0    0  0.12140089967E+03  0.57062626030E+02  0.19892569644E+02  0.18443165687E+03  0.12500000000E+03 0.  0.
</event>
<event>
 4    0  0.2233588E-002  0.1836447E+03  0.7546771E-02  0.1164322E+00
         21   -1    0    0  502  501  0.00000000000E+00  0.00000000000E+00  0.16675655135E+03  0.16675655135E+03  0.00000000000E+00 0. -1.
         21   -1    0    0  501  502 -0.00000000000E+00 -0.00000000000E+00 -0.20224323356E+03  0.20224323356E+03  0.00000000000E+00 0. -1.
         25    1    1    2    0    0 -0.10788216844E+03  0.15370812686E+02 -0.97012979430E+02  0.19212324775E+03  0.12500000000E+03 0.  0.
         25    1    1    2    0    0  0.10788216844E+03 -0.15370812686E+02  0.61526297215E+02  0.17687653716E+03  0.12500000000E+03 0.  0.
</event>
<event>
 4    0  0.2233588E-002  0.2426419E+03  0.7546771E-02  0.1118045E+00
         21   -1    0    0  502  501  0.00000000000E+00  0.00000000000E+00  0.35952297765E+03  0.35952297765E+03  0.00000000000E+00 0.  1.
         21   -1    0    0  501  502 -0.00000000000E+00 -0.00000000000E+00 -0.16375888533E+03  0.16375888533E+03  0.00000000000E+00 0.  1.
         25    1    1    2    0    0 -0.75258514217E+02  0.17653012872E+03  0.18430334256E+03  0.29397185645E+03  0.12500000000E+03 0.  0.
         25    1    1    2    0    0  0.75258514217E+02 -0.17653012872E+03  0.11460749750E+02  0.22931000653E+03  0.12500000000E+03 0.  0.
</event>
<event>
 4    0  0.2233588E-002  0.1950544E+03  0.7546771E-02  0.1153980E+00
         21   -1    0    0  502  501  0.00000000000E+00  0.00000000000E+00  0.43383871457E+03  0.43383871457E+03  0.00000000000E+00 0. -1.
         21   -1    0    0  501  502 -0.00000000000E+00 -0.00000000000E+00 -0.87696677577E+02  0.87696677577E+02  0.00000000000E+00 0. -1.
         25    1    1    2    0    0  0.47513233777E+02  0.47042214535E+02 -0.60469702019E+01  0.14188743137E+03  0.12500000000E+03 0.  0.
         25    1    1    2    0    0 -0.47513233777E+02 -0.47042214535E+02  0.35218900720E+03  0.37964796078E+03  0.12500000000E+03 0.  0.
</event>
<event>
 4    0  0.2233588E-002  0.2292536E+03  0.7546771E-02  0.1127166E+00
         21   -1    0    0  502  501  0.00000000000E+00  0.00000000000E+00  0.69483858391E+03  0.69483858391E+03  0.00000000000E+00 0.  1.
         21   -1    0    0  501  502 -0.00000000000E+00 -0.00000000000E+00 -0.75639440114E+02  0.75639440114E+02  0.00000000000E+00 0. -1.
         25    1    1    2    0    0 -0.87456644652E+02  0.16385968065E+03  0.39249556740E+03  0.45185886078E+03  0.12500000000E+03 0.  0.
         25    1    1    2    0    0  0.87456644652E+02 -0.16385968065E+03  0.22670357640E+03  0.31861916325E+03  0.12500000000E+03 0.  0.
</event>
<event>
 4    0  0.2233588E-002  0.1911307E+03  0.7546771E-02  0.1157445E+00
         21   -1    0    0  502  501  0.00000000000E+00  0.00000000000E+00  0.16824192087E+03  0.16824192087E+03  0.00000000000E+00 0. -1.
         21   -1    0    0  501  502 -0.00000000000E+00 -0.00000000000E+00 -0.21713345280E+03  0.21713345280E+03  0.00000000000E+00 0. -1.
         25    1    1    2    0    0 -0.13556536081E+03 -0.20958037023E+02 -0.70520832316E+02  0.19853310595E+03  0.12500000000E+03 0.  0.
         25    1    1    2    0    0  0.13556536081E+03  0.20958037023E+02  0.21629300387E+02  0.18684226771E+03  0.12500000000E+03 0.  0.
</event>
<event>
 4    0  0.2233588E-002  0.1708346E+03  0.7546771E-02  0.1176980E+00
         21   -1    0    0  502  501  0.00000000000E+00  0.00000000000E+00  0.82628756842E+02  0.82628756842E+02  0.00000000000E+00 0. -1.
         21   -1    0    0  501  502 -0.00000000000E+00 -0.00000000000E+00 -0.35319977850E+03  0.35319977850E+03  0.00000000000E+00 0. -1.
         25    1    1    2    0    0  0.10291284005E+03 -0.25304628909E+02 -0.19683280380E+03  0.25612405108E+03  0.12500000000E+03 0.  0.
         25    1    1    2    0    0 -0.10291284005E+03  0.25304628909E+02 -0.73738217866E+02  0.17970448427E+03  0.12500000000E+03 0.  0.
</event>
<event>
 4    0  0.2233588E-002  0.2300921E+03  0.7546771E-02  0.1126575E+00
         21   -1    0    0  502  501  0.00000000000E+00  0.00000000000E+00  0.34714779488E+03  0.34714779488E+03  0.00000000000E+00 0. -1.
         21   -1    0    0  501  502 -0.00000000000E+00 -0.00000000000E+00 -0.15250674552E+03  0.15250674552E+03  0.00000000000E+00 0. -1.
         25    1    1    2    0    0  0.16403425050E+03  0.92464916763E+02  0.50488877129E+02  0.23158394349E+03  0.12500000000E+03 0.  0.
         25    1    1    2    0    0 -0.16403425050E+03 -0.92464916763E+02  0.14415217224E+03  0.26807059691E+03  0.12500000000E+03 0.  0.
</event>
<event>
 4    0  0.2233588E-002  0.1454740E+03  0.7546771E-02  0.1206147E+00
         21   -1    0    0  502  501  0.00000000000E+00  0.00000000000E+00  0.35151715109E+02  0.35151715109E+02  0.00000000000E+00 0. -1.
         21   -1    0    0  501  502 -0.00000000000E+00 -0.00000000000E+00 -0.60203809325E+03  0.60203809325E+03  0.00000000000E+00 0. -1.
         25    1    1    2    0    0  0.73961297490E+02  0.79041422960E+01 -0.27858417117E+03  0.31427199910E+03  0.12500000000E+03 0.  0.
         25    1    1    2    0    0 -0.73961297490E+02 -0.79041422960E+01 -0.28830220698E+03  0.32291780926E+03  0.12500000000E+03 0.  0.
</event>
<event>
 4    0  0.2233588E-002  0.2116021E+03  0.7546771E-02  0.1140304E+00
         21   -1    0    0  502  501  0.00000000000E+00  0.00000000000E+00  0.20605919152E+03  0.20605919152E+03  0.00000000000E+00 0.  1.
         21   -1    0    0  501  502 -0.00000000000E+00 -0.00000000000E+00 -0.21729412341E+03  0.21729412341E+03  0.00000000000E+00 0.  1.
         25    1    1    2    0    0 -0.11049048971E+03 -0.11980229964E+03 -0.56524608876E+02  0.21302762902E+03  0.12500000000E+03 0.  0.
         25    1    1    2    0    0  0.11049048971E+03  0.11980229964E+03  0.45289676983E+02  0.21032568592E+03  0.12500000000E+03 0.  0.
</event>
<event>
 4    0  0.2233588E-002  0.2980813E+03  0.7546771E-02  0.1086204E+00
         21   -1    0    0  502  501  0.00000000000E+00  0.00000000000E+00  0.62733922684E+02  0.62733922684E+02  0.00000000000E+00 0.  1.
         21   -1    0    0  501  502 -0.00000000000E+00 -0.00000000000E+00 -0.14163385363E+04  0.14163385363E+04  0.00000000000E+00 0.  1.
         25    1    1    2    0    0 -0.22982222977E+03  0.10442203947E+03 -0.43491864865E+03  0.51817125602E+03  0.12500000000E+03 0.  0.
         25    1    1    2    0    0  0.22982222977E+03 -0.10442203947E+03 -0.91868596494E+03  0.96090120294E+03  0.12500000000E+03 0.  0.
</event>
<event>
 4    0  0.2233588E-002  0.2107870E+03  0.7546771E-02  0.1140944E+00
         21   -1    0    0  502  501  0.00000000000E+00  0.00000000000E+00  0.62276192989E+03  0.62276192989E+03  0.00000000000E+00 0. -1.
         21   -1    0    0  501  502 -0.00000000000E+00 -0.00000000000E+00 -0.71345316571E+02  0.71345316571E+02  0.00000000000E+00 0. -1.
         25    1    1    2    0    0  0.44132617092E+02 -0.88508215705E+02  0.48610805590E+02  0.16664153912E+03  0.12500000000E+03 0.  0.
         25    1    1    2    0    0 -0.44132617092E+02  0.88508215705E+02  0.50280580773E+03  0.52746570734E+03  0.12500000000E+03 0.  0.
</event>
<event>
 4    0  0.2233588E-002  0.1866260E+03  0.7546771E-02  0.1161540E+00
         21   -1    0    0  502  501  0.00000000000E+00  0.00000000000E+00  0.13065886372E+03  0.13065886372E+03  0.00000000000E+00 0. -1.
         21   -1    0    0  501  502 -0.00000000000E+00 -0.00000000000E+00 -0.26656633678E+03  0.26656633678E+03  0.00000000000E+00 0. -1.
         25    1    1    2    0    0 -0.51427977433E+02 -0.13099726434E+02 -0.20419078707E+03  0.24522503383E+03  0.12500000000E+03 0.  0.
         25    1    1    2    0    0  0.51427977433E+02  0.13099726434E+02  0.68283314011E+02  0.15200016667E+03  0.12500000000E+03 0.  0.
</event>
<event>
 4    0  0.2233588E-002  0.2023503E+03  0.7546771E-02  0.1147771E+00
         21   -1    0    0  502  501  0.00000000000E+00  0.00000000000E+00  0.31774974107E+03  0.31774974107E+03  0.00000000000E+00 0.  1.
         21   -1    0    0  501  502 -0.00000000000E+00 -0.00000000000E+00 -0.12886133441E+03  0.12886133441E+03  0.00000000000E+00 0.  1.
         25    1    1    2    0    0  0.46218255729E+02 -0.43273187353E+02  0.25554855515E+03  0.29144254999E+03  0.12500000000E+03 0.  0.
         25    1    1    2    0    0 -0.46218255729E+02  0.43273187353E+02 -0.66660148493E+02  0.15516852549E+03  0.12500000000E+03 0.  0.
</event>
<event>
 4    0  0.2233588E-002  0.2446039E+03  0.7546771E-02  0.1116763E+00
         21   -1    0    0  502  501  0.00000000000E+00  0.00000000000E+00  0.37979456131E+03  0.37979456131E+03  0.00000000000E+00 0.  1.
         21   -1    0    0  501  502 -0.00000000000E+00 -0.00000000000E+00 -0.15753532742E+03  0.15753532742E+03  0.00000000000E+00 0.  1.
         25    1    1    2    0    0  0.17543231674E+03  0.37081270872E+02  0.23172287054E+03  0.31854671108E+03  0.12500000000E+03 0.  0.
         25    1    1    2    0    0 -0.17543231674E+03 -0.37081270872E+02 -0.94636366543E+01  0.21878317766E+03  0.12500000000E+03 0.  0.
</event>
<event>
 4    0  0.2233588E-002  0.1779469E+03  0.7546771E-02  0.1169805E+00
         21   -1    0    0  502  501  0.00000000000E+00  0.00000000000E+00  0.31251666252E+03  0.31251666252E+03  0.00000000000E+00 0. -1.
         21   -1    0    0  501  502 -0.00000000000E+00 -0.00000000000E+00 -0.10132292939E+03  0.10132292939E+03  0.00000000000E+00 0. -1.
         25    1    1    2    0    0  0.99911928906E+02 -0.19755354284E+02  0.18057197062E+02  0.16224589340E+03  0.12500000000E+03 0.  0.
         25    1    1    2    0    0 -0.99911928906E+02  0.19755354284E+02  0.19313653607E+03  0.25159369850E+03  0.12500000000E+03 0.  0.
</event>
<event>
 4    0  0.2233588E-002  0.2376688E+03  0.7546771E-02  0.1121356E+00
         21   -1    0    0  502  501  0.00000000000E+00  0.00000000000E+00  0.75190800587E+02  0.75190800587E+02  0.00000000000E+00 0. -1.
         21   -1    0    0  501  502 -0.00000000000E+00 -0.00000000000E+00 -0.75124136978E+03  0.75124136978E+03  0.00000000000E+00 0. -1.
         25    1    1    2    0    0 -0.13594511174E+03 -0.99900114436E+01 -0.78506840449E+02  0.20092087431E+03  0.12500000000E+03 0.  0.
         25    1    1    2    0    0  0.13594511174E+03  0.99900114436E+01 -0.59754372874E+03  0.62551129606E+03  0.12500000000E+03 0.  0.
</event>
<event>
 4    0  0.2233588E-002  0.2318766E+03  0.7546771E-02  0.1125326E+00
         21   -1    0    0  502  501  0.00000000000E+00  0.00000000000E+00  0.44954673592E+02  0.44954673592E+02  0.00000000000E+00 0.  1.
         21   -1    0    0  501  502 -0.00000000000E+00 -0.00000000000E+00 -0.11960216052E+04  0.11960216052E+04  0.00000000000E+00 0.  1.
         25    1    1    2    0    0  0.14040876590E+03 -0.41674971699E+02 -0.22982573753E+03  0.29982710758E+03  0.12500000000E+03 0.  0.
         25    1    1    2    0    0 -0.14040876590E+03  0.41674971699E+02 -0.92124119409E+03  0.94114917122E+03  0.12500000000E+03 0.  0.
</event>
<event>
 4    0  0.2233588E-002  0.2097389E+03  0.7546771E-02  0.1141773E+00
         21   -1    0    0  502  501  0.00000000000E+00  0.00000000000E+00  0.60704267955E+02  0.60704267955E+02  0.00000000000E+00 0.  1.
         21   -1    0    0  501  502 -0.00000000000E+00 -0.00000000000E+00 -0.72466762388E+03  0.72466762388E+03  0.00000000000E+00 0.  1.
         25    1    1    2    0    0 -0.62902912411E+02 -0.13693199169E+03 -0.47281589484E+03  0.51174897865E+03  0.12500000000E+03 0.  0.
         25    1    1    2    0    0  0.62902912411E+02  0.13693199169E+03 -0.19114746108E+03  0.27362291318E+03  0.12500000000E+03 0.  0.
</event>
<event>
 4    0  0.2233588E-002  0.2409925E+03  0.7546771E-02  0.1119133E+00
         21   -1    0    0  502  501  0.00000000000E+00  0.00000000000E+00  0.69588303476E+03  0.69588303476E+03  0.00000000000E+00 0. -1.
         21   -1    0    0  501  502 -0.00000000000E+00 -0.00000000000E+00 -0.83458510496E+02  0.83458510496E+02  0.00000000000E+00 0. -1.
         25    1    1    2    0    0  0.10852827026E+03 -0.15953601602E+03  0.42306062406E+03  0.48149290492E+03  0.12500000000E+03 0.  0.
         25    1    1    2    0    0 -0.10852827026E+03  0.15953601602E+03  0.18936390020E+03  0.29784864034E+03  0.12500000000E+03 0.  0.
</event>
<event>
 4    0  0.2233588E-002  0.1932508E+03  0.7546771E-02  0.1155562E+00
         21   -1    0    0  502  501  0.00000000000E+00  0.00000000000E+00  0.16074498904E+03  0.16074498904E+03  0.00000000000E+00 0.  1.
         21   -1    0    0  501  502 -0.00000000000E+00 -0.00000000000E+00 -0.23232991490E+03  0.23232991490E+03  0.00000000000E+00 0.  1.
         25    1    1    2    0    0 -0.87289851608E+02  0.54015725367E+02  0.71758888453E+02  0.17695071306E+03  0.12500000000E+03 0.  0.
         25    1    1    2    0    0  0.87289851608E+02 -0.54015725367E+02 -0.14334381432E+03  0.21612419088E+03  0.12500000000E+03 0.  0.
</event>
<event>
 4    0  0.2233588E-002  0.3811493E+03  0.7546771E-02  0.1050510E+00
         21   -1    0    0  502  501  0.00000000000E+00  0.00000000000E+00  0.44261674672E+03  0.44261674672E+03  0.00000000000E+00 0.  1.
         21   -1    0    0  501  502 -0.00000000000E+00 -0.00000000000E+00 -0.32821795813E+03  0.32821795813E+03  0.00000000000E+00 0.  1.
         25    1    1    2    0    0  0.21009612342E+02  0.15600823690E+03  0.38466174458E+03  0.43401570424E+03  0.12500000000E+03 0.  0.
         25    1    1    2    0    0 -0.21009612342E+02 -0.15600823690E+03 -0.27026295599E+03  0.33681900061E+03  0.12500000000E+03 0.  0.
</event>
<event>
 4    0  0.2233588E-002  0.2482444E+03  0.7546771E-02  0.1114419E+00
         21   -1    0    0  502  501  0.00000000000E+00  0.00000000000E+00  0.64501640439E+03  0.64501640439E+03  0.00000000000E+00 0.  1.
         21   -1    0    0  501  502 -0.00000000000E+00 -0.00000000000E+00 -0.95540634332E+02  0.95540634332E+02  0.00000000000E+00 0.  1.
         25    1    1    2    0    0 -0.95764680435E+02 -0.19114167390E+03  0.30032473600E+03  0.38926335632E+03  0.12500000000E+03 0.  0.
         25    1    1    2    0    0  0.95764680435E+02  0.19114167390E+03  0.24915103406E+03  0.35129368240E+03  0.12500000000E+03 0.  0.
</event>
<event>
 4    0  0.2233588E-002  0.1905553E+03  0.7546771E-02  0.1157961E+00
         21   -1    0    0  502  501  0.00000000000E+00  0.00000000000E+00  0.21332354937E+03  0.21332354937E+03  0.00000000000E+00 0. -1.
         21   -1    0    0  501  502 -0.00000000000E+00 -0.00000000000E+00 -0.17021717510E+03  0.17021717510E+03  0.00000000000E+00 0. -1.
         25    1    1    2    0    0 -0.19089263857E+02  0.12636549947E+03 -0.44850053550E+02  0.18430726181E+03  0.12500000000E+03 0.  0.
         25    1    1    2    0    0  0.19089263857E+02 -0.12636549947E+03  0.87956427818E+02  0.19923346267E+03  0.12500000000E+03 0.  0.
</event>
<event>
 4    0  0.2233588E-002  0.1686099E+03  0.7546771E-02  0.1179305E+00
         21   -1    0    0  502  501  0.00000000000E+00  0.00000000000E+00  0.39509896975E+03  0.39509896975E+03  0.00000000000E+00 0. -1.
         21   -1    0    0  501  502 -0.00000000000E+00 -0.00000000000E+00 -0.71954894952E+02  0.71954894952E+02  0.00000000000E+00 0. -1.
         25    1    1    2    0    0 -0.10476615524E+03  0.41116049619E+02  0.17783211640E+03  0.24477691566E+03  0.12500000000E+03 0.  0.
         25    1    1    2    0    0  0.10476615524E+03 -0.41116049619E+02  0.14531195840E+03  0.22227694904E+03  0.12500000000E+03 0.  0.
</event>
<event>
 4    0  0.2233588E-002  0.2210648E+03  0.7546771E-02  0.1133092E+00
         21   -1    0    0  502  501  0.00000000000E+00  0.00000000000E+00  0.77755218673E+02  0.77755218673E+02  0.00000000000E+00 0. -1.
         21   -1    0    0  501  502 -0.00000000000E+00 -0.00000000000E+00 -0.62850656345E+03  0.62850656345E+03  0.00000000000E+00 0. -1.
         25    1    1    2    0    0  0.25502126394E+02 -0.10960301161E+03 -0.50454389643E+03  0.53183900010E+03  0.12500000000E+03 0.  0.
         25    1    1    2    0    0 -0.25502126394E+02  0.10960301161E+03 -0.46207448344E+02  0.17442278202E+03  0.12500000000E+03 0.  0.
</event>
<event>
 4    0  0.2233588E-002  0.2342093E+03  0.7546771E-02  0.1123712E+00
         21   -1    0    0  502  501  0.00000000000E+00  0.00000000000E+00  0.11598515111E+04  0.11598515111E+04  0.00000000000E+00 0. -1.
         21   -1    0    0  501  502 -0.00000000000E+00 -0.00000000000E+00 -0.47293994548E+02  0.47293994548E+02  0.00000000000E+00 0. -1.
         25    1    1    2    0    0  0.51606918119E+02  0.18859173538E+03  0.47482985927E+03  0.52850592420E+03  0.12500000000E+03 0.  0.
         25    1    1    2    0    0 -0.51606918119E+02 -0.18859173538E+03  0.63772765725E+03  0.67863958143E+03  0.12500000000E+03 0.  0.
</event>
<event>
 4    0  0.2233588E-002  0.2204621E+03  0.7546771E-02  0.1133539E+00
         21   -1    0    0  502  501  0.00000000000E+00  0.00000000000E+00  0.76861792225E+03  0.76861792225E+03  0.00000000000E+00 0.  1.
         21   -1    0    0  501  502 -0.00000000000E+00 -0.00000000000E+00 -0.63234998310E+02  0.63234998310E+02  0.00000000000E+00 0.  1.
         25    1    1    2    0    0 -0.63316798170E+02 -0.63161943023E+02  0.54510665092E+02  0.16307930766E+03  0.12500000000E+03 0.  0.
         25    1    1    2    0    0  0.63316798170E+02  0.63161943023E+02  0.65087225885E+03  0.66877361291E+03  0.12500000000E+03 0.  0.
</event>
<event>
 4    0  0.2233588E-002  0.2317589E+03  0.7546771E-02  0.1125408E+00
         21   -1    0    0  502  501  0.00000000000E+00  0.00000000000E+00  0.87198473474E+02  0.87198473474E+02  0.00000000000E+00 0.  1.
         21   -1    0    0  501  502 -0.00000000000E+00 -0.00000000000E+00 -0.61597631166E+03  0.61597631166E+03  0.00000000000E+00 0.  1.
         25    1    1    2    0    0 -0.70080434571E+02  0.17515280569E+03 -0.18857607956E+03  0.29457717229E+03  0.12500000000E+03 0.  0.
         25    1    1    2    0    0  0.70080434571E+02 -0.17515280569E+03 -0.34020175863E+03  0.40859761285E+03  0.12500000000E+03 0.  0.
</event>
<event>
 4    0  0.2233588E-002  0.1796230E+03  0.7546771E-02  0.1168168E+00
         21   -1    0    0  502  501  0.00000000000E+00  0.00000000000E+00  0.15093910313E+04  0.15093910313E+04  0.00000000000E+00 0.  1.
         21   -1    0    0  501  502 -0.00000000000E+00 -0.00000000000E+00 -0.21375776205E+02  0.21375776205E+02  0.00000000000E+00 0.  1.
         25    1    1    2    0    0 -0.79237003358E+02  0.54098062266E+02  0.11114060664E+04  0.11225210677E+04  0.12500000000E+03 0.  0.
         25    1    1    2    0    0  0.79237003358E+02 -0.54098062266E+02  0.37660918866E+03  0.40824573976E+03  0.12500000000E+03 0.  0.
</event>
<event>
 4    0  0.2233588E-002  0.2195943E+03  0.7546771E-02  0.1134186E+00
         21   -1    0    0  502  501  0.00000000000E+00  0.00000000000E+00  0.29052553805E+02  0.29052553805E+02  0.00000000000E+00 0. -1.
         21   -1    0    0  501  502 -0.00000000000E+00 -0.00000000000E+00 -0.16598074147E+04  0.16598074147E+04  0.00000000000E+00 0. -1.
         25    1    1    2    0    0 -0.17006077685E+03 -0.18427091865E+02 -0.59325986176E+03  0.62995435479E+03  0.12500000000E+03 0.  0.
         25    1    1    2    0    0  0.17006077685E+03  0.18427091865E+02 -0.10374949992E+04  0.10589056137E+04  0.12500000000E+03 0.  0.
</event>
<event>
 4    0  0.2233588E-002  0.1863477E+03  0.7546771E-02  0.1161797E+00
         21   -1    0    0  502  501  0.00000000000E+00  0.00000000000E+00  0.81917756289E+02  0.81917756289E+02  0.00000000000E+00 0. -1.
         21   -1    0    0  501  502 -0.00000000000E+00 -0.00000000000E+00 -0.42390665193E+03  0.42390665193E+03  0.00000000000E+00 0. -1.
         25    1    1    2    0    0 -0.34857493104E+02  0.89986410470E+01  0.10102056404E+02  0.13047249484E+03  0.12500000000E+03 0.  0.
         25    1    1    2    0    0  0.34857493104E+02 -0.89986410470E+01 -0.35209095205E+03  0.37535191338E+03  0.12500000000E+03 0.  0.
</event>
<event>
 4    0  0.2233588E-002  0.2360522E+03  0.7546771E-02  0.1122451E+00
         21   -1    0    0  502  501  0.00000000000E+00  0.00000000000E+00  0.26126587780E+03  0.26126587780E+03  0.00000000000E+00 0.  1.
         21   -1    0    0  501  502 -0.00000000000E+00 -0.00000000000E+00 -0.21327183446E+03  0.21327183446E+03  0.00000000000E+00 0.  1.
         25    1    1    2    0    0 -0.42799713759E+02 -0.16677098994E+03  0.12675540525E+03  0.24766168727E+03  0.12500000000E+03 0.  0.
         25    1    1    2    0    0  0.42799713759E+02  0.16677098994E+03 -0.78761361907E+02  0.22687602499E+03  0.12500000000E+03 0.  0.
</event>
<event>
 4    0  0.2233588E-002  0.2133250E+03  0.7546771E-02  0.1138960E+00
         21   -1    0    0  502  501  0.00000000000E+00  0.00000000000E+00  0.52318248892E+02  0.52318248892E+02  0.00000000000E+00 0.  1.
         21   -1    0    0  501  502 -0.00000000000E+00 -0.00000000000E+00 -0.86982224331E+03  0.86982224331E+03  0.00000000000E+00 0.  1.
         25    1    1    2    0    0 -0.68792382454E+02 -0.60372153431E+02 -0.91796066755E+02  0.18007972308E+03  0.12500000000E+03 0.  0.
         25    1    1    2    0    0  0.68792382454E+02  0.60372153431E+02 -0.72570792766E+03  0.74206076912E+03  0.12500000000E+03 0.  0.
</event>
<event>
 4    0  0.2233588E-002  0.3576745E+03  0.7546771E-02  0.1059508E+00
         21   -1    0    0  502  501  0.00000000000E+00  0.00000000000E+00  0.54233870697E+02  0.54233870697E+02  0.00000000000E+00 0. -1.
         21   -1    0    0  501  502 -0.00000000000E+00 -0.00000000000E+00 -0.23588775209E+04  0.23588775209E+04  0.00000000000E+00 0. -1.
         25    1    1    2    0    0  0.34012484910E+02  0.33222564431E+03 -0.10583921464E+04  0.11168480932E+04  0.12500000000E+03 0.  0.
         25    1    1    2    0    0 -0.34012484910E+02 -0.33222564431E+03 -0.12462515038E+04  0.12962632984E+04  0.12500000000E+03 0.  0.
</event>
<event>
 4    0  0.2233588E-002  0.2080153E+03  0.7546771E-02  0.1143147E+00
         21   -1    0    0  502  501  0.00000000000E+00  0.00000000000E+00  0.17359808573E+03  0.17359808573E+03  0.00000000000E+00 0.  1.
         21   -1    0    0  501  502 -0.00000000000E+00 -0.00000000000E+00 -0.24925593600E+03  0.24925593600E+03  0.00000000000E+00 0.  1.
         25    1    1    2    0    0  0.87715326697E+02  0.33995554154E+02 -0.17717483857E+03  0.23635904820E+03  0.12500000000E+03 0.  0.
         25    1    1    2    0    0 -0.87715326697E+02 -0.33995554154E+02  0.10151698830E+03  0.18649497353E+03  0.12500000000E+03 0.  0.
</event>
<event>
 4    0  0.2233588E-002  0.2750774E+03  0.7546771E-02  0.1098408E+00
         21   -1    0    0  502  501  0.00000000000E+00  0.00000000000E+00  0.23074032375E+03  0.23074032375E+03  0.00000000000E+00 0.  1.
         21   -1    0    0  501  502 -0.00000000000E+00 -0.00000000000E+00 -0.32793390670E+03  0.32793390670E+03  0.00000000000E+00 0.  1.
         25    1    1    2    0    0  0.22316312997E+03 -0.99994879468E+02 -0.32805508338E+02  0.27658987667E+03  0.12500000000E+03 0.  0.
         25    1    1    2    0    0 -0.22316312997E+03  0.99994879468E+02 -0.64388074614E+02  0.28208435378E+03  0.12500000000E+03 0.  0.
</event>
<event>
 4    0  0.2233588E-002  0.1927426E+03  0.7546771E-02  0.1156011E+00
         21   -1    0    0  502  501  0.00000000000E+00  0.00000000000E+00  0.42739149214E+03  0.42739149214E+03  0.00000000000E+00 0. -1.
         21   -1    0    0  501  502 -0.00000000000E+00 -0.00000000000E+00 -0.86922010275E+02  0.86922010275E+02  0.00000000000E+00 0. -1.
         25    1    1    2    0    0  0.41639378013E+02 -0.14059931265E+03  0.16387478061E+03  0.25294653237E+03  0.12500000000E+03 0.  0.
         25    1    1    2    0    0 -0.41639378013E+02  0.14059931265E+03  0.17659470125E+03  0.26136697004E+03  0.12500000000E+03 0.  0.
</event>
<event>
 4    0  0.2233588E-002  0.3135696E+03  0.7546771E-02  0.1078647E+00
         21   -1    0    0  502  501  0.00000000000E+00  0.00000000000E+00  0.22362817320E+03  0.22362817320E+03  0.00000000000E+00 0.  1.
         21   -1    0    0  501  502 -0.00000000000E+00 -0.00000000000E+00 -0.43968474912E+03  0.43968474912E+03  0.00000000000E+00 0.  1.
         25    1    1    2    0    0 -0.10285703815E+03 -0.19556606615E+03  0.86640219125E+02  0.26824836271E+03  0.12500000000E+03 0.  0.
         25    1    1    2    0    0  0.10285703815E+03  0.19556606615E+03 -0.30269679504E+03  0.39506455961E+03  0.12500000000E+03 0.  0.
</event>
<event>
 4    0  0.2233588E-002  0.2260153E+03  0.7546771E-02  0.1129476E+00
         21   -1    0    0  502  501  0.00000000000E+00  0.00000000000E+00  0.33908829470E+03  0.33908829470E+03  0.00000000000E+00 0. -1.
         21   -1    0    0  501  502 -0.00000000000E+00 -0.00000000000E+00 -0.15064782978E+03  0.15064782978E+03  0.00000000000E+00 0. -1.
         25    1    1    2    0    0 -0.10647732235E+03 -0.13229994268E+03  0.18235192591E+03  0.27877933907E+03  0.12500000000E+03 0.  0.
         25    1    1    2    0    0  0.10647732235E+03  0.13229994268E+03  0.60885390133E+01  0.21095678542E+03  0.12500000000E+03 0.  0.
</event>
<event>
 4    0  0.2233588E-002  0.2125793E+03  0.7546771E-02  0.1139540E+00
         21   -1    0    0  502  501  0.00000000000E+00  0.00000000000E+00  0.65192612127E+02  0.65192612127E+02  0.00000000000E+00 0. -1.
         21   -1    0    0  501  502 -0.00000000000E+00 -0.00000000000E+00 -0.69317622437E+03  0.69317622437E+03  0.00000000000E+00 0. -1.
         25    1    1    2    0    0  0.68683233194E+02 -0.10579352583E+03 -0.52243142844E+03  0.55178732683E+03  0.12500000000E+03 0.  0.
         25    1    1    2    0    0 -0.68683233194E+02  0.10579352583E+03 -0.10555218380E+03  0.20658150966E+03  0.12500000000E+03 0.  0.
</event>
<event>
 4    0  0.2233588E-002  0.2737160E+03  0.7546771E-02  0.1099172E+00
         21   -1    0    0  502  501  0.00000000000E+00  0.00000000000E+00  0.24520848979E+03  0.24520848979E+03  0.00000000000E+00 0.  1.
         21   -1    0    0  501  502 -0.00000000000E+00 -0.00000000000E+00 -0.30553765237E+03  0.30553765237E+03  0.00000000000E+00 0.  1.
         25    1    1    2    0    0  0.21701563559E+01 -0.17046197777E+03 -0.20509489089E+03  0.29453507383E+03  0.12500000000E+03 0.  0.
         25    1    1    2    0    0 -0.21701563559E+01  0.17046197777E+03  0.14476572831E+03  0.25621106833E+03  0.12500000000E+03 0.  0.
</event>
<event>
 4    0  0.2233588E-002  0.3742116E+03  0.7546771E-02  0.1053094E+00
         21   -1    0    0  502  501  0.00000000000E+00  0.00000000000E+00  0.38028703221E+03  0.38028703221E+03  0.00000000000E+00 0.  1.
         21   -1    0    0  501  502 -0.00000000000E+00 -0.00000000000E+00 -0.36823316507E+03  0.36823316507E+03  0.00000000000E+00 0.  1.
         25    1    1    2    0    0 -0.32928701511E+03  0.18958405860E+02 -0.11896902529E+03  0.37224721417E+03  0.12500000000E+03 0.  0.
         25    1    1    2    0    0  0.32928701511E+03 -0.18958405860E+02  0.13102289243E+03  0.37627298311E+03  0.12500000000E+03 0.  0.
</event>
<event>
 4    0  0.2233588E-002  0.2255246E+03  0.7546771E-02  0.1129830E+00
         21   -1    0    0  502  501  0.00000000000E+00  0.00000000000E+00  0.35746177426E+02  0.35746177426E+02  0.00000000000E+00 0. -1.
         21   -1    0    0  501  502 -0.00000000000E+00 -0.00000000000E+00 -0.14228474950E+04  0.14228474950E+04  0.00000000000E+00 0. -1.
         25    1    1    2    0    0 -0.89506821847E+02  0.95829667673E+02 -0.11279082587E+04  0.11423645812E+04  0.12500000000E+03 0.  0.
         25    1    1    2    0    0  0.89506821847E+02 -0.95829667673E+02 -0.25919305889E+03  0.31622909123E+03  0.12500000000E+03 0.  0.
</event>
<event>
 4    0  0.2233588E-002  0.3456357E+03  0.7546771E-02  0.1064421E+00
         21   -1    0    0  502  501  0.00000000000E+00  0.00000000000E+00  0.28800743147E+03  0.28800743147E+03  0.00000000000E+00 0.  1.
         21   -1    0    0  501  502 -0.00000000000E+00 -0.00000000000E+00 -0.41479509884E+03  0.41479509884E+03  0.00000000000E+00 0.  1.
         25    1    1    2    0    0 -0.76062935428E+02  0.30529705261E+03 -0.13417710123E+03  0.36417077720E+03  0.12500000000E+03 0.  0.
         25    1    1    2    0    0  0.76062935428E+02 -0.30529705261E+03  0.73894338552E+01  0.33863175310E+03  0.12500000000E+03 0.  0.
</event>
<event>
 4    0  0.2233588E-002  0.2023779E+03  0.7546771E-02  0.1147748E+00
         21   -1    0    0  502  501  0.00000000000E+00  0.00000000000E+00  0.33179832862E+03  0.33179832862E+03  0.00000000000E+00 0. -1.
         21   -1    0    0  501  502 -0.00000000000E+00 -0.00000000000E+00 -0.12343889632E+03  0.12343889632E+03  0.00000000000E+00 0. -1.
         25    1    1    2    0    0 -0.51335984623E+02 -0.12923606020E+03  0.19126009415E+03  0.26747479542E+03  0.12500000000E+03 0.  0.
         25    1    1    2    0    0  0.51335984623E+02  0.12923606020E+03  0.17099338156E+02  0.18776242952E+03  0.12500000000E+03 0.  0.
</event>
<event>
 4    0  0.2233588E-002  0.1858079E+03  0.7546771E-02  0.1162298E+00
         21   -1    0    0  502  501  0.00000000000E+00  0.00000000000E+00  0.52762650755E+02  0.52762650755E+02  0.00000000000E+00 0. -1.
         21   -1    0    0  501  502 -0.00000000000E+00 -0.00000000000E+00 -0.65433757775E+03  0.65433757775E+03  0.00000000000E+00 0. -1.
         25    1    1    2    0    0 -0.20300323292E+02  0.13166860539E+03 -0.36533773244E+03  0.40846711437E+03  0.12500000000E+03 0.  0.
         25    1    1    2    0    0  0.20300323292E+02 -0.13166860539E+03 -0.23623719455E+03  0.29863311414E+03  0.12500000000E+03 0.  0.
</event>
<event>
 4    0  0.2233588E-002  0.1880710E+03  0.7546771E-02  0.1160213E+00
         21   -1    0    0  502  501  0.00000000000E+00  0.00000000000E+00  0.11419680683E+03  0.11419680683E+03  0.00000000000E+00 0.  1.
         21   -1    0    0  501  502 -0.00000000000E+00 -0.00000000000E+00 -0.30973455026E+03  0.30973455026E+03  0.00000000000E+00 0.  1.
         25    1    1    2    0    0 -0.97948680985E+02 -0.97927680010E+02 -0.71052237040E+02  0.19964266830E+03  0.12500000000E+03 0.  0.
         25    1    1    2    0    0  0.97948680985E+02  0.97927680010E+02 -0.12448550638E+03  0.22428868879E+03  0.12500000000E+03 0.  0.
</event>
<event>
 4    0  0.2233588E-002  0.1732877E+03  0.7546771E-02  0.1174462E+00
         21   -1    0    0  502  501  0.00000000000E+00  0.00000000000E+00  0.41445134867E+03  0.41445134867E+03  0.00000000000E+00 0.  1.
         21   -1    0    0  501  502 -0.00000000000E+00 -0.00000000000E+00 -0.72453959443E+02  0.72453959443E+02  0.00000000000E+00 0.  1.
         25    1    1    2    0    0  0.85605571420E+02 -0.20107659465E+02  0.28574598756E+03  0.32404999805E+03  0.12500000000E+03 0.  0.
         25    1    1    2    0    0 -0.85605571420E+02  0.20107659465E+02  0.56251401667E+02  0.16285531007E+03  0.12500000000E+03 0.  0.
</event>
<event>
 4    0  0.2233588E-002  0.2154931E+03  0.7546771E-02  0.1137288E+00
         21   -1    0    0  502  501  0.00000000000E+00  0.00000000000E+00  0.16007727603E+04  0.16007727603E+04  0.00000000000E+00 0. -1.
         21   -1    0    0  501  502 -0.00000000000E+00 -0.00000000000E+00 -0.29009274936E+02  0.29009274936E+02  0.00000000000E+00 0. -1.
         25    1    1    2    0    0  0.92815608806E+02 -0.11323452763E+03  0.41972875580E+03  0.46177269726E+03  0.12500000000E+03 0.  0.
         25    1    1    2    0    0 -0.92815608806E+02  0.11323452763E+03  0.11520347296E+04  0.11680093380E+04  0.12500000000E+03 0.  0.
</event>
<event>
 4    0  0.2233588E-002  0.3318066E+03  0.7546771E-02  0.1070340E+00
         21   -1    0    0  502  501  0.00000000000E+00  0.00000000000E+00  0.14135065238E+03  0.14135065238E+03  0.00000000000E+00 0. -1.
         21   -1    0    0  501  502 -0.00000000000E+00 -0.00000000000E+00 -0.77888299935E+03  0.77888299935E+03  0.00000000000E+00 0. -1.
         25    1    1    2    0    0  0.15277962620E+03 -0.13337496571E+03 -0.63903163573E+03  0.68199481458E+03  0.12500000000E+03 0.  0.
         25    1    1    2    0    0 -0.15277962620E+03  0.13337496571E+03  0.14992887540E+01  0.23823883715E+03  0.12500000000E+03 0.  0.
</event>
<event>
 4    0  0.2233588E-002  0.2985808E+03  0.7546771E-02  0.1085952E+00
         21   -1    0    0  502  501  0.00000000000E+00  0.00000000000E+00  0.82491164643E+02  0.82491164643E+02  0.00000000000E+00 0. -1.
         21   -1    0    0  501  502 -0.00000000000E+00 -0.00000000000E+00 -0.10807276166E+04  0.10807276166E+04  0.00000000000E+00 0. -1.
         25    1    1    2    0    0  0.42046027546E+02 -0.22729459577E+03 -0.77524668840E+03  0.81857383880E+03  0.12500000000E+03 0.  0.
         25    1    1    2    0    0 -0.42046027546E+02  0.22729459577E+03 -0.22298976355E+03  0.34464494244E+03  0.12500000000E+03 0.  0.
</event>
<event>
 4    0  0.2233588E-002  0.2348217E+03  0.7546771E-02  0.1123291E+00
         21   -1    0    0  502  501  0.00000000000E+00  0.00000000000E+00  0.30069458809E+02  0.30069458809E+02  0.00000000000E+00 0.  1.
         21   -1    0    0  501  502 -0.00000000000E+00 -0.00000000000E+00 -0.18337957025E+04  0.18337957025E+04  0.00000000000E+00 0.  1.
         25    1    1    2    0    0 -0.19321665332E+03 -0.20716207372E+02 -0.10680939276E+04  0.10927998328E+04  0.12500000000E+03 0.  0.
         25    1    1    2    0    0  0.19321665332E+03  0.20716207372E+02 -0.73563231610E+03  0.77106532853E+03  0.12500000000E+03 0.  0.
</event>
<event>
 4    0  0.2233588E-002  0.2888996E+03  0.7546771E-02  0.1090925E+00
         21   -1    0    0  502  501  0.00000000000E+00  0.00000000000E+00  0.20299320997E+03  0.20299320997E+03  0.00000000000E+00 0.  1.
         21   -1    0    0  501  502 -0.00000000000E+00 -0.00000000000E+00 -0.41116143434E+03  0.41116143434E+03  0.00000000000E+00 0.  1.
         25    1    1    2    0    0  0.14562464612E+03  0.13594788498E+03 -0.28241929359E+03  0.36752417931E+03  0.12500000000E+03 0.  0.
         25    1    1    2    0    0 -0.14562464612E+03 -0.13594788498E+03  0.74251069210E+02  0.24663046500E+03  0.12500000000E+03 0.  0.
</event>
<event>
 4    0  0.2233588E-002  0.2506075E+03  0.7546771E-02  0.1112922E+00
         21   -1    0    0  502  501  0.00000000000E+00  0.00000000000E+00  0.37887495971E+02  0.37887495971E+02  0.00000000000E+00 0. -1.
         21   -1    0    0  501  502 -0.00000000000E+00 -0.00000000000E+00 -0.16576470676E+04  0.16576470676E+04  0.00000000000E+00 0. -1.
         25    1    1    2    0    0  0.14766802597E+02 -0.11502407963E+03 -0.18859023452E+03  0.25424372934E+03  0.12500000000E+03 0.  0.
         25    1    1    2    0    0 -0.14766802597E+02  0.11502407963E+03 -0.14311693371E+04  0.14412908342E+04  0.12500000000E+03 0.  0.
</event>
<event>
 4    0  0.2233588E-002  0.2660737E+03  0.7546771E-02  0.1103548E+00
         21   -1    0    0  502  501  0.00000000000E+00  0.00000000000E+00  0.32177968497E+03  0.32177968497E+03  0.00000000000E+00 0.  1.
         21   -1    0    0  501  502 -0.00000000000E+00 -0.00000000000E+00 -0.22001151689E+03  0.22001151689E+03  0.00000000000E+00 0.  1.
         25    1    1    2    0    0  0.92871026518E+02  0.11756123826E+03 -0.13329354175E+03  0.23630031862E+03  0.12500000000E+03 0.  0.
         25    1    1    2    0    0 -0.92871026518E+02 -0.11756123826E+03  0.23506170983E+03  0.30549088323E+03  0.12500000000E+03 0.  0.
</event>
<event>
 4    0  0.2233588E-002  0.2759738E+03  0.7546771E-02  0.1097909E+00
         21   -1    0    0  502  501  0.00000000000E+00  0.00000000000E+00  0.99632048469E+03  0.99632048469E+03  0.00000000000E+00 0.  1.
         21   -1    0    0  501  502 -0.00000000000E+00 -0.00000000000E+00 -0.76442808098E+02  0.76442808098E+02  0.00000000000E+00 0.  1.
         25    1    1    2    0    0 -0.12937221045E+03  0.12464255555E+03  0.78669200336E+03  0.81656735401E+03  0.12500000000E+03 0.  0.
         25    1    1    2    0    0  0.12937221045E+03 -0.12464255555E+03  0.13318567324E+03  0.25619593878E+03  0.12500000000E+03 0.  0.
</event>
<event>
 4    0  0.2233588E-002  0.1353490E+03  0.7546771E-02  0.1219728E+00
         21   -1    0    0  502  501  0.00000000000E+00  0.00000000000E+00  0.53181078166E+02  0.53181078166E+02  0.00000000000E+00 0. -1.
         21   -1    0    0  501  502 -0.00000000000E+00 -0.00000000000E+00 -0.34447147770E+03  0.34447147770E+03  0.00000000000E+00 0. -1.
         25    1    1    2    0    0 -0.14714115709E+02  0.26291161515E+02 -0.20773730744E+03  0.24431029302E+03  0.12500000000E+03 0.  0.
         25    1    1    2    0    0  0.14714115709E+02 -0.26291161515E+02 -0.83553092095E+02  0.15334226284E+03  0.12500000000E+03 0.  0.
</event>
<event>
 4    0  0.2233588E-002  0.1864208E+03  0.7546771E-02  0.1161730E+00
         21   -1    0    0  502  501  0.00000000000E+00  0.00000000000E+00  0.35164053323E+02  0.35164053323E+02  0.00000000000E+00 0. -1.
         21   -1    0    0  501  502 -0.00000000000E+00 -0.00000000000E+00 -0.98830253412E+03  0.98830253412E+03  0.00000000000E+00 0. -1.
         25    1    1    2    0    0 -0.39653123571E+02 -0.87261637536E+02 -0.75025930716E+03  0.76661658707E+03  0.12500000000E+03 0.  0.
         25    1    1    2    0    0  0.39653123571E+02  0.87261637536E+02 -0.20287917363E+03  0.25685000037E+03  0.12500000000E+03 0.  0.
</event>
<event>
 4    0  0.2233588E-002  0.1988397E+03  0.7546771E-02  0.1150722E+00
         21   -1    0    0  502  501  0.00000000000E+00  0.00000000000E+00  0.59182851036E+02  0.59182851036E+02  0.00000000000E+00 0.  1.
         21   -1    0    0  501  502 -0.00000000000E+00 -0.00000000000E+00 -0.66805230232E+03  0.66805230232E+03  0.00000000000E+00 0.  1.
         25    1    1    2    0    0  0.87950468791E+01  0.44047615245E+02 -0.33845100833E+02  0.13706945724E+03  0.12500000000E+03 0.  0.
         25    1    1    2    0    0 -0.87950468791E+01 -0.44047615245E+02 -0.57502435045E+03  0.59016569612E+03  0.12500000000E+03 0.  0.
</event>
<event>
 4    0  0.2233588E-002  0.1744713E+03  0.7546771E-02  0.1173264E+00
         21   -1    0    0  502  501  0.00000000000E+00  0.00000000000E+00  0.27967594131E+02  0.27967594131E+02  0.00000000000E+00 0.  1.
         21   -1    0    0  501  502 -0.00000000000E+00 -0.00000000000E+00 -0.10884107595E+04  0.10884107595E+04  0.00000000000E+00 0.  1.
         25    1    1    2    0    0  0.42960129668E+02  0.81927228457E+02 -0.78330336688E+03  0.79859051339E+03  0.12500000000E+03 0.  0.
         25    1    1    2    0    0 -0.42960129668E+02 -0.81927228457E+02 -0.27713979851E+03  0.31778784027E+03  0.12500000000E+03 0.  0.
</event>
<event>
 4    0  0.2233588E-002  0.1675845E+03  0.7546771E-02  0.1180391E+00
         21   -1    0    0  502  501  0.00000000000E+00  0.00000000000E+00  0.39056947448E+03  0.39056947448E+03  0.00000000000E+00 0.  1.
         21   -1    0    0  501  502 -0.00000000000E+00 -0.00000000000E+00 -0.71906688856E+02  0.71906688856E+02  0.00000000000E+00 0.  1.
         25    1    1    2    0    0 -0.83012878192E+01  0.35783492825E+02  0.13890588881E+02  0.13102411304E+03  0.12500000000E+03 0.  0.
         25    1    1    2    0    0  0.83012878192E+01 -0.35783492825E+02  0.30477219674E+03  0.33145205030E+03  0.12500000000E+03 0.  0.
</event>
<event>
 4    0  0.2233588E-002  0.2249084E+03  0.7546771E-02  0.1130276E+00
         21   -1    0    0  502  501  0.00000000000E+00  0.00000000000E+00  0.39932634004E+03  0.39932634004E+03  0.00000000000E+00 0.  1.
         21   -1    0    0  501  502 -0.00000000000E+00 -0.00000000000E+00 -0.12667278293E+03  0.12667278293E+03  0.00000000000E+00 0.  1.
         25    1    1    2    0    0  0.18498750364E+03 -0.26988111627E+02  0.13262077966E+03  0.26107854348E+03  0.12500000000E+03 0.  0.
         25    1    1    2    0    0 -0.18498750364E+03  0.26988111627E+02  0.14003277746E+03  0.26492057949E+03  0.12500000000E+03 0.  0.
</event>
<event>
 4    0  0.2233588E-002  0.2493204E+03  0.7546771E-02  0.1113735E+00
         21   -1    0    0  502  501  0.00000000000E+00  0.00000000000E+00  0.53660353543E+03  0.53660353543E+03  0.00000000000E+00 0. -1.
         21   -1    0    0  501  502 -0.00000000000E+00 -0.00000000000E+00 -0.11584097786E+03  0.11584097786E+03  0.00000000000E+00 0. -1.
         25    1    1    2    0    0 -0.14835088268E+03  0.15653986171E+03  0.21665166547E+03  0.33026603950E+03  0.12500000000E+03 0.  0.
         25    1    1    2    0    0  0.14835088268E+03 -0.15653986171E+03  0.20411089210E+03  0.32217847378E+03  0.12500000000E+03 0.  0.
</event>
<event>
 4    0  0.2233588E-002  0.1742799E+03  0.7546771E-02  0.1173457E+00
         21   -1    0    0  502  501  0.00000000000E+00  0.00000000000E+00  0.68195996119E+02  0.68195996119E+02  0.00000000000E+00 0. -1.
         21   -1    0    0  501  502 -0.00000000000E+00 -0.00000000000E+00 -0.44538522329E+03  0.44538522329E+03  0.00000000000E+00 0. -1.
         25    1    1    2    0    0  0.74997648150E+02 -0.16126701811E+02 -0.49873979047E+02  0.15491007561E+03  0.12500000000E+03 0.  0.
         25    1    1    2    0    0 -0.74997648150E+02  0.16126701811E+02 -0.32731524812E+03  0.35867114380E+03  0.12500000000E+03 0.  0.
</event>
<event>
 4    0  0.2233588E-002  0.1498904E+03  0.7546771E-02  0.1200608E+00
         21   -1    0    0  502  501  0.00000000000E+00  0.00000000000E+00  0.53541852373E+01  0.53541852373E+01  0.00000000000E+00 0.  1.
         21   -1    0    0  501  502 -0.00000000000E+00 -0.00000000000E+00 -0.41961824961E+04  0.41961824961E+04  0.00000000000E+00 0.  1.
         25    1    1    2    0    0 -0.10712042907E+02 -0.53891185039E+02 -0.29620045194E+04  0.29651500436E+04  0.12500000000E+03 0.  0.
         25    1    1    2    0    0  0.10712042907E+02  0.53891185039E+02 -0.12288237914E+04  0.12363866378E+04  0.12500000000E+03 0.  0.
</event>
<event>
 4    0  0.2233588E-002  0.2239946E+03  0.7546771E-02  0.1130939E+00
         21   -1    0    0  502  501  0.00000000000E+00  0.00000000000E+00  0.27960857222E+03  0.27960857222E+03  0.00000000000E+00 0. -1.
         21   -1    0    0  501  502 -0.00000000000E+00 -0.00000000000E+00 -0.17944227789E+03  0.17944227789E+03  0.00000000000E+00 0. -1.
         25    1    1    2    0    0  0.61567330230E+02  0.17523789856E+03  0.57310083616E+02  0.23110236461E+03  0.12500000000E+03 0.  0.
         25    1    1    2    0    0 -0.61567330230E+02 -0.17523789856E+03  0.42856210716E+02  0.22794848550E+03  0.12500000000E+03 0.  0.
</event>
<event>
 4    0  0.2233588E-002  0.1871379E+03  0.7546771E-02  0.1161068E+00
         21   -1    0    0  502  501  0.00000000000E+00  0.00000000000E+00  0.70237121614E+02  0.70237121614E+02  0.00000000000E+00 0. -1.
         21   -1    0    0  501  502 -0.00000000000E+00 -0.00000000000E+00 -0.49860533742E+03  0.49860533742E+03  0.00000000000E+00 0. -1.
         25    1    1    2    0    0  0.92763098233E+02  0.99408521585E+02 -0.16837241679E+03  0.24992262261E+03  0.12500000000E+03 0.  0.
         25    1    1    2    0    0 -0.92763098233E+02 -0.99408521585E+02 -0.25999579902E+03  0.31891983643E+03  0.12500000000E+03 0.  0.
</event>
<event>
 4    0  0.2233588E-002  0.1892976E+03  0.7546771E-02  0.1159096E+00
         21   -1    0    0  502  501  0.00000000000E+00  0.00000000000E+00  0.77422759328E+02  0.77422759328E+02  0.00000000000E+00 0. -1.
         21   -1    0    0  501  502 -0.00000000000E+00 -0.00000000000E+00 -0.46283012669E+03  0.46283012669E+03  0.00000000000E+00 0. -1.
         25    1    1    2    0    0  0.13088727334E+03 -0.32308583530E+02 -0.25704926145E+03  0.31602950132E+03  0.12500000000E+03 0.  0.
         25    1    1    2    0    0 -0.13088727334E+03  0.32308583530E+02 -0.12835810591E+03  0.22422338470E+03  0.12500000000E+03 0.  0.
</event>
<event>
 4    0  0.2233588E-002  0.1612198E+03  0.7546771E-02  0.1187327E+00
         21   -1    0    0  502  501  0.00000000000E+00  0.00000000000E+00  0.48256824047E+03  0.48256824047E+03  0.00000000000E+00 0. -1.
         21   -1    0    0  501  502 -0.00000000000E+00 -0.00000000000E+00 -0.53861419374E+02  0.53861419374E+02  0.00000000000E+00 0. -1.
         25    1    1    2    0    0 -0.62161974405E+02 -0.42049358703E+02  0.99880187747E+02  0.17672948688E+03  0.12500000000E+03 0.  0.
         25    1    1    2    0    0  0.62161974405E+02  0.42049358703E+02  0.32882663335E+03  0.35970017296E+03  0.12500000000E+03 0.  0.
</event>
<event>
 4    0  0.2233588E-002  0.2382903E+03  0.7546771E-02  0.1120937E+00
         21   -1    0    0  502  501  0.00000000000E+00  0.00000000000E+00  0.74268896215E+02  0.74268896215E+02  0.00000000000E+00 0.  1.
         21   -1    0    0  501  502 -0.00000000000E+00 -0.00000000000E+00 -0.76454963870E+03  0.76454963870E+03  0.00000000000E+00 0.  1.
         25    1    1    2    0    0  0.17042703440E+03 -0.68281192744E+02 -0.49705411838E+03  0.54442216333E+03  0.12500000000E+03 0.  0.
         25    1    1    2    0    0 -0.17042703440E+03  0.68281192744E+02 -0.19322662411E+03  0.29439637158E+03  0.12500000000E+03 0.  0.
</event>
<event>
 4    0  0.2233588E-002  0.4917253E+03  0.7546771E-02  0.1015962E+00
         21   -1    0    0  502  501  0.00000000000E+00  0.00000000000E+00  0.32496711318E+03  0.32496711318E+03  0.00000000000E+00 0.  1.
         21   -1    0    0  501  502 -0.00000000000E+00 -0.00000000000E+00 -0.74405615203E+03  0.74405615203E+03  0.00000000000E+00 0.  1.
         25    1    1    2    0    0  0.97145750629E+02 -0.32530550469E+03  0.15246139573E+03  0.39259450510E+03  0.12500000000E+03 0.  0.
         25    1    1    2    0    0 -0.97145750629E+02  0.32530550469E+03 -0.57155043458E+03  0.67642876012E+03  0.12500000000E+03 0.  0.
</event>
<event>
 4    0  0.2233588E-002  0.2505191E+03  0.7546771E-02  0.1112977E+00
         21   -1    0    0  502  501  0.00000000000E+00  0.00000000000E+00  0.61285108933E+02  0.61285108933E+02  0.00000000000E+00 0.  1.
         21   -1    0    0  501  502 -0.00000000000E+00 -0.00000000000E+00 -0.10240632626E+04  0.10240632626E+04  0.00000000000E+00 0.  1.
         25    1    1    2    0    0 -0.19412878029E+02 -0.17671201911E+03 -0.21143142813E+03  0.30320330858E+03  0.12500000000E+03 0.  0.
         25    1    1    2    0    0  0.19412878029E+02  0.17671201911E+03 -0.75134672557E+03  0.78214506299E+03  0.12500000000E+03 0.  0.
</event>
<event>
 4    0  0.2233588E-002  0.1917496E+03  0.7546771E-02  0.1156893E+00
         21   -1    0    0  502  501  0.00000000000E+00  0.00000000000E+00  0.83676336402E+02  0.83676336402E+02  0.00000000000E+00 0.  1.
         21   -1    0    0  501  502 -0.00000000000E+00 -0.00000000000E+00 -0.43940613685E+03  0.43940613685E+03  0.00000000000E+00 0.  1.
         25    1    1    2    0    0 -0.20216092689E+02  0.14305742352E+03 -0.15550327482E+03  0.24633388989E+03  0.12500000000E+03 0.  0.
         25    1    1    2    0    0  0.20216092689E+02 -0.14305742352E+03 -0.20022652563E+03  0.27674858337E+03  0.12500000000E+03 0.  0.
</event>
<event>
 4    0  0.2233588E-002  0.2305322E+03  0.7546771E-02  0.1126266E+00
         21   -1    0    0  502  501  0.00000000000E+00  0.00000000000E+00  0.62056071916E+02  0.62056071916E+02  0.00000000000E+00 0. -1.
         21   -1    0    0  501  502 -0.00000000000E+00 -0.00000000000E+00 -0.85640419620E+03  0.85640419620E+03  0.00000000000E+00 0. -1.
         25    1    1    2    0    0  0.16998618604E+03  0.92523435787E+02 -0.38121397868E+03  0.44542674723E+03  0.12500000000E+03 0.  0.
         25    1    1    2    0    0 -0.16998618604E+03 -0.92523435787E+02 -0.41313414561E+03  0.47303352089E+03  0.12500000000E+03 0.  0.
</event>
<event>
 4    0  0.2233588E-002  0.1878677E+03  0.7546771E-02  0.1160399E+00
         21   -1    0    0  502  501  0.00000000000E+00  0.00000000000E+00  0.18991088651E+03  0.18991088651E+03  0.00000000000E+00 0. -1.
         21   -1    0    0  501  502 -0.00000000000E+00 -0.00000000000E+00 -0.18584647641E+03  0.18584647641E+03  0.00000000000E+00 0. -1.
         25    1    1    2    0    0 -0.44247498086E+02 -0.12338968190E+03 -0.47834671172E+02  0.18733929233E+03  0.12500000000E+03 0.  0.
         25    1    1    2    0    0  0.44247498086E+02  0.12338968190E+03  0.51899081273E+02  0.18841807058E+03  0.12500000000E+03 0.  0.
</event>
<event>
 4    0  0.2233588E-002  0.2730617E+03  0.7546771E-02  0.1099540E+00
         21   -1    0    0  502  501  0.00000000000E+00  0.00000000000E+00  0.12493773614E+03  0.12493773614E+03  0.00000000000E+00 0. -1.
         21   -1    0    0  501  502 -0.00000000000E+00 -0.00000000000E+00 -0.59679860769E+03  0.59679860769E+03  0.00000000000E+00 0. -1.
         25    1    1    2    0    0 -0.13346021248E+03 -0.13325859298E+03 -0.33907646185E+02  0.22878856918E+03  0.12500000000E+03 0.  0.
         25    1    1    2    0    0  0.13346021248E+03  0.13325859298E+03 -0.43795322537E+03  0.49294777465E+03  0.12500000000E+03 0.  0.
</event>
<event>
 4    0  0.2233588E-002  0.1806079E+03  0.7546771E-02  0.1167216E+00
         21   -1    0    0  502  501  0.00000000000E+00  0.00000000000E+00  0.68087088647E+03  0.68087088647E+03  0.00000000000E+00 0. -1.
         21   -1    0    0  501  502 -0.00000000000E+00 -0.00000000000E+00 -0.47908066969E+02  0.47908066969E+02  0.00000000000E+00 0. -1.
         25    1    1    2    0    0 -0.65473119944E+02 -0.62781112832E+02  0.50538060708E+03  0.52845317255E+03  0.12500000000E+03 0.  0.
         25    1    1    2    0    0  0.65473119944E+02  0.62781112832E+02  0.12758221242E+03  0.20032578089E+03  0.12500000000E+03 0.  0.
</event>
<event>
 4    0  0.2233588E-002  0.2847678E+03  0.7546771E-02  0.1093113E+00
         21   -1    0    0  502  501  0.00000000000E+00  0.00000000000E+00  0.94507120478E+03  0.94507120478E+03  0.00000000000E+00 0.  1.
         21   -1    0    0  501  502 -0.00000000000E+00 -0.00000000000E+00 -0.85805906433E+02  0.85805906433E+02  0.00000000000E+00 0.  1.
         25    1    1    2    0    0 -0.80453025360E+02  0.26741045315E+02  0.86659650221E+03  0.87966031537E+03  0.12500000000E+03 0.  0.
         25    1    1    2    0    0  0.80453025360E+02 -0.26741045315E+02 -0.73312038647E+01  0.15121679584E+03  0.12500000000E+03 0.  0.
</event>
<event>
 4    0  0.2233588E-002  0.2237302E+03  0.7546771E-02  0.1131132E+00
         21   -1    0    0  502  501  0.00000000000E+00  0.00000000000E+00  0.13617716214E+03  0.13617716214E+03  0.00000000000E+00 0. -1.
         21   -1    0    0  501  502 -0.00000000000E+00 -0.00000000000E+00 -0.36757419061E+03  0.36757419061E+03  0.00000000000E+00 0. -1.
         25    1    1    2    0    0  0.12878658360E+03 -0.19048845281E+02 -0.26454866778E+03  0.32024965300E+03  0.12500000000E+03 0.  0.
         25    1    1    2    0    0 -0.12878658360E+03  0.19048845281E+02  0.33151639312E+02  0.18350169975E+03  0.12500000000E+03 0.  0.
</event>
<event>
 4    0  0.2233588E-002  0.1895444E+03  0.7546771E-02  0.1158873E+00
         21   -1    0    0  502  501  0.00000000000E+00  0.00000000000E+00  0.53549613206E+03  0.53549613206E+03  0.00000000000E+00 0.  1.
         21   -1    0    0  501  502 -0.00000000000E+00 -0.00000000000E+00 -0.67091209875E+02  0.67091209875E+02  0.00000000000E+00 0.  1.
         25    1    1    2    0    0 -0.68631785539E+02  0.10510273821E+03  0.34136780738E+03  0.38459574553E+03  0.12500000000E+03 0.  0.
         25    1    1    2    0    0  0.68631785539E+02 -0.10510273821E+03  0.12703711480E+03  0.21799159640E+03  0.12500000000E+03 0.  0.
</event>
<event>
 4    0  0.2233588E-002  0.3033774E+03  0.7546771E-02  0.1083564E+00
         21   -1    0    0  502  501  0.00000000000E+00  0.00000000000E+00  0.11227595761E+03  0.11227595761E+03  0.00000000000E+00 0.  1.
         21   -1    0    0  501  502 -0.00000000000E+00 -0.00000000000E+00 -0.81974649145E+03  0.81974649145E+03  0.00000000000E+00 0.  1.
         25    1    1    2    0    0  0.19233862619E+03  0.19717265936E+03 -0.38948391268E+03  0.49314695879E+03  0.12500000000E+03 0.  0.
         25    1    1    2    0    0 -0.19233862619E+03 -0.19717265936E+03 -0.31798662116E+03  0.43887549027E+03  0.12500000000E+03 0.  0.
</event>
<event>
 4    0  0.2233588E-002  0.2003444E+03  0.7546771E-02  0.1149449E+00
         21   -1    0    0  502  501  0.00000000000E+00  0.00000000000E+00  0.35913563424E+03  0.35913563424E+03  0.00000000000E+00 0. -1.
         21   -1    0    0  501  502 -0.00000000000E+00 -0.00000000000E+00 -0.11176247572E+03  0.11176247572E+03  0.00000000000E+00 0. -1.
         25    1    1    2    0    0 -0.44607276548E+02 -0.14883790585E+03  0.14630329510E+03  0.24733011441E+03  0.12500000000E+03 0.  0.
         25    1    1    2    0    0  0.44607276548E+02  0.14883790585E+03  0.10106986342E+03  0.22356799554E+03  0.12500000000E+03 0.  0.
</event>
<event>
 4    0  0.2233588E-002  0.2131281E+03  0.7546771E-02  0.1139113E+00
         21   -1    0    0  502  501  0.00000000000E+00  0.00000000000E+00  0.34562938879E+02  0.34562938879E+02  0.00000000000E+00 0.  1.
         21   -1    0    0  501  502 -0.00000000000E+00 -0.00000000000E+00 -0.13142277399E+04  0.13142277399E+04  0.00000000000E+00 0.  1.
         25    1    1    2    0    0  0.11521565714E+03  0.10002374527E+03 -0.89532025505E+03  0.91678937405E+03  0.12500000000E+03 0.  0.
         25    1    1    2    0    0 -0.11521565714E+03 -0.10002374527E+03 -0.38434454597E+03  0.43200130473E+03  0.12500000000E+03 0.  0.
</event>
<event>
 4    0  0.2233588E-002  0.2693880E+03  0.7546771E-02  0.1101630E+00
         21   -1    0    0  502  501  0.00000000000E+00  0.00000000000E+00  0.10616473038E+03  0.10616473038E+03  0.00000000000E+00 0. -1.
         21   -1    0    0  501  502 -0.00000000000E+00 -0.00000000000E+00 -0.68355938898E+03  0.68355938898E+03  0.00000000000E+00 0.  1.
         25    1    1    2    0    0 -0.19608627745E+03  0.28339881663E+01 -0.89400301096E+02  0.24914909900E+03  0.12500000000E+03 0.  0.
         25    1    1    2    0    0  0.19608627745E+03 -0.28339881663E+01 -0.48799435750E+03  0.54057502037E+03  0.12500000000E+03 0.  0.
</event>
<event>
 4    0  0.2233588E-002  0.2199119E+03  0.7546771E-02  0.1133949E+00
         21   -1    0    0  502  501  0.00000000000E+00  0.00000000000E+00  0.21078915724E+03  0.21078915724E+03  0.00000000000E+00 0.  1.
         21   -1    0    0  501  502 -0.00000000000E+00 -0.00000000000E+00 -0.22942942348E+03  0.22942942348E+03  0.00000000000E+00 0.  1.
         25    1    1    2    0    0  0.34694633596E+02  0.63052560025E+02 -0.17547183697E+03  0.22714468626E+03  0.12500000000E+03 0.  0.
         25    1    1    2    0    0 -0.34694633596E+02 -0.63052560025E+02  0.15683157072E+03  0.21307389446E+03  0.12500000000E+03 0.  0.
</event>
<event>
 4    0  0.2233588E-002  0.2229525E+03  0.7546771E-02  0.1131701E+00
         21   -1    0    0  502  501  0.00000000000E+00  0.00000000000E+00  0.10005953518E+04  0.10005953518E+04  0.00000000000E+00 0.  1.
         21   -1    0    0  501  502 -0.00000000000E+00 -0.00000000000E+00 -0.49678242127E+02  0.49678242127E+02  0.00000000000E+00 0.  1.
         25    1    1    2    0    0  0.11616244928E+03 -0.12198523160E+03  0.29749586157E+03  0.36400947653E+03  0.12500000000E+03 0.  0.
         25    1    1    2    0    0 -0.11616244928E+03  0.12198523160E+03  0.65342124808E+03  0.68626411738E+03  0.12500000000E+03 0.  0.
</event>
<event>
 4    0  0.2233588E-002  0.1888939E+03  0.7546771E-02  0.1159463E+00
         21   -1    0    0  502  501  0.00000000000E+00  0.00000000000E+00  0.23057160898E+03  0.23057160898E+03  0.00000000000E+00 0. -1.
         21   -1    0    0  501  502 -0.00000000000E+00 -0.00000000000E+00 -0.15474981581E+03  0.15474981581E+03  0.00000000000E+00 0. -1.
         25    1    1    2    0    0 -0.67081301703E+02  0.98118328086E+02 -0.40623302851E+02  0.17720711069E+03  0.12500000000E+03 0.  0.
         25    1    1    2    0    0  0.67081301703E+02 -0.98118328086E+02  0.11644509602E+03  0.20811431410E+03  0.12500000000E+03 0.  0.
</event>
<event>
 4    0  0.2233588E-002  0.1773301E+03  0.7546771E-02  0.1170412E+00
         21   -1    0    0  502  501  0.00000000000E+00  0.00000000000E+00  0.85901971514E+02  0.85901971514E+02  0.00000000000E+00 0. -1.
         21   -1    0    0  501  502 -0.00000000000E+00 -0.00000000000E+00 -0.36606806612E+03  0.36606806612E+03  0.00000000000E+00 0. -1.
         25    1    1    2    0    0 -0.16401691547E+01  0.78003629171E+02 -0.26581232294E+03  0.30392177834E+03  0.12500000000E+03 0.  0.
         25    1    1    2    0    0  0.16401691547E+01 -0.78003629171E+02 -0.14353771658E+02  0.14804825929E+03  0.12500000000E+03 0.  0.
</event>
<event>
 4    0  0.2233588E-002  0.2331338E+03  0.7546771E-02  0.1124453E+00
         21   -1    0    0  502  501  0.00000000000E+00  0.00000000000E+00  0.30820539897E+03  0.30820539897E+03  0.00000000000E+00 0. -1.
         21   -1    0    0  501  502 -0.00000000000E+00 -0.00000000000E+00 -0.17634793522E+03  0.17634793522E+03  0.00000000000E+00 0. -1.
         25    1    1    2    0    0 -0.72686362845E+02 -0.17677894458E+03  0.17270692864E+02  0.22903576014E+03  0.12500000000E+03 0.  0.
         25    1    1    2    0    0  0.72686362845E+02  0.17677894458E+03  0.11458677088E+03  0.25551757406E+03  0.12500000000E+03 0.  0.
</event>
<event>
 4    0  0.2233588E-002  0.2032708E+03  0.7546771E-02  0.1147008E+00
         21   -1    0    0  502  501  0.00000000000E+00  0.00000000000E+00  0.21292072678E+03  0.21292072678E+03  0.00000000000E+00 0. -1.
         21   -1    0    0  501  502 -0.00000000000E+00 -0.00000000000E+00 -0.19405828394E+03  0.19405828394E+03  0.00000000000E+00 0. -1.
         25    1    1    2    0    0  0.13861680383E+03  0.65632576918E+02  0.56083687688E+02  0.20565172861E+03  0.12500000000E+03 0.  0.
         25    1    1    2    0    0 -0.13861680383E+03 -0.65632576918E+02 -0.37221244847E+02  0.20132728212E+03  0.12500000000E+03 0.  0.
</event>
<event>
 4    0  0.2233588E-002  0.2488703E+03  0.7546771E-02  0.1114021E+00
         21   -1    0    0  502  501  0.00000000000E+00  0.00000000000E+00  0.20457582110E+03  0.20457582110E+03  0.00000000000E+00 0. -1.
         21   -1    0    0  501  502 -0.00000000000E+00 -0.00000000000E+00 -0.30275541226E+03  0.30275541226E+03  0.00000000000E+00 0. -1.
         25    1    1    2    0    0 -0.68365924529E+02  0.16934775759E+03  0.66940696940E+02  0.23121120116E+03  0.12500000000E+03 0.  0.
         25    1    1    2    0    0  0.68365924529E+02 -0.16934775759E+03 -0.16512028810E+03  0.27612003220E+03  0.12500000000E+03 0.  0.
</event>
<event>
 4    0  0.2233588E-002  0.2224282E+03  0.7546771E-02  0.1132086E+00
         21   -1    0    0  502  501  0.00000000000E+00  0.00000000000E+00  0.25262367303E+03  0.25262367303E+03  0.00000000000E+00 0. -1.
         21   -1    0    0  501  502 -0.00000000000E+00 -0.00000000000E+00 -0.19584183100E+03  0.19584183100E+03  0.00000000000E+00 0. -1.
         25    1    1    2    0    0 -0.91371716031E+02  0.12641261619E+03 -0.69972943714E+02  0.21177854678E+03  0.12500000000E+03 0.  0.
         25    1    1    2    0    0  0.91371716031E+02 -0.12641261619E+03  0.12675478575E+03  0.23668695725E+03  0.12500000000E+03 0.  0.
</event>
<event>
 4    0  0.2233588E-002  0.1855432E+03  0.7546771E-02  0.1162544E+00
         21   -1    0    0  502  501  0.00000000000E+00  0.00000000000E+00  0.39572109751E+03  0.39572109751E+03  0.00000000000E+00 0. -1.
         21   -1    0    0  501  502 -0.00000000000E+00 -0.00000000000E+00 -0.86996365417E+02  0.86996365417E+02  0.00000000000E+00 0. -1.
         25    1    1    2    0    0  0.68934140656E+02  0.52372802329E+02  0.16043507954E+02  0.15289610956E+03  0.12500000000E+03 0.  0.
         25    1    1    2    0    0 -0.68934140656E+02 -0.52372802329E+02  0.29268122414E+03  0.32982135336E+03  0.12500000000E+03 0.  0.
</event>
<event>
 4    0  0.2233588E-002  0.2423079E+03  0.7546771E-02  0.1118265E+00
         21   -1    0    0  502  501  0.00000000000E+00  0.00000000000E+00  0.34467957684E+03  0.34467957684E+03  0.00000000000E+00 0.  1.
         21   -1    0    0  501  502 -0.00000000000E+00 -0.00000000000E+00 -0.17034109632E+03  0.17034109632E+03  0.00000000000E+00 0.  1.
         25    1    1    2    0    0 -0.14814421243E+03 -0.14463679677E+03  0.10298895568E+03  0.26286543258E+03  0.12500000000E+03 0.  0.
         25    1    1    2    0    0  0.14814421243E+03  0.14463679677E+03  0.71349524835E+02  0.25215524058E+03  0.12500000000E+03 0.  0.
</event>
<event>
 4    0  0.2233588E-002  0.2139448E+03  0.7546771E-02  0.1138480E+00
         21   -1    0    0  502  501  0.00000000000E+00  0.00000000000E+00  0.90898186438E+03  0.90898186438E+03  0.00000000000E+00 0. -1.
         21   -1    0    0  501  502 -0.00000000000E+00 -0.00000000000E+00 -0.50355665302E+02  0.50355665302E+02  0.00000000000E+00 0. -1.
         25    1    1    2    0    0  0.67252522670E+02  0.15930628201E+03  0.46447734010E+03  0.51114146062E+03  0.12500000000E+03 0.  0.
         25    1    1    2    0    0 -0.67252522670E+02 -0.15930628201E+03  0.39414885898E+03  0.44819606907E+03  0.12500000000E+03 0.  0.
</event>
<event>
 4    0  0.2233588E-002  0.2185405E+03  0.7546771E-02  0.1134976E+00
         21   -1    0    0  502  501  0.00000000000E+00  0.00000000000E+00  0.58418573099E+03  0.58418573099E+03  0.00000000000E+00 0.  1.
         21   -1    0    0  501  502 -0.00000000000E+00 -0.00000000000E+00 -0.81754759287E+02  0.81754759287E+02  0.00000000000E+00 0.  1.
         25    1    1    2    0    0 -0.16471983065E+03  0.34032180542E+01  0.14357968556E+03  0.25176244876E+03  0.12500000000E+03 0.  0.
         25    1    1    2    0    0  0.16471983065E+03 -0.34032180542E+01  0.35885128615E+03  0.41417804152E+03  0.12500000000E+03 0.  0.
</event>
<event>
 4    0  0.2233588E-002  0.2620878E+03  0.7546771E-02  0.1105895E+00
         21   -1    0    0  502  501  0.00000000000E+00  0.00000000000E+00  0.18578977091E+03  0.18578977091E+03  0.00000000000E+00 0.  1.
         21   -1    0    0  501  502 -0.00000000000E+00 -0.00000000000E+00 -0.36971904181E+03  0.36971904181E+03  0.00000000000E+00 0.  1.
         25    1    1    2    0    0 -0.47626681985E+02 -0.91160077143E+02  0.12647925887E+03  0.20542751380E+03  0.12500000000E+03 0.  0.
         25    1    1    2    0    0  0.47626681985E+02  0.91160077143E+02 -0.31040852977E+03  0.35008129892E+03  0.12500000000E+03 0.  0.
</event>
<event>
 4    0  0.2233588E-002  0.2002526E+03  0.7546771E-02  0.1149526E+00
         21   -1    0    0  502  501  0.00000000000E+00  0.00000000000E+00  0.84940098366E+03  0.84940098366E+03  0.00000000000E+00 0.  1.
         21   -1    0    0  501  502 -0.00000000000E+00 -0.00000000000E+00 -0.47211045630E+02  0.47211045630E+02  0.00000000000E+00 0.  1.
         25    1    1    2    0    0 -0.73299887740E+02 -0.93152934391E+02  0.17250858375E+03  0.24379203062E+03  0.12500000000E+03 0.  0.
         25    1    1    2    0    0  0.73299887740E+02  0.93152934391E+02  0.62968135428E+03  0.65281999867E+03  0.12500000000E+03 0.  0.
</event>
<event>
 4    0  0.2233588E-002  0.1888044E+03  0.7546771E-02  0.1159544E+00
         21   -1    0    0  502  501  0.00000000000E+00  0.00000000000E+00  0.53609105441E+03  0.53609105441E+03  0.00000000000E+00 0. -1.
         21   -1    0    0  501  502 -0.00000000000E+00 -0.00000000000E+00 -0.66494491581E+02  0.66494491581E+02  0.00000000000E+00 0. -1.
         25    1    1    2    0    0  0.10903740279E+03  0.21866624506E+02  0.37441693846E+03  0.41009797400E+03  0.12500000000E+03 0.  0.
         25    1    1    2    0    0 -0.10903740279E+03 -0.21866624506E+02  0.95179624366E+02  0.19248757199E+03  0.12500000000E+03 0.  0.
</event>
<event>
 4    0  0.2233588E-002  0.1630931E+03  0.7546771E-02  0.1185248E+00
         21   -1    0    0  502  501  0.00000000000E+00  0.00000000000E+00  0.16001188118E+03  0.16001188118E+03  0.00000000000E+00 0.  1.
         21   -1    0    0  501  502 -0.00000000000E+00 -0.00000000000E+00 -0.16623368361E+03  0.16623368361E+03  0.00000000000E+00 0.  1.
         25    1    1    2    0    0 -0.86476835750E+02 -0.23956868322E+02  0.50956214069E+02  0.16209167287E+03  0.12500000000E+03 0.  0.
         25    1    1    2    0    0  0.86476835750E+02  0.23956868322E+02 -0.57178016499E+02  0.16415389192E+03  0.12500000000E+03 0.  0.
</event>
<event>
 4    0  0.2233588E-002  0.2113749E+03  0.7546771E-02  0.1140482E+00
         21   -1    0    0  502  501  0.00000000000E+00  0.00000000000E+00  0.17485464125E+03  0.17485464125E+03  0.00000000000E+00 0.  1.
         21   -1    0    0  501  502 -0.00000000000E+00 -0.00000000000E+00 -0.25552278943E+03  0.25552278943E+03  0.00000000000E+00 0.  1.
         25    1    1    2    0    0  0.12248554023E+03 -0.55442495432E+01 -0.16088041367E+03  0.23778341778E+03  0.12500000000E+03 0.  0.
         25    1    1    2    0    0 -0.12248554023E+03  0.55442495432E+01  0.80212265493E+02  0.19259401290E+03  0.12500000000E+03 0.  0.
</event>
<event>
 4    0  0.2233588E-002  0.2159246E+03  0.7546771E-02  0.1136958E+00
         21   -1    0    0  502  501  0.00000000000E+00  0.00000000000E+00  0.62496184563E+02  0.62496184563E+02  0.00000000000E+00 0.  1.
         21   -1    0    0  501  502 -0.00000000000E+00 -0.00000000000E+00 -0.74602025148E+03  0.74602025148E+03  0.00000000000E+00 0.  1.
         25    1    1    2    0    0 -0.86254891574E+02 -0.12998795595E+03 -0.49457053499E+03  0.53344333260E+03  0.12500000000E+03 0.  0.
         25    1    1    2    0    0  0.86254891574E+02  0.12998795595E+03 -0.18895353193E+03  0.27507310345E+03  0.12500000000E+03 0.  0.
</event>
<event>
 4    0  0.2233588E-002  0.2291008E+03  0.7546771E-02  0.1127274E+00
         21   -1    0    0  502  501  0.00000000000E+00  0.00000000000E+00  0.82759132517E+03  0.82759132517E+03  0.00000000000E+00 0.  1.
         21   -1    0    0  501  502 -0.00000000000E+00 -0.00000000000E+00 -0.63421601453E+02  0.63421601453E+02  0.00000000000E+00 0.  1.
         25    1    1    2    0    0 -0.19144551083E+03  0.83947953086E+01  0.35905065406E+03  0.42575136921E+03  0.12500000000E+03 0.  0.
         25    1    1    2    0    0  0.19144551083E+03 -0.83947953086E+01  0.40511906966E+03  0.46526155741E+03  0.12500000000E+03 0.  0.
</event>
<event>
 4    0  0.2233588E-002  0.2434777E+03  0.7546771E-02  0.1117498E+00
         21   -1    0    0  502  501  0.00000000000E+00  0.00000000000E+00  0.63164754988E+02  0.63164754988E+02  0.00000000000E+00 0.  1.
         21   -1    0    0  501  502 -0.00000000000E+00 -0.00000000000E+00 -0.93852000510E+03  0.93852000510E+03  0.00000000000E+00 0.  1.
         25    1    1    2    0    0 -0.19897980108E+03 -0.39897648522E+02 -0.33541163779E+03  0.41147387567E+03  0.12500000000E+03 0.  0.
         25    1    1    2    0    0  0.19897980108E+03  0.39897648522E+02 -0.53994361233E+03  0.59021088442E+03  0.12500000000E+03 0.  0.
</event>
<event>
 4    0  0.2233588E-002  0.3279408E+03  0.7546771E-02  0.1072052E+00
         21   -1    0    0  502  501  0.00000000000E+00  0.00000000000E+00  0.84541503686E+02  0.84541503686E+02  0.00000000000E+00 0.  1.
         21   -1    0    0  501  502 -0.00000000000E+00 -0.00000000000E+00 -0.12720988117E+04  0.12720988117E+04  0.00000000000E+00 0.  1.
         25    1    1    2    0    0 -0.21333038448E+03  0.18978766179E+02 -0.10376474385E+04  0.10668679643E+04  0.12500000000E+03 0.  0.
         25    1    1    2    0    0  0.21333038448E+03 -0.18978766179E+02 -0.14990986952E+03  0.28977235115E+03  0.12500000000E+03 0.  0.
</event>
<event>
 4    0  0.2233588E-002  0.2219750E+03  0.7546771E-02  0.1132419E+00
         21   -1    0    0  502  501  0.00000000000E+00  0.00000000000E+00  0.74321807453E+02  0.74321807453E+02  0.00000000000E+00 0. -1.
         21   -1    0    0  501  502 -0.00000000000E+00 -0.00000000000E+00 -0.66296704640E+03  0.66296704640E+03  0.00000000000E+00 0. -1.
         25    1    1    2    0    0 -0.10266580314E+03 -0.95850996940E+02 -0.98380973790E+02  0.21220625993E+03  0.12500000000E+03 0.  0.
         25    1    1    2    0    0  0.10266580314E+03  0.95850996940E+02 -0.49026426515E+03  0.52508259392E+03  0.12500000000E+03 0.  0.
</event>
<event>
 4    0  0.2233588E-002  0.1653067E+03  0.7546771E-02  0.1182833E+00
         21   -1    0    0  502  501  0.00000000000E+00  0.00000000000E+00  0.18394377617E+02  0.18394377617E+02  0.00000000000E+00 0. -1.
         21   -1    0    0  501  502 -0.00000000000E+00 -0.00000000000E+00 -0.14855789156E+04  0.14855789156E+04  0.00000000000E+00 0. -1.
         25    1    1    2    0    0  0.44352138564E+02  0.70238407460E+02 -0.41840082578E+03  0.44450511481E+03  0.12500000000E+03 0.  0.
         25    1    1    2    0    0 -0.44352138564E+02 -0.70238407460E+02 -0.10487837122E+04  0.10594681784E+04  0.12500000000E+03 0.  0.
</event>
<event>
 4    0  0.2233588E-002  0.2876215E+03  0.7546771E-02  0.1091598E+00
         21   -1    0    0  502  501  0.00000000000E+00  0.00000000000E+00  0.31781970442E+03  0.31781970442E+03  0.00000000000E+00 0. -1.
         21   -1    0    0  501  502 -0.00000000000E+00 -0.00000000000E+00 -0.26029269502E+03  0.26029269502E+03  0.00000000000E+00 0. -1.
         25    1    1    2    0    0  0.24771357447E+03 -0.71552915791E+02  0.37533793685E+01  0.28656748348E+03  0.12500000000E+03 0.  0.
         25    1    1    2    0    0 -0.24771357447E+03  0.71552915791E+02  0.53773630034E+02  0.29154491596E+03  0.12500000000E+03 0.  0.
</event>
<event>
 4    0  0.2233588E-002  0.1869711E+03  0.7546771E-02  0.1161222E+00
         21   -1    0    0  502  501  0.00000000000E+00  0.00000000000E+00  0.17461516956E+03  0.17461516956E+03  0.00000000000E+00 0. -1.
         21   -1    0    0  501  502 -0.00000000000E+00 -0.00000000000E+00 -0.20020141320E+03  0.20020141320E+03  0.00000000000E+00 0. -1.
         25    1    1    2    0    0  0.10162785895E+03 -0.59048470597E+02  0.61665557855E+02  0.18232549087E+03  0.12500000000E+03 0.  0.
         25    1    1    2    0    0 -0.10162785895E+03  0.59048470597E+02 -0.87251801493E+02  0.19249109189E+03  0.12500000000E+03 0.  0.
</event>
<event>
 4    0  0.2233588E-002  0.2591708E+03  0.7546771E-02  0.1107642E+00
         21   -1    0    0  502  501  0.00000000000E+00  0.00000000000E+00  0.34186193160E+03  0.34186193160E+03  0.00000000000E+00 0.  1.
         21   -1    0    0  501  502 -0.00000000000E+00 -0.00000000000E+00 -0.19648139027E+03  0.19648139027E+03  0.00000000000E+00 0.  1.
         25    1    1    2    0    0  0.12960831646E+03  0.50443526597E+02  0.25906295668E+03  0.31950192581E+03  0.12500000000E+03 0.  0.
         25    1    1    2    0    0 -0.12960831646E+03 -0.50443526597E+02 -0.11368241534E+03  0.21884139606E+03  0.12500000000E+03 0.  0.
</event>
<event>
 4    0  0.2233588E-002  0.1806650E+03  0.7546771E-02  0.1167161E+00
         21   -1    0    0  502  501  0.00000000000E+00  0.00000000000E+00  0.51956818288E+02  0.51956818288E+02  0.00000000000E+00 0. -1.
         21   -1    0    0  501  502 -0.00000000000E+00 -0.00000000000E+00 -0.62821100907E+03  0.62821100907E+03  0.00000000000E+00 0. -1.
         25    1    1    2    0    0 -0.61404048460E+02 -0.47435321138E+02 -0.48550357975E+03  0.50730591639E+03  0.12500000000E+03 0.  0.
         25    1    1    2    0    0  0.61404048460E+02  0.47435321138E+02 -0.90750611028E+02  0.17286191096E+03  0.12500000000E+03 0.  0.
</event>
<event>
 4    0  0.2233588E-002  0.1968457E+03  0.7546771E-02  0.1152428E+00
         21   -1    0    0  502  501  0.00000000000E+00  0.00000000000E+00  0.19210860533E+04  0.19210860533E+04  0.00000000000E+00 0.  1.
         21   -1    0    0  501  502 -0.00000000000E+00 -0.00000000000E+00 -0.20169953586E+02  0.20169953586E+02  0.00000000000E+00 0.  1.
         25    1    1    2    0    0  0.11651417066E+03 -0.97711641704E+02  0.95201454603E+03  0.97215215514E+03  0.12500000000E+03 0.  0.
         25    1    1    2    0    0 -0.11651417066E+03  0.97711641704E+02  0.94890155372E+03  0.96910385178E+03  0.12500000000E+03 0.  0.
</event>
<event>
 4    0  0.2233588E-002  0.2009853E+03  0.7546771E-02  0.1148910E+00
         21   -1    0    0  502  501  0.00000000000E+00  0.00000000000E+00  0.76849637387E+03  0.76849637387E+03  0.00000000000E+00 0. -1.
         21   -1    0    0  501  502 -0.00000000000E+00 -0.00000000000E+00 -0.52563818298E+02  0.52563818298E+02  0.00000000000E+00 0. -1.
         25    1    1    2    0    0  0.58655891940E+02  0.93853125583E+02  0.12940467008E+03  0.21123326319E+03  0.12500000000E+03 0.  0.
         25    1    1    2    0    0 -0.58655891940E+02 -0.93853125583E+02  0.58652788550E+03  0.60982692898E+03  0.12500000000E+03 0.  0.
</event>
<event>
 4    0  0.2233588E-002  0.2667544E+03  0.7546771E-02  0.1103152E+00
         21   -1    0    0  502  501  0.00000000000E+00  0.00000000000E+00  0.22996710040E+03  0.22996710040E+03  0.00000000000E+00 0. -1.
         21   -1    0    0  501  502 -0.00000000000E+00 -0.00000000000E+00 -0.30942640433E+03  0.30942640433E+03  0.00000000000E+00 0.  1.
         25    1    1    2    0    0  0.10922431400E+03 -0.97556621312E+02 -0.22638908969E+03  0.29719398558E+03  0.12500000000E+03 0.  0.
         25    1    1    2    0    0 -0.10922431400E+03  0.97556621312E+02  0.14692978577E+03  0.24219951915E+03  0.12500000000E+03 0.  0.
</event>
<event>
 4    0  0.2233588E-002  0.2644630E+03  0.7546771E-02  0.1104491E+00
         21   -1    0    0  502  501  0.00000000000E+00  0.00000000000E+00  0.23343792430E+03  0.23343792430E+03  0.00000000000E+00 0. -1.
         21   -1    0    0  501  502 -0.00000000000E+00 -0.00000000000E+00 -0.29961138150E+03  0.29961138150E+03  0.00000000000E+00 0. -1.
         25    1    1    2    0    0 -0.13524619452E+03  0.63545382339E+02 -0.21332758462E+03  0.28889999500E+03  0.12500000000E+03 0.  0.
         25    1    1    2    0    0  0.13524619452E+03 -0.63545382339E+02  0.14715412742E+03  0.24414931080E+03  0.12500000000E+03 0.  0.
</event>
<event>
 4    0  0.2233588E-002  0.2550359E+03  0.7546771E-02  0.1110163E+00
         21   -1    0    0  502  501  0.00000000000E+00  0.00000000000E+00  0.18771044581E+04  0.18771044581E+04  0.00000000000E+00 0. -1.
         21   -1    0    0  501  502 -0.00000000000E+00 -0.00000000000E+00 -0.34650866730E+02  0.34650866730E+02  0.00000000000E+00 0. -1.
         25    1    1    2    0    0  0.15694555673E+03 -0.53035081268E+02  0.14768141193E+04  0.14913247704E+04  0.12500000000E+03 0.  0.
         25    1    1    2    0    0 -0.15694555673E+03  0.53035081268E+02  0.36563947204E+03  0.42043055448E+03  0.12500000000E+03 0.  0.
</event>
<event>
 4    0  0.2233588E-002  0.2910853E+03  0.7546771E-02  0.1089784E+00
         21   -1    0    0  502  501  0.00000000000E+00  0.00000000000E+00  0.35893841365E+03  0.35893841365E+03  0.00000000000E+00 0.  1.
         21   -1    0    0  501  502 -0.00000000000E+00 -0.00000000000E+00 -0.23605902042E+03  0.23605902042E+03  0.00000000000E+00 0.  1.
         25    1    1    2    0    0  0.25714192918E+03  0.29250641343E+02  0.14292198138E+02  0.28776177419E+03  0.12500000000E+03 0.  0.
         25    1    1    2    0    0 -0.25714192918E+03 -0.29250641343E+02  0.10858719509E+03  0.30723565987E+03  0.12500000000E+03 0.  0.
</event>
<event>
 4    0  0.2233588E-002  0.1846815E+03  0.7546771E-02  0.1163348E+00
         21   -1    0    0  502  501  0.00000000000E+00  0.00000000000E+00  0.42645511835E+03  0.42645511835E+03  0.00000000000E+00 0.  1.
         21   -1    0    0  501  502 -0.00000000000E+00 -0.00000000000E+00 -0.79978541517E+02  0.79978541517E+02  0.00000000000E+00 0.  1.
         25    1    1    2    0    0 -0.29788553277E+02  0.65533740315E+02  0.15113947972E+02  0.14503606603E+03  0.12500000000E+03 0.  0.
         25    1    1    2    0    0  0.29788553277E+02 -0.65533740315E+02  0.33136262886E+03  0.36139759383E+03  0.12500000000E+03 0.  0.
</event>
<event>
 4    0  0.2233588E-002  0.2982285E+03  0.7546771E-02  0.1086130E+00
         21   -1    0    0  502  501  0.00000000000E+00  0.00000000000E+00  0.72735690863E+03  0.72735690863E+03  0.00000000000E+00 0.  1.
         21   -1    0    0  501  502 -0.00000000000E+00 -0.00000000000E+00 -0.12227870784E+03  0.12227870784E+03  0.00000000000E+00 0.  1.
         25    1    1    2    0    0 -0.48581258141E+02 -0.13407090592E+03  0.63041535379E+03  0.65831881695E+03  0.12500000000E+03 0.  0.
         25    1    1    2    0    0  0.48581258141E+02  0.13407090592E+03 -0.25337153001E+02  0.19131679952E+03  0.12500000000E+03 0.  0.
</event>
<event>
 4    0  0.2233588E-002  0.1914120E+03  0.7546771E-02  0.1157194E+00
         21   -1    0    0  502  501  0.00000000000E+00  0.00000000000E+00  0.12848357507E+03  0.12848357507E+03  0.00000000000E+00 0.  1.
         21   -1    0    0  501  502 -0.00000000000E+00 -0.00000000000E+00 -0.28516128964E+03  0.28516128964E+03  0.00000000000E+00 0.  1.
         25    1    1    2    0    0 -0.60523413688E+01 -0.14287482335E+03 -0.52685097695E+02  0.19710546796E+03  0.12500000000E+03 0.  0.
         25    1    1    2    0    0  0.60523413688E+01  0.14287482335E+03 -0.10399261688E+03  0.21653939676E+03  0.12500000000E+03 0.  0.
</event>
<event>
 4    0  0.2233588E-002  0.2276049E+03  0.7546771E-02  0.1128337E+00
         21   -1    0    0  502  501  0.00000000000E+00  0.00000000000E+00  0.12577111071E+03  0.12577111071E+03  0.00000000000E+00 0. -1.
         21   -1    0    0  501  502 -0.00000000000E+00 -0.00000000000E+00 -0.41189089873E+03  0.41189089873E+03  0.00000000000E+00 0. -1.
         25    1    1    2    0    0 -0.54229885835E+02  0.18119778165E+02 -0.35732932965E+03  0.38285566041E+03  0.12500000000E+03 0.  0.
         25    1    1    2    0    0  0.54229885835E+02 -0.18119778165E+02  0.71209541637E+02  0.15480634903E+03  0.12500000000E+03 0.  0.
</event>
<event>
 4    0  0.2233588E-002  0.3971077E+03  0.7546771E-02  0.1044786E+00
         21   -1    0    0  502  501  0.00000000000E+00  0.00000000000E+00  0.48564670518E+02  0.48564670518E+02  0.00000000000E+00 0. -1.
         21   -1    0    0  501  502 -0.00000000000E+00 -0.00000000000E+00 -0.32471034698E+04  0.32471034698E+04  0.00000000000E+00 0. -1.
         25    1    1    2    0    0 -0.19478788168E+03  0.31223349416E+03 -0.19373384222E+04  0.19759395830E+04  0.12500000000E+03 0.  0.
         25    1    1    2    0    0  0.19478788168E+03 -0.31223349416E+03 -0.12612003771E+04  0.13197285573E+04  0.12500000000E+03 0.  0.
</event>
<event>
 4    0  0.2233588E-002  0.1858760E+03  0.7546771E-02  0.1162234E+00
         21   -1    0    0  502  501  0.00000000000E+00  0.00000000000E+00  0.11436896303E+04  0.11436896303E+04  0.00000000000E+00 0. -1.
         21   -1    0    0  501  502 -0.00000000000E+00 -0.00000000000E+00 -0.30209146331E+02  0.30209146331E+02  0.00000000000E+00 0. -1.
         25    1    1    2    0    0  0.48517873849E+02  0.12001750857E+03  0.70372653031E+03  0.72637057753E+03  0.12500000000E+03 0.  0.
         25    1    1    2    0    0 -0.48517873849E+02 -0.12001750857E+03  0.40975395363E+03  0.44752819907E+03  0.12500000000E+03 0.  0.
</event>
<event>
 4    0  0.2233588E-002  0.4799894E+03  0.7546771E-02  0.1019138E+00
         21   -1    0    0  502  501  0.00000000000E+00  0.00000000000E+00  0.79337890709E+03  0.79337890709E+03  0.00000000000E+00 0. -1.
         21   -1    0    0  501  502 -0.00000000000E+00 -0.00000000000E+00 -0.29039062371E+03  0.29039062371E+03  0.00000000000E+00 0.  1.
         25    1    1    2    0    0 -0.36391143840E+03  0.28321201532E+03  0.30352662596E+03  0.56603356198E+03  0.12500000000E+03 0.  0.
         25    1    1    2    0    0  0.36391143840E+03 -0.28321201532E+03  0.19946165742E+03  0.51773596882E+03  0.12500000000E+03 0.  0.
</event>
<event>
 4    0  0.2233588E-002  0.2114655E+03  0.7546771E-02  0.1140411E+00
         21   -1    0    0  502  501  0.00000000000E+00  0.00000000000E+00  0.57008012478E+02  0.57008012478E+02  0.00000000000E+00 0. -1.
         21   -1    0    0  501  502 -0.00000000000E+00 -0.00000000000E+00 -0.78441030124E+03  0.78441030124E+03  0.00000000000E+00 0. -1.
         25    1    1    2    0    0 -0.59250886055E+01  0.10532899684E+03 -0.63034786930E+03  0.65122403255E+03  0.12500000000E+03 0.  0.
         25    1    1    2    0    0  0.59250886055E+01 -0.10532899684E+03 -0.97054419468E+02  0.19019428117E+03  0.12500000000E+03 0.  0.
</event>
<event>
 4    0  0.2233588E-002  0.3270509E+03  0.7546771E-02  0.1072449E+00
         21   -1    0    0  502  501  0.00000000000E+00  0.00000000000E+00  0.11364194642E+04  0.11364194642E+04  0.00000000000E+00 0.  1.
         21   -1    0    0  501  502 -0.00000000000E+00 -0.00000000000E+00 -0.94122174675E+02  0.94122174675E+02  0.00000000000E+00 0.  1.
         25    1    1    2    0    0  0.48282819406E+02 -0.28785907912E+03  0.37369754118E+03  0.49037631710E+03  0.12500000000E+03 0.  0.
         25    1    1    2    0    0 -0.48282819406E+02  0.28785907912E+03  0.66859974834E+03  0.74016532178E+03  0.12500000000E+03 0.  0.
</event>
<event>
 4    0  0.2233588E-002  0.2501325E+03  0.7546771E-02  0.1113221E+00
         21   -1    0    0  502  501  0.00000000000E+00  0.00000000000E+00  0.67349507091E+02  0.67349507091E+02  0.00000000000E+00 0.  1.
         21   -1    0    0  501  502 -0.00000000000E+00 -0.00000000000E+00 -0.92897858519E+03  0.92897858519E+03  0.00000000000E+00 0.  1.
         25    1    1    2    0    0  0.11262516033E+03  0.16135314602E+03 -0.61140327869E+03  0.65433801178E+03  0.12500000000E+03 0.  0.
         25    1    1    2    0    0 -0.11262516033E+03 -0.16135314602E+03 -0.25022579941E+03  0.34199008050E+03  0.12500000000E+03 0.  0.
</event>
<event>
 4    0  0.2233588E-002  0.2099913E+03  0.7546771E-02  0.1141573E+00
         21   -1    0    0  502  501  0.00000000000E+00  0.00000000000E+00  0.62787373128E+03  0.62787373128E+03  0.00000000000E+00 0. -1.
         21   -1    0    0  501  502 -0.00000000000E+00 -0.00000000000E+00 -0.70231235621E+02  0.70231235621E+02  0.00000000000E+00 0. -1.
         25    1    1    2    0    0 -0.14890507780E+03  0.75589184801E+02  0.23862082990E+03  0.31694060566E+03  0.12500000000E+03 0.  0.
         25    1    1    2    0    0  0.14890507780E+03 -0.75589184801E+02  0.31902166576E+03  0.38116436124E+03  0.12500000000E+03 0.  0.
</event>
<event>
 4    0  0.2233588E-002  0.2259556E+03  0.7546771E-02  0.1129519E+00
         21   -1    0    0  502  501  0.00000000000E+00  0.00000000000E+00  0.14248877424E+04  0.14248877424E+04  0.00000000000E+00 0. -1.
         21   -1    0    0  501  502 -0.00000000000E+00 -0.00000000000E+00 -0.35831539882E+02  0.35831539882E+02  0.00000000000E+00 0. -1.
         25    1    1    2    0    0 -0.60168007496E+02 -0.77166927200E+02  0.17477826719E+03  0.23610880217E+03  0.12500000000E+03 0.  0.
         25    1    1    2    0    0  0.60168007496E+02  0.77166927200E+02  0.12142779353E+04  0.12246104801E+04  0.12500000000E+03 0.  0.
</event>
<event>
 4    0  0.2233588E-002  0.1624237E+03  0.7546771E-02  0.1185987E+00
         21   -1    0    0  502  501  0.00000000000E+00  0.00000000000E+00  0.69938156322E+03  0.69938156322E+03  0.00000000000E+00 0. -1.
         21   -1    0    0  501  502 -0.00000000000E+00 -0.00000000000E+00 -0.37721117240E+02  0.37721117240E+02  0.00000000000E+00 0. -1.
         25    1    1    2    0    0 -0.75221432862E+02  0.71290843188E+02  0.33985122793E+03  0.37664904807E+03  0.12500000000E+03 0.  0.
         25    1    1    2    0    0  0.75221432862E+02 -0.71290843188E+02  0.32180921805E+03  0.36045363240E+03  0.12500000000E+03 0.  0.
</event>
<event>
 4    0  0.2233588E-002  0.2050221E+03  0.7546771E-02  0.1145570E+00
         21   -1    0    0  502  501  0.00000000000E+00  0.00000000000E+00  0.79256765019E+02  0.79256765019E+02  0.00000000000E+00 0.  1.
         21   -1    0    0  501  502 -0.00000000000E+00 -0.00000000000E+00 -0.53035273146E+03  0.53035273146E+03  0.00000000000E+00 0.  1.
         25    1    1    2    0    0 -0.87131161652E+02  0.83136908013E+02 -0.63331796613E+02  0.18476877785E+03  0.12500000000E+03 0.  0.
         25    1    1    2    0    0  0.87131161652E+02 -0.83136908013E+02 -0.38776416982E+03  0.42484071863E+03  0.12500000000E+03 0.  0.
</event>
<event>
 4    0  0.2233588E-002  0.2887779E+03  0.7546771E-02  0.1090989E+00
         21   -1    0    0  502  501  0.00000000000E+00  0.00000000000E+00  0.18618069702E+03  0.18618069702E+03  0.00000000000E+00 0. -1.
         21   -1    0    0  501  502 -0.00000000000E+00 -0.00000000000E+00 -0.44791263052E+03  0.44791263052E+03  0.00000000000E+00 0.  1.
         25    1    1    2    0    0 -0.15230540042E+03  0.20946161896E+03 -0.10188952862E+03  0.30508618595E+03  0.12500000000E+03 0.  0.
         25    1    1    2    0    0  0.15230540042E+03 -0.20946161896E+03 -0.15984240488E+03  0.32900714159E+03  0.12500000000E+03 0.  0.
</event>
<event>
 4    0  0.2233588E-002  0.2426316E+03  0.7546771E-02  0.1118052E+00
         21   -1    0    0  502  501  0.00000000000E+00  0.00000000000E+00  0.26547779923E+03  0.26547779923E+03  0.00000000000E+00 0. -1.
         21   -1    0    0  501  502 -0.00000000000E+00 -0.00000000000E+00 -0.22175150077E+03  0.22175150077E+03  0.00000000000E+00 0. -1.
         25    1    1    2    0    0 -0.10614066035E+03 -0.17878669781E+03  0.18029656265E+02  0.24327061392E+03  0.12500000000E+03 0.  0.
         25    1    1    2    0    0  0.10614066035E+03  0.17878669781E+03  0.25696642192E+02  0.24395868608E+03  0.12500000000E+03 0.  0.
</event>
<event>
 4    0  0.2233588E-002  0.2127030E+03  0.7546771E-02  0.1139443E+00
         21   -1    0    0  502  501  0.00000000000E+00  0.00000000000E+00  0.82198655088E+03  0.82198655088E+03  0.00000000000E+00 0. -1.
         21   -1    0    0  501  502 -0.00000000000E+00 -0.00000000000E+00 -0.55040493981E+02  0.55040493981E+02  0.00000000000E+00 0. -1.
         25    1    1    2    0    0  0.43619707502E+02  0.13844235494E+03  0.19285828208E+03  0.27182398991E+03  0.12500000000E+03 0.  0.
         25    1    1    2    0    0 -0.43619707502E+02 -0.13844235494E+03  0.57408777482E+03  0.60520305495E+03  0.12500000000E+03 0.  0.
</event>
<event>
 4    0  0.2233588E-002  0.3127709E+03  0.7546771E-02  0.1079025E+00
         21   -1    0    0  502  501  0.00000000000E+00  0.00000000000E+00  0.21408213439E+03  0.21408213439E+03  0.00000000000E+00 0. -1.
         21   -1    0    0  501  502 -0.00000000000E+00 -0.00000000000E+00 -0.45695389889E+03  0.45695389889E+03  0.00000000000E+00 0.  1.
         25    1    1    2    0    0 -0.27707686025E+03  0.61336985399E+02 -0.77639505370E+02  0.31966655293E+03  0.12500000000E+03 0.  0.
         25    1    1    2    0    0  0.27707686025E+03 -0.61336985399E+02 -0.16523225913E+03  0.35136948035E+03  0.12500000000E+03 0.  0.
</event>
<event>
 4    0  0.2233588E-002  0.1929613E+03  0.7546771E-02  0.1155817E+00
         21   -1    0    0  502  501  0.00000000000E+00  0.00000000000E+00  0.10965886093E+03  0.10965886093E+03  0.00000000000E+00 0.  1.
         21   -1    0    0  501  502 -0.00000000000E+00 -0.00000000000E+00 -0.33954452149E+03  0.33954452149E+03  0.00000000000E+00 0.  1.
         25    1    1    2    0    0  0.48200171332E+02 -0.13563534074E+03 -0.80240369064E+02  0.20684225633E+03  0.12500000000E+03 0.  0.
         25    1    1    2    0    0 -0.48200171332E+02  0.13563534074E+03 -0.14964529149E+03  0.24236112609E+03  0.12500000000E+03 0.  0.
</event>
<event>
 4    0  0.2233588E-002  0.1633526E+03  0.7546771E-02  0.1184963E+00
         21   -1    0    0  502  501  0.00000000000E+00  0.00000000000E+00  0.20585549937E+03  0.20585549937E+03  0.00000000000E+00 0.  1.
         21   -1    0    0  501  502 -0.00000000000E+00 -0.00000000000E+00 -0.12962519922E+03  0.12962519922E+03  0.00000000000E+00 0.  1.
         25    1    1    2    0    0 -0.17701661017E+02 -0.13296910994E+02 -0.67451454585E+02  0.14375275778E+03  0.12500000000E+03 0.  0.
         25    1    1    2    0    0  0.17701661017E+02  0.13296910994E+02  0.14368175473E+03  0.19172794081E+03  0.12500000000E+03 0.  0.
</event>
<event>
 4    0  0.2233588E-002  0.2263407E+03  0.7546771E-02  0.1129242E+00
         21   -1    0    0  502  501  0.00000000000E+00  0.00000000000E+00  0.56610965613E+02  0.56610965613E+02  0.00000000000E+00 0.  1.
         21   -1    0    0  501  502 -0.00000000000E+00 -0.00000000000E+00 -0.90495034681E+03  0.90495034681E+03  0.00000000000E+00 0.  1.
         25    1    1    2    0    0  0.11604897095E+03 -0.99425390547E+02 -0.65929201537E+03  0.68821779509E+03  0.12500000000E+03 0.  0.
         25    1    1    2    0    0 -0.11604897095E+03  0.99425390547E+02 -0.18904736582E+03  0.27334351733E+03  0.12500000000E+03 0.  0.
</event>
<event>
 4    0  0.2233588E-002  0.1811069E+03  0.7546771E-02  0.1166736E+00
         21   -1    0    0  502  501  0.00000000000E+00  0.00000000000E+00  0.38423398561E+03  0.38423398561E+03  0.00000000000E+00 0. -1.
         21   -1    0    0  501  502 -0.00000000000E+00 -0.00000000000E+00 -0.85363876671E+02  0.85363876671E+02  0.00000000000E+00 0. -1.
         25    1    1    2    0    0  0.43706251830E+02 -0.19187551800E+02  0.30766928000E+03  0.33550526739E+03  0.12500000000E+03 0.  0.
         25    1    1    2    0    0 -0.43706251830E+02  0.19187551800E+02 -0.87991710571E+01  0.13409259489E+03  0.12500000000E+03 0.  0.
</event>
<event>
 4    0  0.2233588E-002  0.1901152E+03  0.7546771E-02  0.1158357E+00
         21   -1    0    0  502  501  0.00000000000E+00  0.00000000000E+00  0.35748245223E+02  0.35748245223E+02  0.00000000000E+00 0.  1.
         21   -1    0    0  501  502 -0.00000000000E+00 -0.00000000000E+00 -0.10110651509E+04  0.10110651509E+04  0.00000000000E+00 0.  1.
         25    1    1    2    0    0 -0.12996477957E+03 -0.59984055713E+02 -0.47261077055E+03  0.50938676005E+03  0.12500000000E+03 0.  0.
         25    1    1    2    0    0  0.12996477957E+03  0.59984055713E+02 -0.50270613510E+03  0.53742663605E+03  0.12500000000E+03 0.  0.
</event>
<event>
 4    0  0.2233588E-002  0.1689644E+03  0.7546771E-02  0.1178932E+00
         21   -1    0    0  502  501  0.00000000000E+00  0.00000000000E+00  0.21947153652E+03  0.21947153652E+03  0.00000000000E+00 0.  1.
         21   -1    0    0  501  502 -0.00000000000E+00 -0.00000000000E+00 -0.13008055970E+03  0.13008055970E+03  0.00000000000E+00 0.  1.
         25    1    1    2    0    0  0.21005600667E+02  0.89030265224E+02 -0.25127025842E+02  0.15692033269E+03  0.12500000000E+03 0.  0.
         25    1    1    2    0    0 -0.21005600667E+02 -0.89030265224E+02  0.11451800266E+03  0.19263176353E+03  0.12500000000E+03 0.  0.
</event>
<event>
 4    0  0.2233588E-002  0.1922302E+03  0.7546771E-02  0.1156465E+00
         21   -1    0    0  502  501  0.00000000000E+00  0.00000000000E+00  0.19336125975E+02  0.19336125975E+02  0.00000000000E+00 0.  1.
         21   -1    0    0  501  502 -0.00000000000E+00 -0.00000000000E+00 -0.19110576603E+04  0.19110576603E+04  0.00000000000E+00 0.  1.
         25    1    1    2    0    0  0.14430440542E+03 -0.22392817804E+02 -0.95339560679E+03  0.97258078469E+03  0.12500000000E+03 0.  0.
         25    1    1    2    0    0 -0.14430440542E+03  0.22392817804E+02 -0.93832592751E+03  0.95781300156E+03  0.12500000000E+03 0.  0.
</event>
<event>
 4    0  0.2233588E-002  0.2581600E+03  0.7546771E-02  0.1108254E+00
         21   -1    0    0  502  501  0.00000000000E+00  0.00000000000E+00  0.59487262994E+02  0.59487262994E+02  0.00000000000E+00 0. -1.
         21   -1    0    0  501  502 -0.00000000000E+00 -0.00000000000E+00 -0.11203501324E+04  0.11203501324E+04  0.00000000000E+00 0. -1.
         25    1    1    2    0    0 -0.18366705706E+03  0.13148104486E+03 -0.52850603806E+03  0.58818745760E+03  0.12500000000E+03 0.  0.
         25    1    1    2    0    0  0.18366705706E+03 -0.13148104486E+03 -0.53235683131E+03  0.59164993776E+03  0.12500000000E+03 0.  0.
</event>
<event>
 4    0  0.2233588E-002  0.1904179E+03  0.7546771E-02  0.1158085E+00
         21   -1    0    0  502  501  0.00000000000E+00  0.00000000000E+00  0.11203724226E+03  0.11203724226E+03  0.00000000000E+00 0.  1.
         21   -1    0    0  501  502 -0.00000000000E+00 -0.00000000000E+00 -0.32363328850E+03  0.32363328850E+03  0.00000000000E+00 0.  1.
         25    1    1    2    0    0  0.59178458277E+02  0.11732253411E+03 -0.17218183896E+03  0.25007649350E+03  0.12500000000E+03 0.  0.
         25    1    1    2    0    0 -0.59178458277E+02 -0.11732253411E+03 -0.39414207279E+02  0.18559403727E+03  0.12500000000E+03 0.  0.
</event>
<event>
 4    0  0.2233588E-002  0.2783030E+03  0.7546771E-02  0.1096619E+00
         21   -1    0    0  502  501  0.00000000000E+00  0.00000000000E+00  0.15634736141E+03  0.15634736141E+03  0.00000000000E+00 0.  1.
         21   -1    0    0  501  502 -0.00000000000E+00 -0.00000000000E+00 -0.49538775079E+03  0.49538775079E+03  0.00000000000E+00 0.  1.
         25    1    1    2    0    0  0.40786209194E+02  0.14784597060E+03  0.59648067741E+02  0.20665148891E+03  0.12500000000E+03 0.  0.
         25    1    1    2    0    0 -0.40786209194E+02 -0.14784597060E+03 -0.39868845712E+03  0.44508362330E+03  0.12500000000E+03 0.  0.
</event>
<event>
 4    0  0.2233588E-002  0.1959668E+03  0.7546771E-02  0.1153187E+00
         21   -1    0    0  502  501  0.00000000000E+00  0.00000000000E+00  0.80189057894E+02  0.80189057894E+02  0.00000000000E+00 0.  1.
         21   -1    0    0  501  502 -0.00000000000E+00 -0.00000000000E+00 -0.47890567171E+03  0.47890567171E+03  0.00000000000E+00 0.  1.
         25    1    1    2    0    0 -0.63311593294E+01  0.12017384924E+03 -0.69427738501E+02  0.18688779653E+03  0.12500000000E+03 0.  0.
         25    1    1    2    0    0  0.63311593294E+01 -0.12017384924E+03 -0.32928887532E+03  0.37220693307E+03  0.12500000000E+03 0.  0.
</event>
<event>
 4    0  0.2233588E-002  0.2923274E+03  0.7546771E-02  0.1089140E+00
         21   -1    0    0  502  501  0.00000000000E+00  0.00000000000E+00  0.27008244355E+04  0.27008244355E+04  0.00000000000E+00 0. -1.
         21   -1    0    0  501  502 -0.00000000000E+00 -0.00000000000E+00 -0.31640457273E+02  0.31640457273E+02  0.00000000000E+00 0. -1.
         25    1    1    2    0    0 -0.14616095945E+03 -0.99808296226E+02  0.41749138603E+03  0.47037089565E+03  0.12500000000E+03 0.  0.
         25    1    1    2    0    0  0.14616095945E+03  0.99808296226E+02  0.22516925922E+04  0.22620939971E+04  0.12500000000E+03 0.  0.
</event>
<event>
 4    0  0.2233588E-002  0.2396185E+03  0.7546771E-02  0.1120047E+00
         21   -1    0    0  502  501  0.00000000000E+00  0.00000000000E+00  0.18843431565E+03  0.18843431565E+03  0.00000000000E+00 0.  1.
         21   -1    0    0  501  502 -0.00000000000E+00 -0.00000000000E+00 -0.30470577407E+03  0.30470577407E+03  0.00000000000E+00 0.  1.
         25    1    1    2    0    0 -0.17127587123E+03 -0.11089404077E+03 -0.71115618502E+02  0.24963041389E+03  0.12500000000E+03 0.  0.
         25    1    1    2    0    0  0.17127587123E+03  0.11089404077E+03 -0.45155839918E+02  0.24350967583E+03  0.12500000000E+03 0.  0.
</event>
<event>
 4    0  0.2233588E-002  0.2165752E+03  0.7546771E-02  0.1136462E+00
         21   -1    0    0  502  501  0.00000000000E+00  0.00000000000E+00  0.73975277665E+03  0.73975277665E+03  0.00000000000E+00 0. -1.
         21   -1    0    0  501  502 -0.00000000000E+00 -0.00000000000E+00 -0.63406098620E+02  0.63406098620E+02  0.00000000000E+00 0. -1.
         25    1    1    2    0    0 -0.20545849095E+02 -0.27096862732E+02  0.16351793080E+02  0.13057087356E+03  0.12500000000E+03 0.  0.
         25    1    1    2    0    0  0.20545849095E+02  0.27096862732E+02  0.65999488495E+03  0.67258800171E+03  0.12500000000E+03 0.  0.
</event>
<event>
 4    0  0.2233588E-002  0.3636261E+03  0.7546771E-02  0.1057157E+00
         21   -1    0    0  502  501  0.00000000000E+00  0.00000000000E+00  0.77121598245E+02  0.77121598245E+02  0.00000000000E+00 0. -1.
         21   -1    0    0  501  502 -0.00000000000E+00 -0.00000000000E+00 -0.17144868204E+04  0.17144868204E+04  0.00000000000E+00 0. -1.
         25    1    1    2    0    0 -0.78246762651E+02  0.18450844003E+02 -0.16362482148E+04  0.16429839348E+04  0.12500000000E+03 0.  0.
         25    1    1    2    0    0  0.78246762651E+02 -0.18450844003E+02 -0.11170073927E+01  0.14862448390E+03  0.12500000000E+03 0.  0.
</event>
<event>
 4    0  0.2233588E-002  0.2098047E+03  0.7546771E-02  0.1141721E+00
         21   -1    0    0  502  501  0.00000000000E+00  0.00000000000E+00  0.62020992470E+03  0.62020992470E+03  0.00000000000E+00 0. -1.
         21   -1    0    0  501  502 -0.00000000000E+00 -0.00000000000E+00 -0.70972766754E+02  0.70972766754E+02  0.00000000000E+00 0. -1.
         25    1    1    2    0    0 -0.11148232901E+03 -0.89661054537E+01  0.67016422274E+02  0.18062364625E+03  0.12500000000E+03 0.  0.
         25    1    1    2    0    0  0.11148232901E+03  0.89661054537E+01  0.48222073567E+03  0.51055904521E+03  0.12500000000E+03 0.  0.
</event>
<event>
 4    0  0.2233588E-002  0.3438820E+03  0.7546771E-02  0.1065155E+00
         21   -1    0    0  502  501  0.00000000000E+00  0.00000000000E+00  0.20965985714E+03  0.20965985714E+03  0.00000000000E+00 0.  1.
         21   -1    0    0  501  502 -0.00000000000E+00 -0.00000000000E+00 -0.56403168975E+03  0.56403168975E+03  0.00000000000E+00 0.  1.
         25    1    1    2    0    0 -0.23609970729E+03 -0.17982811765E+03 -0.41498753544E+02  0.32469735174E+03  0.12500000000E+03 0.  0.
         25    1    1    2    0    0  0.23609970729E+03  0.17982811765E+03 -0.31287307906E+03  0.44899419516E+03  0.12500000000E+03 0.  0.
</event>
<event>
 4    0  0.2233588E-002  0.2287775E+03  0.7546771E-02  0.1127503E+00
         21   -1    0    0  502  501  0.00000000000E+00  0.00000000000E+00  0.81692626767E+03  0.81692626767E+03  0.00000000000E+00 0.  1.
         21   -1    0    0  501  502 -0.00000000000E+00 -0.00000000000E+00 -0.64068405464E+02  0.64068405464E+02  0.00000000000E+00 0.  1.
         25    1    1    2    0    0 -0.13665144913E+03 -0.12223957256E+03  0.26925903060E+03  0.34891482802E+03  0.12500000000E+03 0.  0.
         25    1    1    2    0    0  0.13665144913E+03  0.12223957256E+03  0.48359883161E+03  0.53207984512E+03  0.12500000000E+03 0.  0.
</event>
<event>
 4    0  0.2233588E-002  0.2972683E+03  0.7546771E-02  0.1086614E+00
         21   -1    0    0  502  501  0.00000000000E+00  0.00000000000E+00  0.62970841824E+03  0.62970841824E+03  0.00000000000E+00 0.  1.
         21   -1    0    0  501  502 -0.00000000000E+00 -0.00000000000E+00 -0.14033228323E+03  0.14033228323E+03  0.00000000000E+00 0.  1.
         25    1    1    2    0    0 -0.10623329774E+03 -0.16292439724E+03  0.26787268268E+01  0.23121861591E+03  0.12500000000E+03 0.  0.
         25    1    1    2    0    0  0.10623329774E+03  0.16292439724E+03  0.48669740818E+03  0.53882208556E+03  0.12500000000E+03 0.  0.
</event>
<event>
 4    0  0.2233588E-002  0.1997058E+03  0.7546771E-02  0.1149987E+00
         21   -1    0    0  502  501  0.00000000000E+00  0.00000000000E+00  0.12295924654E+03  0.12295924654E+03  0.00000000000E+00 0.  1.
         21   -1    0    0  501  502 -0.00000000000E+00 -0.00000000000E+00 -0.32435468592E+03  0.32435468592E+03  0.00000000000E+00 0.  1.
         25    1    1    2    0    0  0.90120306170E+02 -0.79694172693E+02 -0.21147808002E+03  0.27353392673E+03  0.12500000000E+03 0.  0.
         25    1    1    2    0    0 -0.90120306170E+02  0.79694172693E+02  0.10082640639E+02  0.17378000572E+03  0.12500000000E+03 0.  0.
</event>
<event>
 4    0  0.2233588E-002  0.2171892E+03  0.7546771E-02  0.1135996E+00
         21   -1    0    0  502  501  0.00000000000E+00  0.00000000000E+00  0.14663132469E+03  0.14663132469E+03  0.00000000000E+00 0. -1.
         21   -1    0    0  501  502 -0.00000000000E+00 -0.00000000000E+00 -0.32169896484E+03  0.32169896484E+03  0.00000000000E+00 0. -1.
         25    1    1    2    0    0  0.49286741703E+02  0.14588088289E+03 -0.18297235962E+03  0.26984124830E+03  0.12500000000E+03 0.  0.
         25    1    1    2    0    0 -0.49286741703E+02 -0.14588088289E+03  0.79047194632E+01  0.19848904123E+03  0.12500000000E+03 0.  0.
</event>
<event>
 4    0  0.2233588E-002  0.2208821E+03  0.7546771E-02  0.1133227E+00
         21   -1    0    0  502  501  0.00000000000E+00  0.00000000000E+00  0.34265776753E+03  0.34265776753E+03  0.00000000000E+00 0. -1.
         21   -1    0    0  501  502 -0.00000000000E+00 -0.00000000000E+00 -0.14238375515E+03  0.14238375515E+03  0.00000000000E+00 0. -1.
         25    1    1    2    0    0 -0.46023856189E+01  0.60928469493E+02 -0.88222170573E+02  0.16474711448E+03  0.12500000000E+03 0.  0.
         25    1    1    2    0    0  0.46023856189E+01 -0.60928469493E+02  0.28849618295E+03  0.32029440820E+03  0.12500000000E+03 0.  0.
</event>
<event>
 4    0  0.2233588E-002  0.2603073E+03  0.7546771E-02  0.1106959E+00
         21   -1    0    0  502  501  0.00000000000E+00  0.00000000000E+00  0.21820377914E+03  0.21820377914E+03  0.00000000000E+00 0.  1.
         21   -1    0    0  501  502 -0.00000000000E+00 -0.00000000000E+00 -0.31053482843E+03  0.31053482843E+03  0.00000000000E+00 0.  1.
         25    1    1    2    0    0  0.89104490695E+02 -0.61680238567E+02  0.15794529284E+03  0.22872642528E+03  0.12500000000E+03 0.  0.
         25    1    1    2    0    0 -0.89104490695E+02  0.61680238567E+02 -0.25027634213E+03  0.30001218229E+03  0.12500000000E+03 0.  0.
</event>
<event>
 4    0  0.2233588E-002  0.2234218E+03  0.7546771E-02  0.1131357E+00
         21   -1    0    0  502  501  0.00000000000E+00  0.00000000000E+00  0.36113424749E+03  0.36113424749E+03  0.00000000000E+00 0. -1.
         21   -1    0    0  501  502 -0.00000000000E+00 -0.00000000000E+00 -0.13822362142E+03  0.13822362142E+03  0.00000000000E+00 0. -1.
         25    1    1    2    0    0 -0.10503890780E+03 -0.15179021833E+03  0.94923489887E+02  0.24229921887E+03  0.12500000000E+03 0.  0.
         25    1    1    2    0    0  0.10503890780E+03  0.15179021833E+03  0.12798713618E+03  0.25705865004E+03  0.12500000000E+03 0.  0.
</event>
<event>
 4    0  0.2233588E-002  0.1591209E+03  0.7546771E-02  0.1189693E+00
         21   -1    0    0  502  501  0.00000000000E+00  0.00000000000E+00  0.16721947167E+03  0.16721947167E+03  0.00000000000E+00 0. -1.
         21   -1    0    0  501  502 -0.00000000000E+00 -0.00000000000E+00 -0.15141446011E+03  0.15141446011E+03  0.00000000000E+00 0. -1.
         25    1    1    2    0    0  0.32467883450E+02 -0.35270183169E+02  0.94010225955E+02  0.16358811650E+03  0.12500000000E+03 0.  0.
         25    1    1    2    0    0 -0.32467883450E+02  0.35270183169E+02 -0.78205214402E+02  0.15504581528E+03  0.12500000000E+03 0.  0.
</event>
<event>
 4    0  0.2233588E-002  0.2237977E+03  0.7546771E-02  0.1131083E+00
         21   -1    0    0  502  501  0.00000000000E+00  0.00000000000E+00  0.10609817461E+03  0.10609817461E+03  0.00000000000E+00 0.  1.
         21   -1    0    0  501  502 -0.00000000000E+00 -0.00000000000E+00 -0.47206645003E+03  0.47206645003E+03  0.00000000000E+00 0.  1.
         25    1    1    2    0    0 -0.61891277264E+02 -0.14799963935E+02 -0.40824205155E+03  0.43166670220E+03  0.12500000000E+03 0.  0.
         25    1    1    2    0    0  0.61891277264E+02  0.14799963935E+02  0.42273776121E+02  0.14649792245E+03  0.12500000000E+03 0.  0.
</event>
<event>
 4    0  0.2233588E-002  0.2198982E+03  0.7546771E-02  0.1133959E+00
         21   -1    0    0  502  501  0.00000000000E+00  0.00000000000E+00  0.11932603252E+03  0.11932603252E+03  0.00000000000E+00 0. -1.
         21   -1    0    0  501  502 -0.00000000000E+00 -0.00000000000E+00 -0.40523605074E+03  0.40523605074E+03  0.00000000000E+00 0. -1.
         25    1    1    2    0    0 -0.10137118977E+03 -0.12789912682E+03 -0.23607959874E+03  0.31303814736E+03  0.12500000000E+03 0.  0.
         25    1    1    2    0    0  0.10137118977E+03  0.12789912682E+03 -0.49830419475E+02  0.21152393591E+03  0.12500000000E+03 0.  0.
</event>
<event>
 4    0  0.2233588E-002  0.2131877E+03  0.7546771E-02  0.1139066E+00
         21   -1    0    0  502  501  0.00000000000E+00  0.00000000000E+00  0.19038248288E+03  0.19038248288E+03  0.00000000000E+00 0.  1.
         21   -1    0    0  501  502 -0.00000000000E+00 -0.00000000000E+00 -0.23872463948E+03  0.23872463948E+03  0.00000000000E+00 0.  1.
         25    1    1    2    0    0  0.14867523028E+03 -0.30051269306E+02 -0.10726267273E+03  0.22391445654E+03  0.12500000000E+03 0.  0.
         25    1    1    2    0    0 -0.14867523028E+03  0.30051269306E+02  0.58920516125E+02  0.20519266582E+03  0.12500000000E+03 0.  0.
</event>
<event>
 4    0  0.2233588E-002  0.2449622E+03  0.7546771E-02  0.1116531E+00
         21   -1    0    0  502  501  0.00000000000E+00  0.00000000000E+00  0.71735953241E+02  0.71735953241E+02  0.00000000000E+00 0.  1.
         21   -1    0    0  501  502 -0.00000000000E+00 -0.00000000000E+00 -0.83649094210E+03  0.83649094210E+03  0.00000000000E+00 0.  1.
         25    1    1    2    0    0 -0.13045374894E+03 -0.16150789558E+03 -0.31609258315E+03  0.39829951302E+03  0.12500000000E+03 0.  0.
         25    1    1    2    0    0  0.13045374894E+03  0.16150789558E+03 -0.44866240571E+03  0.50992738233E+03  0.12500000000E+03 0.  0.
</event>
<event>
 4    0  0.2233588E-002  0.1897075E+03  0.7546771E-02  0.1158725E+00
         21   -1    0    0  502  501  0.00000000000E+00  0.00000000000E+00  0.18681974979E+03  0.18681974979E+03  0.00000000000E+00 0.  1.
         21   -1    0    0  501  502 -0.00000000000E+00 -0.00000000000E+00 -0.19263981814E+03  0.19263981814E+03  0.00000000000E+00 0.  1.
         25    1    1    2    0    0  0.10985806292E+03  0.60082580573E+02  0.65546627974E+02  0.18867981057E+03  0.12500000000E+03 0.  0.
         25    1    1    2    0    0 -0.10985806292E+03 -0.60082580573E+02 -0.71366696319E+02  0.19077975737E+03  0.12500000000E+03 0.  0.
</event>
<event>
 4    0  0.2233588E-002  0.2104257E+03  0.7546771E-02  0.1141229E+00
         21   -1    0    0  502  501  0.00000000000E+00  0.00000000000E+00  0.33073137525E+03  0.33073137525E+03  0.00000000000E+00 0. -1.
         21   -1    0    0  501  502 -0.00000000000E+00 -0.00000000000E+00 -0.13388202269E+03  0.13388202269E+03  0.00000000000E+00 0. -1.
         25    1    1    2    0    0  0.20761898906E+02  0.15452862959E+03  0.25663552721E+02  0.20147896106E+03  0.12500000000E+03 0.  0.
         25    1    1    2    0    0 -0.20761898906E+02 -0.15452862959E+03  0.17118579984E+03  0.26313443689E+03  0.12500000000E+03 0.  0.
</event>
<event>
 4    0  0.2233588E-002  0.2266777E+03  0.7546771E-02  0.1129000E+00
         21   -1    0    0  502  501  0.00000000000E+00  0.00000000000E+00  0.40346369439E+03  0.40346369439E+03  0.00000000000E+00 0. -1.
         21   -1    0    0  501  502 -0.00000000000E+00 -0.00000000000E+00 -0.12735411881E+03  0.12735411881E+03  0.00000000000E+00 0. -1.
         25    1    1    2    0    0 -0.11174445863E+03 -0.10837068427E+03  0.26376191481E+03  0.33079657941E+03  0.12500000000E+03 0.  0.
         25    1    1    2    0    0  0.11174445863E+03  0.10837068427E+03  0.12347660771E+02  0.20002123380E+03  0.12500000000E+03 0.  0.
</event>
<event>
 4    0  0.2233588E-002  0.2857173E+03  0.7546771E-02  0.1092607E+00
         21   -1    0    0  502  501  0.00000000000E+00  0.00000000000E+00  0.39440396071E+03  0.39440396071E+03  0.00000000000E+00 0.  1.
         21   -1    0    0  501  502 -0.00000000000E+00 -0.00000000000E+00 -0.20698159049E+03  0.20698159049E+03  0.00000000000E+00 0.  1.
         25    1    1    2    0    0 -0.15728841531E+03 -0.60502036946E+02  0.29780678705E+03  0.36429936108E+03  0.12500000000E+03 0.  0.
         25    1    1    2    0    0  0.15728841531E+03  0.60502036946E+02 -0.11038441684E+03  0.23708619012E+03  0.12500000000E+03 0.  0.
</event>
<event>
 4    0  0.2233588E-002  0.2138215E+03  0.7546771E-02  0.1138575E+00
         21   -1    0    0  502  501  0.00000000000E+00  0.00000000000E+00  0.41866475389E+02  0.41866475389E+02  0.00000000000E+00 0.  1.
         21   -1    0    0  501  502 -0.00000000000E+00 -0.00000000000E+00 -0.10920349485E+04  0.10920349485E+04  0.00000000000E+00 0.  1.
         25    1    1    2    0    0 -0.13052193518E+03  0.20770779796E+02 -0.82303759479E+03  0.84290170441E+03  0.12500000000E+03 0.  0.
         25    1    1    2    0    0  0.13052193518E+03 -0.20770779796E+02 -0.22713087835E+03  0.29099971951E+03  0.12500000000E+03 0.  0.
</event>
<event>
 4    0  0.2233588E-002  0.2644820E+03  0.7546771E-02  0.1104480E+00
         21   -1    0    0  502  501  0.00000000000E+00  0.00000000000E+00  0.22326906671E+04  0.22326906671E+04  0.00000000000E+00 0.  1.
         21   -1    0    0  501  502 -0.00000000000E+00 -0.00000000000E+00 -0.31330246933E+02  0.31330246933E+02  0.00000000000E+00 0.  1.
         25    1    1    2    0    0  0.18561334894E+03 -0.41016454288E+02  0.52340414129E+03  0.57071145069E+03  0.12500000000E+03 0.  0.
         25    1    1    2    0    0 -0.18561334894E+03  0.41016454288E+02  0.16779562789E+04  0.16933094634E+04  0.12500000000E+03 0.  0.
</event>
<event>
 4    0  0.2233588E-002  0.1541955E+03  0.7546771E-02  0.1195410E+00
         21   -1    0    0  502  501  0.00000000000E+00  0.00000000000E+00  0.20774729110E+04  0.20774729110E+04  0.00000000000E+00 0.  1.
         21   -1    0    0  501  502 -0.00000000000E+00 -0.00000000000E+00 -0.11444800926E+02  0.11444800926E+02  0.00000000000E+00 0.  1.
         25    1    1    2    0    0  0.66319657865E+02 -0.60527630244E+02  0.96897832847E+03  0.98112480964E+03  0.12500000000E+03 0.  0.
         25    1    1    2    0    0 -0.66319657865E+02  0.60527630244E+02  0.10970497817E+04  0.11077929023E+04  0.12500000000E+03 0.  0.
</event>
<event>
 4    0  0.2233588E-002  0.2256146E+03  0.7546771E-02  0.1129765E+00
         21   -1    0    0  502  501  0.00000000000E+00  0.00000000000E+00  0.58323114173E+02  0.58323114173E+02  0.00000000000E+00 0.  1.
         21   -1    0    0  501  502 -0.00000000000E+00 -0.00000000000E+00 -0.87275739857E+03  0.87275739857E+03  0.00000000000E+00 0.  1.
         25    1    1    2    0    0 -0.16512353320E+03 -0.89319019732E+02 -0.41911742076E+03  0.47594966213E+03  0.12500000000E+03 0.  0.
         25    1    1    2    0    0  0.16512353320E+03  0.89319019732E+02 -0.39531686365E+03  0.45513085062E+03  0.12500000000E+03 0.  0.
</event>
<event>
 4    0  0.2233588E-002  0.1777944E+03  0.7546771E-02  0.1169955E+00
         21   -1    0    0  502  501  0.00000000000E+00  0.00000000000E+00  0.10442881668E+04  0.10442881668E+04  0.00000000000E+00 0.  1.
         21   -1    0    0  501  502 -0.00000000000E+00 -0.00000000000E+00 -0.30270234221E+02  0.30270234221E+02  0.00000000000E+00 0.  1.
         25    1    1    2    0    0  0.10931887785E+03  0.60318444472E+02  0.56721375630E+03  0.59409206117E+03  0.12500000000E+03 0.  0.
         25    1    1    2    0    0 -0.10931887785E+03 -0.60318444472E+02  0.44680417628E+03  0.48046633987E+03  0.12500000000E+03 0.  0.
</event>
<event>
 4    0  0.2233588E-002  0.2683201E+03  0.7546771E-02  0.1102245E+00
         21   -1    0    0  502  501  0.00000000000E+00  0.00000000000E+00  0.73686683753E+02  0.73686683753E+02  0.00000000000E+00 0.  1.
         21   -1    0    0  501  502 -0.00000000000E+00 -0.00000000000E+00 -0.97705136626E+03  0.97705136626E+03  0.00000000000E+00 0.  1.
         25    1    1    2    0    0  0.20364409722E+03 -0.50731056653E+02 -0.23429993308E+03  0.33847602143E+03  0.12500000000E+03 0.  0.
         25    1    1    2    0    0 -0.20364409722E+03  0.50731056653E+02 -0.66906474942E+03  0.71226202858E+03  0.12500000000E+03 0.  0.
</event>
<event>
 4    0  0.2233588E-002  0.2380120E+03  0.7546771E-02  0.1121124E+00
         21   -1    0    0  502  501  0.00000000000E+00  0.00000000000E+00  0.24444069267E+03  0.24444069267E+03  0.00000000000E+00 0. -1.
         21   -1    0    0  501  502 -0.00000000000E+00 -0.00000000000E+00 -0.23175238407E+03  0.23175238407E+03  0.00000000000E+00 0. -1.
         25    1    1    2    0    0  0.12041900535E+03  0.13980169332E+03  0.89917007120E+02  0.24032336232E+03  0.12500000000E+03 0.  0.
         25    1    1    2    0    0 -0.12041900535E+03 -0.13980169332E+03 -0.77228698523E+02  0.23586971442E+03  0.12500000000E+03 0.  0.
</event>
<event>
 4    0  0.2233588E-002  0.3480354E+03  0.7546771E-02  0.1063424E+00
         21   -1    0    0  502  501  0.00000000000E+00  0.00000000000E+00  0.18423156088E+03  0.18423156088E+03  0.00000000000E+00 0.  1.
         21   -1    0    0  501  502 -0.00000000000E+00 -0.00000000000E+00 -0.65748028523E+03  0.65748028523E+03  0.00000000000E+00 0.  1.
         25    1    1    2    0    0  0.11288102627E+03 -0.16627493949E+03 -0.54519010374E+03  0.59434563245E+03  0.12500000000E+03 0.  0.
         25    1    1    2    0    0 -0.11288102627E+03  0.16627493949E+03  0.71941379390E+02  0.24736621367E+03  0.12500000000E+03 0.  0.
</event>
<event>
 4    0  0.2233588E-002  0.2380632E+03  0.7546771E-02  0.1121090E+00
         21   -1    0    0  502  501  0.00000000000E+00  0.00000000000E+00  0.99363140615E+02  0.99363140615E+02  0.00000000000E+00 0. -1.
         21   -1    0    0  501  502 -0.00000000000E+00 -0.00000000000E+00 -0.57037357015E+03  0.57037357015E+03  0.00000000000E+00 0. -1.
         25    1    1    2    0    0 -0.19888611868E+03  0.29203631080E+01 -0.28970895667E+03  0.37298860076E+03  0.12500000000E+03 0.  0.
         25    1    1    2    0    0  0.19888611868E+03 -0.29203631080E+01 -0.18130147286E+03  0.29674811000E+03  0.12500000000E+03 0.  0.
</event>
<event>
 4    0  0.2233588E-002  0.2142414E+03  0.7546771E-02  0.1138251E+00
         21   -1    0    0  502  501  0.00000000000E+00  0.00000000000E+00  0.39674703949E+03  0.39674703949E+03  0.00000000000E+00 0.  1.
         21   -1    0    0  501  502 -0.00000000000E+00 -0.00000000000E+00 -0.11568929659E+03  0.11568929659E+03  0.00000000000E+00 0.  1.
         25    1    1    2    0    0  0.12182508625E+03 -0.13912376279E+02  0.28816462979E+03  0.33719246687E+03  0.12500000000E+03 0.  0.
         25    1    1    2    0    0 -0.12182508625E+03  0.13912376279E+02 -0.71068868854E+01  0.17524386921E+03  0.12500000000E+03 0.  0.
</event>
<event>
 4    0  0.2233588E-002  0.1695044E+03  0.7546771E-02  0.1178366E+00
         21   -1    0    0  502  501  0.00000000000E+00  0.00000000000E+00  0.36569529793E+03  0.36569529793E+03  0.00000000000E+00 0. -1.
         21   -1    0    0  501  502 -0.00000000000E+00 -0.00000000000E+00 -0.78567444258E+02  0.78567444258E+02  0.00000000000E+00 0. -1.
         25    1    1    2    0    0  0.12967890496E+01  0.70737310555E+02  0.25611698251E+02  0.14589862184E+03  0.12500000000E+03 0.  0.
         25    1    1    2    0    0 -0.12967890496E+01 -0.70737310555E+02  0.26151615542E+03  0.29836412035E+03  0.12500000000E+03 0.  0.
</event>
<event>
 4    0  0.2233588E-002  0.2095572E+03  0.7546771E-02  0.1141917E+00
         21   -1    0    0  502  501  0.00000000000E+00  0.00000000000E+00  0.27097246346E+03  0.27097246346E+03  0.00000000000E+00 0. -1.
         21   -1    0    0  501  502 -0.00000000000E+00 -0.00000000000E+00 -0.16206162402E+03  0.16206162402E+03  0.00000000000E+00 0. -1.
         25    1    1    2    0    0 -0.13772467829E+03  0.72342853765E+02 -0.11602805912E+02  0.19990297798E+03  0.12500000000E+03 0.  0.
         25    1    1    2    0    0  0.13772467829E+03 -0.72342853765E+02  0.12051364535E+03  0.23313110950E+03  0.12500000000E+03 0.  0.
</event>
<event>
 4    0  0.2233588E-002  0.4085655E+03  0.7546771E-02  0.1040853E+00
         21   -1    0    0  502  501  0.00000000000E+00  0.00000000000E+00  0.86130556493E+03  0.86130556493E+03  0.00000000000E+00 0.  1.
         21   -1    0    0  501  502 -0.00000000000E+00 -0.00000000000E+00 -0.19380547313E+03  0.19380547313E+03  0.00000000000E+00 0.  1.
         25    1    1    2    0    0  0.14886949058E+02  0.32105304548E+03  0.61665820963E+03  0.70653310381E+03  0.12500000000E+03 0.  0.
         25    1    1    2    0    0 -0.14886949058E+02 -0.32105304548E+03  0.50841882164E+02  0.34857793425E+03  0.12500000000E+03 0.  0.
</event>
<event>
 4    0  0.2233588E-002  0.2599290E+03  0.7546771E-02  0.1107186E+00
         21   -1    0    0  502  501  0.00000000000E+00  0.00000000000E+00  0.59829057493E+02  0.59829057493E+02  0.00000000000E+00 0. -1.
         21   -1    0    0  501  502 -0.00000000000E+00 -0.00000000000E+00 -0.11292683283E+04  0.11292683283E+04  0.00000000000E+00 0. -1.
         25    1    1    2    0    0  0.26322046218E+02  0.14881538913E+03 -0.92490701747E+03  0.94547176643E+03  0.12500000000E+03 0.  0.
         25    1    1    2    0    0 -0.26322046218E+02 -0.14881538913E+03 -0.14453225336E+03  0.24362561939E+03  0.12500000000E+03 0.  0.
</event>
<event>
 4    0  0.2233588E-002  0.2265489E+03  0.7546771E-02  0.1129093E+00
         21   -1    0    0  502  501  0.00000000000E+00  0.00000000000E+00  0.21592453884E+03  0.21592453884E+03  0.00000000000E+00 0.  1.
         21   -1    0    0  501  502 -0.00000000000E+00 -0.00000000000E+00 -0.23769606935E+03  0.23769606935E+03  0.00000000000E+00 0.  1.
         25    1    1    2    0    0  0.16064973429E+03  0.78954817009E+02  0.49658911021E+02  0.22390446110E+03  0.12500000000E+03 0.  0.
         25    1    1    2    0    0 -0.16064973429E+03 -0.78954817009E+02 -0.71430441529E+02  0.22971614709E+03  0.12500000000E+03 0.  0.
</event>
<event>
 4    0  0.2233588E-002  0.1782969E+03  0.7546771E-02  0.1169462E+00
         21   -1    0    0  502  501  0.00000000000E+00  0.00000000000E+00  0.25615553121E+02  0.25615553121E+02  0.00000000000E+00 0.  1.
         21   -1    0    0  501  502 -0.00000000000E+00 -0.00000000000E+00 -0.12410338106E+04  0.12410338106E+04  0.00000000000E+00 0.  1.
         25    1    1    2    0    0  0.89852741754E+02  0.31009430854E+01 -0.28838451699E+03  0.32691552531E+03  0.12500000000E+03 0.  0.
         25    1    1    2    0    0 -0.89852741754E+02 -0.31009430854E+01 -0.92703374045E+03  0.93973383837E+03  0.12500000000E+03 0.  0.
</event>
<event>
 4    0  0.2233588E-002  0.2261503E+03  0.7546771E-02  0.1129379E+00
         21   -1    0    0  502  501  0.00000000000E+00  0.00000000000E+00  0.35529625612E+03  0.35529625612E+03  0.00000000000E+00 0.  1.
         21   -1    0    0  501  502 -0.00000000000E+00 -0.00000000000E+00 -0.14394733363E+03  0.14394733363E+03  0.00000000000E+00 0.  1.
         25    1    1    2    0    0 -0.17594497871E+03 -0.11499930110E+02  0.32207781531E+02  0.21852053706E+03  0.12500000000E+03 0.  0.
         25    1    1    2    0    0  0.17594497871E+03  0.11499930110E+02  0.17914114096E+03  0.28072305269E+03  0.12500000000E+03 0.  0.
</event>
<event>
 4    0  0.2233588E-002  0.1928719E+03  0.7546771E-02  0.1155896E+00
         21   -1    0    0  502  501  0.00000000000E+00  0.00000000000E+00  0.70698302544E+03  0.70698302544E+03  0.00000000000E+00 0.  1.
         21   -1    0    0  501  502 -0.00000000000E+00 -0.00000000000E+00 -0.52617355432E+02  0.52617355432E+02  0.00000000000E+00 0.  1.
         25    1    1    2    0    0 -0.13694702569E+03  0.49592994442E+02  0.28978782928E+03  0.34758587276E+03  0.12500000000E+03 0.  0.
         25    1    1    2    0    0  0.13694702569E+03 -0.49592994442E+02  0.36457784072E+03  0.41201450811E+03  0.12500000000E+03 0.  0.
</event>
<event>
 4    0  0.2233588E-002  0.2803112E+03  0.7546771E-02  0.1095519E+00
         21   -1    0    0  502  501  0.00000000000E+00  0.00000000000E+00  0.17831888474E+03  0.17831888474E+03  0.00000000000E+00 0. -1.
         21   -1    0    0  501  502 -0.00000000000E+00 -0.00000000000E+00 -0.44063967124E+03  0.44063967124E+03  0.00000000000E+00 0. -1.
         25    1    1    2    0    0 -0.42591006429E+02 -0.15232564430E+03 -0.34618867087E+03  0.40061039874E+03  0.12500000000E+03 0.  0.
         25    1    1    2    0    0  0.42591006429E+02  0.15232564430E+03  0.83867884365E+02  0.21834815724E+03  0.12500000000E+03 0.  0.
</event>
<event>
 4    0  0.2233588E-002  0.2828828E+03  0.7546771E-02  0.1094125E+00
         21   -1    0    0  502  501  0.00000000000E+00  0.00000000000E+00  0.12094484989E+04  0.12094484989E+04  0.00000000000E+00 0.  1.
         21   -1    0    0  501  502 -0.00000000000E+00 -0.00000000000E+00 -0.66164596004E+02  0.66164596004E+02  0.00000000000E+00 0.  1.
         25    1    1    2    0    0 -0.22353324572E+02  0.70155596519E+02  0.11191882106E+04  0.11285516070E+04  0.12500000000E+03 0.  0.
         25    1    1    2    0    0  0.22353324572E+02 -0.70155596519E+02  0.24095692278E+02  0.14706148792E+03  0.12500000000E+03 0.  0.
</event>
<event>
 4    0  0.2233588E-002  0.2975545E+03  0.7546771E-02  0.1086470E+00
         21   -1    0    0  502  501  0.00000000000E+00  0.00000000000E+00  0.92331983007E+03  0.92331983007E+03  0.00000000000E+00 0.  1.
         21   -1    0    0  501  502 -0.00000000000E+00 -0.00000000000E+00 -0.95891691777E+02  0.95891691777E+02  0.00000000000E+00 0.  1.
         25    1    1    2    0    0  0.47965901116E+02  0.73785743453E+02  0.85092103803E+03  0.86454420163E+03  0.12500000000E+03 0.  0.
         25    1    1    2    0    0 -0.47965901116E+02 -0.73785743453E+02 -0.23492899733E+02  0.15466732022E+03  0.12500000000E+03 0.  0.
</event>
<event>
 4    0  0.2233588E-002  0.3290001E+03  0.7546771E-02  0.1071580E+00
         21   -1    0    0  502  501  0.00000000000E+00  0.00000000000E+00  0.78912578657E+03  0.78912578657E+03  0.00000000000E+00 0. -1.
         21   -1    0    0  501  502 -0.00000000000E+00 -0.00000000000E+00 -0.13716583019E+03  0.13716583019E+03  0.00000000000E+00 0. -1.
         25    1    1    2    0    0  0.22784718350E+03  0.16138648431E+03  0.49640435348E+03  0.58309709183E+03  0.12500000000E+03 0.  0.
         25    1    1    2    0    0 -0.22784718350E+03 -0.16138648431E+03  0.15555560291E+03  0.34319452493E+03  0.12500000000E+03 0.  0.
</event>
<event>
 4    0  0.2233588E-002  0.2299992E+03  0.7546771E-02  0.1126640E+00
         21   -1    0    0  502  501  0.00000000000E+00  0.00000000000E+00  0.28610385405E+03  0.28610385405E+03  0.00000000000E+00 0. -1.
         21   -1    0    0  501  502 -0.00000000000E+00 -0.00000000000E+00 -0.18489655990E+03  0.18489655990E+03  0.00000000000E+00 0. -1.
         25    1    1    2    0    0  0.11498401573E+03  0.15010920583E+03  0.90530144435E+02  0.24407950467E+03  0.12500000000E+03 0.  0.
         25    1    1    2    0    0 -0.11498401573E+03 -0.15010920583E+03  0.10677149716E+02  0.22692090929E+03  0.12500000000E+03 0.  0.
</event>
<event>
 4    0  0.2233588E-002  0.1783384E+03  0.7546771E-02  0.1169421E+00
         21   -1    0    0  502  501  0.00000000000E+00  0.00000000000E+00  0.89090760279E+02  0.89090760279E+02  0.00000000000E+00 0. -1.
         21   -1    0    0  501  502 -0.00000000000E+00 -0.00000000000E+00 -0.35699074517E+03  0.35699074517E+03  0.00000000000E+00 0. -1.
         25    1    1    2    0    0  0.18757001227E+02 -0.11931084148E+03 -0.18386176344E+03  0.25301590868E+03  0.12500000000E+03 0.  0.
         25    1    1    2    0    0 -0.18757001227E+02  0.11931084148E+03 -0.84038221453E+02  0.19306559677E+03  0.12500000000E+03 0.  0.
</event>
<event>
 4    0  0.2233588E-002  0.1936840E+03  0.7546771E-02  0.1155180E+00
         21   -1    0    0  502  501  0.00000000000E+00  0.00000000000E+00  0.23897897106E+02  0.23897897106E+02  0.00000000000E+00 0.  1.
         21   -1    0    0  501  502 -0.00000000000E+00 -0.00000000000E+00 -0.15697404663E+04  0.15697404663E+04  0.00000000000E+00 0.  1.
         25    1    1    2    0    0 -0.93282434485E+02 -0.10668160690E+03 -0.94775092358E+03  0.96640539681E+03  0.12500000000E+03 0.  0.
         25    1    1    2    0    0  0.93282434485E+02  0.10668160690E+03 -0.59809164564E+03  0.62723296662E+03  0.12500000000E+03 0.  0.
</event>
<event>
 4    0  0.2233588E-002  0.1790274E+03  0.7546771E-02  0.1168748E+00
         21   -1    0    0  502  501  0.00000000000E+00  0.00000000000E+00  0.28394715569E+03  0.28394715569E+03  0.00000000000E+00 0. -1.
         21   -1    0    0  501  502 -0.00000000000E+00 -0.00000000000E+00 -0.11287594263E+03  0.11287594263E+03  0.00000000000E+00 0. -1.
         25    1    1    2    0    0  0.11523287585E+03 -0.51387259976E+02  0.60592361914E+02  0.18765846767E+03  0.12500000000E+03 0.  0.
         25    1    1    2    0    0 -0.11523287585E+03  0.51387259976E+02  0.11047885115E+03  0.20916463065E+03  0.12500000000E+03 0.  0.
</event>
<event>
 4    0  0.2233588E-002  0.1932458E+03  0.7546771E-02  0.1155566E+00
         21   -1    0    0  502  501  0.00000000000E+00  0.00000000000E+00  0.51502003842E+02  0.51502003842E+02  0.00000000000E+00 0. -1.
         21   -1    0    0  501  502 -0.00000000000E+00 -0.00000000000E+00 -0.72509700386E+03  0.72509700386E+03  0.00000000000E+00 0. -1.
         25    1    1    2    0    0 -0.44487605187E+02 -0.45612383479E+02 -0.69777612652E+02  0.15669572990E+03  0.12500000000E+03 0.  0.
         25    1    1    2    0    0  0.44487605187E+02  0.45612383479E+02 -0.60381738736E+03  0.61990327780E+03  0.12500000000E+03 0.  0.
</event>
<event>
 4    0  0.2233588E-002  0.1573594E+03  0.7546771E-02  0.1191711E+00
         21   -1    0    0  502  501  0.00000000000E+00  0.00000000000E+00  0.29589854365E+02  0.29589854365E+02  0.00000000000E+00 0. -1.
         21   -1    0    0  501  502 -0.00000000000E+00 -0.00000000000E+00 -0.83683977940E+03  0.83683977940E+03  0.00000000000E+00 0. -1.
         25    1    1    2    0    0  0.81816556502E+02 -0.44344830311E+02 -0.34352600632E+03  0.37722079730E+03  0.12500000000E+03 0.  0.
         25    1    1    2    0    0 -0.81816556502E+02  0.44344830311E+02 -0.46372391872E+03  0.48920883647E+03  0.12500000000E+03 0.  0.
</event>
<event>
 4    0  0.2233588E-002  0.2566648E+03  0.7546771E-02  0.1109164E+00
         21   -1    0    0  502  501  0.00000000000E+00  0.00000000000E+00  0.31705630176E+03  0.31705630176E+03  0.00000000000E+00 0.  1.
         21   -1    0    0  501  502 -0.00000000000E+00 -0.00000000000E+00 -0.20777647251E+03  0.20777647251E+03  0.00000000000E+00 0.  1.
         25    1    1    2    0    0 -0.15593494237E+02 -0.20653350275E+03  0.14230868177E+03  0.28067063567E+03  0.12500000000E+03 0.  0.
         25    1    1    2    0    0  0.15593494237E+02  0.20653350275E+03 -0.33028852520E+02  0.24416213859E+03  0.12500000000E+03 0.  0.
</event>
<event>
 4    0  0.2233588E-002  0.2033391E+03  0.7546771E-02  0.1146952E+00
         21   -1    0    0  502  501  0.00000000000E+00  0.00000000000E+00  0.10412845042E+03  0.10412845042E+03  0.00000000000E+00 0. -1.
         21   -1    0    0  501  502 -0.00000000000E+00 -0.00000000000E+00 -0.39707489139E+03  0.39707489139E+03  0.00000000000E+00 0. -1.
         25    1    1    2    0    0  0.11034094347E+03  0.11607508538E+03 -0.13592573961E+03  0.24443681380E+03  0.12500000000E+03 0.  0.
         25    1    1    2    0    0 -0.11034094347E+03 -0.11607508538E+03 -0.15702070135E+03  0.25676652801E+03  0.12500000000E+03 0.  0.
</event>
<event>
 4    0  0.2233588E-002  0.2626936E+03  0.7546771E-02  0.1105536E+00
         21   -1    0    0  502  501  0.00000000000E+00  0.00000000000E+00  0.91977535783E+02  0.91977535783E+02  0.00000000000E+00 0. -1.
         21   -1    0    0  501  502 -0.00000000000E+00 -0.00000000000E+00 -0.75026949832E+03  0.75026949832E+03  0.00000000000E+00 0. -1.
         25    1    1    2    0    0 -0.39549293680E+02 -0.10114960203E+03 -0.22258704168E+01  0.16560598757E+03  0.12500000000E+03 0.  0.
         25    1    1    2    0    0  0.39549293680E+02  0.10114960203E+03 -0.65606609212E+03  0.67664104653E+03  0.12500000000E+03 0.  0.
</event>
<event>
 4    0  0.2233588E-002  0.2439431E+03  0.7546771E-02  0.1117194E+00
         21   -1    0    0  502  501  0.00000000000E+00  0.00000000000E+00  0.31087935127E+03  0.31087935127E+03  0.00000000000E+00 0. -1.
         21   -1    0    0  501  502 -0.00000000000E+00 -0.00000000000E+00 -0.19141913645E+03  0.19141913645E+03  0.00000000000E+00 0. -1.
         25    1    1    2    0    0  0.17163550838E+03 -0.61101462154E+02  0.16618236430E+03  0.27646648010E+03  0.12500000000E+03 0.  0.
         25    1    1    2    0    0 -0.17163550838E+03  0.61101462154E+02 -0.46722149480E+02  0.22583200762E+03  0.12500000000E+03 0.  0.
</event>
<event>
 4    0  0.2233588E-002  0.4717752E+03  0.7546771E-02  0.1021420E+00
         21   -1    0    0  502  501  0.00000000000E+00  0.00000000000E+00  0.77126905663E+03  0.77126905663E+03  0.00000000000E+00 0.  1.
         21   -1    0    0  501  502 -0.00000000000E+00 -0.00000000000E+00 -0.28857869690E+03  0.28857869690E+03  0.00000000000E+00 0.  1.
         25    1    1    2    0    0 -0.43628525914E+03 -0.11589918928E+03  0.30458124886E+03  0.55872371220E+03  0.12500000000E+03 0.  0.
         25    1    1    2    0    0  0.43628525914E+03  0.11589918928E+03  0.17810911086E+03  0.50112404133E+03  0.12500000000E+03 0.  0.
</event>
<event>
 4    0  0.2233588E-002  0.2182365E+03  0.7546771E-02  0.1135205E+00
         21   -1    0    0  502  501  0.00000000000E+00  0.00000000000E+00  0.56642257955E+02  0.56642257955E+02  0.00000000000E+00 0.  1.
         21   -1    0    0  501  502 -0.00000000000E+00 -0.00000000000E+00 -0.84084200683E+03  0.84084200683E+03  0.00000000000E+00 0.  1.
         25    1    1    2    0    0  0.12975754586E+02  0.17594428938E+03 -0.45300793714E+03  0.50196210443E+03  0.12500000000E+03 0.  0.
         25    1    1    2    0    0 -0.12975754586E+02 -0.17594428938E+03 -0.33119181173E+03  0.39552216035E+03  0.12500000000E+03 0.  0.
</event>
<event>
 4    0  0.2233588E-002  0.3094760E+03  0.7546771E-02  0.1080597E+00
         21   -1    0    0  502  501  0.00000000000E+00  0.00000000000E+00  0.82331954673E+03  0.82331954673E+03  0.00000000000E+00 0.  1.
         21   -1    0    0  501  502 -0.00000000000E+00 -0.00000000000E+00 -0.11632834685E+03  0.11632834685E+03  0.00000000000E+00 0. -1.
         25    1    1    2    0    0 -0.10034685438E+03  0.25072754741E+03  0.48246144339E+03  0.56685786452E+03  0.12500000000E+03 0.  0.
         25    1    1    2    0    0  0.10034685438E+03 -0.25072754741E+03  0.22452975650E+03  0.37279002906E+03  0.12500000000E+03 0.  0.
</event>
<event>
 4    0  0.2233588E-002  0.3062905E+03  0.7546771E-02  0.1082138E+00
         21   -1    0    0  502  501  0.00000000000E+00  0.00000000000E+00  0.34401173551E+03  0.34401173551E+03  0.00000000000E+00 0. -1.
         21   -1    0    0  501  502 -0.00000000000E+00 -0.00000000000E+00 -0.27270537558E+03  0.27270537558E+03  0.00000000000E+00 0. -1.
         25    1    1    2    0    0  0.95850875957E+02  0.66854610457E+02 -0.22009339019E+03  0.27878850365E+03  0.12500000000E+03 0.  0.
         25    1    1    2    0    0 -0.95850875957E+02 -0.66854610457E+02  0.29139975012E+03  0.33792860745E+03  0.12500000000E+03 0.  0.
</event>
<event>
 4    0  0.2233588E-002  0.1985027E+03  0.7546771E-02  0.1151008E+00
         21   -1    0    0  502  501  0.00000000000E+00  0.00000000000E+00  0.28159488220E+02  0.28159488220E+02  0.00000000000E+00 0. -1.
         21   -1    0    0  501  502 -0.00000000000E+00 -0.00000000000E+00 -0.13992910656E+04  0.13992910656E+04  0.00000000000E+00 0. -1.
         25    1    1    2    0    0  0.12460312690E+02  0.11522927006E+03 -0.10512748436E+04  0.10650055591E+04  0.12500000000E+03 0.  0.
         25    1    1    2    0    0 -0.12460312690E+02 -0.11522927006E+03 -0.31985673375E+03  0.36244499472E+03  0.12500000000E+03 0.  0.
</event>
<event>
 4    0  0.2233588E-002  0.7205861E+03  0.7546771E-02  0.9682661E-01
         21   -1    0    0  502  501  0.00000000000E+00  0.00000000000E+00  0.56149436930E+03  0.56149436930E+03  0.00000000000E+00 0. -1.
         21   -1    0    0  501  502 -0.00000000000E+00 -0.00000000000E+00 -0.92475416811E+03  0.92475416811E+03  0.00000000000E+00 0. -1.
         25    1    1    2    0    0 -0.28472963644E+03 -0.12683958982E+03 -0.83911286498E+03  0.90382224336E+03  0.12500000000E+03 0.  0.
         25    1    1    2    0    0  0.28472963644E+03  0.12683958982E+03  0.47585306617E+03  0.58242629405E+03  0.12500000000E+03 0.  0.
</event>
<event>
 4    0  0.2233588E-002  0.2238246E+03  0.7546771E-02  0.1131063E+00
         21   -1    0    0  502  501  0.00000000000E+00  0.00000000000E+00  0.12429145197E+03  0.12429145197E+03  0.00000000000E+00 0.  1.
         21   -1    0    0  501  502 -0.00000000000E+00 -0.00000000000E+00 -0.40306431648E+03  0.40306431648E+03  0.00000000000E+00 0.  1.
         25    1    1    2    0    0 -0.12333568910E+03  0.13320874142E+03 -0.93514984652E+02  0.23942914056E+03  0.12500000000E+03 0.  0.
         25    1    1    2    0    0  0.12333568910E+03 -0.13320874142E+03 -0.18525787986E+03  0.28792662789E+03  0.12500000000E+03 0.  0.
</event>
<event>
 4    0  0.2233588E-002  0.3597584E+03  0.7546771E-02  0.1058680E+00
         21   -1    0    0  502  501  0.00000000000E+00  0.00000000000E+00  0.72164690069E+02  0.72164690069E+02  0.00000000000E+00 0.  1.
         21   -1    0    0  501  502 -0.00000000000E+00 -0.00000000000E+00 -0.17934821123E+04  0.17934821123E+04  0.00000000000E+00 0.  1.
         25    1    1    2    0    0  0.75296688384E+02  0.48672227881E+02 -0.17412508728E+02  0.15481205544E+03  0.12500000000E+03 0.  0.
         25    1    1    2    0    0 -0.75296688384E+02 -0.48672227881E+02 -0.17039049135E+04  0.17108347469E+04  0.12500000000E+03 0.  0.
</event>
<event>
 4    0  0.2233588E-002  0.1863904E+03  0.7546771E-02  0.1161758E+00
         21   -1    0    0  502  501  0.00000000000E+00  0.00000000000E+00  0.70801733128E+02  0.70801733128E+02  0.00000000000E+00 0. -1.
         21   -1    0    0  501  502 -0.00000000000E+00 -0.00000000000E+00 -0.49068547399E+03  0.49068547399E+03  0.00000000000E+00 0. -1.
         25    1    1    2    0    0 -0.11869582264E+03  0.23288410904E+02 -0.10906683528E+03  0.20530860418E+03  0.12500000000E+03 0.  0.
         25    1    1    2    0    0  0.11869582264E+03 -0.23288410904E+02 -0.31081690557E+03  0.35617860293E+03  0.12500000000E+03 0.  0.
</event>
<event>
 4    0  0.2233588E-002  0.2394192E+03  0.7546771E-02  0.1120180E+00
         21   -1    0    0  502  501  0.00000000000E+00  0.00000000000E+00  0.15028213654E+04  0.15028213654E+04  0.00000000000E+00 0. -1.
         21   -1    0    0  501  502 -0.00000000000E+00 -0.00000000000E+00 -0.38142637205E+02  0.38142637205E+02  0.00000000000E+00 0. -1.
         25    1    1    2    0    0  0.11401591811E+03 -0.16731092875E+03  0.81772559314E+03  0.85164119331E+03  0.12500000000E+03 0.  0.
         25    1    1    2    0    0 -0.11401591811E+03  0.16731092875E+03  0.64695313506E+03  0.68932280930E+03  0.12500000000E+03 0.  0.
</event>
<event>
 4    0  0.2233588E-002  0.1726591E+03  0.7546771E-02  0.1175103E+00
         21   -1    0    0  502  501  0.00000000000E+00  0.00000000000E+00  0.33762620394E+03  0.33762620394E+03  0.00000000000E+00 0. -1.
         21   -1    0    0  501  502 -0.00000000000E+00 -0.00000000000E+00 -0.88296341708E+02  0.88296341708E+02  0.00000000000E+00 0. -1.
         25    1    1    2    0    0  0.18201637477E+02 -0.58994179001E+02 -0.96576153202E+00  0.13941859796E+03  0.12500000000E+03 0.  0.
         25    1    1    2    0    0 -0.18201637477E+02  0.58994179001E+02  0.25029562376E+03  0.28650394768E+03  0.12500000000E+03 0.  0.
</event>
<event>
 4    0  0.2233588E-002  0.2140254E+03  0.7546771E-02  0.1138417E+00
         21   -1    0    0  502  501  0.00000000000E+00  0.00000000000E+00  0.60583943095E+03  0.60583943095E+03  0.00000000000E+00 0. -1.
         21   -1    0    0  501  502 -0.00000000000E+00 -0.00000000000E+00 -0.75608943746E+02  0.75608943746E+02  0.00000000000E+00 0. -1.
         25    1    1    2    0    0  0.27772075753E+02 -0.24381643627E+02  0.53535884106E+03  0.55099894867E+03  0.12500000000E+03 0.  0.
         25    1    1    2    0    0 -0.27772075753E+02  0.24381643627E+02 -0.51283538529E+01  0.13044942603E+03  0.12500000000E+03 0.  0.
</event>
<event>
 4    0  0.2233588E-002  0.2271152E+03  0.7546771E-02  0.1128687E+00
         21   -1    0    0  502  501  0.00000000000E+00  0.00000000000E+00  0.44573612598E+03  0.44573612598E+03  0.00000000000E+00 0. -1.
         21   -1    0    0  501  502 -0.00000000000E+00 -0.00000000000E+00 -0.11572161322E+03  0.11572161322E+03  0.00000000000E+00 0. -1.
         25    1    1    2    0    0  0.89081643936E+02 -0.48594831197E+02  0.36300643050E+03  0.39710913549E+03  0.12500000000E+03 0.  0.
         25    1    1    2    0    0 -0.89081643936E+02  0.48594831197E+02 -0.32991917735E+02  0.16434860371E+03  0.12500000000E+03 0.  0.
</event>
<event>
 4    0  0.2233588E-002  0.5248589E+03  0.7546771E-02  0.1007487E+00
         21   -1    0    0  502  501  0.00000000000E+00  0.00000000000E+00  0.24559124181E+03  0.24559124181E+03  0.00000000000E+00 0. -1.
         21   -1    0    0  501  502 -0.00000000000E+00 -0.00000000000E+00 -0.11216883543E+04  0.11216883543E+04  0.00000000000E+00 0. -1.
         25    1    1    2    0    0  0.38761342702E+03 -0.25216716151E+03 -0.71746709795E+03  0.86267982635E+03  0.12500000000E+03 0.  0.
         25    1    1    2    0    0 -0.38761342702E+03  0.25216716151E+03 -0.15863001456E+03  0.50459976979E+03  0.12500000000E+03 0.  0.
</event>
<event>
 4    0  0.2233588E-002  0.1971670E+03  0.7546771E-02  0.1152151E+00
         21   -1    0    0  502  501  0.00000000000E+00  0.00000000000E+00  0.13376513615E+03  0.13376513615E+03  0.00000000000E+00 0. -1.
         21   -1    0    0  501  502 -0.00000000000E+00 -0.00000000000E+00 -0.29062011721E+03  0.29062011721E+03  0.00000000000E+00 0. -1.
         25    1    1    2    0    0  0.32179847928E+02 -0.72738352822E+01 -0.23863927780E+03  0.27140773055E+03  0.12500000000E+03 0.  0.
         25    1    1    2    0    0 -0.32179847928E+02  0.72738352822E+01  0.81784296746E+02  0.15297752282E+03  0.12500000000E+03 0.  0.
</event>
<event>
 4    0  0.2233588E-002  0.2427790E+03  0.7546771E-02  0.1117955E+00
         21   -1    0    0  502  501  0.00000000000E+00  0.00000000000E+00  0.41951695592E+03  0.41951695592E+03  0.00000000000E+00 0.  1.
         21   -1    0    0  501  502 -0.00000000000E+00 -0.00000000000E+00 -0.14049888804E+03  0.14049888804E+03  0.00000000000E+00 0.  1.
         25    1    1    2    0    0  0.74835884034E+02  0.12232803562E+03 -0.34459192432E+02  0.19333130574E+03  0.12500000000E+03 0.  0.
         25    1    1    2    0    0 -0.74835884034E+02 -0.12232803562E+03  0.31347726030E+03  0.36668453821E+03  0.12500000000E+03 0.  0.
</event>
<event>
 4    0  0.2233588E-002  0.3381480E+03  0.7546771E-02  0.1067587E+00
         21   -1    0    0  502  501  0.00000000000E+00  0.00000000000E+00  0.16447698533E+03  0.16447698533E+03  0.00000000000E+00 0.  1.
         21   -1    0    0  501  502 -0.00000000000E+00 -0.00000000000E+00 -0.69519819018E+03  0.69519819018E+03  0.00000000000E+00 0.  1.
         25    1    1    2    0    0  0.19999225549E+03 -0.19402256939E+03 -0.80813825238E+02  0.31590747702E+03  0.12500000000E+03 0.  0.
         25    1    1    2    0    0 -0.19999225549E+03  0.19402256939E+03 -0.44990737961E+03  0.54376769848E+03  0.12500000000E+03 0.  0.
</event>
<event>
 4    0  0.2233588E-002  0.3904692E+03  0.7546771E-02  0.1047131E+00
         21   -1    0    0  502  501  0.00000000000E+00  0.00000000000E+00  0.13786648112E+03  0.13786648112E+03  0.00000000000E+00 0. -1.
         21   -1    0    0  501  502 -0.00000000000E+00 -0.00000000000E+00 -0.11058974539E+04  0.11058974539E+04  0.00000000000E+00 0.  1.
         25    1    1    2    0    0  0.13729464601E+03 -0.30846815975E+03 -0.72470518212E+03  0.80921259653E+03  0.12500000000E+03 0.  0.
         25    1    1    2    0    0 -0.13729464601E+03  0.30846815975E+03 -0.24332579070E+03  0.43455133853E+03  0.12500000000E+03 0.  0.
</event>
<event>
 4    0  0.2233588E-002  0.2131244E+03  0.7546771E-02  0.1139115E+00
         21   -1    0    0  502  501  0.00000000000E+00  0.00000000000E+00  0.14039003666E+03  0.14039003666E+03  0.00000000000E+00 0.  1.
         21   -1    0    0  501  502 -0.00000000000E+00 -0.00000000000E+00 -0.32354153538E+03  0.32354153538E+03  0.00000000000E+00 0.  1.
         25    1    1    2    0    0 -0.15253170556E+03 -0.80392810854E+02 -0.82595065891E+02  0.22842038032E+03  0.12500000000E+03 0.  0.
         25    1    1    2    0    0  0.15253170556E+03  0.80392810854E+02 -0.10055643283E+03  0.23551119171E+03  0.12500000000E+03 0.  0.
</event>
<event>
 4    0  0.2233588E-002  0.1472748E+03  0.7546771E-02  0.1203862E+00
         21   -1    0    0  502  501  0.00000000000E+00  0.00000000000E+00  0.11265127024E+03  0.11265127024E+03  0.00000000000E+00 0. -1.
         21   -1    0    0  501  502 -0.00000000000E+00 -0.00000000000E+00 -0.19254004553E+03  0.19254004553E+03  0.00000000000E+00 0. -1.
         25    1    1    2    0    0  0.73125308930E+02 -0.15235748513E+02 -0.62773141573E+02  0.15857145437E+03  0.12500000000E+03 0.  0.
         25    1    1    2    0    0 -0.73125308930E+02  0.15235748513E+02 -0.17115633726E+02  0.14661986140E+03  0.12500000000E+03 0.  0.
</event>
<event>
 4    0  0.2233588E-002  0.1810301E+03  0.7546771E-02  0.1166810E+00
         21   -1    0    0  502  501  0.00000000000E+00  0.00000000000E+00  0.12262973840E+04  0.12262973840E+04  0.00000000000E+00 0.  1.
         21   -1    0    0  501  502 -0.00000000000E+00 -0.00000000000E+00 -0.26724277177E+02  0.26724277177E+02  0.00000000000E+00 0.  1.
         25    1    1    2    0    0  0.74495408501E+02 -0.53780879849E+02  0.27689168362E+03  0.31738927736E+03  0.12500000000E+03 0.  0.
         25    1    1    2    0    0 -0.74495408501E+02  0.53780879849E+02  0.92268142317E+03  0.93563238379E+03  0.12500000000E+03 0.  0.
</event>
<event>
 4    0  0.2233588E-002  0.3120007E+03  0.7546771E-02  0.1079391E+00
         21   -1    0    0  502  501  0.00000000000E+00  0.00000000000E+00  0.79938386437E+03  0.79938386437E+03  0.00000000000E+00 0.  1.
         21   -1    0    0  501  502 -0.00000000000E+00 -0.00000000000E+00 -0.12177434649E+03  0.12177434649E+03  0.00000000000E+00 0.  1.
         25    1    1    2    0    0  0.11164324389E+03  0.15197994000E+03  0.65595787757E+03  0.69387884621E+03  0.12500000000E+03 0.  0.
         25    1    1    2    0    0 -0.11164324389E+03 -0.15197994000E+03  0.21651640311E+02  0.22727936465E+03  0.12500000000E+03 0.  0.
</event>
<event>
 4    0  0.2233588E-002  0.1954145E+03  0.7546771E-02  0.1153667E+00
         21   -1    0    0  502  501  0.00000000000E+00  0.00000000000E+00  0.86629979077E+03  0.86629979077E+03  0.00000000000E+00 0.  1.
         21   -1    0    0  501  502 -0.00000000000E+00 -0.00000000000E+00 -0.44080377822E+02  0.44080377822E+02  0.00000000000E+00 0.  1.
         25    1    1    2    0    0  0.11219819990E+03  0.19173056856E+02  0.18281157866E+03  0.24900023185E+03  0.12500000000E+03 0.  0.
         25    1    1    2    0    0 -0.11219819990E+03 -0.19173056856E+02  0.63940783429E+03  0.66137993674E+03  0.12500000000E+03 0.  0.
</event>
<event>
 4    0  0.2233588E-002  0.1723181E+03  0.7546771E-02  0.1175452E+00
         21   -1    0    0  502  501  0.00000000000E+00  0.00000000000E+00  0.28790164064E+02  0.28790164064E+02  0.00000000000E+00 0.  1.
         21   -1    0    0  501  502 -0.00000000000E+00 -0.00000000000E+00 -0.10313776302E+04  0.10313776302E+04  0.00000000000E+00 0.  1.
         25    1    1    2    0    0  0.86156954722E+02  0.27413296036E+02 -0.26512655135E+03  0.30674353763E+03  0.12500000000E+03 0.  0.
         25    1    1    2    0    0 -0.86156954722E+02 -0.27413296036E+02 -0.73746091476E+03  0.75342425661E+03  0.12500000000E+03 0.  0.
</event>
<event>
 4    0  0.2233588E-002  0.2610649E+03  0.7546771E-02  0.1106505E+00
         21   -1    0    0  502  501  0.00000000000E+00  0.00000000000E+00  0.46099783457E+03  0.46099783457E+03  0.00000000000E+00 0.  1.
         21   -1    0    0  501  502 -0.00000000000E+00 -0.00000000000E+00 -0.14784204540E+03  0.14784204540E+03  0.00000000000E+00 0.  1.
         25    1    1    2    0    0  0.10009842186E+03 -0.16632639836E+03  0.29865528837E+03  0.37749721340E+03  0.12500000000E+03 0.  0.
         25    1    1    2    0    0 -0.10009842186E+03  0.16632639836E+03  0.14500500794E+02  0.23134266657E+03  0.12500000000E+03 0.  0.
</event>
<event>
 4    0  0.2233588E-002  0.4560973E+03  0.7546771E-02  0.1025919E+00
         21   -1    0    0  502  501  0.00000000000E+00  0.00000000000E+00  0.58591217186E+03  0.58591217186E+03  0.00000000000E+00 0. -1.
         21   -1    0    0  501  502 -0.00000000000E+00 -0.00000000000E+00 -0.35504419193E+03  0.35504419193E+03  0.00000000000E+00 0. -1.
         25    1    1    2    0    0  0.23090667493E+03 -0.34762472948E+03 -0.23875585332E+02  0.43629793564E+03  0.12500000000E+03 0.  0.
         25    1    1    2    0    0 -0.23090667493E+03  0.34762472948E+03  0.25474356526E+03  0.50465842816E+03  0.12500000000E+03 0.  0.
</event>
<event>
 4    0  0.2233588E-002  0.2175745E+03  0.7546771E-02  0.1135704E+00
         21   -1    0    0  502  501  0.00000000000E+00  0.00000000000E+00  0.14323261475E+03  0.14323261475E+03  0.00000000000E+00 0. -1.
         21   -1    0    0  501  502 -0.00000000000E+00 -0.00000000000E+00 -0.33050207901E+03  0.33050207901E+03  0.00000000000E+00 0. -1.
         25    1    1    2    0    0  0.11859650387E+03  0.21101005304E+02  0.49156960226E+02  0.18042114592E+03  0.12500000000E+03 0.  0.
         25    1    1    2    0    0 -0.11859650387E+03 -0.21101005304E+02 -0.23642642449E+03  0.29331354785E+03  0.12500000000E+03 0.  0.
</event>
<event>
 4    0  0.2233588E-002  0.1799582E+03  0.7546771E-02  0.1167844E+00
         21   -1    0    0  502  501  0.00000000000E+00  0.00000000000E+00  0.19814077791E+03  0.19814077791E+03  0.00000000000E+00 0. -1.
         21   -1    0    0  501  502 -0.00000000000E+00 -0.00000000000E+00 -0.16344416034E+03  0.16344416034E+03  0.00000000000E+00 0. -1.
         25    1    1    2    0    0  0.94760824128E+02 -0.87346164696E+02  0.29692941956E+02  0.18197702349E+03  0.12500000000E+03 0.  0.
         25    1    1    2    0    0 -0.94760824128E+02  0.87346164696E+02  0.50036756169E+01  0.17960791477E+03  0.12500000000E+03 0.  0.
</event>
<event>
 4    0  0.2233588E-002  0.2228614E+03  0.7546771E-02  0.1131768E+00
         21   -1    0    0  502  501  0.00000000000E+00  0.00000000000E+00  0.26446218615E+03  0.26446218615E+03  0.00000000000E+00 0.  1.
         21   -1    0    0  501  502 -0.00000000000E+00 -0.00000000000E+00 -0.18780450622E+03  0.18780450622E+03  0.00000000000E+00 0.  1.
         25    1    1    2    0    0  0.36636462913E+02 -0.15629263489E+03  0.13061787283E+03  0.24177602618E+03  0.12500000000E+03 0.  0.
         25    1    1    2    0    0 -0.36636462913E+02  0.15629263489E+03 -0.53960192899E+02  0.21049066619E+03  0.12500000000E+03 0.  0.
</event>
<event>
 4    0  0.2233588E-002  0.2094554E+03  0.7546771E-02  0.1141998E+00
         21   -1    0    0  502  501  0.00000000000E+00  0.00000000000E+00  0.24935697828E+02  0.24935697828E+02  0.00000000000E+00 0.  1.
         21   -1    0    0  501  502 -0.00000000000E+00 -0.00000000000E+00 -0.17593883668E+04  0.17593883668E+04  0.00000000000E+00 0.  1.
         25    1    1    2    0    0 -0.62469601503E+01  0.16407465420E+03 -0.10200362428E+04  0.10407009433E+04  0.12500000000E+03 0.  0.
         25    1    1    2    0    0  0.62469601503E+01 -0.16407465420E+03 -0.71441642617E+03  0.74362312137E+03  0.12500000000E+03 0.  0.
</event>
<event>
 4    0  0.2233588E-002  0.2389645E+03  0.7546771E-02  0.1120485E+00
         21   -1    0    0  502  501  0.00000000000E+00  0.00000000000E+00  0.23136434456E+04  0.23136434456E+04  0.00000000000E+00 0. -1.
         21   -1    0    0  501  502 -0.00000000000E+00 -0.00000000000E+00 -0.24681425611E+02  0.24681425611E+02  0.00000000000E+00 0. -1.
         25    1    1    2    0    0  0.10522754012E+03  0.38069125695E+02  0.31191679850E+03  0.35417394416E+03  0.12500000000E+03 0.  0.
         25    1    1    2    0    0 -0.10522754012E+03 -0.38069125695E+02  0.19770452214E+04  0.19841509270E+04  0.12500000000E+03 0.  0.
</event>
<event>
 4    0  0.2233588E-002  0.3342467E+03  0.7546771E-02  0.1069273E+00
         21   -1    0    0  502  501  0.00000000000E+00  0.00000000000E+00  0.25531708387E+03  0.25531708387E+03  0.00000000000E+00 0.  1.
         21   -1    0    0  501  502 -0.00000000000E+00 -0.00000000000E+00 -0.43757681161E+03  0.43757681161E+03  0.00000000000E+00 0.  1.
         25    1    1    2    0    0 -0.25587064946E+03  0.27673059575E+01  0.90238199242E+02  0.29873965227E+03  0.12500000000E+03 0.  0.
         25    1    1    2    0    0  0.25587064946E+03 -0.27673059575E+01 -0.27249792698E+03  0.39415424322E+03  0.12500000000E+03 0.  0.
</event>
<event>
 4    0  0.2233588E-002  0.2250160E+03  0.7546771E-02  0.1130198E+00
         21   -1    0    0  502  501  0.00000000000E+00  0.00000000000E+00  0.28875512850E+02  0.28875512850E+02  0.00000000000E+00 0.  1.
         21   -1    0    0  501  502 -0.00000000000E+00 -0.00000000000E+00 -0.17534652472E+04  0.17534652472E+04  0.00000000000E+00 0.  1.
         25    1    1    2    0    0 -0.16899727796E+03  0.43068057547E+01 -0.54475019785E+03  0.58391472544E+03  0.12500000000E+03 0.  0.
         25    1    1    2    0    0  0.16899727796E+03 -0.43068057547E+01 -0.11798395365E+04  0.11984260346E+04  0.12500000000E+03 0.  0.
</event>
<event>
 4    0  0.2233588E-002  0.2518413E+03  0.7546771E-02  0.1112147E+00
         21   -1    0    0  502  501  0.00000000000E+00  0.00000000000E+00  0.51683090610E+03  0.51683090610E+03  0.00000000000E+00 0.  1.
         21   -1    0    0  501  502 -0.00000000000E+00 -0.00000000000E+00 -0.12271719957E+03  0.12271719957E+03  0.00000000000E+00 0.  1.
         25    1    1    2    0    0 -0.17890399165E+03 -0.49195276405E+02  0.50225719759E+02  0.22929116070E+03  0.12500000000E+03 0.  0.
         25    1    1    2    0    0  0.17890399165E+03  0.49195276405E+02  0.34388798677E+03  0.41025694496E+03  0.12500000000E+03 0.  0.
</event>
<event>
 4    0  0.2233588E-002  0.1761796E+03  0.7546771E-02  0.1171552E+00
         21   -1    0    0  502  501  0.00000000000E+00  0.00000000000E+00  0.46628475506E+02  0.46628475506E+02  0.00000000000E+00 0.  1.
         21   -1    0    0  501  502 -0.00000000000E+00 -0.00000000000E+00 -0.66567196083E+03  0.66567196083E+03  0.00000000000E+00 0.  1.
         25    1    1    2    0    0 -0.66360294492E+02 -0.15154031099E+02 -0.51941848377E+03  0.53856651830E+03  0.12500000000E+03 0.  0.
         25    1    1    2    0    0  0.66360294492E+02  0.15154031099E+02 -0.99625001548E+02  0.17373391804E+03  0.12500000000E+03 0.  0.
</event>
<event>
 4    0  0.2233588E-002  0.1425227E+03  0.7546771E-02  0.1209974E+00
         21   -1    0    0  502  501  0.00000000000E+00  0.00000000000E+00  0.10579227190E+03  0.10579227190E+03  0.00000000000E+00 0.  1.
         21   -1    0    0  501  502 -0.00000000000E+00 -0.00000000000E+00 -0.19200566590E+03  0.19200566590E+03  0.00000000000E+00 0.  1.
         25    1    1    2    0    0 -0.34899085788E+02  0.31250763600E+02  0.90587221945E+01  0.13379692396E+03  0.12500000000E+03 0.  0.
         25    1    1    2    0    0  0.34899085788E+02 -0.31250763600E+02 -0.95272116199E+02  0.16400101384E+03  0.12500000000E+03 0.  0.
</event>
<event>
 4    0  0.2233588E-002  0.2142847E+03  0.7546771E-02  0.1138217E+00
         21   -1    0    0  502  501  0.00000000000E+00  0.00000000000E+00  0.15320253443E+03  0.15320253443E+03  0.00000000000E+00 0. -1.
         21   -1    0    0  501  502 -0.00000000000E+00 -0.00000000000E+00 -0.29972035380E+03  0.29972035380E+03  0.00000000000E+00 0. -1.
         25    1    1    2    0    0 -0.63177821649E+02  0.16217536070E+03 -0.72418049080E+02  0.22618943079E+03  0.12500000000E+03 0.  0.
         25    1    1    2    0    0  0.63177821649E+02 -0.16217536070E+03 -0.74099770288E+02  0.22673345744E+03  0.12500000000E+03 0.  0.
</event>
<event>
 4    0  0.2233588E-002  0.1814339E+03  0.7546771E-02  0.1166422E+00
         21   -1    0    0  502  501  0.00000000000E+00  0.00000000000E+00  0.13678649908E+04  0.13678649908E+04  0.00000000000E+00 0.  1.
         21   -1    0    0  501  502 -0.00000000000E+00 -0.00000000000E+00 -0.24065429661E+02  0.24065429661E+02  0.00000000000E+00 0.  1.
         25    1    1    2    0    0  0.96496265962E+02 -0.71107917507E+02  0.87937261752E+03  0.89626394869E+03  0.12500000000E+03 0.  0.
         25    1    1    2    0    0 -0.96496265962E+02  0.71107917507E+02  0.46442694357E+03  0.49566647172E+03  0.12500000000E+03 0.  0.
</event>
<event>
 4    0  0.2233588E-002  0.1749439E+03  0.7546771E-02  0.1172788E+00
         21   -1    0    0  502  501  0.00000000000E+00  0.00000000000E+00  0.11857153855E+03  0.11857153855E+03  0.00000000000E+00 0.  1.
         21   -1    0    0  501  502 -0.00000000000E+00 -0.00000000000E+00 -0.25811736698E+03  0.25811736698E+03  0.00000000000E+00 0.  1.
         25    1    1    2    0    0  0.53937435662E+02 -0.61749379667E+02 -0.16760811169E+03  0.22458787135E+03  0.12500000000E+03 0.  0.
         25    1    1    2    0    0 -0.53937435662E+02  0.61749379667E+02  0.28062283252E+02  0.15210103417E+03  0.12500000000E+03 0.  0.
</event>
<event>
 4    0  0.2233588E-002  0.1791819E+03  0.7546771E-02  0.1168597E+00
         21   -1    0    0  502  501  0.00000000000E+00  0.00000000000E+00  0.13395841473E+03  0.13395841473E+03  0.00000000000E+00 0.  1.
         21   -1    0    0  501  502 -0.00000000000E+00 -0.00000000000E+00 -0.23967241394E+03  0.23967241394E+03  0.00000000000E+00 0.  1.
         25    1    1    2    0    0 -0.88987372949E+02  0.75258824145E+02  0.32742674773E+01  0.17093380000E+03  0.12500000000E+03 0.  0.
         25    1    1    2    0    0  0.88987372949E+02 -0.75258824145E+02 -0.10898826668E+03  0.20269702867E+03  0.12500000000E+03 0.  0.
</event>
<event>
 4    0  0.2233588E-002  0.1947186E+03  0.7546771E-02  0.1154273E+00
         21   -1    0    0  502  501  0.00000000000E+00  0.00000000000E+00  0.11890496418E+02  0.11890496418E+02  0.00000000000E+00 0.  1.
         21   -1    0    0  501  502 -0.00000000000E+00 -0.00000000000E+00 -0.31887075033E+04  0.31887075033E+04  0.00000000000E+00 0.  1.
         25    1    1    2    0    0 -0.29252158315E+02 -0.14483326495E+03 -0.17642833202E+04  0.17748670365E+04  0.12500000000E+03 0.  0.
         25    1    1    2    0    0  0.29252158315E+02  0.14483326495E+03 -0.14125336868E+04  0.14257309633E+04  0.12500000000E+03 0.  0.
</event>
<event>
 4    0  0.2233588E-002  0.2073581E+03  0.7546771E-02  0.1143675E+00
         21   -1    0    0  502  501  0.00000000000E+00  0.00000000000E+00  0.18708556850E+03  0.18708556850E+03  0.00000000000E+00 0. -1.
         21   -1    0    0  501  502 -0.00000000000E+00 -0.00000000000E+00 -0.22982744035E+03  0.22982744035E+03  0.00000000000E+00 0. -1.
         25    1    1    2    0    0 -0.92256034264E+02  0.49857600085E+01  0.11660168053E+03  0.19431156827E+03  0.12500000000E+03 0.  0.
         25    1    1    2    0    0  0.92256034264E+02 -0.49857600085E+01 -0.15934355239E+03  0.22260144058E+03  0.12500000000E+03 0.  0.
</event>
<event>
 4    0  0.2233588E-002  0.3200612E+03  0.7546771E-02  0.1075621E+00
         21   -1    0    0  502  501  0.00000000000E+00  0.00000000000E+00  0.62702156373E+03  0.62702156373E+03  0.00000000000E+00 0.  1.
         21   -1    0    0  501  502 -0.00000000000E+00 -0.00000000000E+00 -0.16337422537E+03  0.16337422537E+03  0.00000000000E+00 0.  1.
         25    1    1    2    0    0 -0.40626236223E+01 -0.23807635955E+03  0.44610762845E+03  0.52089718184E+03  0.12500000000E+03 0.  0.
         25    1    1    2    0    0  0.40626236223E+01  0.23807635955E+03  0.17539709901E+02  0.26949860726E+03  0.12500000000E+03 0.  0.
</event>
<event>
 4    0  0.2233588E-002  0.2068930E+03  0.7546771E-02  0.1144050E+00
         21   -1    0    0  502  501  0.00000000000E+00  0.00000000000E+00  0.13371715000E+04  0.13371715000E+04  0.00000000000E+00 0. -1.
         21   -1    0    0  501  502 -0.00000000000E+00 -0.00000000000E+00 -0.32011395349E+02  0.32011395349E+02  0.00000000000E+00 0. -1.
         25    1    1    2    0    0  0.13351084849E+03  0.49048777543E+02  0.92840935481E+03  0.94752301257E+03  0.12500000000E+03 0.  0.
         25    1    1    2    0    0 -0.13351084849E+03 -0.49048777543E+02  0.37675074982E+03  0.42165988277E+03  0.12500000000E+03 0.  0.
</event>
<event>
 4    0  0.2233588E-002  0.2318313E+03  0.7546771E-02  0.1125357E+00
         21   -1    0    0  502  501  0.00000000000E+00  0.00000000000E+00  0.51372489441E+03  0.51372489441E+03  0.00000000000E+00 0. -1.
         21   -1    0    0  501  502 -0.00000000000E+00 -0.00000000000E+00 -0.10461970866E+03  0.10461970866E+03  0.00000000000E+00 0. -1.
         25    1    1    2    0    0 -0.29708179378E+02 -0.16887305891E+03  0.80018481164E+02  0.22677884221E+03  0.12500000000E+03 0.  0.
         25    1    1    2    0    0  0.29708179378E+02  0.16887305891E+03  0.32908670459E+03  0.39156576086E+03  0.12500000000E+03 0.  0.
</event>
<event>
 4    0  0.2233588E-002  0.3369474E+03  0.7546771E-02  0.1068104E+00
         21   -1    0    0  502  501  0.00000000000E+00  0.00000000000E+00  0.39626356533E+03  0.39626356533E+03  0.00000000000E+00 0.  1.
         21   -1    0    0  501  502 -0.00000000000E+00 -0.00000000000E+00 -0.28651015627E+03  0.28651015627E+03  0.00000000000E+00 0.  1.
         25    1    1    2    0    0 -0.11608039213E+03 -0.28591057419E+03  0.10741571755E+03  0.34983231733E+03  0.12500000000E+03 0.  0.
         25    1    1    2    0    0  0.11608039213E+03  0.28591057419E+03  0.23376915047E+01  0.33294140427E+03  0.12500000000E+03 0.  0.
</event>
<event>
 4    0  0.2233588E-002  0.2141681E+03  0.7546771E-02  0.1138307E+00
         21   -1    0    0  502  501  0.00000000000E+00  0.00000000000E+00  0.88611355784E+02  0.88611355784E+02  0.00000000000E+00 0.  1.
         21   -1    0    0  501  502 -0.00000000000E+00 -0.00000000000E+00 -0.51763088642E+03  0.51763088642E+03  0.00000000000E+00 0.  1.
         25    1    1    2    0    0 -0.35818754754E+02 -0.14702492751E+03 -0.33579774463E+03  0.38895300205E+03  0.12500000000E+03 0.  0.
         25    1    1    2    0    0  0.35818754754E+02  0.14702492751E+03 -0.93221786004E+02  0.21728924016E+03  0.12500000000E+03 0.  0.
</event>
<event>
 4    0  0.2233588E-002  0.3508569E+03  0.7546771E-02  0.1062264E+00
         21   -1    0    0  502  501  0.00000000000E+00  0.00000000000E+00  0.17073494408E+04  0.17073494408E+04  0.00000000000E+00 0.  1.
         21   -1    0    0  501  502 -0.00000000000E+00 -0.00000000000E+00 -0.72100379131E+02  0.72100379131E+02  0.00000000000E+00 0.  1.
         25    1    1    2    0    0  0.87048847060E+02  0.56426996771E+02  0.16062494884E+04  0.16144422959E+04  0.12500000000E+03 0.  0.
         25    1    1    2    0    0 -0.87048847060E+02 -0.56426996771E+02  0.28999573252E+02  0.16500752403E+03  0.12500000000E+03 0.  0.
</event>
<event>
 4    0  0.2233588E-002  0.6974424E+03  0.7546771E-02  0.9721616E-01
         21   -1    0    0  502  501  0.00000000000E+00  0.00000000000E+00  0.57572361779E+03  0.57572361779E+03  0.00000000000E+00 0. -1.
         21   -1    0    0  501  502 -0.00000000000E+00 -0.00000000000E+00 -0.84489476385E+03  0.84489476385E+03  0.00000000000E+00 0.  1.
         25    1    1    2    0    0 -0.55983176352E+03  0.39599402503E+03 -0.11010043435E+03  0.70566987816E+03  0.12500000000E+03 0.  0.
         25    1    1    2    0    0  0.55983176352E+03 -0.39599402503E+03 -0.15907071171E+03  0.71494850348E+03  0.12500000000E+03 0.  0.
</event>
<event>
 4    0  0.2233588E-002  0.1942921E+03  0.7546771E-02  0.1154646E+00
         21   -1    0    0  502  501  0.00000000000E+00  0.00000000000E+00  0.31368185520E+02  0.31368185520E+02  0.00000000000E+00 0. -1.
         21   -1    0    0  501  502 -0.00000000000E+00 -0.00000000000E+00 -0.12034304534E+04  0.12034304534E+04  0.00000000000E+00 0. -1.
         25    1    1    2    0    0  0.26758287628E+01 -0.50399116365E+02 -0.14141397055E+03  0.19537180466E+03  0.12500000000E+03 0.  0.
         25    1    1    2    0    0 -0.26758287628E+01  0.50399116365E+02 -0.10306482973E+04  0.10394268342E+04  0.12500000000E+03 0.  0.
</event>
<event>
 4    0  0.2233588E-002  0.1934449E+03  0.7546771E-02  0.1155390E+00
         21   -1    0    0  502  501  0.00000000000E+00  0.00000000000E+00  0.35426316295E+02  0.35426316295E+02  0.00000000000E+00 0.  1.
         21   -1    0    0  501  502 -0.00000000000E+00 -0.00000000000E+00 -0.10563031508E+04  0.10563031508E+04  0.00000000000E+00 0.  1.
         25    1    1    2    0    0  0.11942950972E+03 -0.80994338280E+02 -0.42244323146E+03  0.46358038616E+03  0.12500000000E+03 0.  0.
         25    1    1    2    0    0 -0.11942950972E+03  0.80994338280E+02 -0.59843360303E+03  0.62814908092E+03  0.12500000000E+03 0.  0.
</event>
<event>
 4    0  0.2233588E-002  0.2083563E+03  0.7546771E-02  0.1142874E+00
         21   -1    0    0  502  501  0.00000000000E+00  0.00000000000E+00  0.22343387828E+03  0.22343387828E+03  0.00000000000E+00 0. -1.
         21   -1    0    0  501  502 -0.00000000000E+00 -0.00000000000E+00 -0.19429609753E+03  0.19429609753E+03  0.00000000000E+00 0. -1.
         25    1    1    2    0    0  0.13683946347E+03  0.88125073374E+02 -0.21522673833E+02  0.20634750497E+03  0.12500000000E+03 0.  0.
         25    1    1    2    0    0 -0.13683946347E+03 -0.88125073374E+02  0.50660454588E+02  0.21138247084E+03  0.12500000000E+03 0.  0.
</event>
<event>
 4    0  0.2233588E-002  0.2759820E+03  0.7546771E-02  0.1097904E+00
         21   -1    0    0  502  501  0.00000000000E+00  0.00000000000E+00  0.16018195473E+03  0.16018195473E+03  0.00000000000E+00 0.  1.
         21   -1    0    0  501  502 -0.00000000000E+00 -0.00000000000E+00 -0.47549712116E+03  0.47549712116E+03  0.00000000000E+00 0.  1.
         25    1    1    2    0    0 -0.74250603264E+02 -0.20944954449E+03 -0.27931422423E+03  0.37818474272E+03  0.12500000000E+03 0.  0.
         25    1    1    2    0    0  0.74250603264E+02  0.20944954449E+03 -0.36000942204E+02  0.25749433317E+03  0.12500000000E+03 0.  0.
</event>
<event>
 4    0  0.2233588E-002  0.1689855E+03  0.7546771E-02  0.1178910E+00
         21   -1    0    0  502  501  0.00000000000E+00  0.00000000000E+00  0.27115289162E+02  0.27115289162E+02  0.00000000000E+00 0. -1.
         21   -1    0    0  501  502 -0.00000000000E+00 -0.00000000000E+00 -0.10531369355E+04  0.10531369355E+04  0.00000000000E+00 0. -1.
         25    1    1    2    0    0  0.15792324000E+02 -0.26908876950E+01 -0.15316985509E+03  0.19834979930E+03  0.12500000000E+03 0.  0.
         25    1    1    2    0    0 -0.15792324000E+02  0.26908876950E+01 -0.87285179127E+03  0.88190242538E+03  0.12500000000E+03 0.  0.
</event>
<event>
 4    0  0.2233588E-002  0.2651966E+03  0.7546771E-02  0.1104061E+00
         21   -1    0    0  502  501  0.00000000000E+00  0.00000000000E+00  0.96567413300E+02  0.96567413300E+02  0.00000000000E+00 0.  1.
         21   -1    0    0  501  502 -0.00000000000E+00 -0.00000000000E+00 -0.72829175802E+03  0.72829175802E+03  0.00000000000E+00 0.  1.
         25    1    1    2    0    0  0.17422574463E+03 -0.40211598533E+02 -0.55034283033E+03  0.59200828849E+03  0.12500000000E+03 0.  0.
         25    1    1    2    0    0 -0.17422574463E+03  0.40211598533E+02 -0.81381514393E+02  0.23285088283E+03  0.12500000000E+03 0.  0.
</event>
<event>
 4    0  0.2233588E-002  0.1959372E+03  0.7546771E-02  0.1153213E+00
         21   -1    0    0  502  501  0.00000000000E+00  0.00000000000E+00  0.26194767292E+02  0.26194767292E+02  0.00000000000E+00 0. -1.
         21   -1    0    0  501  502 -0.00000000000E+00 -0.00000000000E+00 -0.14656134883E+04  0.14656134883E+04  0.00000000000E+00 0. -1.
         25    1    1    2    0    0 -0.97530277470E+02  0.11129522131E+03 -0.83184186653E+03  0.85409874852E+03  0.12500000000E+03 0.  0.
         25    1    1    2    0    0  0.97530277470E+02 -0.11129522131E+03 -0.60757685444E+03  0.63770950703E+03  0.12500000000E+03 0.  0.
</event>
<event>
 4    0  0.2233588E-002  0.1700842E+03  0.7546771E-02  0.1177760E+00
         21   -1    0    0  502  501  0.00000000000E+00  0.00000000000E+00  0.14712136941E+03  0.14712136941E+03  0.00000000000E+00 0. -1.
         21   -1    0    0  501  502 -0.00000000000E+00 -0.00000000000E+00 -0.19663105867E+03  0.19663105867E+03  0.00000000000E+00 0. -1.
         25    1    1    2    0    0  0.86026623216E+01  0.55359290813E+02 -0.12663860630E+03  0.18655024386E+03  0.12500000000E+03 0.  0.
         25    1    1    2    0    0 -0.86026623216E+01 -0.55359290813E+02  0.77128917047E+02  0.15720218422E+03  0.12500000000E+03 0.  0.
</event>
<event>
 4    0  0.2233588E-002  0.3493014E+03  0.7546771E-02  0.1062902E+00
         21   -1    0    0  502  501  0.00000000000E+00  0.00000000000E+00  0.60400376314E+03  0.60400376314E+03  0.00000000000E+00 0. -1.
         21   -1    0    0  501  502 -0.00000000000E+00 -0.00000000000E+00 -0.20200445737E+03  0.20200445737E+03  0.00000000000E+00 0. -1.
         25    1    1    2    0    0 -0.18636337577E+03  0.22576753242E+03  0.36693090228E+03  0.48576287792E+03  0.12500000000E+03 0.  0.
         25    1    1    2    0    0  0.18636337577E+03 -0.22576753242E+03  0.35068403493E+02  0.32024534258E+03  0.12500000000E+03 0.  0.
</event>
<event>
 4    0  0.2233588E-002  0.2012824E+03  0.7546771E-02  0.1148662E+00
         21   -1    0    0  502  501  0.00000000000E+00  0.00000000000E+00  0.60094286131E+02  0.60094286131E+02  0.00000000000E+00 0. -1.
         21   -1    0    0  501  502 -0.00000000000E+00 -0.00000000000E+00 -0.67418372235E+03  0.67418372235E+03  0.00000000000E+00 0. -1.
         25    1    1    2    0    0 -0.82483667362E+01 -0.55453497638E+02 -0.57602418277E+03  0.59209119659E+03  0.12500000000E+03 0.  0.
         25    1    1    2    0    0  0.82483667362E+01  0.55453497638E+02 -0.38065253454E+02  0.14218681189E+03  0.12500000000E+03 0.  0.
</event>
<event>
 4    0  0.2233588E-002  0.3990063E+03  0.7546771E-02  0.1044124E+00
         21   -1    0    0  502  501  0.00000000000E+00  0.00000000000E+00  0.11418928361E+04  0.11418928361E+04  0.00000000000E+00 0. -1.
         21   -1    0    0  501  502 -0.00000000000E+00 -0.00000000000E+00 -0.13942290197E+03  0.13942290197E+03  0.00000000000E+00 0. -1.
         25    1    1    2    0    0 -0.18093626099E+03  0.75410719290E+02 -0.19436875505E+02  0.23329701939E+03  0.12500000000E+03 0.  0.
         25    1    1    2    0    0  0.18093626099E+03 -0.75410719290E+02  0.10219068097E+04  0.10480187187E+04  0.12500000000E+03 0.  0.
</event>
<event>
 4    0  0.2233588E-002  0.2841820E+03  0.7546771E-02  0.1093426E+00
         21   -1    0    0  502  501  0.00000000000E+00  0.00000000000E+00  0.37809713709E+03  0.37809713709E+03  0.00000000000E+00 0. -1.
         21   -1    0    0  501  502 -0.00000000000E+00 -0.00000000000E+00 -0.21359438464E+03  0.21359438464E+03  0.00000000000E+00 0. -1.
         25    1    1    2    0    0 -0.38044838237E+02 -0.22442021985E+02  0.34393113944E+03  0.36859826742E+03  0.12500000000E+03 0.  0.
         25    1    1    2    0    0  0.38044838237E+02  0.22442021985E+02 -0.17942838699E+03  0.22309325432E+03  0.12500000000E+03 0.  0.
</event>
<event>
 4    0  0.2233588E-002  0.3579045E+03  0.7546771E-02  0.1059417E+00
         21   -1    0    0  502  501  0.00000000000E+00  0.00000000000E+00  0.21843563257E+03  0.21843563257E+03  0.00000000000E+00 0.  1.
         21   -1    0    0  501  502 -0.00000000000E+00 -0.00000000000E+00 -0.58642284955E+03  0.58642284955E+03  0.00000000000E+00 0.  1.
         25    1    1    2    0    0  0.87332409204E+02 -0.79145941505E+02  0.16903988241E+03  0.24101973280E+03  0.12500000000E+03 0.  0.
         25    1    1    2    0    0 -0.87332409204E+02  0.79145941505E+02 -0.53702709939E+03  0.56383874932E+03  0.12500000000E+03 0.  0.
</event>
<event>
 4    0  0.2233588E-002  0.2599115E+03  0.7546771E-02  0.1107196E+00
         21   -1    0    0  502  501  0.00000000000E+00  0.00000000000E+00  0.71833024189E+03  0.71833024189E+03  0.00000000000E+00 0.  1.
         21   -1    0    0  501  502 -0.00000000000E+00 -0.00000000000E+00 -0.94043102623E+02  0.94043102623E+02  0.00000000000E+00 0.  1.
         25    1    1    2    0    0  0.20438493947E+03  0.34824621582E+02  0.16435430988E+03  0.29261458768E+03  0.12500000000E+03 0.  0.
         25    1    1    2    0    0 -0.20438493947E+03 -0.34824621582E+02  0.45993282939E+03  0.51975875683E+03  0.12500000000E+03 0.  0.
</event>
<event>
 4    0  0.2233588E-002  0.2976115E+03  0.7546771E-02  0.1086441E+00
         21   -1    0    0  502  501  0.00000000000E+00  0.00000000000E+00  0.36136972573E+03  0.36136972573E+03  0.00000000000E+00 0. -1.
         21   -1    0    0  501  502 -0.00000000000E+00 -0.00000000000E+00 -0.24510251407E+03  0.24510251407E+03  0.00000000000E+00 0.  1.
         25    1    1    2    0    0 -0.23333996733E+03 -0.13502455756E+03  0.41439300206E+02  0.30003564305E+03  0.12500000000E+03 0.  0.
         25    1    1    2    0    0  0.23333996733E+03  0.13502455756E+03  0.74827911456E+02  0.30643659675E+03  0.12500000000E+03 0.  0.
</event>
<event>
 4    0  0.2233588E-002  0.1889323E+03  0.7546771E-02  0.1159428E+00
         21   -1    0    0  502  501  0.00000000000E+00  0.00000000000E+00  0.24578305891E+03  0.24578305891E+03  0.00000000000E+00 0. -1.
         21   -1    0    0  501  502 -0.00000000000E+00 -0.00000000000E+00 -0.14523142112E+03  0.14523142112E+03  0.00000000000E+00 0. -1.
         25    1    1    2    0    0  0.20145904375E+01 -0.52387866371E+02  0.18646858455E+03  0.23052999835E+03  0.12500000000E+03 0.  0.
         25    1    1    2    0    0 -0.20145904375E+01  0.52387866371E+02 -0.85916946757E+02  0.16048448167E+03  0.12500000000E+03 0.  0.
</event>
<event>
 4    0  0.2233588E-002  0.2290884E+03  0.7546771E-02  0.1127283E+00
         21   -1    0    0  502  501  0.00000000000E+00  0.00000000000E+00  0.10191898775E+03  0.10191898775E+03  0.00000000000E+00 0. -1.
         21   -1    0    0  501  502 -0.00000000000E+00 -0.00000000000E+00 -0.51493334100E+03  0.51493334100E+03  0.00000000000E+00 0. -1.
         25    1    1    2    0    0  0.18787834394E+02  0.19088909276E+03 -0.21734955688E+03  0.31568569549E+03  0.12500000000E+03 0.  0.
         25    1    1    2    0    0 -0.18787834394E+02 -0.19088909276E+03 -0.19566479637E+03  0.30116663327E+03  0.12500000000E+03 0.  0.
</event>
<event>
 4    0  0.2233588E-002  0.2208288E+03  0.7546771E-02  0.1133267E+00
         21   -1    0    0  502  501  0.00000000000E+00  0.00000000000E+00  0.10396953931E+04  0.10396953931E+04  0.00000000000E+00 0.  1.
         21   -1    0    0  501  502 -0.00000000000E+00 -0.00000000000E+00 -0.46903513411E+02  0.46903513411E+02  0.00000000000E+00 0.  1.
         25    1    1    2    0    0  0.17099640209E+03  0.61042051676E+02  0.46389933864E+03  0.51360831184E+03  0.12500000000E+03 0.  0.
         25    1    1    2    0    0 -0.17099640209E+03 -0.61042051676E+02  0.52889254100E+03  0.57299059462E+03  0.12500000000E+03 0.  0.
</event>
<event>
 4    0  0.2233588E-002  0.1865611E+03  0.7546771E-02  0.1161600E+00
         21   -1    0    0  502  501  0.00000000000E+00  0.00000000000E+00  0.12022100737E+04  0.12022100737E+04  0.00000000000E+00 0. -1.
         21   -1    0    0  501  502 -0.00000000000E+00 -0.00000000000E+00 -0.28950871653E+02  0.28950871653E+02  0.00000000000E+00 0. -1.
         25    1    1    2    0    0 -0.55624249239E+02  0.12166780300E+03  0.46844434338E+03  0.50295349113E+03  0.12500000000E+03 0.  0.
         25    1    1    2    0    0  0.55624249239E+02 -0.12166780300E+03  0.70481485862E+03  0.72820745418E+03  0.12500000000E+03 0.  0.
</event>
<event>
 4    0  0.2233588E-002  0.3312739E+03  0.7546771E-02  0.1070575E+00
         21   -1    0    0  502  501  0.00000000000E+00  0.00000000000E+00  0.15184528832E+03  0.15184528832E+03  0.00000000000E+00 0.  1.
         21   -1    0    0  501  502 -0.00000000000E+00 -0.00000000000E+00 -0.72272488477E+03  0.72272488477E+03  0.00000000000E+00 0.  1.
         25    1    1    2    0    0  0.25699259947E+03  0.16569617374E+03 -0.31822686780E+03  0.45868699302E+03  0.12500000000E+03 0.  0.
         25    1    1    2    0    0 -0.25699259947E+03 -0.16569617374E+03 -0.25265272865E+03  0.41588318007E+03  0.12500000000E+03 0.  0.
</event>
<event>
 4    0  0.2233588E-002  0.1498580E+03  0.7546771E-02  0.1200648E+00
         21   -1    0    0  502  501  0.00000000000E+00  0.00000000000E+00  0.13219344786E+03  0.13219344786E+03  0.00000000000E+00 0. -1.
         21   -1    0    0  501  502 -0.00000000000E+00 -0.00000000000E+00 -0.16988291006E+03  0.16988291006E+03  0.00000000000E+00 0. -1.
         25    1    1    2    0    0  0.25170837378E+02  0.67342440348E+02  0.22266615633E+02  0.14590879856E+03  0.12500000000E+03 0.  0.
         25    1    1    2    0    0 -0.25170837378E+02 -0.67342440348E+02 -0.59956077837E+02  0.15616755936E+03  0.12500000000E+03 0.  0.
</event>
<event>
 4    0  0.2233588E-002  0.2155405E+03  0.7546771E-02  0.1137252E+00
         21   -1    0    0  502  501  0.00000000000E+00  0.00000000000E+00  0.13042304133E+03  0.13042304133E+03  0.00000000000E+00 0.  1.
         21   -1    0    0  501  502 -0.00000000000E+00 -0.00000000000E+00 -0.35620766911E+03  0.35620766911E+03  0.00000000000E+00 0.  1.
         25    1    1    2    0    0 -0.11913066868E+03 -0.12036797813E+03 -0.60523337759E+02  0.21901744404E+03  0.12500000000E+03 0.  0.
         25    1    1    2    0    0  0.11913066868E+03  0.12036797813E+03 -0.16526129002E+03  0.26761326641E+03  0.12500000000E+03 0.  0.
</event>
<event>
 4    0  0.2233588E-002  0.1789306E+03  0.7546771E-02  0.1168842E+00
         21   -1    0    0  502  501  0.00000000000E+00  0.00000000000E+00  0.13108994910E+03  0.13108994910E+03  0.00000000000E+00 0. -1.
         21   -1    0    0  501  502 -0.00000000000E+00 -0.00000000000E+00 -0.24423057697E+03  0.24423057697E+03  0.00000000000E+00 0. -1.
         25    1    1    2    0    0 -0.48448870456E+01  0.65069725487E+01 -0.19057469364E+03  0.22805597444E+03  0.12500000000E+03 0.  0.
         25    1    1    2    0    0  0.48448870456E+01 -0.65069725487E+01  0.77434065777E+02  0.14726455162E+03  0.12500000000E+03 0.  0.
</event>
<event>
 4    0  0.2233588E-002  0.3270460E+03  0.7546771E-02  0.1072451E+00
         21   -1    0    0  502  501  0.00000000000E+00  0.00000000000E+00  0.83040586626E+03  0.83040586626E+03  0.00000000000E+00 0.  1.
         21   -1    0    0  501  502 -0.00000000000E+00 -0.00000000000E+00 -0.12880334710E+03  0.12880334710E+03  0.00000000000E+00 0.  1.
         25    1    1    2    0    0 -0.73030839193E+02  0.58597352516E+02 -0.70582274977E+02  0.17138847901E+03  0.12500000000E+03 0.  0.
         25    1    1    2    0    0  0.73030839193E+02 -0.58597352516E+02  0.77218479413E+03  0.78782073435E+03  0.12500000000E+03 0.  0.
</event>
<event>
 4    0  0.2233588E-002  0.1888206E+03  0.7546771E-02  0.1159529E+00
         21   -1    0    0  502  501  0.00000000000E+00  0.00000000000E+00  0.83314826162E+03  0.83314826162E+03  0.00000000000E+00 0. -1.
         21   -1    0    0  501  502 -0.00000000000E+00 -0.00000000000E+00 -0.42793360203E+02  0.42793360203E+02  0.00000000000E+00 0. -1.
         25    1    1    2    0    0 -0.13742112838E+02  0.12663461808E+03  0.25213618022E+03  0.30890585222E+03  0.12500000000E+03 0.  0.
         25    1    1    2    0    0  0.13742112838E+02 -0.12663461808E+03  0.53821872120E+03  0.56703576960E+03  0.12500000000E+03 0.  0.
</event>
<event>
 4    0  0.2233588E-002  0.3779925E+03  0.7546771E-02  0.1051678E+00
         21   -1    0    0  502  501  0.00000000000E+00  0.00000000000E+00  0.66714370024E+03  0.66714370024E+03  0.00000000000E+00 0. -1.
         21   -1    0    0  501  502 -0.00000000000E+00 -0.00000000000E+00 -0.21416425259E+03  0.21416425259E+03  0.00000000000E+00 0. -1.
         25    1    1    2    0    0 -0.23982720039E+01 -0.17486530042E+03  0.58894940895E+03  0.62695297376E+03  0.12500000000E+03 0.  0.
         25    1    1    2    0    0  0.23982720039E+01  0.17486530042E+03 -0.13596996130E+03  0.25435497907E+03  0.12500000000E+03 0.  0.
</event>
<event>
 4    0  0.2233588E-002  0.1689298E+03  0.7546771E-02  0.1178969E+00
         21   -1    0    0  502  501  0.00000000000E+00  0.00000000000E+00  0.10933728845E+03  0.10933728845E+03  0.00000000000E+00 0. -1.
         21   -1    0    0  501  502 -0.00000000000E+00 -0.00000000000E+00 -0.26100227609E+03  0.26100227609E+03  0.00000000000E+00 0. -1.
         25    1    1    2    0    0  0.15293963045E+02 -0.75628541442E+02 -0.16727073466E+03  0.22261644203E+03  0.12500000000E+03 0.  0.
         25    1    1    2    0    0 -0.15293963045E+02  0.75628541442E+02  0.15605747020E+02  0.14772312252E+03  0.12500000000E+03 0.  0.
</event>
<event>
 4    0  0.2233588E-002  0.1993410E+03  0.7546771E-02  0.1150296E+00
         21   -1    0    0  502  501  0.00000000000E+00  0.00000000000E+00  0.20220914839E+03  0.20220914839E+03  0.00000000000E+00 0. -1.
         21   -1    0    0  501  502 -0.00000000000E+00 -0.00000000000E+00 -0.19651348089E+03  0.19651348089E+03  0.00000000000E+00 0. -1.
         25    1    1    2    0    0 -0.13620962012E+03 -0.20465185838E+02 -0.68852851168E+02  0.19833708569E+03  0.12500000000E+03 0.  0.
         25    1    1    2    0    0  0.13620962012E+03  0.20465185838E+02  0.74548518664E+02  0.20038554359E+03  0.12500000000E+03 0.  0.
</event>
<event>
 4    0  0.2233588E-002  0.3239720E+03  0.7546771E-02  0.1073836E+00
         21   -1    0    0  502  501  0.00000000000E+00  0.00000000000E+00  0.26045225709E+03  0.26045225709E+03  0.00000000000E+00 0.  1.
         21   -1    0    0  501  502 -0.00000000000E+00 -0.00000000000E+00 -0.40298317442E+03  0.40298317442E+03  0.00000000000E+00 0.  1.
         25    1    1    2    0    0  0.12249428683E+03 -0.19747832490E+03  0.12119213180E+03  0.29037057688E+03  0.12500000000E+03 0.  0.
         25    1    1    2    0    0 -0.12249428683E+03  0.19747832490E+03 -0.26372304914E+03  0.37306485462E+03  0.12500000000E+03 0.  0.
</event>
<event>
 4    0  0.2233588E-002  0.2125746E+03  0.7546771E-02  0.1139543E+00
         21   -1    0    0  502  501  0.00000000000E+00  0.00000000000E+00  0.97860907511E+02  0.97860907511E+02  0.00000000000E+00 0. -1.
         21   -1    0    0  501  502 -0.00000000000E+00 -0.00000000000E+00 -0.46175686446E+03  0.46175686446E+03  0.00000000000E+00 0. -1.
         25    1    1    2    0    0  0.89778359265E+02 -0.10872255283E+03 -0.31146808540E+03  0.36403037718E+03  0.12500000000E+03 0.  0.
         25    1    1    2    0    0 -0.89778359265E+02  0.10872255283E+03 -0.52427871541E+02  0.19558739479E+03  0.12500000000E+03 0.  0.
</event>
<event>
 4    0  0.2233588E-002  0.1938363E+03  0.7546771E-02  0.1155046E+00
         21   -1    0    0  502  501  0.00000000000E+00  0.00000000000E+00  0.49433680641E+02  0.49433680641E+02  0.00000000000E+00 0.  1.
         21   -1    0    0  501  502 -0.00000000000E+00 -0.00000000000E+00 -0.76005907841E+03  0.76005907841E+03  0.00000000000E+00 0.  1.
         25    1    1    2    0    0  0.13908674268E+03  0.34758198253E+02 -0.27734400850E+03  0.33630039159E+03  0.12500000000E+03 0.  0.
         25    1    1    2    0    0 -0.13908674268E+03 -0.34758198253E+02 -0.43328138927E+03  0.47319236746E+03  0.12500000000E+03 0.  0.
</event>
<event>
 4    0  0.2233588E-002  0.2428740E+03  0.7546771E-02  0.1117893E+00
         21   -1    0    0  502  501  0.00000000000E+00  0.00000000000E+00  0.63402921951E+02  0.63402921951E+02  0.00000000000E+00 0.  1.
         21   -1    0    0  501  502 -0.00000000000E+00 -0.00000000000E+00 -0.93036357797E+03  0.93036357797E+03  0.00000000000E+00 0.  1.
         25    1    1    2    0    0 -0.29036901849E+02 -0.44298324991E+02 -0.21470274750E+02  0.13744619298E+03  0.12500000000E+03 0.  0.
         25    1    1    2    0    0  0.29036901849E+02  0.44298324991E+02 -0.84549038127E+03  0.85632030694E+03  0.12500000000E+03 0.  0.
</event>
<event>
 4    0  0.2233588E-002  0.3110619E+03  0.7546771E-02  0.1079838E+00
         21   -1    0    0  502  501  0.00000000000E+00  0.00000000000E+00  0.36057815840E+03  0.36057815840E+03  0.00000000000E+00 0. -1.
         21   -1    0    0  501  502 -0.00000000000E+00 -0.00000000000E+00 -0.26834547036E+03  0.26834547036E+03  0.00000000000E+00 0. -1.
         25    1    1    2    0    0 -0.21375507621E+03 -0.11776059752E+03  0.19460858728E+03  0.33623844691E+03  0.12500000000E+03 0.  0.
         25    1    1    2    0    0  0.21375507621E+03  0.11776059752E+03 -0.10237589924E+03  0.29268518186E+03  0.12500000000E+03 0.  0.
</event>
<event>
 4    0  0.2233588E-002  0.2216650E+03  0.7546771E-02  0.1132648E+00
         21   -1    0    0  502  501  0.00000000000E+00  0.00000000000E+00  0.39083549449E+02  0.39083549449E+02  0.00000000000E+00 0. -1.
         21   -1    0    0  501  502 -0.00000000000E+00 -0.00000000000E+00 -0.12571876625E+04  0.12571876625E+04  0.00000000000E+00 0. -1.
         25    1    1    2    0    0  0.18037808280E+03  0.30878785039E+02 -0.59577978807E+03  0.63566367522E+03  0.12500000000E+03 0.  0.
         25    1    1    2    0    0 -0.18037808280E+03 -0.30878785039E+02 -0.62232432494E+03  0.66060753669E+03  0.12500000000E+03 0.  0.
</event>
<event>
 4    0  0.2233588E-002  0.2136406E+03  0.7546771E-02  0.1138715E+00
         21   -1    0    0  502  501  0.00000000000E+00  0.00000000000E+00  0.11782805068E+03  0.11782805068E+03  0.00000000000E+00 0. -1.
         21   -1    0    0  501  502 -0.00000000000E+00 -0.00000000000E+00 -0.38736368120E+03  0.38736368120E+03  0.00000000000E+00 0. -1.
         25    1    1    2    0    0  0.65580018791E+02 -0.10768925522E+03 -0.27526044123E+03  0.32755308739E+03  0.12500000000E+03 0.  0.
         25    1    1    2    0    0 -0.65580018791E+02  0.10768925522E+03  0.57248107070E+01  0.17763864448E+03  0.12500000000E+03 0.  0.
</event>
<event>
 4    0  0.2233588E-002  0.4190224E+03  0.7546771E-02  0.1037385E+00
         21   -1    0    0  502  501  0.00000000000E+00  0.00000000000E+00  0.11621983712E+03  0.11621983712E+03  0.00000000000E+00 0.  1.
         21   -1    0    0  501  502 -0.00000000000E+00 -0.00000000000E+00 -0.15107552938E+04  0.15107552938E+04  0.00000000000E+00 0.  1.
         25    1    1    2    0    0 -0.15868325401E+03  0.28014020280E+03 -0.11578973075E+04  0.12083087697E+04  0.12500000000E+03 0.  0.
         25    1    1    2    0    0  0.15868325401E+03 -0.28014020280E+03 -0.23663814917E+03  0.41866636117E+03  0.12500000000E+03 0.  0.
</event>
<event>
 4    0  0.2233588E-002  0.2390251E+03  0.7546771E-02  0.1120444E+00
         21   -1    0    0  502  501  0.00000000000E+00  0.00000000000E+00  0.60423345877E+03  0.60423345877E+03  0.00000000000E+00 0.  1.
         21   -1    0    0  501  502 -0.00000000000E+00 -0.00000000000E+00 -0.94554487766E+02  0.94554487766E+02  0.00000000000E+00 0.  1.
         25    1    1    2    0    0  0.69308505650E+02 -0.18872820616E+03  0.30301018478E+03  0.38452851238E+03  0.12500000000E+03 0.  0.
         25    1    1    2    0    0 -0.69308505650E+02  0.18872820616E+03  0.20666878622E+03  0.31425943415E+03  0.12500000000E+03 0.  0.
</event>
<event>
 4    0  0.2233588E-002  0.1735969E+03  0.7546771E-02  0.1174148E+00
         21   -1    0    0  502  501  0.00000000000E+00  0.00000000000E+00  0.10679904109E+03  0.10679904109E+03  0.00000000000E+00 0. -1.
         21   -1    0    0  501  502 -0.00000000000E+00 -0.00000000000E+00 -0.28217370966E+03  0.28217370966E+03  0.00000000000E+00 0. -1.
         25    1    1    2    0    0 -0.10994753346E+03 -0.40410256127E+02 -0.56209504136E+02  0.18029408551E+03  0.12500000000E+03 0.  0.
         25    1    1    2    0    0  0.10994753346E+03  0.40410256127E+02 -0.11916516443E+03  0.20867866525E+03  0.12500000000E+03 0.  0.
</event>
<event>
 4    0  0.2233588E-002  0.2421589E+03  0.7546771E-02  0.1118363E+00
         21   -1    0    0  502  501  0.00000000000E+00  0.00000000000E+00  0.54780678547E+02  0.54780678547E+02  0.00000000000E+00 0. -1.
         21   -1    0    0  501  502 -0.00000000000E+00 -0.00000000000E+00 -0.10704675641E+04  0.10704675641E+04  0.00000000000E+00 0. -1.
         25    1    1    2    0    0  0.13285362421E+03 -0.84558368148E+02 -0.82141831551E+03  0.84566734131E+03  0.12500000000E+03 0.  0.
         25    1    1    2    0    0 -0.13285362421E+03  0.84558368148E+02 -0.19426857004E+03  0.27958090134E+03  0.12500000000E+03 0.  0.
</event>
<event>
 4    0  0.2233588E-002  0.1710708E+03  0.7546771E-02  0.1176736E+00
         21   -1    0    0  502  501  0.00000000000E+00  0.00000000000E+00  0.11123025624E+03  0.11123025624E+03  0.00000000000E+00 0.  1.
         21   -1    0    0  501  502 -0.00000000000E+00 -0.00000000000E+00 -0.26310484069E+03  0.26310484069E+03  0.00000000000E+00 0.  1.
         25    1    1    2    0    0 -0.83521958181E+02 -0.81635066039E+02 -0.76081376519E+02  0.18722600610E+03  0.12500000000E+03 0.  0.
         25    1    1    2    0    0  0.83521958181E+02  0.81635066039E+02 -0.75793207926E+02  0.18710909084E+03  0.12500000000E+03 0.  0.
</event>
<event>
 4    0  0.2233588E-002  0.2282579E+03  0.7546771E-02  0.1127872E+00
         21   -1    0    0  502  501  0.00000000000E+00  0.00000000000E+00  0.28658237820E+03  0.28658237820E+03  0.00000000000E+00 0. -1.
         21   -1    0    0  501  502 -0.00000000000E+00 -0.00000000000E+00 -0.18180351694E+03  0.18180351694E+03  0.00000000000E+00 0. -1.
         25    1    1    2    0    0  0.18493779228E+02  0.14454869471E+03 -0.74272250641E+02  0.20585847621E+03  0.12500000000E+03 0.  0.
         25    1    1    2    0    0 -0.18493779228E+02 -0.14454869471E+03  0.17905111191E+03  0.26252741893E+03  0.12500000000E+03 0.  0.
</event>
<event>
 4    0  0.2233588E-002  0.2561500E+03  0.7546771E-02  0.1109479E+00
         21   -1    0    0  502  501  0.00000000000E+00  0.00000000000E+00  0.93260136126E+02  0.93260136126E+02  0.00000000000E+00 0. -1.
         21   -1    0    0  501  502 -0.00000000000E+00 -0.00000000000E+00 -0.70354630461E+03  0.70354630461E+03  0.00000000000E+00 0. -1.
         25    1    1    2    0    0  0.12880269911E+03 -0.18068909482E+03 -0.34771369941E+03  0.43100870182E+03  0.12500000000E+03 0.  0.
         25    1    1    2    0    0 -0.12880269911E+03  0.18068909482E+03 -0.26257246908E+03  0.36579773892E+03  0.12500000000E+03 0.  0.
</event>
<event>
 4    0  0.2233588E-002  0.2054066E+03  0.7546771E-02  0.1145256E+00
         21   -1    0    0  502  501  0.00000000000E+00  0.00000000000E+00  0.11989691221E+03  0.11989691221E+03  0.00000000000E+00 0. -1.
         21   -1    0    0  501  502 -0.00000000000E+00 -0.00000000000E+00 -0.35190123461E+03  0.35190123461E+03  0.00000000000E+00 0. -1.
         25    1    1    2    0    0  0.45744136534E+02 -0.15632332347E+03 -0.10898214360E+03  0.23244701571E+03  0.12500000000E+03 0.  0.
         25    1    1    2    0    0 -0.45744136534E+02  0.15632332347E+03 -0.12302217880E+03  0.23935113111E+03  0.12500000000E+03 0.  0.
</event>
<event>
 4    0  0.2233588E-002  0.2108755E+03  0.7546771E-02  0.1140875E+00
         21   -1    0    0  502  501  0.00000000000E+00  0.00000000000E+00  0.12250638765E+03  0.12250638765E+03  0.00000000000E+00 0.  1.
         21   -1    0    0  501  502 -0.00000000000E+00 -0.00000000000E+00 -0.36298907040E+03  0.36298907040E+03  0.00000000000E+00 0.  1.
         25    1    1    2    0    0  0.24023203415E+02  0.86699695360E+02  0.45577222101E+02  0.16061206260E+03  0.12500000000E+03 0.  0.
         25    1    1    2    0    0 -0.24023203415E+02 -0.86699695360E+02 -0.28605990485E+03  0.32488339545E+03  0.12500000000E+03 0.  0.
</event>
<event>
 4    0  0.2233588E-002  0.1800986E+03  0.7546771E-02  0.1167708E+00
         21   -1    0    0  502  501  0.00000000000E+00  0.00000000000E+00  0.26535341495E+03  0.26535341495E+03  0.00000000000E+00 0. -1.
         21   -1    0    0  501  502 -0.00000000000E+00 -0.00000000000E+00 -0.12223514735E+03  0.12223514735E+03  0.00000000000E+00 0. -1.
         25    1    1    2    0    0 -0.76118592673E+02  0.83937343444E+02  0.37512343566E+01  0.16875600592E+03  0.12500000000E+03 0.  0.
         25    1    1    2    0    0  0.76118592673E+02 -0.83937343444E+02  0.13936703324E+03  0.21883255637E+03  0.12500000000E+03 0.  0.
</event>
<event>
 4    0  0.2233588E-002  0.1838813E+03  0.7546771E-02  0.1164099E+00
         21   -1    0    0  502  501  0.00000000000E+00  0.00000000000E+00  0.85589800510E+03  0.85589800510E+03  0.00000000000E+00 0. -1.
         21   -1    0    0  501  502 -0.00000000000E+00 -0.00000000000E+00 -0.39505101707E+02  0.39505101707E+02  0.00000000000E+00 0. -1.
         25    1    1    2    0    0  0.10119393204E+03 -0.89041210131E+02  0.41875003797E+03  0.45732389319E+03  0.12500000000E+03 0.  0.
         25    1    1    2    0    0 -0.10119393204E+03  0.89041210131E+02  0.39764286542E+03  0.43807921362E+03  0.12500000000E+03 0.  0.
</event>
<event>
 4    0  0.2233588E-002  0.2160093E+03  0.7546771E-02  0.1136894E+00
         21   -1    0    0  502  501  0.00000000000E+00  0.00000000000E+00  0.18299116426E+04  0.18299116426E+04  0.00000000000E+00 0. -1.
         21   -1    0    0  501  502 -0.00000000000E+00 -0.00000000000E+00 -0.25498509771E+02  0.25498509771E+02  0.00000000000E+00 0. -1.
         25    1    1    2    0    0 -0.90574128891E+02 -0.12496569312E+03  0.12670052916E+04  0.12824770977E+04  0.12500000000E+03 0.  0.
         25    1    1    2    0    0  0.90574128891E+02  0.12496569312E+03  0.53740784128E+03  0.57293305468E+03  0.12500000000E+03 0.  0.
</event>
<event>
 4    0  0.2233588E-002  0.1742839E+03  0.7546771E-02  0.1173453E+00
         21   -1    0    0  502  501  0.00000000000E+00  0.00000000000E+00  0.17761497601E+03  0.17761497601E+03  0.00000000000E+00 0.  1.
         21   -1    0    0  501  502 -0.00000000000E+00 -0.00000000000E+00 -0.17101535341E+03  0.17101535341E+03  0.00000000000E+00 0.  1.
         25    1    1    2    0    0 -0.54624502883E+02 -0.63903161516E+02 -0.84365412809E+02  0.17265564933E+03  0.12500000000E+03 0.  0.
         25    1    1    2    0    0  0.54624502883E+02  0.63903161516E+02  0.90965035407E+02  0.17597468009E+03  0.12500000000E+03 0.  0.
</event>
<event>
 4    0  0.2233588E-002  0.1920739E+03  0.7546771E-02  0.1156604E+00
         21   -1    0    0  502  501  0.00000000000E+00  0.00000000000E+00  0.54950265761E+03  0.54950265761E+03  0.00000000000E+00 0.  1.
         21   -1    0    0  501  502 -0.00000000000E+00 -0.00000000000E+00 -0.67137798495E+02  0.67137798495E+02  0.00000000000E+00 0.  1.
         25    1    1    2    0    0  0.30344890678E+02 -0.31855119382E+02  0.46437007048E+03  0.48290798645E+03  0.12500000000E+03 0.  0.
         25    1    1    2    0    0 -0.30344890678E+02  0.31855119382E+02  0.17994788634E+02  0.13373246965E+03  0.12500000000E+03 0.  0.
</event>
<event>
 4    0  0.2233588E-002  0.3117539E+03  0.7546771E-02  0.1079508E+00
         21   -1    0    0  502  501  0.00000000000E+00  0.00000000000E+00  0.11234750748E+04  0.11234750748E+04  0.00000000000E+00 0. -1.
         21   -1    0    0  501  502 -0.00000000000E+00 -0.00000000000E+00 -0.86508784829E+02  0.86508784829E+02  0.00000000000E+00 0.  1.
         25    1    1    2    0    0  0.85262999539E+02 -0.27193030737E+03  0.55476744184E+03  0.63608787575E+03  0.12500000000E+03 0.  0.
         25    1    1    2    0    0 -0.85262999539E+02  0.27193030737E+03  0.48219884809E+03  0.57389598383E+03  0.12500000000E+03 0.  0.
</event>
<event>
 4    0  0.2233588E-002  0.3872086E+03  0.7546771E-02  0.1048301E+00
         21   -1    0    0  502  501  0.00000000000E+00  0.00000000000E+00  0.10010643473E+04  0.10010643473E+04  0.00000000000E+00 0. -1.
         21   -1    0    0  501  502 -0.00000000000E+00 -0.00000000000E+00 -0.14977111531E+03  0.14977111531E+03  0.00000000000E+00 0. -1.
         25    1    1    2    0    0 -0.29309640453E+03 -0.21549685218E+03  0.35983672102E+03  0.52673699456E+03  0.12500000000E+03 0.  0.
         25    1    1    2    0    0  0.29309640453E+03  0.21549685218E+03  0.49145651100E+03  0.62409846807E+03  0.12500000000E+03 0.  0.
</event>
<event>
 4    0  0.2233588E-002  0.2319908E+03  0.7546771E-02  0.1125246E+00
         21   -1    0    0  502  501  0.00000000000E+00  0.00000000000E+00  0.24338089211E+04  0.24338089211E+04  0.00000000000E+00 0. -1.
         21   -1    0    0  501  502 -0.00000000000E+00 -0.00000000000E+00 -0.22113377430E+02  0.22113377430E+02  0.00000000000E+00 0. -1.
         25    1    1    2    0    0  0.16469404389E+02  0.13507087855E+03  0.46330881722E+03  0.49879398917E+03  0.12500000000E+03 0.  0.
         25    1    1    2    0    0 -0.16469404389E+02 -0.13507087855E+03  0.19483867264E+04  0.19571283094E+04  0.12500000000E+03 0.  0.
</event>
<event>
 4    0  0.2233588E-002  0.2255908E+03  0.7546771E-02  0.1129782E+00
         21   -1    0    0  502  501  0.00000000000E+00  0.00000000000E+00  0.34737097377E+03  0.34737097377E+03  0.00000000000E+00 0. -1.
         21   -1    0    0  501  502 -0.00000000000E+00 -0.00000000000E+00 -0.14650395179E+03  0.14650395179E+03  0.00000000000E+00 0. -1.
         25    1    1    2    0    0 -0.10924640196E+03  0.14744303820E+03  0.14410885513E+03  0.26470094065E+03  0.12500000000E+03 0.  0.
         25    1    1    2    0    0  0.10924640196E+03 -0.14744303820E+03  0.56758166853E+02  0.22917398491E+03  0.12500000000E+03 0.  0.
</event>
<event>
 4    0  0.2233588E-002  0.1912574E+03  0.7546771E-02  0.1157332E+00
         21   -1    0    0  502  501  0.00000000000E+00  0.00000000000E+00  0.35194377751E+02  0.35194377751E+02  0.00000000000E+00 0.  1.
         21   -1    0    0  501  502 -0.00000000000E+00 -0.00000000000E+00 -0.10393533778E+04  0.10393533778E+04  0.00000000000E+00 0.  1.
         25    1    1    2    0    0 -0.34957716243E+02 -0.29921867643E+01 -0.10756010483E+03  0.16859766089E+03  0.12500000000E+03 0.  0.
         25    1    1    2    0    0  0.34957716243E+02  0.29921867643E+01 -0.89659889525E+03  0.90595009469E+03  0.12500000000E+03 0.  0.
</event>
<event>
 4    0  0.2233588E-002  0.3106223E+03  0.7546771E-02  0.1080048E+00
         21   -1    0    0  502  501  0.00000000000E+00  0.00000000000E+00  0.53983058961E+02  0.53983058961E+02  0.00000000000E+00 0.  1.
         21   -1    0    0  501  502 -0.00000000000E+00 -0.00000000000E+00 -0.17873426585E+04  0.17873426585E+04  0.00000000000E+00 0.  1.
         25    1    1    2    0    0  0.44328470281E+02  0.17720398578E+03 -0.15126191211E+04  0.15287275334E+04  0.12500000000E+03 0.  0.
         25    1    1    2    0    0 -0.44328470281E+02 -0.17720398578E+03 -0.22074047841E+03  0.31259818403E+03  0.12500000000E+03 0.  0.
</event>
<event>
 4    0  0.2233588E-002  0.2562792E+03  0.7546771E-02  0.1109400E+00
         21   -1    0    0  502  501  0.00000000000E+00  0.00000000000E+00  0.14543935842E+03  0.14543935842E+03  0.00000000000E+00 0. -1.
         21   -1    0    0  501  502 -0.00000000000E+00 -0.00000000000E+00 -0.45159046756E+03  0.45159046756E+03  0.00000000000E+00 0. -1.
         25    1    1    2    0    0  0.11346604183E+03 -0.11387201754E+02  0.71129658813E+02  0.18354465227E+03  0.12500000000E+03 0.  0.
         25    1    1    2    0    0 -0.11346604183E+03  0.11387201754E+02 -0.37728076795E+03  0.41348517371E+03  0.12500000000E+03 0.  0.
</event>
<event>
 4    0  0.2233588E-002  0.1615321E+03  0.7546771E-02  0.1186978E+00
         21   -1    0    0  502  501  0.00000000000E+00  0.00000000000E+00  0.25367608145E+03  0.25367608145E+03  0.00000000000E+00 0.  1.
         21   -1    0    0  501  502 -0.00000000000E+00 -0.00000000000E+00 -0.10285803612E+03  0.10285803612E+03  0.00000000000E+00 0.  1.
         25    1    1    2    0    0 -0.74306149602E+02 -0.69546193790E+02  0.63858232437E+02  0.17338094125E+03  0.12500000000E+03 0.  0.
         25    1    1    2    0    0  0.74306149602E+02  0.69546193790E+02  0.86959812893E+02  0.18315317632E+03  0.12500000000E+03 0.  0.
</event>
<event>
 4    0  0.2233588E-002  0.3947046E+03  0.7546771E-02  0.1045629E+00
         21   -1    0    0  502  501  0.00000000000E+00  0.00000000000E+00  0.19374405840E+03  0.19374405840E+03  0.00000000000E+00 0.  1.
         21   -1    0    0  501  502 -0.00000000000E+00 -0.00000000000E+00 -0.80411079528E+03  0.80411079528E+03  0.00000000000E+00 0.  1.
         25    1    1    2    0    0 -0.92414855376E+02 -0.40387607902E+02 -0.76093538705E+03  0.77770131003E+03  0.12500000000E+03 0.  0.
         25    1    1    2    0    0  0.92414855376E+02  0.40387607902E+02  0.15056865017E+03  0.22015354365E+03  0.12500000000E+03 0.  0.
</event>
<event>
 4    0  0.2233588E-002  0.1702931E+03  0.7546771E-02  0.1177543E+00
         21   -1    0    0  502  501  0.00000000000E+00  0.00000000000E+00  0.56211728182E+02  0.56211728182E+02  0.00000000000E+00 0. -1.
         21   -1    0    0  501  502 -0.00000000000E+00 -0.00000000000E+00 -0.51590184717E+03  0.51590184717E+03  0.00000000000E+00 0. -1.
         25    1    1    2    0    0  0.95227440551E+02 -0.47891038060E+02 -0.30520980355E+03  0.34661194605E+03  0.12500000000E+03 0.  0.
         25    1    1    2    0    0 -0.95227440551E+02  0.47891038060E+02 -0.15448031543E+03  0.22550162930E+03  0.12500000000E+03 0.  0.
</event>
<event>
 4    0  0.2233588E-002  0.1717882E+03  0.7546771E-02  0.1175996E+00
         21   -1    0    0  502  501  0.00000000000E+00  0.00000000000E+00  0.39130296070E+02  0.39130296070E+02  0.00000000000E+00 0.  1.
         21   -1    0    0  501  502 -0.00000000000E+00 -0.00000000000E+00 -0.75417706077E+03  0.75417706077E+03  0.00000000000E+00 0.  1.
         25    1    1    2    0    0 -0.10795872278E+03  0.47188413379E+02 -0.35271346200E+03  0.39231826169E+03  0.12500000000E+03 0.  0.
         25    1    1    2    0    0  0.10795872278E+03 -0.47188413379E+02 -0.36233330270E+03  0.40098909515E+03  0.12500000000E+03 0.  0.
</event>
<event>
 4    0  0.2233588E-002  0.1794710E+03  0.7546771E-02  0.1168316E+00
         21   -1    0    0  502  501  0.00000000000E+00  0.00000000000E+00  0.45061665476E+03  0.45061665476E+03  0.00000000000E+00 0. -1.
         21   -1    0    0  501  502 -0.00000000000E+00 -0.00000000000E+00 -0.71479509953E+02  0.71479509953E+02  0.00000000000E+00 0. -1.
         25    1    1    2    0    0  0.49395532363E+02  0.76208170640E+02  0.56756481240E+02  0.16460225409E+03  0.12500000000E+03 0.  0.
         25    1    1    2    0    0 -0.49395532363E+02 -0.76208170640E+02  0.32238066357E+03  0.35749391062E+03  0.12500000000E+03 0.  0.
</event>
<event>
 4    0  0.2233588E-002  0.1817837E+03  0.7546771E-02  0.1166088E+00
         21   -1    0    0  502  501  0.00000000000E+00  0.00000000000E+00  0.61605472104E+03  0.61605472104E+03  0.00000000000E+00 0.  1.
         21   -1    0    0  501  502 -0.00000000000E+00 -0.00000000000E+00 -0.53640198335E+02  0.53640198335E+02  0.00000000000E+00 0.  1.
         25    1    1    2    0    0 -0.57068916910E+02  0.97876936914E+02  0.40591481318E+03  0.43957774240E+03  0.12500000000E+03 0.  0.
         25    1    1    2    0    0  0.57068916910E+02 -0.97876936914E+02  0.15649970953E+03  0.23011717698E+03  0.12500000000E+03 0.  0.
</event>
<event>
 4    0  0.2233588E-002  0.2250742E+03  0.7546771E-02  0.1130156E+00
         21   -1    0    0  502  501  0.00000000000E+00  0.00000000000E+00  0.57887702731E+02  0.57887702731E+02  0.00000000000E+00 0. -1.
         21   -1    0    0  501  502 -0.00000000000E+00 -0.00000000000E+00 -0.87511485200E+03  0.87511485200E+03  0.00000000000E+00 0. -1.
         25    1    1    2    0    0 -0.78354015321E+02  0.63350298986E+02 -0.73554684280E+03  0.75286570519E+03  0.12500000000E+03 0.  0.
         25    1    1    2    0    0  0.78354015321E+02 -0.63350298986E+02 -0.81680306473E+02  0.18013684955E+03  0.12500000000E+03 0.  0.
</event>
<event>
 4    0  0.2233588E-002  0.2904676E+03  0.7546771E-02  0.1090105E+00
         21   -1    0    0  502  501  0.00000000000E+00  0.00000000000E+00  0.48340773641E+03  0.48340773641E+03  0.00000000000E+00 0.  1.
         21   -1    0    0  501  502 -0.00000000000E+00 -0.00000000000E+00 -0.17453466548E+03  0.17453466548E+03  0.00000000000E+00 0.  1.
         25    1    1    2    0    0 -0.73021850525E+02  0.15856112988E+03  0.37600305271E+03  0.43298627947E+03  0.12500000000E+03 0.  0.
         25    1    1    2    0    0  0.73021850525E+02 -0.15856112988E+03 -0.67129981772E+02  0.22495612242E+03  0.12500000000E+03 0.  0.
</event>
<event>
 4    0  0.2233588E-002  0.2125509E+03  0.7546771E-02  0.1139562E+00
         21   -1    0    0  502  501  0.00000000000E+00  0.00000000000E+00  0.25141947481E+02  0.25141947481E+02  0.00000000000E+00 0. -1.
         21   -1    0    0  501  502 -0.00000000000E+00 -0.00000000000E+00 -0.17969119069E+04  0.17969119069E+04  0.00000000000E+00 0.  1.
         25    1    1    2    0    0  0.12071631517E+03  0.11164807989E+03 -0.67092894417E+03  0.70200311297E+03  0.12500000000E+03 0.  0.
         25    1    1    2    0    0 -0.12071631517E+03 -0.11164807989E+03 -0.11008410153E+04  0.11200507414E+04  0.12500000000E+03 0.  0.
</event>
<event>
 4    0  0.2233588E-002  0.1938540E+03  0.7546771E-02  0.1155030E+00
         21   -1    0    0  502  501  0.00000000000E+00  0.00000000000E+00  0.18482302815E+03  0.18482302815E+03  0.00000000000E+00 0. -1.
         21   -1    0    0  501  502 -0.00000000000E+00 -0.00000000000E+00 -0.20332629299E+03  0.20332629299E+03  0.00000000000E+00 0. -1.
         25    1    1    2    0    0  0.68380311340E+02 -0.12851841963E+03  0.18375609756E+02  0.19275765665E+03  0.12500000000E+03 0.  0.
         25    1    1    2    0    0 -0.68380311340E+02  0.12851841963E+03 -0.36878874592E+02  0.19539166449E+03  0.12500000000E+03 0.  0.
</event>
<event>
 4    0  0.2233588E-002  0.2838346E+03  0.7546771E-02  0.1093613E+00
         21   -1    0    0  502  501  0.00000000000E+00  0.00000000000E+00  0.98587001489E+03  0.98587001489E+03  0.00000000000E+00 0. -1.
         21   -1    0    0  501  502 -0.00000000000E+00 -0.00000000000E+00 -0.81716729261E+02  0.81716729261E+02  0.00000000000E+00 0. -1.
         25    1    1    2    0    0 -0.14353619625E+02  0.76872612565E+02 -0.40405626176E+01  0.14750169865E+03  0.12500000000E+03 0.  0.
         25    1    1    2    0    0  0.14353619625E+02 -0.76872612565E+02  0.90819384825E+03  0.92008504550E+03  0.12500000000E+03 0.  0.
</event>
<event>
 4    0  0.2233588E-002  0.2218452E+03  0.7546771E-02  0.1132515E+00
         21   -1    0    0  502  501  0.00000000000E+00  0.00000000000E+00  0.38302091183E+02  0.38302091183E+02  0.00000000000E+00 0. -1.
         21   -1    0    0  501  502 -0.00000000000E+00 -0.00000000000E+00 -0.12849245787E+04  0.12849245787E+04  0.00000000000E+00 0. -1.
         25    1    1    2    0    0  0.60272892988E+02  0.94981425856E+02 -0.10548314140E+04  0.10681519578E+04  0.12500000000E+03 0.  0.
         25    1    1    2    0    0 -0.60272892988E+02 -0.94981425856E+02 -0.19179107350E+03  0.25507471212E+03  0.12500000000E+03 0.  0.
</event>
<event>
 4    0  0.2233588E-002  0.1903308E+03  0.7546771E-02  0.1158163E+00
         21   -1    0    0  502  501  0.00000000000E+00  0.00000000000E+00  0.29527014845E+03  0.29527014845E+03  0.00000000000E+00 0. -1.
         21   -1    0    0  501  502 -0.00000000000E+00 -0.00000000000E+00 -0.12268702429E+03  0.12268702429E+03  0.00000000000E+00 0. -1.
         25    1    1    2    0    0  0.37048208819E+02 -0.11722857868E+03  0.49693879343E+01  0.17539898589E+03  0.12500000000E+03 0.  0.
         25    1    1    2    0    0 -0.37048208819E+02  0.11722857868E+03  0.16761373622E+03  0.24255818685E+03  0.12500000000E+03 0.  0.
</event>
<event>
 4    0  0.2233588E-002  0.2109870E+03  0.7546771E-02  0.1140787E+00
         21   -1    0    0  502  501  0.00000000000E+00  0.00000000000E+00  0.12790088444E+03  0.12790088444E+03  0.00000000000E+00 0. -1.
         21   -1    0    0  501  502 -0.00000000000E+00 -0.00000000000E+00 -0.34804695447E+03  0.34804695447E+03  0.00000000000E+00 0. -1.
         25    1    1    2    0    0 -0.16142913735E+03 -0.29756674340E+02 -0.15982499418E+03  0.26098631155E+03  0.12500000000E+03 0.  0.
         25    1    1    2    0    0  0.16142913735E+03  0.29756674340E+02 -0.60321075848E+02  0.21496152736E+03  0.12500000000E+03 0.  0.
</event>
<event>
 4    0  0.2233588E-002  0.4877231E+03  0.7546771E-02  0.1017034E+00
         21   -1    0    0  502  501  0.00000000000E+00  0.00000000000E+00  0.23431075269E+04  0.23431075269E+04  0.00000000000E+00 0. -1.
         21   -1    0    0  501  502 -0.00000000000E+00 -0.00000000000E+00 -0.10152065100E+03  0.10152065100E+03  0.00000000000E+00 0. -1.
         25    1    1    2    0    0 -0.27273790536E+03 -0.72111291409E+02  0.17419696923E+03  0.35433823877E+03  0.12500000000E+03 0.  0.
         25    1    1    2    0    0  0.27273790536E+03  0.72111291409E+02  0.20673899067E+04  0.20902899391E+04  0.12500000000E+03 0.  0.
</event>
<event>
 4    0  0.2233588E-002  0.3606653E+03  0.7546771E-02  0.1058321E+00
         21   -1    0    0  502  501  0.00000000000E+00  0.00000000000E+00  0.83317753309E+02  0.83317753309E+02  0.00000000000E+00 0. -1.
         21   -1    0    0  501  502 -0.00000000000E+00 -0.00000000000E+00 -0.15612457840E+04  0.15612457840E+04  0.00000000000E+00 0. -1.
         25    1    1    2    0    0  0.26923574354E+03 -0.16633412591E+03 -0.46633150320E+03  0.57727376341E+03  0.12500000000E+03 0.  0.
         25    1    1    2    0    0 -0.26923574354E+03  0.16633412591E+03 -0.10115965275E+04  0.10672897739E+04  0.12500000000E+03 0.  0.
</event>
<event>
 4    0  0.2233588E-002  0.4501639E+03  0.7546771E-02  0.1027673E+00
         21   -1    0    0  502  501  0.00000000000E+00  0.00000000000E+00  0.27501413045E+03  0.27501413045E+03  0.00000000000E+00 0. -1.
         21   -1    0    0  501  502 -0.00000000000E+00 -0.00000000000E+00 -0.73686235689E+03  0.73686235689E+03  0.00000000000E+00 0. -1.
         25    1    1    2    0    0  0.14885904020E+03  0.20578158271E+03 -0.62431641639E+03  0.68549329786E+03  0.12500000000E+03 0.  0.
         25    1    1    2    0    0 -0.14885904020E+03 -0.20578158271E+03  0.16246818995E+03  0.32638318948E+03  0.12500000000E+03 0.  0.
</event>
<event>
 4    0  0.2233588E-002  0.2599372E+03  0.7546771E-02  0.1107181E+00
         21   -1    0    0  502  501  0.00000000000E+00  0.00000000000E+00  0.79119946474E+02  0.79119946474E+02  0.00000000000E+00 0.  1.
         21   -1    0    0  501  502 -0.00000000000E+00 -0.00000000000E+00 -0.85398603687E+03  0.85398603687E+03  0.00000000000E+00 0.  1.
         25    1    1    2    0    0  0.18959665342E+03 -0.81539625007E+02 -0.56095818607E+03  0.61065103615E+03  0.12500000000E+03 0.  0.
         25    1    1    2    0    0 -0.18959665342E+03  0.81539625007E+02 -0.21390790433E+03  0.32245494719E+03  0.12500000000E+03 0.  0.
</event>
<event>
 4    0  0.2233588E-002  0.1820356E+03  0.7546771E-02  0.1165847E+00
         21   -1    0    0  502  501  0.00000000000E+00  0.00000000000E+00  0.47914283967E+02  0.47914283967E+02  0.00000000000E+00 0.  1.
         21   -1    0    0  501  502 -0.00000000000E+00 -0.00000000000E+00 -0.69158800856E+03  0.69158800856E+03  0.00000000000E+00 0.  1.
         25    1    1    2    0    0  0.60628623180E+02 -0.11452525685E+03 -0.26733094885E+03  0.32230839365E+03  0.12500000000E+03 0.  0.
         25    1    1    2    0    0 -0.60628623180E+02  0.11452525685E+03 -0.37634277574E+03  0.41719389887E+03  0.12500000000E+03 0.  0.
</event>
<event>
 4    0  0.2233588E-002  0.2935912E+03  0.7546771E-02  0.1088489E+00
         21   -1    0    0  502  501  0.00000000000E+00  0.00000000000E+00  0.23948754013E+03  0.23948754013E+03  0.00000000000E+00 0. -1.
         21   -1    0    0  501  502 -0.00000000000E+00 -0.00000000000E+00 -0.35991757975E+03  0.35991757975E+03  0.00000000000E+00 0. -1.
         25    1    1    2    0    0 -0.11633764359E+03  0.12825247863E+03 -0.26587240448E+03  0.34102240551E+03  0.12500000000E+03 0.  0.
         25    1    1    2    0    0  0.11633764359E+03 -0.12825247863E+03  0.14544236487E+03  0.25838271438E+03  0.12500000000E+03 0.  0.
</event>
<event>
 4    0  0.2233588E-002  0.1958248E+03  0.7546771E-02  0.1153310E+00
         21   -1    0    0  502  501  0.00000000000E+00  0.00000000000E+00  0.11004966129E+04  0.11004966129E+04  0.00000000000E+00 0. -1.
         21   -1    0    0  501  502 -0.00000000000E+00 -0.00000000000E+00 -0.34845513504E+02  0.34845513504E+02  0.00000000000E+00 0. -1.
         25    1    1    2    0    0  0.47583791966E+02  0.22431074779E+02  0.12332468352E+03  0.18330670456E+03  0.12500000000E+03 0.  0.
         25    1    1    2    0    0 -0.47583791966E+02 -0.22431074779E+02  0.94232641585E+03  0.95203542181E+03  0.12500000000E+03 0.  0.
</event>
<event>
 4    0  0.2233588E-002  0.2092654E+03  0.7546771E-02  0.1142149E+00
         21   -1    0    0  502  501  0.00000000000E+00  0.00000000000E+00  0.10133491312E+03  0.10133491312E+03  0.00000000000E+00 0.  1.
         21   -1    0    0  501  502 -0.00000000000E+00 -0.00000000000E+00 -0.43215123205E+03  0.43215123205E+03  0.00000000000E+00 0.  1.
         25    1    1    2    0    0  0.13401187246E+03  0.81773429304E+02 -0.24104345913E+03  0.31364474312E+03  0.12500000000E+03 0.  0.
         25    1    1    2    0    0 -0.13401187246E+03 -0.81773429304E+02 -0.89772859801E+02  0.21984140205E+03  0.12500000000E+03 0.  0.
</event>
<event>
 4    0  0.2233588E-002  0.2371872E+03  0.7546771E-02  0.1121681E+00
         21   -1    0    0  502  501  0.00000000000E+00  0.00000000000E+00  0.95370756319E+03  0.95370756319E+03  0.00000000000E+00 0. -1.
         21   -1    0    0  501  502 -0.00000000000E+00 -0.00000000000E+00 -0.58988477438E+02  0.58988477438E+02  0.00000000000E+00 0. -1.
         25    1    1    2    0    0  0.17956959577E+03 -0.63192487196E+02  0.58887345897E+03  0.63137586337E+03  0.12500000000E+03 0.  0.
         25    1    1    2    0    0 -0.17956959577E+03  0.63192487196E+02  0.30584562678E+03  0.38132017726E+03  0.12500000000E+03 0.  0.
</event>
<event>
 4    0  0.2233588E-002  0.2323429E+03  0.7546771E-02  0.1125002E+00
         21   -1    0    0  502  501  0.00000000000E+00  0.00000000000E+00  0.16702676916E+04  0.16702676916E+04  0.00000000000E+00 0.  1.
         21   -1    0    0  501  502 -0.00000000000E+00 -0.00000000000E+00 -0.32320092164E+02  0.32320092164E+02  0.00000000000E+00 0.  1.
         25    1    1    2    0    0  0.25332635198E+02 -0.13061224501E+03  0.29237143431E+03  0.34468443039E+03  0.12500000000E+03 0.  0.
         25    1    1    2    0    0 -0.25332635198E+02  0.13061224501E+03  0.13455761651E+04  0.13579033534E+04  0.12500000000E+03 0.  0.
</event>
<event>
 4    0  0.2233588E-002  0.2975642E+03  0.7546771E-02  0.1086465E+00
         21   -1    0    0  502  501  0.00000000000E+00  0.00000000000E+00  0.26420248048E+03  0.26420248048E+03  0.00000000000E+00 0. -1.
         21   -1    0    0  501  502 -0.00000000000E+00 -0.00000000000E+00 -0.33513861108E+03  0.33513861108E+03  0.00000000000E+00 0. -1.
         25    1    1    2    0    0 -0.23667731118E+03 -0.11270464683E+03 -0.10074171977E+03  0.30739613067E+03  0.12500000000E+03 0.  0.
         25    1    1    2    0    0  0.23667731118E+03  0.11270464683E+03  0.29805589179E+02  0.29194496090E+03  0.12500000000E+03 0.  0.
</event>
<event>
 4    0  0.2233588E-002  0.2523792E+03  0.7546771E-02  0.1111810E+00
         21   -1    0    0  502  501  0.00000000000E+00  0.00000000000E+00  0.91501461184E+03  0.91501461184E+03  0.00000000000E+00 0. -1.
         21   -1    0    0  501  502 -0.00000000000E+00 -0.00000000000E+00 -0.69611171978E+02  0.69611171978E+02  0.00000000000E+00 0. -1.
         25    1    1    2    0    0 -0.47757596497E+02  0.12345952650E+03  0.81765295271E+02  0.19958358203E+03  0.12500000000E+03 0.  0.
         25    1    1    2    0    0  0.47757596497E+02 -0.12345952650E+03  0.76363814459E+03  0.78504220178E+03  0.12500000000E+03 0.  0.
</event>
<event>
 4    0  0.2233588E-002  0.2049122E+03  0.7546771E-02  0.1145660E+00
         21   -1    0    0  502  501  0.00000000000E+00  0.00000000000E+00  0.14903260524E+04  0.14903260524E+04  0.00000000000E+00 0.  1.
         21   -1    0    0  501  502 -0.00000000000E+00 -0.00000000000E+00 -0.28174377442E+02  0.28174377442E+02  0.00000000000E+00 0.  1.
         25    1    1    2    0    0 -0.95046321823E+02  0.53485096277E+02  0.11767778792E+04  0.11884130745E+04  0.12500000000E+03 0.  0.
         25    1    1    2    0    0  0.95046321823E+02 -0.53485096277E+02  0.28537379583E+03  0.33008735535E+03  0.12500000000E+03 0.  0.
</event>
<event>
 4    0  0.2233588E-002  0.2538786E+03  0.7546771E-02  0.1110878E+00
         21   -1    0    0  502  501  0.00000000000E+00  0.00000000000E+00  0.91768360532E+03  0.91768360532E+03  0.00000000000E+00 0.  1.
         21   -1    0    0  501  502 -0.00000000000E+00 -0.00000000000E+00 -0.70235931848E+02  0.70235931848E+02  0.00000000000E+00 0.  1.
         25    1    1    2    0    0  0.55451585828E+02  0.11563778634E+03  0.73601476014E+02  0.19362115915E+03  0.12500000000E+03 0.  0.
         25    1    1    2    0    0 -0.55451585828E+02 -0.11563778634E+03  0.77384619746E+03  0.79429837802E+03  0.12500000000E+03 0.  0.
</event>
<event>
 4    0  0.2233588E-002  0.3005643E+03  0.7546771E-02  0.1084959E+00
         21   -1    0    0  502  501  0.00000000000E+00  0.00000000000E+00  0.60620776999E+02  0.60620776999E+02  0.00000000000E+00 0.  1.
         21   -1    0    0  501  502 -0.00000000000E+00 -0.00000000000E+00 -0.14902299523E+04  0.14902299523E+04  0.00000000000E+00 0.  1.
         25    1    1    2    0    0 -0.12273404091E+03 -0.12487993965E+03 -0.17330084597E+03  0.27625500418E+03  0.12500000000E+03 0.  0.
         25    1    1    2    0    0  0.12273404091E+03  0.12487993965E+03 -0.12563083294E+04  0.12745957251E+04  0.12500000000E+03 0.  0.
</event>
<event>
 4    0  0.2233588E-002  0.2707435E+03  0.7546771E-02  0.1100855E+00
         21   -1    0    0  502  501  0.00000000000E+00  0.00000000000E+00  0.24329652533E+03  0.24329652533E+03  0.00000000000E+00 0. -1.
         21   -1    0    0  501  502 -0.00000000000E+00 -0.00000000000E+00 -0.30128681319E+03  0.30128681319E+03  0.00000000000E+00 0. -1.
         25    1    1    2    0    0 -0.88213202347E+02  0.15020286394E+03  0.13728195000E+03  0.25458555183E+03  0.12500000000E+03 0.  0.
         25    1    1    2    0    0  0.88213202347E+02 -0.15020286394E+03 -0.19527223786E+03  0.28999778668E+03  0.12500000000E+03 0.  0.
</event>
<event>
 4    0  0.2233588E-002  0.2681492E+03  0.7546771E-02  0.1102344E+00
         21   -1    0    0  502  501  0.00000000000E+00  0.00000000000E+00  0.22556200881E+03  0.22556200881E+03  0.00000000000E+00 0.  1.
         21   -1    0    0  501  502 -0.00000000000E+00 -0.00000000000E+00 -0.31877703440E+03  0.31877703440E+03  0.00000000000E+00 0.  1.
         25    1    1    2    0    0  0.32739551862E+02 -0.22358077003E+03  0.26716498483E+02  0.25961319357E+03  0.12500000000E+03 0.  0.
         25    1    1    2    0    0 -0.32739551862E+02  0.22358077003E+03 -0.11993152407E+03  0.28472584963E+03  0.12500000000E+03 0.  0.
</event>
<event>
 4    0  0.2233588E-002  0.2400107E+03  0.7546771E-02  0.1119786E+00
         21   -1    0    0  502  501  0.00000000000E+00  0.00000000000E+00  0.51350235757E+03  0.51350235757E+03  0.00000000000E+00 0. -1.
         21   -1    0    0  501  502 -0.00000000000E+00 -0.00000000000E+00 -0.11218083718E+03  0.11218083718E+03  0.00000000000E+00 0. -1.
         25    1    1    2    0    0  0.30035311508E+02 -0.10941677900E+03 -0.21713745531E+02  0.17020763264E+03  0.12500000000E+03 0.  0.
         25    1    1    2    0    0 -0.30035311508E+02  0.10941677900E+03  0.42303526592E+03  0.45547556210E+03  0.12500000000E+03 0.  0.
</event>
<event>
 4    0  0.2233588E-002  0.1711741E+03  0.7546771E-02  0.1176629E+00
         21   -1    0    0  502  501  0.00000000000E+00  0.00000000000E+00  0.25622869176E+02  0.25622869176E+02  0.00000000000E+00 0.  1.
         21   -1    0    0  501  502 -0.00000000000E+00 -0.00000000000E+00 -0.11435327294E+04  0.11435327294E+04  0.00000000000E+00 0.  1.
         25    1    1    2    0    0  0.43474143750E+02 -0.14182697566E+02 -0.92652627772E+03  0.93603797647E+03  0.12500000000E+03 0.  0.
         25    1    1    2    0    0 -0.43474143750E+02  0.14182697566E+02 -0.19138358250E+03  0.23311762211E+03  0.12500000000E+03 0.  0.
</event>
<event>
 4    0  0.2233588E-002  0.2245773E+03  0.7546771E-02  0.1130516E+00
         21   -1    0    0  502  501  0.00000000000E+00  0.00000000000E+00  0.59601017078E+02  0.59601017078E+02  0.00000000000E+00 0.  1.
         21   -1    0    0  501  502 -0.00000000000E+00 -0.00000000000E+00 -0.84621007198E+03  0.84621007198E+03  0.00000000000E+00 0.  1.
         25    1    1    2    0    0 -0.46628247456E+02  0.10413302783E+03 -0.95596017910E+02  0.19437458575E+03  0.12500000000E+03 0.  0.
         25    1    1    2    0    0  0.46628247456E+02 -0.10413302783E+03 -0.69101303699E+03  0.71143650331E+03  0.12500000000E+03 0.  0.
</event>
<event>
 4    0  0.2233588E-002  0.1923948E+03  0.7546771E-02  0.1156319E+00
         21   -1    0    0  502  501  0.00000000000E+00  0.00000000000E+00  0.17495756610E+03  0.17495756610E+03  0.00000000000E+00 0.  1.
         21   -1    0    0  501  502 -0.00000000000E+00 -0.00000000000E+00 -0.21156992660E+03  0.21156992660E+03  0.00000000000E+00 0.  1.
         25    1    1    2    0    0 -0.79220166469E+01  0.14143347762E+03  0.18252871751E+02  0.18980082789E+03  0.12500000000E+03 0.  0.
         25    1    1    2    0    0  0.79220166469E+01 -0.14143347762E+03 -0.54865232256E+02  0.19672666482E+03  0.12500000000E+03 0.  0.
</event>
<event>
 4    0  0.2233588E-002  0.2760954E+03  0.7546771E-02  0.1097841E+00
         21   -1    0    0  502  501  0.00000000000E+00  0.00000000000E+00  0.99252562344E+02  0.99252562344E+02  0.00000000000E+00 0.  1.
         21   -1    0    0  501  502 -0.00000000000E+00 -0.00000000000E+00 -0.76802704478E+03  0.76802704478E+03  0.00000000000E+00 0.  1.
         25    1    1    2    0    0  0.17652126055E+03  0.97565491846E+02 -0.55608830831E+03  0.60459737617E+03  0.12500000000E+03 0.  0.
         25    1    1    2    0    0 -0.17652126055E+03 -0.97565491846E+02 -0.11268617413E+03  0.26268223096E+03  0.12500000000E+03 0.  0.
</event>
<event>
 4    0  0.2233588E-002  0.1721185E+03  0.7546771E-02  0.1175656E+00
         21   -1    0    0  502  501  0.00000000000E+00  0.00000000000E+00  0.15054113662E+04  0.15054113662E+04  0.00000000000E+00 0.  1.
         21   -1    0    0  501  502 -0.00000000000E+00 -0.00000000000E+00 -0.19678853842E+02  0.19678853842E+02  0.00000000000E+00 0.  1.
         25    1    1    2    0    0  0.43465050120E+02  0.53760402411E+02  0.31745162081E+03  0.34810906768E+03  0.12500000000E+03 0.  0.
         25    1    1    2    0    0 -0.43465050120E+02 -0.53760402411E+02  0.11682808916E+04  0.11769811524E+04  0.12500000000E+03 0.  0.
</event>
<event>
 4    0  0.2233588E-002  0.2099957E+03  0.7546771E-02  0.1141569E+00
         21   -1    0    0  502  501  0.00000000000E+00  0.00000000000E+00  0.72404578742E+02  0.72404578742E+02  0.00000000000E+00 0.  1.
         21   -1    0    0  501  502 -0.00000000000E+00 -0.00000000000E+00 -0.60905246915E+03  0.60905246915E+03  0.00000000000E+00 0.  1.
         25    1    1    2    0    0  0.62698114677E+02  0.15036625374E+03 -0.19700324861E+03  0.28456342669E+03  0.12500000000E+03 0.  0.
         25    1    1    2    0    0 -0.62698114677E+02 -0.15036625374E+03 -0.33964464180E+03  0.39689362120E+03  0.12500000000E+03 0.  0.
</event>
<event>
 4    0  0.2233588E-002  0.1802636E+03  0.7546771E-02  0.1167548E+00
         21   -1    0    0  502  501  0.00000000000E+00  0.00000000000E+00  0.60816647971E+03  0.60816647971E+03  0.00000000000E+00 0.  1.
         21   -1    0    0  501  502 -0.00000000000E+00 -0.00000000000E+00 -0.53431063414E+02  0.53431063414E+02  0.00000000000E+00 0.  1.
         25    1    1    2    0    0  0.10219143210E+03  0.78681935395E+02  0.30556153664E+03  0.35443869488E+03  0.12500000000E+03 0.  0.
         25    1    1    2    0    0 -0.10219143210E+03 -0.78681935395E+02  0.24917387965E+03  0.30715884824E+03  0.12500000000E+03 0.  0.
</event>
<event>
 4    0  0.2233588E-002  0.2114425E+03  0.7546771E-02  0.1140429E+00
         21   -1    0    0  502  501  0.00000000000E+00  0.00000000000E+00  0.10247058462E+04  0.10247058462E+04  0.00000000000E+00 0. -1.
         21   -1    0    0  501  502 -0.00000000000E+00 -0.00000000000E+00 -0.43630007877E+02  0.43630007877E+02  0.00000000000E+00 0. -1.
         25    1    1    2    0    0 -0.11558380222E+03 -0.76223842634E+02  0.23900591688E+03  0.30318066862E+03  0.12500000000E+03 0.  0.
         25    1    1    2    0    0  0.11558380222E+03  0.76223842634E+02  0.74206992144E+03  0.76515518546E+03  0.12500000000E+03 0.  0.
</event>
<event>
 4    0  0.2233588E-002  0.1937480E+03  0.7546771E-02  0.1155124E+00
         21   -1    0    0  502  501  0.00000000000E+00  0.00000000000E+00  0.13698773128E+04  0.13698773128E+04  0.00000000000E+00 0. -1.
         21   -1    0    0  501  502 -0.00000000000E+00 -0.00000000000E+00 -0.27402655175E+02  0.27402655175E+02  0.00000000000E+00 0. -1.
         25    1    1    2    0    0 -0.34031357152E+02  0.90592837849E+02  0.26730843628E+03  0.31055433606E+03  0.12500000000E+03 0.  0.
         25    1    1    2    0    0  0.34031357152E+02 -0.90592837849E+02  0.10751662213E+04  0.10867256319E+04  0.12500000000E+03 0.  0.
</event>
<event>
 4    0  0.2233588E-002  0.1566451E+03  0.7546771E-02  0.1192537E+00
         21   -1    0    0  502  501  0.00000000000E+00  0.00000000000E+00  0.65815826058E+02  0.65815826058E+02  0.00000000000E+00 0. -1.
         21   -1    0    0  501  502 -0.00000000000E+00 -0.00000000000E+00 -0.37282357037E+03  0.37282357037E+03  0.00000000000E+00 0. -1.
         25    1    1    2    0    0  0.73166362006E+02 -0.26604741193E+02 -0.78738201001E+02  0.16699051793E+03  0.12500000000E+03 0.  0.
         25    1    1    2    0    0 -0.73166362006E+02  0.26604741193E+02 -0.22826954331E+03  0.27164887849E+03  0.12500000000E+03 0.  0.
</event>
<event>
 4    0  0.2233588E-002  0.2534805E+03  0.7546771E-02  0.1111125E+00
         21   -1    0    0  502  501  0.00000000000E+00  0.00000000000E+00  0.62763475254E+02  0.62763475254E+02  0.00000000000E+00 0. -1.
         21   -1    0    0  501  502 -0.00000000000E+00 -0.00000000000E+00 -0.10237222079E+04  0.10237222079E+04  0.00000000000E+00 0. -1.
         25    1    1    2    0    0 -0.18005920025E+03  0.65367645508E+02 -0.24636587563E+03  0.33617761578E+03  0.12500000000E+03 0.  0.
         25    1    1    2    0    0  0.18005920025E+03 -0.65367645508E+02 -0.71459285702E+03  0.75030806738E+03  0.12500000000E+03 0.  0.
</event>
<event>
 4    0  0.2233588E-002  0.2916385E+03  0.7546771E-02  0.1089497E+00
         21   -1    0    0  502  501  0.00000000000E+00  0.00000000000E+00  0.77389146120E+03  0.77389146120E+03  0.00000000000E+00 0. -1.
         21   -1    0    0  501  502 -0.00000000000E+00 -0.00000000000E+00 -0.10990299003E+03  0.10990299003E+03  0.00000000000E+00 0. -1.
         25    1    1    2    0    0  0.21458327245E+03  0.14244261104E+03  0.24773766647E+03  0.37859586586E+03  0.12500000000E+03 0.  0.
         25    1    1    2    0    0 -0.21458327245E+03 -0.14244261104E+03  0.41625080469E+03  0.50519858537E+03  0.12500000000E+03 0.  0.
</event>
<event>
 4    0  0.2233588E-002  0.2568270E+03  0.7546771E-02  0.1109065E+00
         21   -1    0    0  502  501  0.00000000000E+00  0.00000000000E+00  0.57824192001E+02  0.57824192001E+02  0.00000000000E+00 0.  1.
         21   -1    0    0  501  502 -0.00000000000E+00 -0.00000000000E+00 -0.11407012765E+04  0.11407012765E+04  0.00000000000E+00 0.  1.
         25    1    1    2    0    0  0.11840281332E+03  0.18703741399E+03 -0.62662622473E+03  0.67623046808E+03  0.12500000000E+03 0.  0.
         25    1    1    2    0    0 -0.11840281332E+03 -0.18703741399E+03 -0.45625085980E+03  0.52229500046E+03  0.12500000000E+03 0.  0.
</event>
<event>
 4    0  0.2233588E-002  0.2514878E+03  0.7546771E-02  0.1112368E+00
         21   -1    0    0  502  501  0.00000000000E+00  0.00000000000E+00  0.32450434905E+02  0.32450434905E+02  0.00000000000E+00 0.  1.
         21   -1    0    0  501  502 -0.00000000000E+00 -0.00000000000E+00 -0.19490062279E+04  0.19490062279E+04  0.00000000000E+00 0.  1.
         25    1    1    2    0    0  0.99941242849E+02 -0.69577404581E+02 -0.24489851730E+03  0.30071506617E+03  0.12500000000E+03 0.  0.
         25    1    1    2    0    0 -0.99941242849E+02  0.69577404581E+02 -0.16716572757E+04  0.16807415967E+04  0.12500000000E+03 0.  0.
</event>
<event>
 4    0  0.2233588E-002  0.1842439E+03  0.7546771E-02  0.1163758E+00
         21   -1    0    0  502  501  0.00000000000E+00  0.00000000000E+00  0.95173806133E+02  0.95173806133E+02  0.00000000000E+00 0. -1.
         21   -1    0    0  501  502 -0.00000000000E+00 -0.00000000000E+00 -0.35667174560E+03  0.35667174560E+03  0.00000000000E+00 0. -1.
         25    1    1    2    0    0 -0.72319070864E+02  0.53355173964E+02 -0.66405032781E+01  0.15409710861E+03  0.12500000000E+03 0.  0.
         25    1    1    2    0    0  0.72319070864E+02 -0.53355173964E+02 -0.25485743619E+03  0.29774844312E+03  0.12500000000E+03 0.  0.
</event>
<event>
 4    0  0.2233588E-002  0.3275891E+03  0.7546771E-02  0.1072209E+00
         21   -1    0    0  502  501  0.00000000000E+00  0.00000000000E+00  0.30629241215E+03  0.30629241215E+03  0.00000000000E+00 0. -1.
         21   -1    0    0  501  502 -0.00000000000E+00 -0.00000000000E+00 -0.35036660832E+03  0.35036660832E+03  0.00000000000E+00 0. -1.
         25    1    1    2    0    0  0.69347632583E+02  0.24952704895E+03 -0.17928909425E+03  0.33888408287E+03  0.12500000000E+03 0.  0.
         25    1    1    2    0    0 -0.69347632583E+02 -0.24952704895E+03  0.13521489808E+03  0.31777493760E+03  0.12500000000E+03 0.  0.
</event>
<event>
 4    0  0.2233588E-002  0.1930998E+03  0.7546771E-02  0.1155695E+00
         21   -1    0    0  502  501  0.00000000000E+00  0.00000000000E+00  0.17866751445E+03  0.17866751445E+03  0.00000000000E+00 0. -1.
         21   -1    0    0  501  502 -0.00000000000E+00 -0.00000000000E+00 -0.20869797691E+03  0.20869797691E+03  0.00000000000E+00 0. -1.
         25    1    1    2    0    0 -0.12177425054E+02  0.13385671039E+03  0.45137799457E+02  0.18901938932E+03  0.12500000000E+03 0.  0.
         25    1    1    2    0    0  0.12177425054E+02 -0.13385671039E+03 -0.75168261916E+02  0.19834610205E+03  0.12500000000E+03 0.  0.
</event>
<event>
 4    0  0.2233588E-002  0.2648171E+03  0.7546771E-02  0.1104283E+00
         21   -1    0    0  502  501  0.00000000000E+00  0.00000000000E+00  0.22677083228E+03  0.22677083228E+03  0.00000000000E+00 0. -1.
         21   -1    0    0  501  502 -0.00000000000E+00 -0.00000000000E+00 -0.30924658826E+03  0.30924658826E+03  0.00000000000E+00 0. -1.
         25    1    1    2    0    0  0.12771876233E+03  0.18222928216E+03 -0.11268267994E+03  0.27900175606E+03  0.12500000000E+03 0.  0.
         25    1    1    2    0    0 -0.12771876233E+03 -0.18222928216E+03  0.30206923956E+02  0.25701566447E+03  0.12500000000E+03 0.  0.
</event>
<event>
 4    0  0.2233588E-002  0.6347723E+03  0.7546771E-02  0.9835780E-01
         21   -1    0    0  502  501  0.00000000000E+00  0.00000000000E+00  0.27136120651E+03  0.27136120651E+03  0.00000000000E+00 0.  1.
         21   -1    0    0  501  502 -0.00000000000E+00 -0.00000000000E+00 -0.14848692492E+04  0.14848692492E+04  0.00000000000E+00 0. -1.
         25    1    1    2    0    0 -0.26899511596E+03  0.52751523695E+03 -0.87169519004E+03  0.10611824546E+04  0.12500000000E+03 0.  0.
         25    1    1    2    0    0  0.26899511596E+03 -0.52751523695E+03 -0.34181285268E+03  0.69504800113E+03  0.12500000000E+03 0.  0.
</event>
<event>
 4    0  0.2233588E-002  0.1795686E+03  0.7546771E-02  0.1168221E+00
         21   -1    0    0  502  501  0.00000000000E+00  0.00000000000E+00  0.24542754023E+03  0.24542754023E+03  0.00000000000E+00 0. -1.
         21   -1    0    0  501  502 -0.00000000000E+00 -0.00000000000E+00 -0.13138256175E+03  0.13138256175E+03  0.00000000000E+00 0. -1.
         25    1    1    2    0    0 -0.14624247960E+02 -0.11731430833E+03  0.11096636047E+03  0.20473165052E+03  0.12500000000E+03 0.  0.
         25    1    1    2    0    0  0.14624247960E+02  0.11731430833E+03  0.30786180128E+01  0.17207845146E+03  0.12500000000E+03 0.  0.
</event>
<event>
 4    0  0.2233588E-002  0.2974728E+03  0.7546771E-02  0.1086511E+00
         21   -1    0    0  502  501  0.00000000000E+00  0.00000000000E+00  0.83372837978E+02  0.83372837978E+02  0.00000000000E+00 0. -1.
         21   -1    0    0  501  502 -0.00000000000E+00 -0.00000000000E+00 -0.10613774753E+04  0.10613774753E+04  0.00000000000E+00 0. -1.
         25    1    1    2    0    0  0.22932922584E+03 -0.13814304441E+03 -0.55536815422E+03  0.62907406660E+03  0.12500000000E+03 0.  0.
         25    1    1    2    0    0 -0.22932922584E+03  0.13814304441E+03 -0.42263648310E+03  0.51567624668E+03  0.12500000000E+03 0.  0.
</event>
<event>
 4    0  0.2233588E-002  0.2193937E+03  0.7546771E-02  0.1134336E+00
         21   -1    0    0  502  501  0.00000000000E+00  0.00000000000E+00  0.52114962553E+02  0.52114962553E+02  0.00000000000E+00 0. -1.
         21   -1    0    0  501  502 -0.00000000000E+00 -0.00000000000E+00 -0.92360382575E+03  0.92360382575E+03  0.00000000000E+00 0. -1.
         25    1    1    2    0    0  0.12535742803E+02 -0.13001905404E+03 -0.71211090209E+03  0.73470336609E+03  0.12500000000E+03 0.  0.
         25    1    1    2    0    0 -0.12535742803E+02  0.13001905404E+03 -0.15937796111E+03  0.24101542222E+03  0.12500000000E+03 0.  0.
</event>
<event>
 4    0  0.2233588E-002  0.1594513E+03  0.7546771E-02  0.1189318E+00
         21   -1    0    0  502  501  0.00000000000E+00  0.00000000000E+00  0.34396522741E+03  0.34396522741E+03  0.00000000000E+00 0. -1.
         21   -1    0    0  501  502 -0.00000000000E+00 -0.00000000000E+00 -0.73916553478E+02  0.73916553478E+02  0.00000000000E+00 0. -1.
         25    1    1    2    0    0 -0.53236306436E+01 -0.90174847107E+02  0.81960169429E+02  0.17464911528E+03  0.12500000000E+03 0.  0.
         25    1    1    2    0    0  0.53236306436E+01  0.90174847107E+02  0.18808850450E+03  0.24323266561E+03  0.12500000000E+03 0.  0.
</event>
<event>
 4    0  0.2233588E-002  0.2450876E+03  0.7546771E-02  0.1116449E+00
         21   -1    0    0  502  501  0.00000000000E+00  0.00000000000E+00  0.11294470181E+04  0.11294470181E+04  0.00000000000E+00 0.  1.
         21   -1    0    0  501  502 -0.00000000000E+00 -0.00000000000E+00 -0.53183508057E+02  0.53183508057E+02  0.00000000000E+00 0.  1.
         25    1    1    2    0    0 -0.85492866823E+02 -0.86887695674E+01  0.10025841140E+04  0.10139942952E+04  0.12500000000E+03 0.  0.
         25    1    1    2    0    0  0.85492866823E+02  0.86887695674E+01  0.73679396013E+02  0.16863623096E+03  0.12500000000E+03 0.  0.
</event>
<event>
 4    0  0.2233588E-002  0.3000688E+03  0.7546771E-02  0.1085206E+00
         21   -1    0    0  502  501  0.00000000000E+00  0.00000000000E+00  0.30007130234E+03  0.30007130234E+03  0.00000000000E+00 0.  1.
         21   -1    0    0  501  502 -0.00000000000E+00 -0.00000000000E+00 -0.30006626099E+03  0.30006626099E+03  0.00000000000E+00 0.  1.
         25    1    1    2    0    0 -0.46370824824E+02  0.66176337363E+02  0.26055330787E+03  0.30007097038E+03  0.12500000000E+03 0.  0.
         25    1    1    2    0    0  0.46370824824E+02 -0.66176337363E+02 -0.26054826652E+03  0.30006659295E+03  0.12500000000E+03 0.  0.
</event>
<event>
 4    0  0.2233588E-002  0.2001800E+03  0.7546771E-02  0.1149587E+00
         21   -1    0    0  502  501  0.00000000000E+00  0.00000000000E+00  0.33456192256E+02  0.33456192256E+02  0.00000000000E+00 0.  1.
         21   -1    0    0  501  502 -0.00000000000E+00 -0.00000000000E+00 -0.11977462745E+04  0.11977462745E+04  0.00000000000E+00 0. -1.
         25    1    1    2    0    0 -0.36897295204E+02 -0.12571548773E+03 -0.84455562461E+03  0.86375054114E+03  0.12500000000E+03 0.  0.
         25    1    1    2    0    0  0.36897295204E+02  0.12571548773E+03 -0.31973445765E+03  0.36745192564E+03  0.12500000000E+03 0.  0.
</event>
<event>
 4    0  0.2233588E-002  0.2007952E+03  0.7546771E-02  0.1149070E+00
         21   -1    0    0  502  501  0.00000000000E+00  0.00000000000E+00  0.46011635266E+02  0.46011635266E+02  0.00000000000E+00 0. -1.
         21   -1    0    0  501  502 -0.00000000000E+00 -0.00000000000E+00 -0.87627190682E+03  0.87627190682E+03  0.00000000000E+00 0. -1.
         25    1    1    2    0    0 -0.17882159387E+02  0.30318280140E+01 -0.77360777699E+03  0.78385136105E+03  0.12500000000E+03 0.  0.
         25    1    1    2    0    0  0.17882159387E+02 -0.30318280140E+01 -0.56652494564E+02  0.13843218103E+03  0.12500000000E+03 0.  0.
</event>
<event>
 4    0  0.2233588E-002  0.2010930E+03  0.7546771E-02  0.1148820E+00
         21   -1    0    0  502  501  0.00000000000E+00  0.00000000000E+00  0.63070033032E+03  0.63070033032E+03  0.00000000000E+00 0.  1.
         21   -1    0    0  501  502 -0.00000000000E+00 -0.00000000000E+00 -0.64116673597E+02  0.64116673597E+02  0.00000000000E+00 0.  1.
         25    1    1    2    0    0 -0.85599356677E+02  0.12912414200E+03  0.23402904389E+03  0.30723750958E+03  0.12500000000E+03 0.  0.
         25    1    1    2    0    0  0.85599356677E+02 -0.12912414200E+03  0.33255461283E+03  0.38757949433E+03  0.12500000000E+03 0.  0.
</event>
<event>
 4    0  0.2233588E-002  0.2239203E+03  0.7546771E-02  0.1130994E+00
         21   -1    0    0  502  501  0.00000000000E+00  0.00000000000E+00  0.60165815881E+03  0.60165815881E+03  0.00000000000E+00 0.  1.
         21   -1    0    0  501  502 -0.00000000000E+00 -0.00000000000E+00 -0.83336822746E+02  0.83336822746E+02  0.00000000000E+00 0.  1.
         25    1    1    2    0    0 -0.89592980463E+02  0.16275247921E+03  0.25929485707E+03  0.34259902881E+03  0.12500000000E+03 0.  0.
         25    1    1    2    0    0  0.89592980463E+02 -0.16275247921E+03  0.25902647900E+03  0.34239595275E+03  0.12500000000E+03 0.  0.
</event>
<event>
 4    0  0.2233588E-002  0.2158447E+03  0.7546771E-02  0.1137019E+00
         21   -1    0    0  502  501  0.00000000000E+00  0.00000000000E+00  0.46580144535E+03  0.46580144535E+03  0.00000000000E+00 0.  1.
         21   -1    0    0  501  502 -0.00000000000E+00 -0.00000000000E+00 -0.10001889830E+03  0.10001889830E+03  0.00000000000E+00 0.  1.
         25    1    1    2    0    0 -0.12876047458E+02  0.92383291499E+02 -0.12679367872E+02  0.15648077044E+03  0.12500000000E+03 0.  0.
         25    1    1    2    0    0  0.12876047458E+02 -0.92383291499E+02  0.37846191493E+03  0.40933957321E+03  0.12500000000E+03 0.  0.
</event>
<event>
 4    0  0.2233588E-002  0.2752651E+03  0.7546771E-02  0.1098303E+00
         21   -1    0    0  502  501  0.00000000000E+00  0.00000000000E+00  0.79003179084E+03  0.79003179084E+03  0.00000000000E+00 0.  1.
         21   -1    0    0  501  502 -0.00000000000E+00 -0.00000000000E+00 -0.95908668944E+02  0.95908668944E+02  0.00000000000E+00 0.  1.
         25    1    1    2    0    0 -0.17505321573E+03 -0.21822568592E+02  0.62122987027E+03  0.65777762546E+03  0.12500000000E+03 0.  0.
         25    1    1    2    0    0  0.17505321573E+03  0.21822568592E+02  0.72893251626E+02  0.22816283433E+03  0.12500000000E+03 0.  0.
</event>
<event>
 4    0  0.2233588E-002  0.4036332E+03  0.7546771E-02  0.1042529E+00
         21   -1    0    0  502  501  0.00000000000E+00  0.00000000000E+00  0.27556046405E+03  0.27556046405E+03  0.00000000000E+00 0.  1.
         21   -1    0    0  501  502 -0.00000000000E+00 -0.00000000000E+00 -0.59123051497E+03  0.59123051497E+03  0.00000000000E+00 0.  1.
         25    1    1    2    0    0 -0.30652073080E+03 -0.14681752553E+03 -0.34926264370E+03  0.50311006599E+03  0.12500000000E+03 0.  0.
         25    1    1    2    0    0  0.30652073080E+03  0.14681752553E+03  0.33592592773E+02  0.36368091303E+03  0.12500000000E+03 0.  0.
</event>
<event>
 4    0  0.2233588E-002  0.1573834E+03  0.7546771E-02  0.1191683E+00
         21   -1    0    0  502  501  0.00000000000E+00  0.00000000000E+00  0.30650960587E+02  0.30650960587E+02  0.00000000000E+00 0.  1.
         21   -1    0    0  501  502 -0.00000000000E+00 -0.00000000000E+00 -0.80811586330E+03  0.80811586330E+03  0.00000000000E+00 0.  1.
         25    1    1    2    0    0  0.27340903159E+01 -0.83642164329E+02 -0.51203295096E+03  0.53367239930E+03  0.12500000000E+03 0.  0.
         25    1    1    2    0    0 -0.27340903159E+01  0.83642164329E+02 -0.26543195175E+03  0.30509442459E+03  0.12500000000E+03 0.  0.
</event>
<event>
 4    0  0.2233588E-002  0.3062244E+03  0.7546771E-02  0.1082170E+00
         21   -1    0    0  502  501  0.00000000000E+00  0.00000000000E+00  0.54978599227E+03  0.54978599227E+03  0.00000000000E+00 0. -1.
         21   -1    0    0  501  502 -0.00000000000E+00 -0.00000000000E+00 -0.17056338768E+03  0.17056338768E+03  0.00000000000E+00 0. -1.
         25    1    1    2    0    0  0.74464597366E+02 -0.25918886131E+03  0.27623846226E+03  0.40577891779E+03  0.12500000000E+03 0.  0.
         25    1    1    2    0    0 -0.74464597366E+02  0.25918886131E+03  0.10298414233E+03  0.31457046215E+03  0.12500000000E+03 0.  0.
</event>
<event>
 4    0  0.2233588E-002  0.1840884E+03  0.7546771E-02  0.1163904E+00
         21   -1    0    0  502  501  0.00000000000E+00  0.00000000000E+00  0.16782961374E+04  0.16782961374E+04  0.00000000000E+00 0. -1.
         21   -1    0    0  501  502 -0.00000000000E+00 -0.00000000000E+00 -0.20192218642E+02  0.20192218642E+02  0.00000000000E+00 0. -1.
         25    1    1    2    0    0  0.10303459657E+03  0.33823632645E+02  0.45702446598E+03  0.48606226836E+03  0.12500000000E+03 0.  0.
         25    1    1    2    0    0 -0.10303459657E+03 -0.33823632645E+02  0.12010794528E+04  0.12124260877E+04  0.12500000000E+03 0.  0.
</event>
<event>
 4    0  0.2233588E-002  0.2414289E+03  0.7546771E-02  0.1118845E+00
         21   -1    0    0  502  501  0.00000000000E+00  0.00000000000E+00  0.49849181679E+02  0.49849181679E+02  0.00000000000E+00 0. -1.
         21   -1    0    0  501  502 -0.00000000000E+00 -0.00000000000E+00 -0.11692847906E+04  0.11692847906E+04  0.00000000000E+00 0. -1.
         25    1    1    2    0    0  0.66661014424E+02 -0.10698195891E+03 -0.14658528306E+03  0.23021962468E+03  0.12500000000E+03 0.  0.
         25    1    1    2    0    0 -0.66661014424E+02  0.10698195891E+03 -0.97285032590E+03  0.98891434764E+03  0.12500000000E+03 0.  0.
</event>
<event>
 4    0  0.2233588E-002  0.1764742E+03  0.7546771E-02  0.1171260E+00
         21   -1    0    0  502  501  0.00000000000E+00  0.00000000000E+00  0.92981126157E+02  0.92981126157E+02  0.00000000000E+00 0. -1.
         21   -1    0    0  501  502 -0.00000000000E+00 -0.00000000000E+00 -0.33494043271E+03  0.33494043271E+03  0.00000000000E+00 0. -1.
         25    1    1    2    0    0 -0.81368497223E+02  0.35264567303E+02 -0.14910483413E+02  0.15398618303E+03  0.12500000000E+03 0.  0.
         25    1    1    2    0    0  0.81368497223E+02 -0.35264567303E+02 -0.22704882314E+03  0.27393537584E+03  0.12500000000E+03 0.  0.
</event>
<event>
 4    0  0.2233588E-002  0.2063127E+03  0.7546771E-02  0.1144520E+00
         21   -1    0    0  502  501  0.00000000000E+00  0.00000000000E+00  0.10743013086E+03  0.10743013086E+03  0.00000000000E+00 0. -1.
         21   -1    0    0  501  502 -0.00000000000E+00 -0.00000000000E+00 -0.39621036758E+03  0.39621036758E+03  0.00000000000E+00 0. -1.
         25    1    1    2    0    0  0.87280182655E+02  0.82245224274E+02 -0.76103440226E+01  0.17339268882E+03  0.12500000000E+03 0.  0.
         25    1    1    2    0    0 -0.87280182655E+02 -0.82245224274E+02 -0.28116989270E+03  0.33024780962E+03  0.12500000000E+03 0.  0.
</event>
<event>
 4    0  0.2233588E-002  0.1841959E+03  0.7546771E-02  0.1163803E+00
         21   -1    0    0  502  501  0.00000000000E+00  0.00000000000E+00  0.28977478825E+02  0.28977478825E+02  0.00000000000E+00 0. -1.
         21   -1    0    0  501  502 -0.00000000000E+00 -0.00000000000E+00 -0.11708453118E+04  0.11708453118E+04  0.00000000000E+00 0. -1.
         25    1    1    2    0    0  0.68701618887E+02  0.10811245460E+03 -0.42915761831E+03  0.46498330791E+03  0.12500000000E+03 0.  0.
         25    1    1    2    0    0 -0.68701618887E+02 -0.10811245460E+03 -0.71271021471E+03  0.73483948277E+03  0.12500000000E+03 0.  0.
</event>
<event>
 4    0  0.2233588E-002  0.3321059E+03  0.7546771E-02  0.1070209E+00
         21   -1    0    0  502  501  0.00000000000E+00  0.00000000000E+00  0.40825320370E+03  0.40825320370E+03  0.00000000000E+00 0.  1.
         21   -1    0    0  501  502 -0.00000000000E+00 -0.00000000000E+00 -0.27016151889E+03  0.27016151889E+03  0.00000000000E+00 0.  1.
         25    1    1    2    0    0 -0.23124409060E+03  0.13977587477E+03 -0.81268254717E+02  0.30861084529E+03  0.12500000000E+03 0.  0.
         25    1    1    2    0    0  0.23124409060E+03 -0.13977587477E+03  0.21935993953E+03  0.36980387731E+03  0.12500000000E+03 0.  0.
</event>
<event>
 4    0  0.2233588E-002  0.2430604E+03  0.7546771E-02  0.1117771E+00
         21   -1    0    0  502  501  0.00000000000E+00  0.00000000000E+00  0.64212717058E+03  0.64212717058E+03  0.00000000000E+00 0. -1.
         21   -1    0    0  501  502 -0.00000000000E+00 -0.00000000000E+00 -0.92004105757E+02  0.92004105757E+02  0.00000000000E+00 0.  1.
         25    1    1    2    0    0 -0.62840506798E+02 -0.19017187951E+03  0.18779616651E+03  0.30167312311E+03  0.12500000000E+03 0.  0.
         25    1    1    2    0    0  0.62840506798E+02  0.19017187951E+03  0.36232689831E+03  0.43245815323E+03  0.12500000000E+03 0.  0.
</event>
<event>
 4    0  0.2233588E-002  0.2994932E+03  0.7546771E-02  0.1085494E+00
         21   -1    0    0  502  501  0.00000000000E+00  0.00000000000E+00  0.21251623630E+03  0.21251623630E+03  0.00000000000E+00 0.  1.
         21   -1    0    0  501  502 -0.00000000000E+00 -0.00000000000E+00 -0.42206753395E+03  0.42206753395E+03  0.00000000000E+00 0.  1.
         25    1    1    2    0    0 -0.13818175704E+03  0.29625582651E+02  0.14163977016E+03  0.23592095629E+03  0.12500000000E+03 0.  0.
         25    1    1    2    0    0  0.13818175704E+03 -0.29625582651E+02 -0.35119106781E+03  0.39866281396E+03  0.12500000000E+03 0.  0.
</event>
<event>
 4    0  0.2233588E-002  0.2407587E+03  0.7546771E-02  0.1119288E+00
         21   -1    0    0  502  501  0.00000000000E+00  0.00000000000E+00  0.15936239012E+03  0.15936239012E+03  0.00000000000E+00 0. -1.
         21   -1    0    0  501  502 -0.00000000000E+00 -0.00000000000E+00 -0.36372907272E+03  0.36372907272E+03  0.00000000000E+00 0. -1.
         25    1    1    2    0    0 -0.49337442681E+02 -0.25779694477E+02  0.11301331291E+03  0.17747051809E+03  0.12500000000E+03 0.  0.
         25    1    1    2    0    0  0.49337442681E+02  0.25779694477E+02 -0.31737999551E+03  0.34562094475E+03  0.12500000000E+03 0.  0.
</event>
<event>
 4    0  0.2233588E-002  0.2419712E+03  0.7546771E-02  0.1118487E+00
         21   -1    0    0  502  501  0.00000000000E+00  0.00000000000E+00  0.30746034945E+02  0.30746034945E+02  0.00000000000E+00 0.  1.
         21   -1    0    0  501  502 -0.00000000000E+00 -0.00000000000E+00 -0.19043124579E+04  0.19043124579E+04  0.00000000000E+00 0.  1.
         25    1    1    2    0    0 -0.62575349901E+02 -0.19008493927E+03 -0.11512587806E+04  0.11751892352E+04  0.12500000000E+03 0.  0.
         25    1    1    2    0    0  0.62575349901E+02  0.19008493927E+03 -0.72230764233E+03  0.75986925765E+03  0.12500000000E+03 0.  0.
</event>
<event>
 4    0  0.2233588E-002  0.2756970E+03  0.7546771E-02  0.1098063E+00
         21   -1    0    0  502  501  0.00000000000E+00  0.00000000000E+00  0.18367934633E+03  0.18367934633E+03  0.00000000000E+00 0. -1.
         21   -1    0    0  501  502 -0.00000000000E+00 -0.00000000000E+00 -0.41381276544E+03  0.41381276544E+03  0.00000000000E+00 0. -1.
         25    1    1    2    0    0  0.21646591078E+03 -0.11210718416E+03 -0.14861199307E+03  0.31166654578E+03  0.12500000000E+03 0.  0.
         25    1    1    2    0    0 -0.21646591078E+03  0.11210718416E+03 -0.81521426038E+02  0.28582556599E+03  0.12500000000E+03 0.  0.
</event>
<event>
 4    0  0.2233588E-002  0.1969400E+03  0.7546771E-02  0.1152347E+00
         21   -1    0    0  502  501  0.00000000000E+00  0.00000000000E+00  0.35547790173E+02  0.35547790173E+02  0.00000000000E+00 0. -1.
         21   -1    0    0  501  502 -0.00000000000E+00 -0.00000000000E+00 -0.10910766758E+04  0.10910766758E+04  0.00000000000E+00 0.  1.
         25    1    1    2    0    0 -0.15319615848E+02 -0.14350156907E+03 -0.38960830899E+03  0.43387443505E+03  0.12500000000E+03 0.  0.
         25    1    1    2    0    0  0.15319615848E+02  0.14350156907E+03 -0.66592057661E+03  0.69275003090E+03  0.12500000000E+03 0.  0.
</event>
<event>
 4    0  0.2233588E-002  0.2149980E+03  0.7546771E-02  0.1137668E+00
         21   -1    0    0  502  501  0.00000000000E+00  0.00000000000E+00  0.69438137718E+03  0.69438137718E+03  0.00000000000E+00 0. -1.
         21   -1    0    0  501  502 -0.00000000000E+00 -0.00000000000E+00 -0.66568820382E+02  0.66568820382E+02  0.00000000000E+00 0. -1.
         25    1    1    2    0    0  0.98714764042E+02 -0.86757470548E+02  0.10960591040E+03  0.21191960487E+03  0.12500000000E+03 0.  0.
         25    1    1    2    0    0 -0.98714764042E+02  0.86757470548E+02  0.51820664640E+03  0.54903059269E+03  0.12500000000E+03 0.  0.
</event>
<event>
 4    0  0.2233588E-002  0.1825262E+03  0.7546771E-02  0.1165380E+00
         21   -1    0    0  502  501  0.00000000000E+00  0.00000000000E+00  0.15316151479E+04  0.15316151479E+04  0.00000000000E+00 0.  1.
         21   -1    0    0  501  502 -0.00000000000E+00 -0.00000000000E+00 -0.21752068168E+02  0.21752068168E+02  0.00000000000E+00 0.  1.
         25    1    1    2    0    0 -0.11410852161E+03  0.68250535499E+02  0.74024847683E+03  0.76241176391E+03  0.12500000000E+03 0.  0.
         25    1    1    2    0    0  0.11410852161E+03 -0.68250535499E+02  0.76961460291E+03  0.79095545216E+03  0.12500000000E+03 0.  0.
</event>
<event>
 4    0  0.2233588E-002  0.2143896E+03  0.7546771E-02  0.1138136E+00
         21   -1    0    0  502  501  0.00000000000E+00  0.00000000000E+00  0.14492676952E+04  0.14492676952E+04  0.00000000000E+00 0. -1.
         21   -1    0    0  501  502 -0.00000000000E+00 -0.00000000000E+00 -0.31714574806E+02  0.31714574806E+02  0.00000000000E+00 0. -1.
         25    1    1    2    0    0  0.11352818757E+03 -0.52826308450E+02  0.29059684927E+03  0.34022168808E+03  0.12500000000E+03 0.  0.
         25    1    1    2    0    0 -0.11352818757E+03  0.52826308450E+02  0.11269562712E+04  0.11407605820E+04  0.12500000000E+03 0.  0.
</event>
<event>
 4    0  0.2233588E-002  0.2459104E+03  0.7546771E-02  0.1115917E+00
         21   -1    0    0  502  501  0.00000000000E+00  0.00000000000E+00  0.22957711886E+03  0.22957711886E+03  0.00000000000E+00 0.  1.
         21   -1    0    0  501  502 -0.00000000000E+00 -0.00000000000E+00 -0.26340569431E+03  0.26340569431E+03  0.00000000000E+00 0.  1.
         25    1    1    2    0    0 -0.11494677363E+03 -0.11272152651E+03 -0.15481847795E+03  0.25595441864E+03  0.12500000000E+03 0.  0.
         25    1    1    2    0    0  0.11494677363E+03  0.11272152651E+03  0.12098990251E+03  0.23702839453E+03  0.12500000000E+03 0.  0.
</event>
<event>
 4    0  0.2233588E-002  0.2147819E+03  0.7546771E-02  0.1137834E+00
         21   -1    0    0  502  501  0.00000000000E+00  0.00000000000E+00  0.35661508356E+03  0.35661508356E+03  0.00000000000E+00 0.  1.
         21   -1    0    0  501  502 -0.00000000000E+00 -0.00000000000E+00 -0.12935865358E+03  0.12935865358E+03  0.00000000000E+00 0.  1.
         25    1    1    2    0    0  0.95751820393E+02 -0.14576744458E+03  0.10291419407E+03  0.23797665925E+03  0.12500000000E+03 0.  0.
         25    1    1    2    0    0 -0.95751820393E+02  0.14576744458E+03  0.12434223591E+03  0.24799707789E+03  0.12500000000E+03 0.  0.
</event>
<event>
 4    0  0.2233588E-002  0.2614569E+03  0.7546771E-02  0.1106271E+00
         21   -1    0    0  502  501  0.00000000000E+00  0.00000000000E+00  0.52638111238E+03  0.52638111238E+03  0.00000000000E+00 0.  1.
         21   -1    0    0  501  502 -0.00000000000E+00 -0.00000000000E+00 -0.12986732705E+03  0.12986732705E+03  0.00000000000E+00 0.  1.
         25    1    1    2    0    0  0.18842330771E+03  0.89706734441E+02  0.31852644917E+03  0.40079263954E+03  0.12500000000E+03 0.  0.
         25    1    1    2    0    0 -0.18842330771E+03 -0.89706734441E+02  0.77987336160E+02  0.25545579988E+03  0.12500000000E+03 0.  0.
</event>
<event>
 4    0  0.2233588E-002  0.3734573E+03  0.7546771E-02  0.1053379E+00
         21   -1    0    0  502  501  0.00000000000E+00  0.00000000000E+00  0.14389715660E+03  0.14389715660E+03  0.00000000000E+00 0.  1.
         21   -1    0    0  501  502 -0.00000000000E+00 -0.00000000000E+00 -0.96923618103E+03  0.96923618103E+03  0.00000000000E+00 0.  1.
         25    1    1    2    0    0  0.44480354368E+02 -0.31166415704E+03 -0.17829608415E+03  0.38278916172E+03  0.12500000000E+03 0.  0.
         25    1    1    2    0    0 -0.44480354368E+02  0.31166415704E+03 -0.64704294028E+03  0.73034417590E+03  0.12500000000E+03 0.  0.
</event>
<event>
 4    0  0.2233588E-002  0.2253625E+03  0.7546771E-02  0.1129947E+00
         21   -1    0    0  502  501  0.00000000000E+00  0.00000000000E+00  0.15661699922E+04  0.15661699922E+04  0.00000000000E+00 0.  1.
         21   -1    0    0  501  502 -0.00000000000E+00 -0.00000000000E+00 -0.32428320432E+02  0.32428320432E+02  0.00000000000E+00 0. -1.
         25    1    1    2    0    0  0.77743796846E+02  0.15300314263E+03  0.10348588748E+04  0.10564146678E+04  0.12500000000E+03 0.  0.
         25    1    1    2    0    0 -0.77743796846E+02 -0.15300314263E+03  0.49888279693E+03  0.54218364479E+03  0.12500000000E+03 0.  0.
</event>
<event>
 4    0  0.2233588E-002  0.3161016E+03  0.7546771E-02  0.1077458E+00
         21   -1    0    0  502  501  0.00000000000E+00  0.00000000000E+00  0.28040997994E+03  0.28040997994E+03  0.00000000000E+00 0. -1.
         21   -1    0    0  501  502 -0.00000000000E+00 -0.00000000000E+00 -0.35633623792E+03  0.35633623792E+03  0.00000000000E+00 0. -1.
         25    1    1    2    0    0 -0.13486642833E+03 -0.23800126525E+03  0.60007030248E+02  0.30669104883E+03  0.12500000000E+03 0.  0.
         25    1    1    2    0    0  0.13486642833E+03  0.23800126525E+03 -0.13593328823E+03  0.33005516903E+03  0.12500000000E+03 0.  0.
</event>
<event>
 4    0  0.2233588E-002  0.2640442E+03  0.7546771E-02  0.1104737E+00
         21   -1    0    0  502  501  0.00000000000E+00  0.00000000000E+00  0.26247985832E+03  0.26247985832E+03  0.00000000000E+00 0. -1.
         21   -1    0    0  501  502 -0.00000000000E+00 -0.00000000000E+00 -0.26561783220E+03  0.26561783220E+03  0.00000000000E+00 0. -1.
         25    1    1    2    0    0 -0.22709696722E+02  0.13179534189E+03  0.18871991705E+03  0.26291814232E+03  0.12500000000E+03 0.  0.
         25    1    1    2    0    0  0.22709696722E+02 -0.13179534189E+03 -0.19185789093E+03  0.26517954819E+03  0.12500000000E+03 0.  0.
</event>
<event>
 4    0  0.2233588E-002  0.2259929E+03  0.7546771E-02  0.1129492E+00
         21   -1    0    0  502  501  0.00000000000E+00  0.00000000000E+00  0.31469069855E+02  0.31469069855E+02  0.00000000000E+00 0.  1.
         21   -1    0    0  501  502 -0.00000000000E+00 -0.00000000000E+00 -0.16229514606E+04  0.16229514606E+04  0.00000000000E+00 0.  1.
         25    1    1    2    0    0 -0.13497823520E+03 -0.80303780215E+02 -0.41570093612E+03  0.46162765232E+03  0.12500000000E+03 0.  0.
         25    1    1    2    0    0  0.13497823520E+03  0.80303780215E+02 -0.11757814546E+04  0.11927928781E+04  0.12500000000E+03 0.  0.
</event>
<event>
 4    0  0.2233588E-002  0.1983617E+03  0.7546771E-02  0.1151129E+00
         21   -1    0    0  502  501  0.00000000000E+00  0.00000000000E+00  0.22262023186E+02  0.22262023186E+02  0.00000000000E+00 0. -1.
         21   -1    0    0  501  502 -0.00000000000E+00 -0.00000000000E+00 -0.17674653596E+04  0.17674653596E+04  0.00000000000E+00 0. -1.
         25    1    1    2    0    0 -0.18363075952E+02  0.12449734194E+03 -0.12732058697E+04  0.12855018387E+04  0.12500000000E+03 0.  0.
         25    1    1    2    0    0  0.18363075952E+02 -0.12449734194E+03 -0.47199746676E+03  0.50422554412E+03  0.12500000000E+03 0.  0.
</event>
<event>
 4    0  0.2233588E-002  0.3495736E+03  0.7546771E-02  0.1062790E+00
         21   -1    0    0  502  501  0.00000000000E+00  0.00000000000E+00  0.65656876163E+02  0.65656876163E+02  0.00000000000E+00 0.  1.
         21   -1    0    0  501  502 -0.00000000000E+00 -0.00000000000E+00 -0.18612174851E+04  0.18612174851E+04  0.00000000000E+00 0. -1.
         25    1    1    2    0    0 -0.13273881173E+02 -0.18988372335E+03 -0.16287517775E+04  0.16445939854E+04  0.12500000000E+03 0.  0.
         25    1    1    2    0    0  0.13273881173E+02  0.18988372335E+03 -0.16680883143E+03  0.28228037579E+03  0.12500000000E+03 0.  0.
</event>
<event>
 4    0  0.2233588E-002  0.2049789E+03  0.7546771E-02  0.1145605E+00
         21   -1    0    0  502  501  0.00000000000E+00  0.00000000000E+00  0.15138806676E+03  0.15138806676E+03  0.00000000000E+00 0. -1.
         21   -1    0    0  501  502 -0.00000000000E+00 -0.00000000000E+00 -0.27754059630E+03  0.27754059630E+03  0.00000000000E+00 0. -1.
         25    1    1    2    0    0 -0.23522892681E+02 -0.14677592519E+03  0.54913854472E+01  0.19429784870E+03  0.12500000000E+03 0.  0.
         25    1    1    2    0    0  0.23522892681E+02  0.14677592519E+03 -0.13164391498E+03  0.23463081436E+03  0.12500000000E+03 0.  0.
</event>
<event>
 4    0  0.2233588E-002  0.1798555E+03  0.7546771E-02  0.1167943E+00
         21   -1    0    0  502  501  0.00000000000E+00  0.00000000000E+00  0.53385399152E+03  0.53385399152E+03  0.00000000000E+00 0.  1.
         21   -1    0    0  501  502 -0.00000000000E+00 -0.00000000000E+00 -0.60593320744E+02  0.60593320744E+02  0.00000000000E+00 0. -1.
         25    1    1    2    0    0 -0.35247787107E+02  0.11997316400E+03  0.29111552017E+03  0.34060125170E+03  0.12500000000E+03 0.  0.
         25    1    1    2    0    0  0.35247787107E+02 -0.11997316400E+03  0.18214515060E+03  0.25384606056E+03  0.12500000000E+03 0.  0.
</event>
<event>
 4    0  0.2233588E-002  0.2363317E+03  0.7546771E-02  0.1122261E+00
         21   -1    0    0  502  501  0.00000000000E+00  0.00000000000E+00  0.14107249401E+03  0.14107249401E+03  0.00000000000E+00 0.  1.
         21   -1    0    0  501  502 -0.00000000000E+00 -0.00000000000E+00 -0.39591453106E+03  0.39591453106E+03  0.00000000000E+00 0.  1.
         25    1    1    2    0    0 -0.11701262002E+02 -0.11354077564E+03  0.59944708582E+02  0.17957392726E+03  0.12500000000E+03 0.  0.
         25    1    1    2    0    0  0.11701262002E+02  0.11354077564E+03 -0.31478674563E+03  0.35741309781E+03  0.12500000000E+03 0.  0.
</event>
<event>
 4    0  0.2233588E-002  0.2699470E+03  0.7546771E-02  0.1101310E+00
         21   -1    0    0  502  501  0.00000000000E+00  0.00000000000E+00  0.13171407422E+04  0.13171407422E+04  0.00000000000E+00 0.  1.
         21   -1    0    0  501  502 -0.00000000000E+00 -0.00000000000E+00 -0.55325426392E+02  0.55325426392E+02  0.00000000000E+00 0.  1.
         25    1    1    2    0    0 -0.41208765909E+02 -0.17729421143E+02  0.33465389386E+02  0.13695775644E+03  0.12500000000E+03 0.  0.
         25    1    1    2    0    0  0.41208765909E+02  0.17729421143E+02  0.12283499265E+04  0.12355084122E+04  0.12500000000E+03 0.  0.
</event>
<event>
 4    0  0.2233588E-002  0.2089261E+03  0.7546771E-02  0.1142419E+00
         21   -1    0    0  502  501  0.00000000000E+00  0.00000000000E+00  0.38143964409E+03  0.38143964409E+03  0.00000000000E+00 0.  1.
         21   -1    0    0  501  502 -0.00000000000E+00 -0.00000000000E+00 -0.11443513405E+03  0.11443513405E+03  0.00000000000E+00 0.  1.
         25    1    1    2    0    0  0.40367746776E+02 -0.87072350597E+02 -0.29273374190E+02  0.16029061000E+03  0.12500000000E+03 0.  0.
         25    1    1    2    0    0 -0.40367746776E+02  0.87072350597E+02  0.29627788423E+03  0.33558416813E+03  0.12500000000E+03 0.  0.
</event>
<event>
 4    0  0.2233588E-002  0.2214940E+03  0.7546771E-02  0.1132774E+00
         21   -1    0    0  502  501  0.00000000000E+00  0.00000000000E+00  0.21318186708E+04  0.21318186708E+04  0.00000000000E+00 0. -1.
         21   -1    0    0  501  502 -0.00000000000E+00 -0.00000000000E+00 -0.23013030709E+02  0.23013030709E+02  0.00000000000E+00 0. -1.
         25    1    1    2    0    0 -0.77765443191E+02 -0.21464447407E+02  0.25620480351E+03  0.29626692019E+03  0.12500000000E+03 0.  0.
         25    1    1    2    0    0  0.77765443191E+02  0.21464447407E+02  0.18526008366E+04  0.18585647813E+04  0.12500000000E+03 0.  0.
</event>
<event>
 4    0  0.2233588E-002  0.7438565E+03  0.7546771E-02  0.9645038E-01
         21   -1    0    0  502  501  0.00000000000E+00  0.00000000000E+00  0.17299985089E+03  0.17299985089E+03  0.00000000000E+00 0. -1.
         21   -1    0    0  501  502 -0.00000000000E+00 -0.00000000000E+00 -0.31983983547E+04  0.31983983547E+04  0.00000000000E+00 0. -1.
         25    1    1    2    0    0 -0.74009757538E+02 -0.19862857380E+03 -0.31034846036E+04  0.31132254078E+04  0.12500000000E+03 0.  0.
         25    1    1    2    0    0  0.74009757538E+02  0.19862857380E+03  0.78086099840E+02  0.25817279781E+03  0.12500000000E+03 0.  0.
</event>
<event>
 4    0  0.2233588E-002  0.3296757E+03  0.7546771E-02  0.1071280E+00
         21   -1    0    0  502  501  0.00000000000E+00  0.00000000000E+00  0.84465890104E+03  0.84465890104E+03  0.00000000000E+00 0.  1.
         21   -1    0    0  501  502 -0.00000000000E+00 -0.00000000000E+00 -0.12867453497E+03  0.12867453497E+03  0.00000000000E+00 0.  1.
         25    1    1    2    0    0  0.27804960807E+03  0.12445360183E+03  0.38183210910E+03  0.50420337473E+03  0.12500000000E+03 0.  0.
         25    1    1    2    0    0 -0.27804960807E+03 -0.12445360183E+03  0.33415225697E+03  0.46913006127E+03  0.12500000000E+03 0.  0.
</event>
<event>
 4    0  0.2233588E-002  0.2914309E+03  0.7546771E-02  0.1089604E+00
         21   -1    0    0  502  501  0.00000000000E+00  0.00000000000E+00  0.67655456602E+03  0.67655456602E+03  0.00000000000E+00 0. -1.
         21   -1    0    0  501  502 -0.00000000000E+00 -0.00000000000E+00 -0.12553602135E+03  0.12553602135E+03  0.00000000000E+00 0. -1.
         25    1    1    2    0    0  0.12312113597E+03  0.23198128918E+03  0.25040354324E+03  0.38379821146E+03  0.12500000000E+03 0.  0.
         25    1    1    2    0    0 -0.12312113597E+03 -0.23198128918E+03  0.30061500143E+03  0.41829237590E+03  0.12500000000E+03 0.  0.
</event>
<event>
 4    0  0.2233588E-002  0.2655072E+03  0.7546771E-02  0.1103879E+00
         21   -1    0    0  502  501  0.00000000000E+00  0.00000000000E+00  0.11588100117E+04  0.11588100117E+04  0.00000000000E+00 0. -1.
         21   -1    0    0  501  502 -0.00000000000E+00 -0.00000000000E+00 -0.60833148712E+02  0.60833148712E+02  0.00000000000E+00 0. -1.
         25    1    1    2    0    0  0.33497947116E+02  0.22964510530E+03  0.62198514628E+03  0.67553646019E+03  0.12500000000E+03 0.  0.
         25    1    1    2    0    0 -0.33497947116E+02 -0.22964510530E+03  0.47599171666E+03  0.54410670018E+03  0.12500000000E+03 0.  0.
</event>
<event>
 4    0  0.2233588E-002  0.2015033E+03  0.7546771E-02  0.1148477E+00
         21   -1    0    0  502  501  0.00000000000E+00  0.00000000000E+00  0.11744139478E+03  0.11744139478E+03  0.00000000000E+00 0. -1.
         21   -1    0    0  501  502 -0.00000000000E+00 -0.00000000000E+00 -0.34573487025E+03  0.34573487025E+03  0.00000000000E+00 0. -1.
         25    1    1    2    0    0  0.91696400783E+02  0.14882872213E+02  0.32806035810E+02  0.15915704756E+03  0.12500000000E+03 0.  0.
         25    1    1    2    0    0 -0.91696400783E+02 -0.14882872213E+02 -0.26109951128E+03  0.30401921747E+03  0.12500000000E+03 0.  0.
</event>
<event>
 4    0  0.2233588E-002  0.2582585E+03  0.7546771E-02  0.1108194E+00
         21   -1    0    0  502  501  0.00000000000E+00  0.00000000000E+00  0.62547298393E+03  0.62547298393E+03  0.00000000000E+00 0.  1.
         21   -1    0    0  501  502 -0.00000000000E+00 -0.00000000000E+00 -0.10663525912E+03  0.10663525912E+03  0.00000000000E+00 0.  1.
         25    1    1    2    0    0 -0.21685527333E+03 -0.46205368010E+02  0.32138554296E+03  0.40996928279E+03  0.12500000000E+03 0.  0.
         25    1    1    2    0    0  0.21685527333E+03  0.46205368010E+02  0.19745218185E+03  0.32213896027E+03  0.12500000000E+03 0.  0.
</event>
<event>
 4    0  0.2233588E-002  0.1772275E+03  0.7546771E-02  0.1170514E+00
         21   -1    0    0  502  501  0.00000000000E+00  0.00000000000E+00  0.20281251085E+03  0.20281251085E+03  0.00000000000E+00 0. -1.
         21   -1    0    0  501  502 -0.00000000000E+00 -0.00000000000E+00 -0.15487008345E+03  0.15487008345E+03  0.00000000000E+00 0. -1.
         25    1    1    2    0    0  0.37617910495E+02 -0.34306871402E+02 -0.91933363068E+02  0.16330588434E+03  0.12500000000E+03 0.  0.
         25    1    1    2    0    0 -0.37617910495E+02  0.34306871402E+02  0.13987579047E+03  0.19437670996E+03  0.12500000000E+03 0.  0.
</event>
<event>
 4    0  0.2233588E-002  0.2071125E+03  0.7546771E-02  0.1143873E+00
         21   -1    0    0  502  501  0.00000000000E+00  0.00000000000E+00  0.42934836695E+03  0.42934836695E+03  0.00000000000E+00 0. -1.
         21   -1    0    0  501  502 -0.00000000000E+00 -0.00000000000E+00 -0.99908569053E+02  0.99908569053E+02  0.00000000000E+00 0. -1.
         25    1    1    2    0    0 -0.59305196710E+02 -0.81280005089E+02  0.33203101935E+03  0.36877248188E+03  0.12500000000E+03 0.  0.
         25    1    1    2    0    0  0.59305196710E+02  0.81280005089E+02 -0.25912214567E+01  0.16048445412E+03  0.12500000000E+03 0.  0.
</event>
<event>
 4    0  0.2233588E-002  0.2291864E+03  0.7546771E-02  0.1127214E+00
         21   -1    0    0  502  501  0.00000000000E+00  0.00000000000E+00  0.10994233517E+03  0.10994233517E+03  0.00000000000E+00 0. -1.
         21   -1    0    0  501  502 -0.00000000000E+00 -0.00000000000E+00 -0.47776333362E+03  0.47776333362E+03  0.00000000000E+00 0. -1.
         25    1    1    2    0    0  0.99636802604E+02  0.16421843038E+03 -0.18070992143E+03  0.29184972334E+03  0.12500000000E+03 0.  0.
         25    1    1    2    0    0 -0.99636802604E+02 -0.16421843038E+03 -0.18711107703E+03  0.29585594545E+03  0.12500000000E+03 0.  0.
</event>
<event>
 4    0  0.2233588E-002  0.1715776E+03  0.7546771E-02  0.1176213E+00
         21   -1    0    0  502  501  0.00000000000E+00  0.00000000000E+00  0.58413809326E+03  0.58413809326E+03  0.00000000000E+00 0. -1.
         21   -1    0    0  501  502 -0.00000000000E+00 -0.00000000000E+00 -0.50397101301E+02  0.50397101301E+02  0.00000000000E+00 0. -1.
         25    1    1    2    0    0 -0.49952465011E+02  0.18432191748E+01  0.46356702036E+03  0.48271940979E+03  0.12500000000E+03 0.  0.
         25    1    1    2    0    0  0.49952465011E+02 -0.18432191748E+01  0.70173971600E+02  0.15181578478E+03  0.12500000000E+03 0.  0.
</event>
<event>
 4    0  0.2233588E-002  0.3725213E+03  0.7546771E-02  0.1053733E+00
         21   -1    0    0  502  501  0.00000000000E+00  0.00000000000E+00  0.41837039542E+03  0.41837039542E+03  0.00000000000E+00 0. -1.
         21   -1    0    0  501  502 -0.00000000000E+00 -0.00000000000E+00 -0.33169683841E+03  0.33169683841E+03  0.00000000000E+00 0. -1.
         25    1    1    2    0    0 -0.30508187396E+03  0.70652064731E+02  0.20277297459E+03  0.39345716831E+03  0.12500000000E+03 0.  0.
         25    1    1    2    0    0  0.30508187396E+03 -0.70652064731E+02 -0.11609941758E+03  0.35661006552E+03  0.12500000000E+03 0.  0.
</event>
<event>
 4    0  0.2233588E-002  0.2078826E+03  0.7546771E-02  0.1143254E+00
         21   -1    0    0  502  501  0.00000000000E+00  0.00000000000E+00  0.22638395603E+04  0.22638395603E+04  0.00000000000E+00 0.  1.
         21   -1    0    0  501  502 -0.00000000000E+00 -0.00000000000E+00 -0.19089331952E+02  0.19089331952E+02  0.00000000000E+00 0.  1.
         25    1    1    2    0    0  0.10066172082E+03  0.11879063708E+02  0.18449313190E+04  0.18519369498E+04  0.12500000000E+03 0.  0.
         25    1    1    2    0    0 -0.10066172082E+03 -0.11879063708E+02  0.39981890938E+03  0.43099194249E+03  0.12500000000E+03 0.  0.
</event>
<event>
 4    0  0.2233588E-002  0.2204438E+03  0.7546771E-02  0.1133553E+00
         21   -1    0    0  502  501  0.00000000000E+00  0.00000000000E+00  0.40619317877E+03  0.40619317877E+03  0.00000000000E+00 0.  1.
         21   -1    0    0  501  502 -0.00000000000E+00 -0.00000000000E+00 -0.11963636214E+03  0.11963636214E+03  0.00000000000E+00 0.  1.
         25    1    1    2    0    0  0.16812657190E+03  0.60816792545E+02  0.18109249707E+03  0.28352199020E+03  0.12500000000E+03 0.  0.
         25    1    1    2    0    0 -0.16812657190E+03 -0.60816792545E+02  0.10546431956E+03  0.24230755072E+03  0.12500000000E+03 0.  0.
</event>
<event>
 4    0  0.2233588E-002  0.2106166E+03  0.7546771E-02  0.1141079E+00
         21   -1    0    0  502  501  0.00000000000E+00  0.00000000000E+00  0.21120932455E+03  0.21120932455E+03  0.00000000000E+00 0. -1.
         21   -1    0    0  501  502 -0.00000000000E+00 -0.00000000000E+00 -0.21002554781E+03  0.21002554781E+03  0.00000000000E+00 0. -1.
         25    1    1    2    0    0  0.51409966804E+02 -0.12326265872E+03  0.10498428481E+03  0.21091080527E+03  0.12500000000E+03 0.  0.
         25    1    1    2    0    0 -0.51409966804E+02  0.12326265872E+03 -0.10380050806E+03  0.21032406709E+03  0.12500000000E+03 0.  0.
</event>
<event>
 4    0  0.2233588E-002  0.3066722E+03  0.7546771E-02  0.1081952E+00
         21   -1    0    0  502  501  0.00000000000E+00  0.00000000000E+00  0.20767226213E+03  0.20767226213E+03  0.00000000000E+00 0.  1.
         21   -1    0    0  501  502 -0.00000000000E+00 -0.00000000000E+00 -0.45286654822E+03  0.45286654822E+03  0.00000000000E+00 0.  1.
         25    1    1    2    0    0 -0.22638159212E+03  0.16404542949E+03 -0.10512230842E+03  0.32378268625E+03  0.12500000000E+03 0.  0.
         25    1    1    2    0    0  0.22638159212E+03 -0.16404542949E+03 -0.14007197767E+03  0.33675612410E+03  0.12500000000E+03 0.  0.
</event>
<event>
 4    0  0.2233588E-002  0.1637046E+03  0.7546771E-02  0.1184577E+00
         21   -1    0    0  502  501  0.00000000000E+00  0.00000000000E+00  0.29088635670E+02  0.29088635670E+02  0.00000000000E+00 0.  1.
         21   -1    0    0  501  502 -0.00000000000E+00 -0.00000000000E+00 -0.92129393441E+03  0.92129393441E+03  0.00000000000E+00 0.  1.
         25    1    1    2    0    0 -0.50613024827E+02 -0.15934075008E+02 -0.18071865218E+03  0.22605265819E+03  0.12500000000E+03 0.  0.
         25    1    1    2    0    0  0.50613024827E+02  0.15934075008E+02 -0.71148664655E+03  0.72432991189E+03  0.12500000000E+03 0.  0.
</event>
<event>
 4    0  0.2233588E-002  0.2343539E+03  0.7546771E-02  0.1123612E+00
         21   -1    0    0  502  501  0.00000000000E+00  0.00000000000E+00  0.25328438695E+03  0.25328438695E+03  0.00000000000E+00 0. -1.
         21   -1    0    0  501  502 -0.00000000000E+00 -0.00000000000E+00 -0.21683832656E+03  0.21683832656E+03  0.00000000000E+00 0. -1.
         25    1    1    2    0    0 -0.54640331964E+02 -0.19049834619E+03  0.13563921380E+02  0.23470016136E+03  0.12500000000E+03 0.  0.
         25    1    1    2    0    0  0.54640331964E+02  0.19049834619E+03  0.22882139005E+02  0.23542255215E+03  0.12500000000E+03 0.  0.
</event>
<event>
 4    0  0.2233588E-002  0.1996849E+03  0.7546771E-02  0.1150005E+00
         21   -1    0    0  502  501  0.00000000000E+00  0.00000000000E+00  0.83091638217E+02  0.83091638217E+02  0.00000000000E+00 0.  1.
         21   -1    0    0  501  502 -0.00000000000E+00 -0.00000000000E+00 -0.47988035103E+03  0.47988035103E+03  0.00000000000E+00 0.  1.
         25    1    1    2    0    0  0.14308740313E+03 -0.49548629544E+02 -0.24960899976E+03  0.31758262608E+03  0.12500000000E+03 0.  0.
         25    1    1    2    0    0 -0.14308740313E+03  0.49548629544E+02 -0.14717971305E+03  0.24538936317E+03  0.12500000000E+03 0.  0.
</event>
<event>
 4    0  0.2233588E-002  0.2501999E+03  0.7546771E-02  0.1113179E+00
         21   -1    0    0  502  501  0.00000000000E+00  0.00000000000E+00  0.12406063449E+04  0.12406063449E+04  0.00000000000E+00 0. -1.
         21   -1    0    0  501  502 -0.00000000000E+00 -0.00000000000E+00 -0.50459196903E+02  0.50459196903E+02  0.00000000000E+00 0. -1.
         25    1    1    2    0    0 -0.18463559487E+03 -0.11303574786E+03  0.62183879664E+03  0.67020584315E+03  0.12500000000E+03 0.  0.
         25    1    1    2    0    0  0.18463559487E+03  0.11303574786E+03  0.56830835133E+03  0.62085969863E+03  0.12500000000E+03 0.  0.
</event>
<event>
 4    0  0.2233588E-002  0.2399419E+03  0.7546771E-02  0.1119832E+00
         21   -1    0    0  502  501  0.00000000000E+00  0.00000000000E+00  0.28612958693E+03  0.28612958693E+03  0.00000000000E+00 0.  1.
         21   -1    0    0  501  502 -0.00000000000E+00 -0.00000000000E+00 -0.20120999418E+03  0.20120999418E+03  0.00000000000E+00 0.  1.
         25    1    1    2    0    0 -0.12407111847E+03 -0.16212039994E+03  0.59161157828E+02  0.24658002577E+03  0.12500000000E+03 0.  0.
         25    1    1    2    0    0  0.12407111847E+03  0.16212039994E+03  0.25758434924E+02  0.24075955534E+03  0.12500000000E+03 0.  0.
</event>
<event>
 4    0  0.2233588E-002  0.2696794E+03  0.7546771E-02  0.1101463E+00
         21   -1    0    0  502  501  0.00000000000E+00  0.00000000000E+00  0.44562236642E+03  0.44562236642E+03  0.00000000000E+00 0. -1.
         21   -1    0    0  501  502 -0.00000000000E+00 -0.00000000000E+00 -0.16320313397E+03  0.16320313397E+03  0.00000000000E+00 0. -1.
         25    1    1    2    0    0  0.34382415064E+02 -0.52368319435E+02 -0.11909301058E+03  0.18366473945E+03  0.12500000000E+03 0.  0.
         25    1    1    2    0    0 -0.34382415064E+02  0.52368319435E+02  0.40151224303E+03  0.42516076095E+03  0.12500000000E+03 0.  0.
</event>
<event>
 4    0  0.2233588E-002  0.2296513E+03  0.7546771E-02  0.1126885E+00
         21   -1    0    0  502  501  0.00000000000E+00  0.00000000000E+00  0.34299611947E+03  0.34299611947E+03  0.00000000000E+00 0. -1.
         21   -1    0    0  501  502 -0.00000000000E+00 -0.00000000000E+00 -0.15376181888E+03  0.15376181888E+03  0.00000000000E+00 0.  1.
         25    1    1    2    0    0  0.76454332582E+02  0.17653140161E+03  0.83476336822E+02  0.24413500268E+03  0.12500000000E+03 0.  0.
         25    1    1    2    0    0 -0.76454332582E+02 -0.17653140161E+03  0.10575796377E+03  0.25262293567E+03  0.12500000000E+03 0.  0.
</event>
<event>
 4    0  0.2233588E-002  0.3336968E+03  0.7546771E-02  0.1069513E+00
         21   -1    0    0  502  501  0.00000000000E+00  0.00000000000E+00  0.83782729701E+02  0.83782729701E+02  0.00000000000E+00 0.  1.
         21   -1    0    0  501  502 -0.00000000000E+00 -0.00000000000E+00 -0.13290756402E+04  0.13290756402E+04  0.00000000000E+00 0.  1.
         25    1    1    2    0    0  0.24051365401E+03 -0.19447804500E+03 -0.63905233969E+03  0.72088932619E+03  0.12500000000E+03 0.  0.
         25    1    1    2    0    0 -0.24051365401E+03  0.19447804500E+03 -0.60624057078E+03  0.69196904368E+03  0.12500000000E+03 0.  0.
</event>
<event>
 4    0  0.2233588E-002  0.1849175E+03  0.7546771E-02  0.1163127E+00
         21   -1    0    0  502  501  0.00000000000E+00  0.00000000000E+00  0.38421663424E+03  0.38421663424E+03  0.00000000000E+00 0.  1.
         21   -1    0    0  501  502 -0.00000000000E+00 -0.00000000000E+00 -0.88997909348E+02  0.88997909348E+02  0.00000000000E+00 0.  1.
         25    1    1    2    0    0 -0.43244642538E+02  0.20236642400E+02 -0.15699115676E+02  0.13472595532E+03  0.12500000000E+03 0.  0.
         25    1    1    2    0    0  0.43244642538E+02 -0.20236642400E+02  0.31091784057E+03  0.33848858827E+03  0.12500000000E+03 0.  0.
</event>
<event>
 4    0  0.2233588E-002  0.2383648E+03  0.7546771E-02  0.1120887E+00
         21   -1    0    0  502  501  0.00000000000E+00  0.00000000000E+00  0.20617257268E+03  0.20617257268E+03  0.00000000000E+00 0.  1.
         21   -1    0    0  501  502 -0.00000000000E+00 -0.00000000000E+00 -0.27558352437E+03  0.27558352437E+03  0.00000000000E+00 0.  1.
         25    1    1    2    0    0  0.29445139365E+02  0.32317748537E+02  0.16557939351E+03  0.21202119860E+03  0.12500000000E+03 0.  0.
         25    1    1    2    0    0 -0.29445139365E+02 -0.32317748537E+02 -0.23499034520E+03  0.26973489845E+03  0.12500000000E+03 0.  0.
</event>
<event>
 4    0  0.2233588E-002  0.3035630E+03  0.7546771E-02  0.1083473E+00
         21   -1    0    0  502  501  0.00000000000E+00  0.00000000000E+00  0.76581290437E+02  0.76581290437E+02  0.00000000000E+00 0. -1.
         21   -1    0    0  501  502 -0.00000000000E+00 -0.00000000000E+00 -0.12033028507E+04  0.12033028507E+04  0.00000000000E+00 0. -1.
         25    1    1    2    0    0  0.73689031102E+02 -0.24460687848E+03 -0.33963465099E+03  0.44298904553E+03  0.12500000000E+03 0.  0.
         25    1    1    2    0    0 -0.73689031102E+02  0.24460687848E+03 -0.78708690925E+03  0.83689509558E+03  0.12500000000E+03 0.  0.
</event>
<event>
 4    0  0.2233588E-002  0.3568451E+03  0.7546771E-02  0.1059840E+00
         21   -1    0    0  502  501  0.00000000000E+00  0.00000000000E+00  0.15935470829E+03  0.15935470829E+03  0.00000000000E+00 0.  1.
         21   -1    0    0  501  502 -0.00000000000E+00 -0.00000000000E+00 -0.79908803879E+03  0.79908803879E+03  0.00000000000E+00 0.  1.
         25    1    1    2    0    0  0.16859810537E+03  0.28554061098E+03 -0.37612091491E+03  0.51676948854E+03  0.12500000000E+03 0.  0.
         25    1    1    2    0    0 -0.16859810537E+03 -0.28554061098E+03 -0.26361241559E+03  0.44167325854E+03  0.12500000000E+03 0.  0.
</event>
<event>
 4    0  0.2233588E-002  0.1872984E+03  0.7546771E-02  0.1160921E+00
         21   -1    0    0  502  501  0.00000000000E+00  0.00000000000E+00  0.85978281184E+02  0.85978281184E+02  0.00000000000E+00 0.  1.
         21   -1    0    0  501  502 -0.00000000000E+00 -0.00000000000E+00 -0.40801819959E+03  0.40801819959E+03  0.00000000000E+00 0.  1.
         25    1    1    2    0    0  0.14501676184E+02 -0.13872336558E+03 -0.15955578665E+03  0.24604373559E+03  0.12500000000E+03 0.  0.
         25    1    1    2    0    0 -0.14501676184E+02  0.13872336558E+03 -0.16248413176E+03  0.24795274518E+03  0.12500000000E+03 0.  0.
</event>
<event>
 4    0  0.2233588E-002  0.2336136E+03  0.7546771E-02  0.1124122E+00
         21   -1    0    0  502  501  0.00000000000E+00  0.00000000000E+00  0.26343244946E+03  0.26343244946E+03  0.00000000000E+00 0.  1.
         21   -1    0    0  501  502 -0.00000000000E+00 -0.00000000000E+00 -0.20717007004E+03  0.20717007004E+03  0.00000000000E+00 0.  1.
         25    1    1    2    0    0  0.15260231076E+03  0.22879833201E+02  0.15206219404E+03  0.25011769804E+03  0.12500000000E+03 0.  0.
         25    1    1    2    0    0 -0.15260231076E+03 -0.22879833201E+02 -0.95799814612E+02  0.22048482146E+03  0.12500000000E+03 0.  0.
</event>
<event>
 4    0  0.2233588E-002  0.1426930E+03  0.7546771E-02  0.1209751E+00
         21   -1    0    0  502  501  0.00000000000E+00  0.00000000000E+00  0.26692177675E+03  0.26692177675E+03  0.00000000000E+00 0. -1.
         21   -1    0    0  501  502 -0.00000000000E+00 -0.00000000000E+00 -0.76281860240E+02  0.76281860240E+02  0.00000000000E+00 0. -1.
         25    1    1    2    0    0 -0.30505718394E+02 -0.16462522047E+01  0.21157980429E+02  0.13040693669E+03  0.12500000000E+03 0.  0.
         25    1    1    2    0    0  0.30505718394E+02  0.16462522047E+01  0.16948193608E+03  0.21279670030E+03  0.12500000000E+03 0.  0.
</event>
<event>
 4    0  0.2233588E-002  0.2015849E+03  0.7546771E-02  0.1148409E+00
         21   -1    0    0  502  501  0.00000000000E+00  0.00000000000E+00  0.15253468620E+03  0.15253468620E+03  0.00000000000E+00 0. -1.
         21   -1    0    0  501  502 -0.00000000000E+00 -0.00000000000E+00 -0.26640820257E+03  0.26640820257E+03  0.00000000000E+00 0. -1.
         25    1    1    2    0    0 -0.14577206809E+03 -0.46910670577E+02 -0.15876498800E+02  0.19831079160E+03  0.12500000000E+03 0.  0.
         25    1    1    2    0    0  0.14577206809E+03  0.46910670577E+02 -0.97997017565E+02  0.22063209717E+03  0.12500000000E+03 0.  0.
</event>
<event>
 4    0  0.2233588E-002  0.3047275E+03  0.7546771E-02  0.1082901E+00
         21   -1    0    0  502  501  0.00000000000E+00  0.00000000000E+00  0.44249751600E+02  0.44249751600E+02  0.00000000000E+00 0. -1.
         21   -1    0    0  501  502 -0.00000000000E+00 -0.00000000000E+00 -0.20985167648E+04  0.20985167648E+04  0.00000000000E+00 0. -1.
         25    1    1    2    0    0  0.16932479057E+03  0.39119432396E+01 -0.18018046087E+04  0.18140592702E+04  0.12500000000E+03 0.  0.
         25    1    1    2    0    0 -0.16932479057E+03 -0.39119432396E+01 -0.25246240456E+03  0.32870724622E+03  0.12500000000E+03 0.  0.
</event>
<event>
 4    0  0.2233588E-002  0.3005224E+03  0.7546771E-02  0.1084980E+00
         21   -1    0    0  502  501  0.00000000000E+00  0.00000000000E+00  0.89886775153E+03  0.89886775153E+03  0.00000000000E+00 0.  1.
         21   -1    0    0  501  502 -0.00000000000E+00 -0.00000000000E+00 -0.10047496910E+03  0.10047496910E+03  0.00000000000E+00 0.  1.
         25    1    1    2    0    0  0.24849235745E+03  0.95787132981E+02  0.29717414175E+03  0.41816395957E+03  0.12500000000E+03 0.  0.
         25    1    1    2    0    0 -0.24849235745E+03 -0.95787132981E+02  0.50121864067E+03  0.58117876106E+03  0.12500000000E+03 0.  0.
</event>
<event>
 4    0  0.2233588E-002  0.1714520E+03  0.7546771E-02  0.1176342E+00
         21   -1    0    0  502  501  0.00000000000E+00  0.00000000000E+00  0.59014025673E+02  0.59014025673E+02  0.00000000000E+00 0. -1.
         21   -1    0    0  501  502 -0.00000000000E+00 -0.00000000000E+00 -0.49811528107E+03  0.49811528107E+03  0.00000000000E+00 0. -1.
         25    1    1    2    0    0 -0.11999515978E+02 -0.11426194096E+03 -0.18072623040E+03  0.24796521912E+03  0.12500000000E+03 0.  0.
         25    1    1    2    0    0  0.11999515978E+02  0.11426194096E+03 -0.25837502499E+03  0.30916408762E+03  0.12500000000E+03 0.  0.
</event>
<event>
 4    0  0.2233588E-002  0.2889664E+03  0.7546771E-02  0.1090890E+00
         21   -1    0    0  502  501  0.00000000000E+00  0.00000000000E+00  0.29501156255E+03  0.29501156255E+03  0.00000000000E+00 0.  1.
         21   -1    0    0  501  502 -0.00000000000E+00 -0.00000000000E+00 -0.28304506931E+03  0.28304506931E+03  0.00000000000E+00 0.  1.
         25    1    1    2    0    0  0.19469366744E+03  0.14875696878E+03  0.94559036012E+02  0.29086194525E+03  0.12500000000E+03 0.  0.
         25    1    1    2    0    0 -0.19469366744E+03 -0.14875696878E+03 -0.82592542765E+02  0.28719468662E+03  0.12500000000E+03 0.  0.
</event>
<event>
 4    0  0.2233588E-002  0.3028980E+03  0.7546771E-02  0.1083801E+00
         21   -1    0    0  502  501  0.00000000000E+00  0.00000000000E+00  0.50423192108E+03  0.50423192108E+03  0.00000000000E+00 0. -1.
         21   -1    0    0  501  502 -0.00000000000E+00 -0.00000000000E+00 -0.18195436685E+03  0.18195436685E+03  0.00000000000E+00 0. -1.
         25    1    1    2    0    0 -0.23352944230E+03 -0.10405101457E+03  0.43645394131E+02  0.28791063628E+03  0.12500000000E+03 0.  0.
         25    1    1    2    0    0  0.23352944230E+03  0.10405101457E+03  0.27863216010E+03  0.39827565165E+03  0.12500000000E+03 0.  0.
</event>
<event>
 4    0  0.2233588E-002  0.2465706E+03  0.7546771E-02  0.1115492E+00
         21   -1    0    0  502  501  0.00000000000E+00  0.00000000000E+00  0.13298463944E+03  0.13298463944E+03  0.00000000000E+00 0.  1.
         21   -1    0    0  501  502 -0.00000000000E+00 -0.00000000000E+00 -0.45717344413E+03  0.45717344413E+03  0.00000000000E+00 0.  1.
         25    1    1    2    0    0 -0.66057103407E+02  0.11367488044E+03  0.37751080478E+02  0.18529884898E+03  0.12500000000E+03 0.  0.
         25    1    1    2    0    0  0.66057103407E+02 -0.11367488044E+03 -0.36193988517E+03  0.40485923459E+03  0.12500000000E+03 0.  0.
</event>
<event>
 4    0  0.2233588E-002  0.4157292E+03  0.7546771E-02  0.1038465E+00
         21   -1    0    0  502  501  0.00000000000E+00  0.00000000000E+00  0.34999272357E+03  0.34999272357E+03  0.00000000000E+00 0. -1.
         21   -1    0    0  501  502 -0.00000000000E+00 -0.00000000000E+00 -0.49381242299E+03  0.49381242299E+03  0.00000000000E+00 0. -1.
         25    1    1    2    0    0  0.92843312428E+02  0.26889897844E+03 -0.35219801730E+03  0.46967540351E+03  0.12500000000E+03 0.  0.
         25    1    1    2    0    0 -0.92843312428E+02 -0.26889897844E+03  0.20837831789E+03  0.37412974305E+03  0.12500000000E+03 0.  0.
</event>
<event>
 4    0  0.2233588E-002  0.2257829E+03  0.7546771E-02  0.1129644E+00
         21   -1    0    0  502  501  0.00000000000E+00  0.00000000000E+00  0.32396765417E+03  0.32396765417E+03  0.00000000000E+00 0. -1.
         21   -1    0    0  501  502 -0.00000000000E+00 -0.00000000000E+00 -0.15735493690E+03  0.15735493690E+03  0.00000000000E+00 0. -1.
         25    1    1    2    0    0  0.42617167034E+02  0.34017751230E+02  0.27510705049E+03  0.30705426158E+03  0.12500000000E+03 0.  0.
         25    1    1    2    0    0 -0.42617167034E+02 -0.34017751230E+02 -0.10849433322E+03  0.17426832950E+03  0.12500000000E+03 0.  0.
</event>
<event>
 4    0  0.2233588E-002  0.2266790E+03  0.7546771E-02  0.1128999E+00
         21   -1    0    0  502  501  0.00000000000E+00  0.00000000000E+00  0.10801885132E+04  0.10801885132E+04  0.00000000000E+00 0. -1.
         21   -1    0    0  501  502 -0.00000000000E+00 -0.00000000000E+00 -0.47568887198E+02  0.47568887198E+02  0.00000000000E+00 0. -1.
         25    1    1    2    0    0  0.90867425593E+02  0.59126917987E+02  0.13089389209E+03  0.21097652109E+03  0.12500000000E+03 0.  0.
         25    1    1    2    0    0 -0.90867425593E+02 -0.59126917987E+02  0.90172573388E+03  0.91678087928E+03  0.12500000000E+03 0.  0.
</event>
<event>
 4    0  0.2233588E-002  0.4130278E+03  0.7546771E-02  0.1039360E+00
         21   -1    0    0  502  501  0.00000000000E+00  0.00000000000E+00  0.16445871398E+03  0.16445871398E+03  0.00000000000E+00 0. -1.
         21   -1    0    0  501  502 -0.00000000000E+00 -0.00000000000E+00 -0.10372936585E+04  0.10372936585E+04  0.00000000000E+00 0. -1.
         25    1    1    2    0    0  0.16443123801E+03  0.23359083890E+03 -0.42369436024E+02  0.31467837733E+03  0.12500000000E+03 0.  0.
         25    1    1    2    0    0 -0.16443123801E+03 -0.23359083890E+03 -0.83046550845E+03  0.88707399510E+03  0.12500000000E+03 0.  0.
</event>
<event>
 4    0  0.2233588E-002  0.1870125E+03  0.7546771E-02  0.1161184E+00
         21   -1    0    0  502  501  0.00000000000E+00  0.00000000000E+00  0.37768585105E+03  0.37768585105E+03  0.00000000000E+00 0. -1.
         21   -1    0    0  501  502 -0.00000000000E+00 -0.00000000000E+00 -0.92599894129E+02  0.92599894129E+02  0.00000000000E+00 0. -1.
         25    1    1    2    0    0  0.88439597305E+02 -0.74266929389E+02  0.24003155953E+03  0.29424018887E+03  0.12500000000E+03 0.  0.
         25    1    1    2    0    0 -0.88439597305E+02  0.74266929389E+02  0.45054397383E+02  0.17604555631E+03  0.12500000000E+03 0.  0.
</event>
<event>
 4    0  0.2233588E-002  0.2283817E+03  0.7546771E-02  0.1127784E+00
         21   -1    0    0  502  501  0.00000000000E+00  0.00000000000E+00  0.96601629444E+02  0.96601629444E+02  0.00000000000E+00 0. -1.
         21   -1    0    0  501  502 -0.00000000000E+00 -0.00000000000E+00 -0.53993107195E+03  0.53993107195E+03  0.00000000000E+00 0. -1.
         25    1    1    2    0    0  0.87913493487E+02  0.85105015311E+02 -0.17034590196E+02  0.17574647431E+03  0.12500000000E+03 0.  0.
         25    1    1    2    0    0 -0.87913493487E+02 -0.85105015311E+02 -0.42629485231E+03  0.46078622709E+03  0.12500000000E+03 0.  0.
</event>
<event>
 4    0  0.2233588E-002  0.3184125E+03  0.7546771E-02  0.1076382E+00
         21   -1    0    0  502  501  0.00000000000E+00  0.00000000000E+00  0.86084843321E+02  0.86084843321E+02  0.00000000000E+00 0.  1.
         21   -1    0    0  501  502 -0.00000000000E+00 -0.00000000000E+00 -0.11777507764E+04  0.11777507764E+04  0.00000000000E+00 0.  1.
         25    1    1    2    0    0 -0.75933905746E+02 -0.14387902849E+03 -0.10290889451E+04  0.10493408359E+04  0.12500000000E+03 0.  0.
         25    1    1    2    0    0  0.75933905746E+02  0.14387902849E+03 -0.62576987991E+02  0.21449478387E+03  0.12500000000E+03 0.  0.
</event>
<event>
 4    0  0.2233588E-002  0.2198603E+03  0.7546771E-02  0.1133987E+00
         21   -1    0    0  502  501  0.00000000000E+00  0.00000000000E+00  0.18986434642E+03  0.18986434642E+03  0.00000000000E+00 0. -1.
         21   -1    0    0  501  502 -0.00000000000E+00 -0.00000000000E+00 -0.25459517531E+03  0.25459517531E+03  0.00000000000E+00 0. -1.
         25    1    1    2    0    0 -0.17008568118E+03 -0.48902420554E+02 -0.70090035448E+02  0.22772395295E+03  0.12500000000E+03 0.  0.
         25    1    1    2    0    0  0.17008568118E+03  0.48902420554E+02  0.53592065563E+01  0.21673556878E+03  0.12500000000E+03 0.  0.
</event>
<event>
 4    0  0.2233588E-002  0.2588785E+03  0.7546771E-02  0.1107819E+00
         21   -1    0    0  502  501  0.00000000000E+00  0.00000000000E+00  0.28230495395E+03  0.28230495395E+03  0.00000000000E+00 0. -1.
         21   -1    0    0  501  502 -0.00000000000E+00 -0.00000000000E+00 -0.23739598466E+03  0.23739598466E+03  0.00000000000E+00 0. -1.
         25    1    1    2    0    0  0.31820640760E+02 -0.21358849026E+03  0.91709672692E+02  0.26583502481E+03  0.12500000000E+03 0.  0.
         25    1    1    2    0    0 -0.31820640760E+02  0.21358849026E+03 -0.46800703406E+02  0.25386591380E+03  0.12500000000E+03 0.  0.
</event>
<event>
 4    0  0.2233588E-002  0.2031692E+03  0.7546771E-02  0.1147092E+00
         21   -1    0    0  502  501  0.00000000000E+00  0.00000000000E+00  0.39050153057E+03  0.39050153057E+03  0.00000000000E+00 0. -1.
         21   -1    0    0  501  502 -0.00000000000E+00 -0.00000000000E+00 -0.10570441421E+03  0.10570441421E+03  0.00000000000E+00 0. -1.
         25    1    1    2    0    0  0.11370737654E+03 -0.24656306597E+02  0.79848587829E+01  0.17095630700E+03  0.12500000000E+03 0.  0.
         25    1    1    2    0    0 -0.11370737654E+03  0.24656306597E+02  0.27681225758E+03  0.32524963778E+03  0.12500000000E+03 0.  0.
</event>
<event>
 4    0  0.2233588E-002  0.2082658E+03  0.7546771E-02  0.1142947E+00
         21   -1    0    0  502  501  0.00000000000E+00  0.00000000000E+00  0.13180003770E+03  0.13180003770E+03  0.00000000000E+00 0.  1.
         21   -1    0    0  501  502 -0.00000000000E+00 -0.00000000000E+00 -0.32909440231E+03  0.32909440231E+03  0.00000000000E+00 0.  1.
         25    1    1    2    0    0  0.12699242373E+01 -0.15147473236E+03 -0.17533563535E+03  0.26327512658E+03  0.12500000000E+03 0.  0.
         25    1    1    2    0    0 -0.12699242373E+01  0.15147473236E+03 -0.21958729267E+02  0.19761931344E+03  0.12500000000E+03 0.  0.
</event>
<event>
 4    0  0.2233588E-002  0.1880427E+03  0.7546771E-02  0.1160239E+00
         21   -1    0    0  502  501  0.00000000000E+00  0.00000000000E+00  0.50680812834E+03  0.50680812834E+03  0.00000000000E+00 0. -1.
         21   -1    0    0  501  502 -0.00000000000E+00 -0.00000000000E+00 -0.69770102118E+02  0.69770102118E+02  0.00000000000E+00 0. -1.
         25    1    1    2    0    0  0.13335478537E+03 -0.30421634919E+02  0.26762816534E+03  0.32551314803E+03  0.12500000000E+03 0.  0.
         25    1    1    2    0    0 -0.13335478537E+03  0.30421634919E+02  0.16940986088E+03  0.25106508243E+03  0.12500000000E+03 0.  0.
</event>
<event>
 4    0  0.2233588E-002  0.1821387E+03  0.7546771E-02  0.1165749E+00
         21   -1    0    0  502  501  0.00000000000E+00  0.00000000000E+00  0.86871462738E+02  0.86871462738E+02  0.00000000000E+00 0. -1.
         21   -1    0    0  501  502 -0.00000000000E+00 -0.00000000000E+00 -0.38188056292E+03  0.38188056292E+03  0.00000000000E+00 0. -1.
         25    1    1    2    0    0  0.64916194216E+02  0.10555756934E+03 -0.87244267917E+02  0.19645120259E+03  0.12500000000E+03 0.  0.
         25    1    1    2    0    0 -0.64916194216E+02 -0.10555756934E+03 -0.20776483227E+03  0.27230082307E+03  0.12500000000E+03 0.  0.
</event>
<event>
 4    0  0.2233588E-002  0.2534094E+03  0.7546771E-02  0.1111169E+00
         21   -1    0    0  502  501  0.00000000000E+00  0.00000000000E+00  0.52740261851E+02  0.52740261851E+02  0.00000000000E+00 0. -1.
         21   -1    0    0  501  502 -0.00000000000E+00 -0.00000000000E+00 -0.12175957347E+04  0.12175957347E+04  0.00000000000E+00 0. -1.
         25    1    1    2    0    0  0.30626852238E+02  0.20571292069E+03 -0.76551317268E+03  0.80305119847E+03  0.12500000000E+03 0.  0.
         25    1    1    2    0    0 -0.30626852238E+02 -0.20571292069E+03 -0.39934230019E+03  0.46728479811E+03  0.12500000000E+03 0.  0.
</event>
<event>
 4    0  0.2233588E-002  0.3344626E+03  0.7546771E-02  0.1069179E+00
         21   -1    0    0  502  501  0.00000000000E+00  0.00000000000E+00  0.76447705609E+03  0.76447705609E+03  0.00000000000E+00 0. -1.
         21   -1    0    0  501  502 -0.00000000000E+00 -0.00000000000E+00 -0.14632908044E+03  0.14632908044E+03  0.00000000000E+00 0. -1.
         25    1    1    2    0    0 -0.13824021530E+03 -0.14246350117E+03  0.63367702899E+03  0.67570539687E+03  0.12500000000E+03 0.  0.
         25    1    1    2    0    0  0.13824021530E+03  0.14246350117E+03 -0.15529053339E+02  0.23510073966E+03  0.12500000000E+03 0.  0.
</event>
<event>
 4    0  0.2233588E-002  0.4465071E+03  0.7546771E-02  0.1028769E+00
         21   -1    0    0  502  501  0.00000000000E+00  0.00000000000E+00  0.17973816153E+03  0.17973816153E+03  0.00000000000E+00 0. -1.
         21   -1    0    0  501  502 -0.00000000000E+00 -0.00000000000E+00 -0.11092166557E+04  0.11092166557E+04  0.00000000000E+00 0.  1.
         25    1    1    2    0    0  0.53014329552E+02 -0.35443609749E+03 -0.80418760648E+03  0.88925709036E+03  0.12500000000E+03 0.  0.
         25    1    1    2    0    0 -0.53014329552E+02  0.35443609749E+03 -0.12529088771E+03  0.39969772689E+03  0.12500000000E+03 0.  0.
</event>
<event>
 4    0  0.2233588E-002  0.1740520E+03  0.7546771E-02  0.1173687E+00
         21   -1    0    0  502  501  0.00000000000E+00  0.00000000000E+00  0.23061311843E+03  0.23061311843E+03  0.00000000000E+00 0. -1.
         21   -1    0    0  501  502 -0.00000000000E+00 -0.00000000000E+00 -0.13136327257E+03  0.13136327257E+03  0.00000000000E+00 0. -1.
         25    1    1    2    0    0  0.37712209330E+02  0.11409503768E+03  0.65367791094E+02  0.18530471248E+03  0.12500000000E+03 0.  0.
         25    1    1    2    0    0 -0.37712209330E+02 -0.11409503768E+03  0.33882054765E+02  0.17667167852E+03  0.12500000000E+03 0.  0.
</event>
<event>
 4    0  0.2233588E-002  0.7228122E+03  0.7546771E-02  0.9678997E-01
         21   -1    0    0  502  501  0.00000000000E+00  0.00000000000E+00  0.12987715470E+04  0.12987715470E+04  0.00000000000E+00 0.  1.
         21   -1    0    0  501  502 -0.00000000000E+00 -0.00000000000E+00 -0.40227044648E+03  0.40227044648E+03  0.00000000000E+00 0.  1.
         25    1    1    2    0    0  0.57900195660E+03  0.34645189723E+03  0.71543858418E+03  0.99133725370E+03  0.12500000000E+03 0.  0.
         25    1    1    2    0    0 -0.57900195660E+03 -0.34645189723E+03  0.18106251633E+03  0.70970473978E+03  0.12500000000E+03 0.  0.
</event>
<event>
 4    0  0.2233588E-002  0.2125243E+03  0.7546771E-02  0.1139582E+00
         21   -1    0    0  502  501  0.00000000000E+00  0.00000000000E+00  0.34701381264E+04  0.34701381264E+04  0.00000000000E+00 0. -1.
         21   -1    0    0  501  502 -0.00000000000E+00 -0.00000000000E+00 -0.13015785535E+02  0.13015785535E+02  0.00000000000E+00 0. -1.
         25    1    1    2    0    0  0.38068699217E+02  0.24525359623E+02  0.36984665110E+03  0.39301687554E+03  0.12500000000E+03 0.  0.
         25    1    1    2    0    0 -0.38068699217E+02 -0.24525359623E+02  0.30872756897E+04  0.30901370364E+04  0.12500000000E+03 0.  0.
</event>
<event>
 4    0  0.2233588E-002  0.3327027E+03  0.7546771E-02  0.1069947E+00
         21   -1    0    0  502  501  0.00000000000E+00  0.00000000000E+00  0.14953884724E+04  0.14953884724E+04  0.00000000000E+00 0.  1.
         21   -1    0    0  501  502 -0.00000000000E+00 -0.00000000000E+00 -0.74021641966E+02  0.74021641966E+02  0.00000000000E+00 0.  1.
         25    1    1    2    0    0 -0.21653980890E+03 -0.21091857165E+03  0.85395561627E+03  0.91446231594E+03  0.12500000000E+03 0.  0.
         25    1    1    2    0    0  0.21653980890E+03  0.21091857165E+03  0.56741121414E+03  0.65494779841E+03  0.12500000000E+03 0.  0.
</event>
<event>
 4    0  0.2233588E-002  0.2387828E+03  0.7546771E-02  0.1120606E+00
         21   -1    0    0  502  501  0.00000000000E+00  0.00000000000E+00  0.18320307416E+03  0.18320307416E+03  0.00000000000E+00 0.  1.
         21   -1    0    0  501  502 -0.00000000000E+00 -0.00000000000E+00 -0.31122421582E+03  0.31122421582E+03  0.00000000000E+00 0.  1.
         25    1    1    2    0    0  0.18084397671E+03 -0.32696083038E+01 -0.16044989064E+03  0.27218449930E+03  0.12500000000E+03 0.  0.
         25    1    1    2    0    0 -0.18084397671E+03  0.32696083038E+01  0.32428748989E+02  0.22224279068E+03  0.12500000000E+03 0.  0.
</event>
<event>
 4    0  0.2233588E-002  0.2009656E+03  0.7546771E-02  0.1148927E+00
         21   -1    0    0  502  501  0.00000000000E+00  0.00000000000E+00  0.10729673198E+03  0.10729673198E+03  0.00000000000E+00 0.  1.
         21   -1    0    0  501  502 -0.00000000000E+00 -0.00000000000E+00 -0.37640642764E+03  0.37640642764E+03  0.00000000000E+00 0.  1.
         25    1    1    2    0    0  0.49348760315E+02  0.14870357928E+03 -0.15216490633E+03  0.25164898838E+03  0.12500000000E+03 0.  0.
         25    1    1    2    0    0 -0.49348760315E+02 -0.14870357928E+03 -0.11694478933E+03  0.23205417124E+03  0.12500000000E+03 0.  0.
</event>
<event>
 4    0  0.2371957E-002  0.2633578E+03  0.7546771E-02  0.1105142E+00
         21   -1    0    0  502  501  0.00000000000E+00  0.00000000000E+00  0.30187442679E+03  0.30187442679E+03  0.00000000000E+00 0.  1.
         21   -1    0    0  501  502 -0.00000000000E+00 -0.00000000000E+00 -0.22975558148E+03  0.22975558148E+03  0.00000000000E+00 0.  1.
         25    1    1    2    0    0  0.41531829415E+01 -0.19006929701E+02  0.26919903113E+03  0.29744181056E+03  0.12500000000E+03 0.  0.
         25    1    1    2    0    0 -0.41531829415E+01  0.19006929701E+02 -0.19708018582E+03  0.23418819771E+03  0.12500000000E+03 0.  0.
</event>
<event>
 4    0  0.2233588E-002  0.1725668E+03  0.7546771E-02  0.1175197E+00
         21   -1    0    0  502  501  0.00000000000E+00  0.00000000000E+00  0.11057471126E+04  0.11057471126E+04  0.00000000000E+00 0.  1.
         21   -1    0    0  501  502 -0.00000000000E+00 -0.00000000000E+00 -0.26931387122E+02  0.26931387122E+02  0.00000000000E+00 0.  1.
         25    1    1    2    0    0 -0.10050821678E+03  0.61778473851E+02  0.48901005768E+03  0.51833803447E+03  0.12500000000E+03 0.  0.
         25    1    1    2    0    0  0.10050821678E+03 -0.61778473851E+02  0.58980566776E+03  0.61434046520E+03  0.12500000000E+03 0.  0.
</event>
<event>
 4    0  0.2233588E-002  0.2432254E+03  0.7546771E-02  0.1117663E+00
         21   -1    0    0  502  501  0.00000000000E+00  0.00000000000E+00  0.23711316365E+03  0.23711316365E+03  0.00000000000E+00 0. -1.
         21   -1    0    0  501  502 -0.00000000000E+00 -0.00000000000E+00 -0.24949526869E+03  0.24949526869E+03  0.00000000000E+00 0. -1.
         25    1    1    2    0    0  0.12875885031E+03 -0.14778502857E+03  0.65346838753E+02  0.24148388256E+03  0.12500000000E+03 0.  0.
         25    1    1    2    0    0 -0.12875885031E+03  0.14778502857E+03 -0.77728943785E+02  0.24512454978E+03  0.12500000000E+03 0.  0.
</event>
<event>
 4    0  0.2233588E-002  0.2816152E+03  0.7546771E-02  0.1094810E+00
         21   -1    0    0  502  501  0.00000000000E+00  0.00000000000E+00  0.30796218796E+03  0.30796218796E+03  0.00000000000E+00 0. -1.
         21   -1    0    0  501  502 -0.00000000000E+00 -0.00000000000E+00 -0.25752235455E+03  0.25752235455E+03  0.00000000000E+00 0. -1.
         25    1    1    2    0    0  0.22738181338E+02  0.17660732282E+02 -0.22648885336E+03  0.26029046669E+03  0.12500000000E+03 0.  0.
         25    1    1    2    0    0 -0.22738181338E+02 -0.17660732282E+02  0.27692868677E+03  0.30519407582E+03  0.12500000000E+03 0.  0.
</event>
<event>
 4    0  0.2233588E-002  0.1889126E+03  0.7546771E-02  0.1159446E+00
         21   -1    0    0  502  501  0.00000000000E+00  0.00000000000E+00  0.28006031619E+02  0.28006031619E+02  0.00000000000E+00 0. -1.
         21   -1    0    0  501  502 -0.00000000000E+00 -0.00000000000E+00 -0.12742953247E+04  0.12742953247E+04  0.00000000000E+00 0. -1.
         25    1    1    2    0    0 -0.77322927290E+02 -0.30901524485E+01 -0.10320645489E+04  0.10424829098E+04  0.12500000000E+03 0.  0.
         25    1    1    2    0    0  0.77322927290E+02  0.30901524485E+01 -0.21422474412E+03  0.25981844646E+03  0.12500000000E+03 0.  0.
</event>
<event>
 4    0  0.2233588E-002  0.5642052E+03  0.7546771E-02  0.9982584E-01
         21   -1    0    0  502  501  0.00000000000E+00  0.00000000000E+00  0.53634028062E+03  0.53634028062E+03  0.00000000000E+00 0.  1.
         21   -1    0    0  501  502 -0.00000000000E+00 -0.00000000000E+00 -0.59351790194E+03  0.59351790194E+03  0.00000000000E+00 0.  1.
         25    1    1    2    0    0 -0.26926915619E+02  0.34036212589E+03  0.40339385387E+03  0.54306816963E+03  0.12500000000E+03 0.  0.
         25    1    1    2    0    0  0.26926915619E+02 -0.34036212589E+03 -0.46057147518E+03  0.58679001293E+03  0.12500000000E+03 0.  0.
</event>
<event>
 4    0  0.2233588E-002  0.2729917E+03  0.7546771E-02  0.1099579E+00
         21   -1    0    0  502  501  0.00000000000E+00  0.00000000000E+00  0.17551100917E+04  0.17551100917E+04  0.00000000000E+00 0. -1.
         21   -1    0    0  501  502 -0.00000000000E+00 -0.00000000000E+00 -0.42461433908E+02  0.42461433908E+02  0.00000000000E+00 0. -1.
         25    1    1    2    0    0  0.23065359887E+03 -0.45457378116E+02  0.10547426190E+04  0.10878301560E+04  0.12500000000E+03 0.  0.
         25    1    1    2    0    0 -0.23065359887E+03  0.45457378116E+02  0.65790603879E+03  0.70974136964E+03  0.12500000000E+03 0.  0.
</event>
<event>
 4    0  0.2233588E-002  0.7162878E+03  0.7546771E-02  0.9689776E-01
         21   -1    0    0  502  501  0.00000000000E+00  0.00000000000E+00  0.18229365930E+04  0.18229365930E+04  0.00000000000E+00 0. -1.
         21   -1    0    0  501  502 -0.00000000000E+00 -0.00000000000E+00 -0.28145147570E+03  0.28145147570E+03  0.00000000000E+00 0. -1.
         25    1    1    2    0    0 -0.37952059147E+03 -0.30489217247E+03  0.21074741698E+02  0.50305492834E+03  0.12500000000E+03 0.  0.
         25    1    1    2    0    0  0.37952059147E+03  0.30489217247E+03  0.15204103756E+04  0.16013331403E+04  0.12500000000E+03 0.  0.
</event>
<event>
 4    0  0.2233588E-002  0.1997957E+03  0.7546771E-02  0.1149911E+00
         21   -1    0    0  502  501  0.00000000000E+00  0.00000000000E+00  0.62953502306E+02  0.62953502306E+02  0.00000000000E+00 0. -1.
         21   -1    0    0  501  502 -0.00000000000E+00 -0.00000000000E+00 -0.63409232974E+03  0.63409232974E+03  0.00000000000E+00 0. -1.
         25    1    1    2    0    0  0.10818044911E+03  0.10884411418E+03 -0.33312724058E+03  0.38749039882E+03  0.12500000000E+03 0.  0.
         25    1    1    2    0    0 -0.10818044911E+03 -0.10884411418E+03 -0.23801158686E+03  0.30955543323E+03  0.12500000000E+03 0.  0.
</event>
<event>
 4    0  0.2233588E-002  0.2169193E+03  0.7546771E-02  0.1136201E+00
         21   -1    0    0  502  501  0.00000000000E+00  0.00000000000E+00  0.82114194494E+03  0.82114194494E+03  0.00000000000E+00 0.  1.
         21   -1    0    0  501  502 -0.00000000000E+00 -0.00000000000E+00 -0.57303084983E+02  0.57303084983E+02  0.00000000000E+00 0.  1.
         25    1    1    2    0    0 -0.10484263605E+03  0.10109468117E+03  0.58658512881E+03  0.61718654088E+03  0.12500000000E+03 0.  0.
         25    1    1    2    0    0  0.10484263605E+03 -0.10109468117E+03  0.17725373114E+03  0.26125848904E+03  0.12500000000E+03 0.  0.
</event>
<event>
 4    0  0.2233588E-002  0.2331000E+03  0.7546771E-02  0.1124477E+00
         21   -1    0    0  502  501  0.00000000000E+00  0.00000000000E+00  0.18920542267E+03  0.18920542267E+03  0.00000000000E+00 0. -1.
         21   -1    0    0  501  502 -0.00000000000E+00 -0.00000000000E+00 -0.28717792444E+03  0.28717792444E+03  0.00000000000E+00 0. -1.
         25    1    1    2    0    0  0.18544033508E+03 -0.45848662915E+01  0.18032032563E+02  0.22440876336E+03  0.12500000000E+03 0.  0.
         25    1    1    2    0    0 -0.18544033508E+03  0.45848662915E+01 -0.11600453434E+03  0.25197458376E+03  0.12500000000E+03 0.  0.
</event>
<event>
 4    0  0.2233588E-002  0.2542965E+03  0.7546771E-02  0.1110619E+00
         21   -1    0    0  502  501  0.00000000000E+00  0.00000000000E+00  0.96181201307E+02  0.96181201307E+02  0.00000000000E+00 0. -1.
         21   -1    0    0  501  502 -0.00000000000E+00 -0.00000000000E+00 -0.67234267073E+03  0.67234267073E+03  0.00000000000E+00 0. -1.
         25    1    1    2    0    0 -0.12549096787E+03 -0.69244581629E+02 -0.32986165545E+02  0.19301782876E+03  0.12500000000E+03 0.  0.
         25    1    1    2    0    0  0.12549096787E+03  0.69244581629E+02 -0.54317530388E+03  0.57550604328E+03  0.12500000000E+03 0.  0.
</event>
<event>
 4    0  0.2233588E-002  0.2206146E+03  0.7546771E-02  0.1133426E+00
         21   -1    0    0  502  501  0.00000000000E+00  0.00000000000E+00  0.76276083519E+03  0.76276083519E+03  0.00000000000E+00 0. -1.
         21   -1    0    0  501  502 -0.00000000000E+00 -0.00000000000E+00 -0.63808731263E+02  0.63808731263E+02  0.00000000000E+00 0. -1.
         25    1    1    2    0    0  0.12096455435E+03 -0.12050613609E+03  0.46634038748E+03  0.51210595509E+03  0.12500000000E+03 0.  0.
         25    1    1    2    0    0 -0.12096455435E+03  0.12050613609E+03  0.23261171645E+03  0.31446361137E+03  0.12500000000E+03 0.  0.
</event>
<event>
 4    0  0.2233588E-002  0.2385792E+03  0.7546771E-02  0.1120743E+00
         21   -1    0    0  502  501  0.00000000000E+00  0.00000000000E+00  0.10605571012E+03  0.10605571012E+03  0.00000000000E+00 0.  1.
         21   -1    0    0  501  502 -0.00000000000E+00 -0.00000000000E+00 -0.53669954254E+03  0.53669954254E+03  0.00000000000E+00 0.  1.
         25    1    1    2    0    0 -0.31505235642E+02 -0.14983623237E+03 -0.35343152669E+02  0.20079246710E+03  0.12500000000E+03 0.  0.
         25    1    1    2    0    0  0.31505235642E+02  0.14983623237E+03 -0.39530067975E+03  0.44196278555E+03  0.12500000000E+03 0.  0.
</event>
<event>
 4    0  0.2233588E-002  0.2512827E+03  0.7546771E-02  0.1112497E+00
         21   -1    0    0  502  501  0.00000000000E+00  0.00000000000E+00  0.80489273418E+02  0.80489273418E+02  0.00000000000E+00 0. -1.
         21   -1    0    0  501  502 -0.00000000000E+00 -0.00000000000E+00 -0.78448958680E+03  0.78448958680E+03  0.00000000000E+00 0. -1.
         25    1    1    2    0    0 -0.16347291790E+03 -0.88522602708E+02 -0.54792421526E+03  0.59195066665E+03  0.12500000000E+03 0.  0.
         25    1    1    2    0    0  0.16347291790E+03  0.88522602708E+02 -0.15607609812E+03  0.27302819357E+03  0.12500000000E+03 0.  0.
</event>
<event>
 4    0  0.2233588E-002  0.2429209E+03  0.7546771E-02  0.1117862E+00
         21   -1    0    0  502  501  0.00000000000E+00  0.00000000000E+00  0.24816504406E+03  0.24816504406E+03  0.00000000000E+00 0. -1.
         21   -1    0    0  501  502 -0.00000000000E+00 -0.00000000000E+00 -0.23778749600E+03  0.23778749600E+03  0.00000000000E+00 0. -1.
         25    1    1    2    0    0  0.68178541552E+02  0.15890503884E+03  0.12134630783E+03  0.24545682171E+03  0.12500000000E+03 0.  0.
         25    1    1    2    0    0 -0.68178541552E+02 -0.15890503884E+03 -0.11096875977E+03  0.24049571835E+03  0.12500000000E+03 0.  0.
</event>
<event>
 4    0  0.2233588E-002  0.2802073E+03  0.7546771E-02  0.1095576E+00
         21   -1    0    0  502  501  0.00000000000E+00  0.00000000000E+00  0.48183400931E+03  0.48183400931E+03  0.00000000000E+00 0. -1.
         21   -1    0    0  501  502 -0.00000000000E+00 -0.00000000000E+00 -0.16295261409E+03  0.16295261409E+03  0.00000000000E+00 0. -1.
         25    1    1    2    0    0 -0.59352970970E+02  0.13637106250E+03  0.39175917333E+03  0.43728719595E+03  0.12500000000E+03 0.  0.
         25    1    1    2    0    0  0.59352970970E+02 -0.13637106250E+03 -0.72877778110E+02  0.20749942745E+03  0.12500000000E+03 0.  0.
</event>
<event>
 4    0  0.2233588E-002  0.1912225E+03  0.7546771E-02  0.1157363E+00
         21   -1    0    0  502  501  0.00000000000E+00  0.00000000000E+00  0.44883790698E+03  0.44883790698E+03  0.00000000000E+00 0. -1.
         21   -1    0    0  501  502 -0.00000000000E+00 -0.00000000000E+00 -0.81468238521E+02  0.81468238521E+02  0.00000000000E+00 0. -1.
         25    1    1    2    0    0 -0.90400092754E+02  0.10428032519E+03  0.12333144269E+03  0.22334325096E+03  0.12500000000E+03 0.  0.
         25    1    1    2    0    0  0.90400092754E+02 -0.10428032519E+03  0.24403822576E+03  0.30696289454E+03  0.12500000000E+03 0.  0.
</event>
<event>
 4    0  0.2233588E-002  0.1836876E+03  0.7546771E-02  0.1164281E+00
         21   -1    0    0  502  501  0.00000000000E+00  0.00000000000E+00  0.37364061249E+03  0.37364061249E+03  0.00000000000E+00 0. -1.
         21   -1    0    0  501  502 -0.00000000000E+00 -0.00000000000E+00 -0.90303735798E+02  0.90303735798E+02  0.00000000000E+00 0. -1.
         25    1    1    2    0    0 -0.66940616832E+02  0.64092101871E+02  0.26493375749E+03  0.30725191548E+03  0.12500000000E+03 0.  0.
         25    1    1    2    0    0  0.66940616832E+02 -0.64092101871E+02  0.18403119199E+02  0.15669243281E+03  0.12500000000E+03 0.  0.
</event>
<event>
 4    0  0.2233588E-002  0.1809082E+03  0.7546771E-02  0.1166927E+00
         21   -1    0    0  502  501  0.00000000000E+00  0.00000000000E+00  0.48600209042E+03  0.48600209042E+03  0.00000000000E+00 0.  1.
         21   -1    0    0  501  502 -0.00000000000E+00 -0.00000000000E+00 -0.67340844876E+02  0.67340844876E+02  0.00000000000E+00 0.  1.
         25    1    1    2    0    0 -0.22346968721E+02 -0.91002303034E+02  0.69816075330E+02  0.17111426166E+03  0.12500000000E+03 0.  0.
         25    1    1    2    0    0  0.22346968721E+02  0.91002303034E+02  0.34884517022E+03  0.38222867364E+03  0.12500000000E+03 0.  0.
</event>
<event>
 4    0  0.2233588E-002  0.2410902E+03  0.7546771E-02  0.1119069E+00
         21   -1    0    0  502  501  0.00000000000E+00  0.00000000000E+00  0.95146889608E+02  0.95146889608E+02  0.00000000000E+00 0.  1.
         21   -1    0    0  501  502 -0.00000000000E+00 -0.00000000000E+00 -0.61089225155E+03  0.61089225155E+03  0.00000000000E+00 0.  1.
         25    1    1    2    0    0  0.98145626067E+02  0.58250466842E+02 -0.50925652689E+03  0.53664969112E+03  0.12500000000E+03 0.  0.
         25    1    1    2    0    0 -0.98145626067E+02 -0.58250466842E+02 -0.64888350542E+01  0.16938945004E+03  0.12500000000E+03 0.  0.
</event>
<event>
 4    0  0.2233588E-002  0.1584333E+03  0.7546771E-02  0.1190477E+00
         21   -1    0    0  502  501  0.00000000000E+00  0.00000000000E+00  0.61134364206E+03  0.61134364206E+03  0.00000000000E+00 0. -1.
         21   -1    0    0  501  502 -0.00000000000E+00 -0.00000000000E+00 -0.41058927259E+02  0.41058927259E+02  0.00000000000E+00 0. -1.
         25    1    1    2    0    0  0.17839227177E+02  0.29412105357E+02  0.47263743593E+03  0.49009637400E+03  0.12500000000E+03 0.  0.
         25    1    1    2    0    0 -0.17839227177E+02 -0.29412105357E+02  0.97647278875E+02  0.16230619532E+03  0.12500000000E+03 0.  0.
</event>
<event>
 4    0  0.2233588E-002  0.1776996E+03  0.7546771E-02  0.1170048E+00
         21   -1    0    0  502  501  0.00000000000E+00  0.00000000000E+00  0.34034389595E+03  0.34034389595E+03  0.00000000000E+00 0. -1.
         21   -1    0    0  501  502 -0.00000000000E+00 -0.00000000000E+00 -0.92780157605E+02  0.92780157605E+02  0.00000000000E+00 0. -1.
         25    1    1    2    0    0 -0.10323426076E+03 -0.69253883792E+02  0.96565132800E+02  0.20100556681E+03  0.12500000000E+03 0.  0.
         25    1    1    2    0    0  0.10323426076E+03  0.69253883792E+02  0.15099860555E+03  0.23211848675E+03  0.12500000000E+03 0.  0.
</event>
<event>
 4    0  0.2233588E-002  0.1994385E+03  0.7546771E-02  0.1150214E+00
         21   -1    0    0  502  501  0.00000000000E+00  0.00000000000E+00  0.65071823239E+03  0.65071823239E+03  0.00000000000E+00 0. -1.
         21   -1    0    0  501  502 -0.00000000000E+00 -0.00000000000E+00 -0.61125892438E+02  0.61125892438E+02  0.00000000000E+00 0. -1.
         25    1    1    2    0    0  0.10048757594E+02 -0.15379566053E+03  0.33033879652E+03  0.38536061451E+03  0.12500000000E+03 0.  0.
         25    1    1    2    0    0 -0.10048757594E+02  0.15379566053E+03  0.25925354343E+03  0.32648351031E+03  0.12500000000E+03 0.  0.
</event>
<event>
 4    0  0.2233588E-002  0.2674090E+03  0.7546771E-02  0.1102772E+00
         21   -1    0    0  502  501  0.00000000000E+00  0.00000000000E+00  0.44657509285E+02  0.44657509285E+02  0.00000000000E+00 0. -1.
         21   -1    0    0  501  502 -0.00000000000E+00 -0.00000000000E+00 -0.16012445990E+04  0.16012445990E+04  0.00000000000E+00 0. -1.
         25    1    1    2    0    0  0.22228402516E+03  0.18139203008E+01 -0.53076776660E+03  0.58885728339E+03  0.12500000000E+03 0.  0.
         25    1    1    2    0    0 -0.22228402516E+03 -0.18139203008E+01 -0.10258193231E+04  0.10570448249E+04  0.12500000000E+03 0.  0.
</event>
<event>
 4    0  0.2233588E-002  0.2406698E+03  0.7546771E-02  0.1119347E+00
         21   -1    0    0  502  501  0.00000000000E+00  0.00000000000E+00  0.31113129726E+02  0.31113129726E+02  0.00000000000E+00 0. -1.
         21   -1    0    0  501  502 -0.00000000000E+00 -0.00000000000E+00 -0.18616558154E+04  0.18616558154E+04  0.00000000000E+00 0. -1.
         25    1    1    2    0    0 -0.10659769442E+03 -0.15725683314E+03 -0.12250043688E+04  0.12459347831E+04  0.12500000000E+03 0.  0.
         25    1    1    2    0    0  0.10659769442E+03  0.15725683314E+03 -0.60553831682E+03  0.64683416202E+03  0.12500000000E+03 0.  0.
</event>
<event>
 4    0  0.2233588E-002  0.2267496E+03  0.7546771E-02  0.1128949E+00
         21   -1    0    0  502  501  0.00000000000E+00  0.00000000000E+00  0.50217360672E+03  0.50217360672E+03  0.00000000000E+00 0.  1.
         21   -1    0    0  501  502 -0.00000000000E+00 -0.00000000000E+00 -0.10238563295E+03  0.10238563295E+03  0.00000000000E+00 0.  1.
         25    1    1    2    0    0 -0.35502294508E+02 -0.14040353298E+02 -0.47117495789E+02  0.13893380742E+03  0.12500000000E+03 0.  0.
         25    1    1    2    0    0  0.35502294508E+02  0.14040353298E+02  0.44690546955E+03  0.46562543224E+03  0.12500000000E+03 0.  0.
</event>
<event>
 4    0  0.2233588E-002  0.3658063E+03  0.7546771E-02  0.1056308E+00
         21   -1    0    0  502  501  0.00000000000E+00  0.00000000000E+00  0.30721808821E+03  0.30721808821E+03  0.00000000000E+00 0. -1.
         21   -1    0    0  501  502 -0.00000000000E+00 -0.00000000000E+00 -0.43556765820E+03  0.43556765820E+03  0.00000000000E+00 0. -1.
         25    1    1    2    0    0 -0.17880974549E+03 -0.31506871671E+02 -0.36056403000E+03  0.42260741567E+03  0.12500000000E+03 0.  0.
         25    1    1    2    0    0  0.17880974549E+03  0.31506871671E+02  0.23221446001E+03  0.32017833075E+03  0.12500000000E+03 0.  0.
</event>
<event>
 4    0  0.2233588E-002  0.1798217E+03  0.7546771E-02  0.1167976E+00
         21   -1    0    0  502  501  0.00000000000E+00  0.00000000000E+00  0.65363091830E+03  0.65363091830E+03  0.00000000000E+00 0.  1.
         21   -1    0    0  501  502 -0.00000000000E+00 -0.00000000000E+00 -0.49471114113E+02  0.49471114113E+02  0.00000000000E+00 0.  1.
         25    1    1    2    0    0 -0.12134155325E+03  0.44563823967E+02  0.29998997914E+03  0.34975519229E+03  0.12500000000E+03 0.  0.
         25    1    1    2    0    0  0.12134155325E+03 -0.44563823967E+02  0.30416982505E+03  0.35334684012E+03  0.12500000000E+03 0.  0.
</event>
<event>
 4    0  0.2233588E-002  0.2020343E+03  0.7546771E-02  0.1148034E+00
         21   -1    0    0  502  501  0.00000000000E+00  0.00000000000E+00  0.52325725348E+03  0.52325725348E+03  0.00000000000E+00 0.  1.
         21   -1    0    0  501  502 -0.00000000000E+00 -0.00000000000E+00 -0.78007221884E+02  0.78007221884E+02  0.00000000000E+00 0.  1.
         25    1    1    2    0    0  0.92950906523E+02  0.98582755782E+02  0.34564088903E+03  0.39172829223E+03  0.12500000000E+03 0.  0.
         25    1    1    2    0    0 -0.92950906523E+02 -0.98582755782E+02  0.99609142565E+02  0.20953618314E+03  0.12500000000E+03 0.  0.
</event>
<event>
 4    0  0.2233588E-002  0.1821927E+03  0.7546771E-02  0.1165698E+00
         21   -1    0    0  502  501  0.00000000000E+00  0.00000000000E+00  0.81311591986E+03  0.81311591986E+03  0.00000000000E+00 0.  1.
         21   -1    0    0  501  502 -0.00000000000E+00 -0.00000000000E+00 -0.40823419762E+02  0.40823419762E+02  0.00000000000E+00 0.  1.
         25    1    1    2    0    0 -0.21240945745E+02 -0.11146015326E+03  0.22557538780E+03  0.28175130722E+03  0.12500000000E+03 0.  0.
         25    1    1    2    0    0  0.21240945745E+02  0.11146015326E+03  0.54671711230E+03  0.57218803240E+03  0.12500000000E+03 0.  0.
</event>
<event>
 4    0  0.2233588E-002  0.1875717E+03  0.7546771E-02  0.1160670E+00
         21   -1    0    0  502  501  0.00000000000E+00  0.00000000000E+00  0.19147922046E+04  0.19147922046E+04  0.00000000000E+00 0.  1.
         21   -1    0    0  501  502 -0.00000000000E+00 -0.00000000000E+00 -0.18374388917E+02  0.18374388917E+02  0.00000000000E+00 0.  1.
         25    1    1    2    0    0  0.44639660669E+02 -0.37705501997E+02  0.29346120352E+03  0.32428210274E+03  0.12500000000E+03 0.  0.
         25    1    1    2    0    0 -0.44639660669E+02  0.37705501997E+02  0.16029566121E+04  0.16088844908E+04  0.12500000000E+03 0.  0.
</event>
<event>
 4    0  0.2233588E-002  0.2469131E+03  0.7546771E-02  0.1115271E+00
         21   -1    0    0  502  501  0.00000000000E+00  0.00000000000E+00  0.12733210324E+03  0.12733210324E+03  0.00000000000E+00 0.  1.
         21   -1    0    0  501  502 -0.00000000000E+00 -0.00000000000E+00 -0.47879580311E+03  0.47879580311E+03  0.00000000000E+00 0.  1.
         25    1    1    2    0    0  0.18576770755E+03 -0.96392695547E+02 -0.22389713360E+03  0.33099262735E+03  0.12500000000E+03 0.  0.
         25    1    1    2    0    0 -0.18576770755E+03  0.96392695547E+02 -0.12756656627E+03  0.27513527900E+03  0.12500000000E+03 0.  0.
</event>
<event>
 4    0  0.2233588E-002  0.2871120E+03  0.7546771E-02  0.1091867E+00
         21   -1    0    0  502  501  0.00000000000E+00  0.00000000000E+00  0.10752693113E+04  0.10752693113E+04  0.00000000000E+00 0. -1.
         21   -1    0    0  501  502 -0.00000000000E+00 -0.00000000000E+00 -0.76662921516E+02  0.76662921516E+02  0.00000000000E+00 0. -1.
         25    1    1    2    0    0 -0.13173032348E+03 -0.56020081659E+01  0.94528248029E+03  0.96258414082E+03  0.12500000000E+03 0.  0.
         25    1    1    2    0    0  0.13173032348E+03  0.56020081659E+01  0.53323909495E+02  0.18934809200E+03  0.12500000000E+03 0.  0.
</event>
<event>
 4    0  0.2233588E-002  0.1579339E+03  0.7546771E-02  0.1191049E+00
         21   -1    0    0  502  501  0.00000000000E+00  0.00000000000E+00  0.29399063909E+03  0.29399063909E+03  0.00000000000E+00 0. -1.
         21   -1    0    0  501  502 -0.00000000000E+00 -0.00000000000E+00 -0.84843214425E+02  0.84843214425E+02  0.00000000000E+00 0. -1.
         25    1    1    2    0    0  0.70536009108E+02 -0.60637310288E+02  0.13552278285E+03  0.20650335748E+03  0.12500000000E+03 0.  0.
         25    1    1    2    0    0 -0.70536009108E+02  0.60637310288E+02  0.73624641813E+02  0.17233049603E+03  0.12500000000E+03 0.  0.
</event>
<event>
 4    0  0.2233588E-002  0.1575635E+03  0.7546771E-02  0.1191475E+00
         21   -1    0    0  502  501  0.00000000000E+00  0.00000000000E+00  0.20631948642E+03  0.20631948642E+03  0.00000000000E+00 0.  1.
         21   -1    0    0  501  502 -0.00000000000E+00 -0.00000000000E+00 -0.12032920844E+03  0.12032920844E+03  0.00000000000E+00 0.  1.
         25    1    1    2    0    0  0.42250694731E+02  0.78061270643E+02  0.52982239178E+01  0.15340063349E+03  0.12500000000E+03 0.  0.
         25    1    1    2    0    0 -0.42250694731E+02 -0.78061270643E+02  0.80692054063E+02  0.17324806137E+03  0.12500000000E+03 0.  0.
</event>
<event>
 4    0  0.2233588E-002  0.1644685E+03  0.7546771E-02  0.1183742E+00
         21   -1    0    0  502  501  0.00000000000E+00  0.00000000000E+00  0.26739305543E+03  0.26739305543E+03  0.00000000000E+00 0.  1.
         21   -1    0    0  501  502 -0.00000000000E+00 -0.00000000000E+00 -0.10116146850E+03  0.10116146850E+03  0.00000000000E+00 0.  1.
         25    1    1    2    0    0 -0.79355597717E+02 -0.70714829373E+02  0.95741341524E+02  0.18997184649E+03  0.12500000000E+03 0.  0.
         25    1    1    2    0    0  0.79355597717E+02  0.70714829373E+02  0.70490245408E+02  0.17858267744E+03  0.12500000000E+03 0.  0.
</event>
<event>
 4    0  0.2233588E-002  0.1747720E+03  0.7546771E-02  0.1172961E+00
         21   -1    0    0  502  501  0.00000000000E+00  0.00000000000E+00  0.86696493447E+02  0.86696493447E+02  0.00000000000E+00 0.  1.
         21   -1    0    0  501  502 -0.00000000000E+00 -0.00000000000E+00 -0.35232376113E+03  0.35232376113E+03  0.00000000000E+00 0.  1.
         25    1    1    2    0    0 -0.27748434312E+02  0.19333631121E+02  0.14604802441E+02  0.13031525296E+03  0.12500000000E+03 0.  0.
         25    1    1    2    0    0  0.27748434312E+02 -0.19333631121E+02 -0.28023207013E+03  0.30870500162E+03  0.12500000000E+03 0.  0.
</event>
<event>
 4    0  0.2233588E-002  0.1874127E+03  0.7546771E-02  0.1160816E+00
         21   -1    0    0  502  501  0.00000000000E+00  0.00000000000E+00  0.39302563667E+03  0.39302563667E+03  0.00000000000E+00 0. -1.
         21   -1    0    0  501  502 -0.00000000000E+00 -0.00000000000E+00 -0.89367010409E+02  0.89367010409E+02  0.00000000000E+00 0. -1.
         25    1    1    2    0    0  0.88726334837E+02 -0.81350225776E+01  0.13456660779E+02  0.15409290316E+03  0.12500000000E+03 0.  0.
         25    1    1    2    0    0 -0.88726334837E+02  0.81350225776E+01  0.29020196549E+03  0.32829974392E+03  0.12500000000E+03 0.  0.
</event>
<event>
 4    0  0.2233588E-002  0.2419928E+03  0.7546771E-02  0.1118472E+00
         21   -1    0    0  502  501  0.00000000000E+00  0.00000000000E+00  0.84127781347E+02  0.84127781347E+02  0.00000000000E+00 0. -1.
         21   -1    0    0  501  502 -0.00000000000E+00 -0.00000000000E+00 -0.69609012301E+03  0.69609012301E+03  0.00000000000E+00 0.  1.
         25    1    1    2    0    0 -0.15224919822E+03 -0.11929579904E+03 -0.18616412233E+03  0.29613069154E+03  0.12500000000E+03 0.  0.
         25    1    1    2    0    0  0.15224919822E+03  0.11929579904E+03 -0.42579821933E+03  0.48408721282E+03  0.12500000000E+03 0.  0.
</event>
<event>
 4    0  0.2233588E-002  0.2013560E+03  0.7546771E-02  0.1148600E+00
         21   -1    0    0  502  501  0.00000000000E+00  0.00000000000E+00  0.16342613279E+03  0.16342613279E+03  0.00000000000E+00 0. -1.
         21   -1    0    0  501  502 -0.00000000000E+00 -0.00000000000E+00 -0.24808918509E+03  0.24808918509E+03  0.00000000000E+00 0. -1.
         25    1    1    2    0    0 -0.64099606624E+02  0.74427283371E+02 -0.16860908025E+03  0.23173735569E+03  0.12500000000E+03 0.  0.
         25    1    1    2    0    0  0.64099606624E+02 -0.74427283371E+02  0.83946027956E+02  0.17977796219E+03  0.12500000000E+03 0.  0.
</event>
<event>
 4    0  0.2233588E-002  0.2057850E+03  0.7546771E-02  0.1144948E+00
         21   -1    0    0  502  501  0.00000000000E+00  0.00000000000E+00  0.15835567945E+03  0.15835567945E+03  0.00000000000E+00 0. -1.
         21   -1    0    0  501  502 -0.00000000000E+00 -0.00000000000E+00 -0.26741989188E+03  0.26741989188E+03  0.00000000000E+00 0. -1.
         25    1    1    2    0    0 -0.13057800918E+03 -0.28172544427E+02 -0.15200824237E+03  0.23785670999E+03  0.12500000000E+03 0.  0.
         25    1    1    2    0    0  0.13057800918E+03  0.28172544427E+02  0.42944029944E+02  0.18791886134E+03  0.12500000000E+03 0.  0.
</event>
<event>
 4    0  0.2233588E-002  0.2687898E+03  0.7546771E-02  0.1101974E+00
         21   -1    0    0  502  501  0.00000000000E+00  0.00000000000E+00  0.89364817756E+02  0.89364817756E+02  0.00000000000E+00 0. -1.
         21   -1    0    0  501  502 -0.00000000000E+00 -0.00000000000E+00 -0.80846089779E+03  0.80846089779E+03  0.00000000000E+00 0. -1.
         25    1    1    2    0    0  0.54596277984E+02 -0.20895923523E+03 -0.19271720075E+03  0.31529293525E+03  0.12500000000E+03 0.  0.
         25    1    1    2    0    0 -0.54596277984E+02  0.20895923523E+03 -0.52637887929E+03  0.58253278030E+03  0.12500000000E+03 0.  0.
</event>
<event>
 4    0  0.2233588E-002  0.1585439E+03  0.7546771E-02  0.1190351E+00
         21   -1    0    0  502  501  0.00000000000E+00  0.00000000000E+00  0.15939946497E+03  0.15939946497E+03  0.00000000000E+00 0.  1.
         21   -1    0    0  501  502 -0.00000000000E+00 -0.00000000000E+00 -0.15769298925E+03  0.15769298925E+03  0.00000000000E+00 0.  1.
         25    1    1    2    0    0 -0.71015178818E+02  0.31301893673E+02 -0.58208720917E+02  0.15822837723E+03  0.12500000000E+03 0.  0.
         25    1    1    2    0    0  0.71015178818E+02 -0.31301893673E+02  0.59915196639E+02  0.15886407699E+03  0.12500000000E+03 0.  0.
</event>
<event>
 4    0  0.2233588E-002  0.3671002E+03  0.7546771E-02  0.1055807E+00
         21   -1    0    0  502  501  0.00000000000E+00  0.00000000000E+00  0.28964998579E+03  0.28964998579E+03  0.00000000000E+00 0. -1.
         21   -1    0    0  501  502 -0.00000000000E+00 -0.00000000000E+00 -0.46526006731E+03  0.46526006731E+03  0.00000000000E+00 0. -1.
         25    1    1    2    0    0  0.39583356815E+02 -0.31651039997E+03 -0.22340327633E+03  0.40899840990E+03  0.12500000000E+03 0.  0.
         25    1    1    2    0    0 -0.39583356815E+02  0.31651039997E+03  0.47793194810E+02  0.34591164319E+03  0.12500000000E+03 0.  0.
</event>
<event>
 4    0  0.2233588E-002  0.2242400E+03  0.7546771E-02  0.1130761E+00
         21   -1    0    0  502  501  0.00000000000E+00  0.00000000000E+00  0.40474083441E+03  0.40474083441E+03  0.00000000000E+00 0.  1.
         21   -1    0    0  501  502 -0.00000000000E+00 -0.00000000000E+00 -0.12423649529E+03  0.12423649529E+03  0.00000000000E+00 0.  1.
         25    1    1    2    0    0 -0.37731482535E+02 -0.13144037213E+03 -0.87483913868E+01  0.18547714294E+03  0.12500000000E+03 0.  0.
         25    1    1    2    0    0  0.37731482535E+02  0.13144037213E+03  0.28925273051E+03  0.34350018676E+03  0.12500000000E+03 0.  0.
</event>
<event>
 4    0  0.2233588E-002  0.1769921E+03  0.7546771E-02  0.1170746E+00
         21   -1    0    0  502  501  0.00000000000E+00  0.00000000000E+00  0.34521836965E+02  0.34521836965E+02  0.00000000000E+00 0. -1.
         21   -1    0    0  501  502 -0.00000000000E+00 -0.00000000000E+00 -0.90743184366E+03  0.90743184366E+03  0.00000000000E+00 0. -1.
         25    1    1    2    0    0  0.10677766273E+03 -0.64905353594E+02 -0.46128090252E+03  0.49398304142E+03  0.12500000000E+03 0.  0.
         25    1    1    2    0    0 -0.10677766273E+03  0.64905353594E+02 -0.41162910418E+03  0.44797063921E+03  0.12500000000E+03 0.  0.
</event>
<event>
 4    0  0.2233588E-002  0.3578980E+03  0.7546771E-02  0.1059419E+00
         21   -1    0    0  502  501  0.00000000000E+00  0.00000000000E+00  0.49523705031E+03  0.49523705031E+03  0.00000000000E+00 0.  1.
         21   -1    0    0  501  502 -0.00000000000E+00 -0.00000000000E+00 -0.25864580283E+03  0.25864580283E+03  0.00000000000E+00 0.  1.
         25    1    1    2    0    0 -0.15455600473E+03 -0.16366730785E+03 -0.14350986056E+03  0.29477894487E+03  0.12500000000E+03 0.  0.
         25    1    1    2    0    0  0.15455600473E+03  0.16366730785E+03  0.38010110804E+03  0.45910390828E+03  0.12500000000E+03 0.  0.
</event>
<event>
 4    0  0.2233588E-002  0.1940370E+03  0.7546771E-02  0.1154870E+00
         21   -1    0    0  502  501  0.00000000000E+00  0.00000000000E+00  0.12931264975E+03  0.12931264975E+03  0.00000000000E+00 0. -1.
         21   -1    0    0  501  502 -0.00000000000E+00 -0.00000000000E+00 -0.29115766550E+03  0.29115766550E+03  0.00000000000E+00 0. -1.
         25    1    1    2    0    0 -0.96514948497E+02 -0.45140098786E+02 -0.19285494291E+03  0.25331954683E+03  0.12500000000E+03 0.  0.
         25    1    1    2    0    0  0.96514948497E+02  0.45140098786E+02  0.31009927160E+02  0.16715076842E+03  0.12500000000E+03 0.  0.
</event>
<event>
 4    0  0.2233588E-002  0.2902969E+03  0.7546771E-02  0.1090194E+00
         21   -1    0    0  502  501  0.00000000000E+00  0.00000000000E+00  0.82982625902E+02  0.82982625902E+02  0.00000000000E+00 0. -1.
         21   -1    0    0  501  502 -0.00000000000E+00 -0.00000000000E+00 -0.10155410557E+04  0.10155410557E+04  0.00000000000E+00 0. -1.
         25    1    1    2    0    0  0.15359520595E+03 -0.21166849281E+03 -0.43623011385E+03  0.52375256598E+03  0.12500000000E+03 0.  0.
         25    1    1    2    0    0 -0.15359520595E+03  0.21166849281E+03 -0.49632831593E+03  0.57477111561E+03  0.12500000000E+03 0.  0.
</event>
<event>
 4    0  0.2233588E-002  0.1946896E+03  0.7546771E-02  0.1154298E+00
         21   -1    0    0  502  501  0.00000000000E+00  0.00000000000E+00  0.50672866869E+03  0.50672866869E+03  0.00000000000E+00 0.  1.
         21   -1    0    0  501  502 -0.00000000000E+00 -0.00000000000E+00 -0.74801486426E+02  0.74801486426E+02  0.00000000000E+00 0. -1.
         25    1    1    2    0    0  0.16262456703E+02  0.12646052708E+03  0.33186307312E+03  0.37684855275E+03  0.12500000000E+03 0.  0.
         25    1    1    2    0    0 -0.16262456703E+02 -0.12646052708E+03  0.10006410914E+03  0.20468160236E+03  0.12500000000E+03 0.  0.
</event>
<event>
 4    0  0.2233588E-002  0.1817839E+03  0.7546771E-02  0.1166088E+00
         21   -1    0    0  502  501  0.00000000000E+00  0.00000000000E+00  0.65684161132E+02  0.65684161132E+02  0.00000000000E+00 0. -1.
         21   -1    0    0  501  502 -0.00000000000E+00 -0.00000000000E+00 -0.50309502539E+03  0.50309502539E+03  0.00000000000E+00 0. -1.
         25    1    1    2    0    0 -0.62194222680E+02 -0.40944459000E+02 -0.48218976371E+02  0.15327961293E+03  0.12500000000E+03 0.  0.
         25    1    1    2    0    0  0.62194222680E+02  0.40944459000E+02 -0.38919188789E+03  0.41549957359E+03  0.12500000000E+03 0.  0.
</event>
<event>
 4    0  0.2233588E-002  0.2885544E+03  0.7546771E-02  0.1091106E+00
         21   -1    0    0  502  501  0.00000000000E+00  0.00000000000E+00  0.15595417758E+03  0.15595417758E+03  0.00000000000E+00 0.  1.
         21   -1    0    0  501  502 -0.00000000000E+00 -0.00000000000E+00 -0.53389811810E+03  0.53389811810E+03  0.00000000000E+00 0.  1.
         25    1    1    2    0    0 -0.81292784478E+02 -0.17585551540E+03  0.18432190386E+02  0.23129726490E+03  0.12500000000E+03 0.  0.
         25    1    1    2    0    0  0.81292784478E+02  0.17585551540E+03 -0.39637613091E+03  0.45855503079E+03  0.12500000000E+03 0.  0.
</event>
<event>
 4    0  0.2233588E-002  0.1832987E+03  0.7546771E-02  0.1164648E+00
         21   -1    0    0  502  501  0.00000000000E+00  0.00000000000E+00  0.23189436196E+03  0.23189436196E+03  0.00000000000E+00 0. -1.
         21   -1    0    0  501  502 -0.00000000000E+00 -0.00000000000E+00 -0.14488673737E+03  0.14488673737E+03  0.00000000000E+00 0. -1.
         25    1    1    2    0    0  0.96532535893E+02 -0.80318414507E+02 -0.47453376157E+01  0.17724868525E+03  0.12500000000E+03 0.  0.
         25    1    1    2    0    0 -0.96532535893E+02  0.80318414507E+02  0.91752962200E+02  0.19953241408E+03  0.12500000000E+03 0.  0.
</event>
<event>
 4    0  0.2233588E-002  0.3547257E+03  0.7546771E-02  0.1060692E+00
         21   -1    0    0  502  501  0.00000000000E+00  0.00000000000E+00  0.13593435913E+03  0.13593435913E+03  0.00000000000E+00 0. -1.
         21   -1    0    0  501  502 -0.00000000000E+00 -0.00000000000E+00 -0.92566977913E+03  0.92566977913E+03  0.00000000000E+00 0. -1.
         25    1    1    2    0    0 -0.11233082282E+03  0.10991555532E+03  0.42692113094E+02  0.20529797753E+03  0.12500000000E+03 0.  0.
         25    1    1    2    0    0  0.11233082282E+03 -0.10991555532E+03 -0.83242753310E+03  0.85630616074E+03  0.12500000000E+03 0.  0.
</event>
<event>
 4    0  0.2233588E-002  0.2838103E+03  0.7546771E-02  0.1093626E+00
         21   -1    0    0  502  501  0.00000000000E+00  0.00000000000E+00  0.31344961062E+03  0.31344961062E+03  0.00000000000E+00 0.  1.
         21   -1    0    0  501  502 -0.00000000000E+00 -0.00000000000E+00 -0.25697364330E+03  0.25697364330E+03  0.00000000000E+00 0.  1.
         25    1    1    2    0    0 -0.10303845676E+03 -0.21627357446E+03 -0.58978239332E+02  0.27657659933E+03  0.12500000000E+03 0.  0.
         25    1    1    2    0    0  0.10303845676E+03  0.21627357446E+03  0.11545420665E+03  0.29384665459E+03  0.12500000000E+03 0.  0.
</event>
<event>
 4    0  0.2233588E-002  0.2556432E+03  0.7546771E-02  0.1109789E+00
         21   -1    0    0  502  501  0.00000000000E+00  0.00000000000E+00  0.38033493124E+03  0.38033493124E+03  0.00000000000E+00 0. -1.
         21   -1    0    0  501  502 -0.00000000000E+00 -0.00000000000E+00 -0.17183130639E+03  0.17183130639E+03  0.00000000000E+00 0. -1.
         25    1    1    2    0    0  0.21439453298E+03 -0.45686498317E+02  0.60037239526E+02  0.25938724338E+03  0.12500000000E+03 0.  0.
         25    1    1    2    0    0 -0.21439453298E+03  0.45686498317E+02  0.14846638533E+03  0.29277899425E+03  0.12500000000E+03 0.  0.
</event>
<event>
 4    0  0.2233588E-002  0.2474551E+03  0.7546771E-02  0.1114924E+00
         21   -1    0    0  502  501  0.00000000000E+00  0.00000000000E+00  0.80845629671E+02  0.80845629671E+02  0.00000000000E+00 0.  1.
         21   -1    0    0  501  502 -0.00000000000E+00 -0.00000000000E+00 -0.75741905327E+03  0.75741905327E+03  0.00000000000E+00 0.  1.
         25    1    1    2    0    0 -0.17002635185E+03  0.79669817417E+02 -0.16594782533E+03  0.28003557071E+03  0.12500000000E+03 0.  0.
         25    1    1    2    0    0  0.17002635185E+03 -0.79669817417E+02 -0.51062559828E+03  0.55822911224E+03  0.12500000000E+03 0.  0.
</event>
<event>
 4    0  0.2233588E-002  0.2456249E+03  0.7546771E-02  0.1116101E+00
         21   -1    0    0  502  501  0.00000000000E+00  0.00000000000E+00  0.55376833585E+02  0.55376833585E+02  0.00000000000E+00 0.  1.
         21   -1    0    0  501  502 -0.00000000000E+00 -0.00000000000E+00 -0.10894738365E+04  0.10894738365E+04  0.00000000000E+00 0.  1.
         25    1    1    2    0    0  0.61130171725E+02 -0.71584158987E+02 -0.95827667069E+03  0.97096877772E+03  0.12500000000E+03 0.  0.
         25    1    1    2    0    0 -0.61130171725E+02  0.71584158987E+02 -0.75820332219E+02  0.17388189236E+03  0.12500000000E+03 0.  0.
</event>
<event>
 4    0  0.2233588E-002  0.2314696E+03  0.7546771E-02  0.1125610E+00
         21   -1    0    0  502  501  0.00000000000E+00  0.00000000000E+00  0.47380155083E+03  0.47380155083E+03  0.00000000000E+00 0.  1.
         21   -1    0    0  501  502 -0.00000000000E+00 -0.00000000000E+00 -0.11308144847E+03  0.11308144847E+03  0.00000000000E+00 0.  1.
         25    1    1    2    0    0 -0.13345311216E+03  0.10703230819E+03  0.62198696952E+02  0.22081513998E+03  0.12500000000E+03 0.  0.
         25    1    1    2    0    0  0.13345311216E+03 -0.10703230819E+03  0.29852140541E+03  0.36606785932E+03  0.12500000000E+03 0.  0.
</event>
<event>
 4    0  0.2233588E-002  0.1835756E+03  0.7546771E-02  0.1164387E+00
         21   -1    0    0  502  501  0.00000000000E+00  0.00000000000E+00  0.11335368472E+04  0.11335368472E+04  0.00000000000E+00 0. -1.
         21   -1    0    0  501  502 -0.00000000000E+00 -0.00000000000E+00 -0.29729945516E+02  0.29729945516E+02  0.00000000000E+00 0. -1.
         25    1    1    2    0    0 -0.83281632998E+02 -0.10444693123E+03  0.50385322675E+03  0.53603923918E+03  0.12500000000E+03 0.  0.
         25    1    1    2    0    0  0.83281632998E+02  0.10444693123E+03  0.59995367489E+03  0.62722755349E+03  0.12500000000E+03 0.  0.
</event>
<event>
 4    0  0.2233588E-002  0.1957985E+03  0.7546771E-02  0.1153333E+00
         21   -1    0    0  502  501  0.00000000000E+00  0.00000000000E+00  0.63656493983E+02  0.63656493983E+02  0.00000000000E+00 0.  1.
         21   -1    0    0  501  502 -0.00000000000E+00 -0.00000000000E+00 -0.60224884063E+03  0.60224884063E+03  0.00000000000E+00 0.  1.
         25    1    1    2    0    0  0.14005002927E+02 -0.14923721001E+03 -0.24272476161E+03  0.31146138582E+03  0.12500000000E+03 0.  0.
         25    1    1    2    0    0 -0.14005002927E+02  0.14923721001E+03 -0.29586758503E+03  0.35444394878E+03  0.12500000000E+03 0.  0.
</event>
<event>
 4    0  0.2233588E-002  0.3457852E+03  0.7546771E-02  0.1064358E+00
         21   -1    0    0  502  501  0.00000000000E+00  0.00000000000E+00  0.18817218960E+03  0.18817218960E+03  0.00000000000E+00 0. -1.
         21   -1    0    0  501  502 -0.00000000000E+00 -0.00000000000E+00 -0.63541496177E+03  0.63541496177E+03  0.00000000000E+00 0. -1.
         25    1    1    2    0    0 -0.18194455157E+03 -0.26338264964E+03 -0.26925275255E+03  0.43657334405E+03  0.12500000000E+03 0.  0.
         25    1    1    2    0    0  0.18194455157E+03  0.26338264964E+03 -0.17799001962E+03  0.38701380733E+03  0.12500000000E+03 0.  0.
</event>
<event>
 4    0  0.2233588E-002  0.1829958E+03  0.7546771E-02  0.1164935E+00
         21   -1    0    0  502  501  0.00000000000E+00  0.00000000000E+00  0.37213799071E+03  0.37213799071E+03  0.00000000000E+00 0. -1.
         21   -1    0    0  501  502 -0.00000000000E+00 -0.00000000000E+00 -0.89986720918E+02  0.89986720918E+02  0.00000000000E+00 0. -1.
         25    1    1    2    0    0  0.12304666693E+03  0.17662053041E+02  0.79088616187E+02  0.19321604377E+03  0.12500000000E+03 0.  0.
         25    1    1    2    0    0 -0.12304666693E+03 -0.17662053041E+02  0.20306265360E+03  0.26890866785E+03  0.12500000000E+03 0.  0.
</event>
<event>
 4    0  0.2233588E-002  0.2029133E+03  0.7546771E-02  0.1147304E+00
         21   -1    0    0  502  501  0.00000000000E+00  0.00000000000E+00  0.58019756006E+03  0.58019756006E+03  0.00000000000E+00 0. -1.
         21   -1    0    0  501  502 -0.00000000000E+00 -0.00000000000E+00 -0.70965174461E+02  0.70965174461E+02  0.00000000000E+00 0. -1.
         25    1    1    2    0    0  0.10296505092E+02  0.13181091305E+03  0.39874485996E+03  0.43829510397E+03  0.12500000000E+03 0.  0.
         25    1    1    2    0    0 -0.10296505092E+02 -0.13181091305E+03  0.11048752564E+03  0.21286763055E+03  0.12500000000E+03 0.  0.
</event>
<event>
 4    0  0.2233588E-002  0.1560692E+03  0.7546771E-02  0.1193207E+00
         21   -1    0    0  502  501  0.00000000000E+00  0.00000000000E+00  0.89778063545E+03  0.89778063545E+03  0.00000000000E+00 0. -1.
         21   -1    0    0  501  502 -0.00000000000E+00 -0.00000000000E+00 -0.27130909278E+02  0.27130909278E+02  0.00000000000E+00 0. -1.
         25    1    1    2    0    0  0.36242454435E+01 -0.12389884284E+01  0.15865636042E+03  0.20201859060E+03  0.12500000000E+03 0.  0.
         25    1    1    2    0    0 -0.36242454435E+01  0.12389884284E+01  0.71199336575E+03  0.72289295412E+03  0.12500000000E+03 0.  0.
</event>
<event>
 4    0  0.2233588E-002  0.1983092E+03  0.7546771E-02  0.1151173E+00
         21   -1    0    0  502  501  0.00000000000E+00  0.00000000000E+00  0.42037822665E+02  0.42037822665E+02  0.00000000000E+00 0. -1.
         21   -1    0    0  501  502 -0.00000000000E+00 -0.00000000000E+00 -0.93550375753E+03  0.93550375753E+03  0.00000000000E+00 0. -1.
         25    1    1    2    0    0  0.43605095247E+01 -0.88108038955E+02 -0.13575681421E+03  0.20454083498E+03  0.12500000000E+03 0.  0.
         25    1    1    2    0    0 -0.43605095247E+01  0.88108038955E+02 -0.75770912065E+03  0.77300074521E+03  0.12500000000E+03 0.  0.
</event>
<event>
 4    0  0.2233588E-002  0.2500239E+03  0.7546771E-02  0.1113290E+00
         21   -1    0    0  502  501  0.00000000000E+00  0.00000000000E+00  0.21368059968E+03  0.21368059968E+03  0.00000000000E+00 0. -1.
         21   -1    0    0  501  502 -0.00000000000E+00 -0.00000000000E+00 -0.29254864955E+03  0.29254864955E+03  0.00000000000E+00 0. -1.
         25    1    1    2    0    0  0.20580319022E+03 -0.15849234971E+02 -0.10567078820E+03  0.26343398952E+03  0.12500000000E+03 0.  0.
         25    1    1    2    0    0 -0.20580319022E+03  0.15849234971E+02  0.26802738340E+02  0.24279525971E+03  0.12500000000E+03 0.  0.
</event>
<event>
 4    0  0.2233588E-002  0.1796539E+03  0.7546771E-02  0.1168138E+00
         21   -1    0    0  502  501  0.00000000000E+00  0.00000000000E+00  0.17763873942E+03  0.17763873942E+03  0.00000000000E+00 0.  1.
         21   -1    0    0  501  502 -0.00000000000E+00 -0.00000000000E+00 -0.18169184718E+03  0.18169184718E+03  0.00000000000E+00 0. -1.
         25    1    1    2    0    0  0.10939093226E+03  0.63234137990E+02  0.24158664541E+02  0.17936993433E+03  0.12500000000E+03 0.  0.
         25    1    1    2    0    0 -0.10939093226E+03 -0.63234137990E+02 -0.28211772302E+02  0.17996065227E+03  0.12500000000E+03 0.  0.
</event>
<event>
 4    0  0.2233588E-002  0.2162072E+03  0.7546771E-02  0.1136743E+00
         21   -1    0    0  502  501  0.00000000000E+00  0.00000000000E+00  0.19305012882E+04  0.19305012882E+04  0.00000000000E+00 0.  1.
         21   -1    0    0  501  502 -0.00000000000E+00 -0.00000000000E+00 -0.24214214432E+02  0.24214214432E+02  0.00000000000E+00 0.  1.
         25    1    1    2    0    0  0.16801988325E+03  0.48227690001E+02  0.84579020677E+03  0.87266411930E+03  0.12500000000E+03 0.  0.
         25    1    1    2    0    0 -0.16801988325E+03 -0.48227690001E+02  0.10604968670E+04  0.10820513833E+04  0.12500000000E+03 0.  0.
</event>
<event>
 4    0  0.2233588E-002  0.1873926E+03  0.7546771E-02  0.1160834E+00
         21   -1    0    0  502  501  0.00000000000E+00  0.00000000000E+00  0.65919558104E+02  0.65919558104E+02  0.00000000000E+00 0.  1.
         21   -1    0    0  501  502 -0.00000000000E+00 -0.00000000000E+00 -0.53270956918E+03  0.53270956918E+03  0.00000000000E+00 0.  1.
         25    1    1    2    0    0 -0.26888237568E+02 -0.13585803274E+03 -0.26154472671E+03  0.32126472955E+03  0.12500000000E+03 0.  0.
         25    1    1    2    0    0  0.26888237568E+02  0.13585803274E+03 -0.20524528437E+03  0.27736439774E+03  0.12500000000E+03 0.  0.
</event>
<event>
 4    0  0.2233588E-002  0.1919162E+03  0.7546771E-02  0.1156744E+00
         21   -1    0    0  502  501  0.00000000000E+00  0.00000000000E+00  0.49930660128E+02  0.49930660128E+02  0.00000000000E+00 0.  1.
         21   -1    0    0  501  502 -0.00000000000E+00 -0.00000000000E+00 -0.73765976029E+03  0.73765976029E+03  0.00000000000E+00 0.  1.
         25    1    1    2    0    0 -0.12810207936E+03 -0.54937834378E+02 -0.43039906732E+03  0.46935771596E+03  0.12500000000E+03 0.  0.
         25    1    1    2    0    0  0.12810207936E+03  0.54937834378E+02 -0.25733003285E+03  0.31823270446E+03  0.12500000000E+03 0.  0.
</event>
<event>
 4    0  0.2233588E-002  0.1786303E+03  0.7546771E-02  0.1169135E+00
         21   -1    0    0  502  501  0.00000000000E+00  0.00000000000E+00  0.71755512909E+02  0.71755512909E+02  0.00000000000E+00 0.  1.
         21   -1    0    0  501  502 -0.00000000000E+00 -0.00000000000E+00 -0.44468758222E+03  0.44468758222E+03  0.00000000000E+00 0.  1.
         25    1    1    2    0    0  0.45503195090E+02  0.23238161123E+01 -0.14159621445E+02  0.13379624720E+03  0.12500000000E+03 0.  0.
         25    1    1    2    0    0 -0.45503195090E+02 -0.23238161123E+01 -0.35877244787E+03  0.38264684793E+03  0.12500000000E+03 0.  0.
</event>
<event>
 4    0  0.2233588E-002  0.2043350E+03  0.7546771E-02  0.1146132E+00
         21   -1    0    0  502  501  0.00000000000E+00  0.00000000000E+00  0.45299096734E+03  0.45299096734E+03  0.00000000000E+00 0. -1.
         21   -1    0    0  501  502 -0.00000000000E+00 -0.00000000000E+00 -0.92171396294E+02  0.92171396294E+02  0.00000000000E+00 0. -1.
         25    1    1    2    0    0  0.15839784415E+03 -0.28173637216E+02  0.15956452812E+03  0.25878460058E+03  0.12500000000E+03 0.  0.
         25    1    1    2    0    0 -0.15839784415E+03  0.28173637216E+02  0.20125504293E+03  0.28637776305E+03  0.12500000000E+03 0.  0.
</event>
<event>
 4    0  0.2233588E-002  0.2641204E+03  0.7546771E-02  0.1104693E+00
         21   -1    0    0  502  501  0.00000000000E+00  0.00000000000E+00  0.19339160215E+03  0.19339160215E+03  0.00000000000E+00 0. -1.
         21   -1    0    0  501  502 -0.00000000000E+00 -0.00000000000E+00 -0.36071659959E+03  0.36071659959E+03  0.00000000000E+00 0. -1.
         25    1    1    2    0    0 -0.11330043611E+03  0.19862156385E+03 -0.12874434017E+03  0.29066754131E+03  0.12500000000E+03 0.  0.
         25    1    1    2    0    0  0.11330043611E+03 -0.19862156385E+03 -0.38580657272E+02  0.26344066042E+03  0.12500000000E+03 0.  0.
</event>
<event>
 4    0  0.2233588E-002  0.2960946E+03  0.7546771E-02  0.1087209E+00
         21   -1    0    0  502  501  0.00000000000E+00  0.00000000000E+00  0.32678734829E+02  0.32678734829E+02  0.00000000000E+00 0. -1.
         21   -1    0    0  501  502 -0.00000000000E+00 -0.00000000000E+00 -0.26828451038E+04  0.26828451038E+04  0.00000000000E+00 0. -1.
         25    1    1    2    0    0 -0.21642790697E+03 -0.10405950068E+03 -0.77524375629E+03  0.82115607546E+03  0.12500000000E+03 0.  0.
         25    1    1    2    0    0  0.21642790697E+03  0.10405950068E+03 -0.18749226127E+04  0.18943677632E+04  0.12500000000E+03 0.  0.
</event>
<event>
 4    0  0.2233588E-002  0.2805123E+03  0.7546771E-02  0.1095409E+00
         21   -1    0    0  502  501  0.00000000000E+00  0.00000000000E+00  0.72785932121E+02  0.72785932121E+02  0.00000000000E+00 0. -1.
         21   -1    0    0  501  502 -0.00000000000E+00 -0.00000000000E+00 -0.10810762418E+04  0.10810762418E+04  0.00000000000E+00 0. -1.
         25    1    1    2    0    0  0.24851972423E+03  0.28514411725E+02 -0.45875683642E+03  0.53726898288E+03  0.12500000000E+03 0.  0.
         25    1    1    2    0    0 -0.24851972423E+03 -0.28514411725E+02 -0.54953347327E+03  0.61659319105E+03  0.12500000000E+03 0.  0.
</event>
<event>
 4    0  0.2233588E-002  0.1551742E+03  0.7546771E-02  0.1194255E+00
         21   -1    0    0  502  501  0.00000000000E+00  0.00000000000E+00  0.27691474905E+03  0.27691474905E+03  0.00000000000E+00 0. -1.
         21   -1    0    0  501  502 -0.00000000000E+00 -0.00000000000E+00 -0.86954670480E+02  0.86954670480E+02  0.00000000000E+00 0. -1.
         25    1    1    2    0    0 -0.42890355533E+02 -0.30064660741E+02  0.18358041749E+03  0.22818903591E+03  0.12500000000E+03 0.  0.
         25    1    1    2    0    0  0.42890355533E+02  0.30064660741E+02  0.63796610767E+01  0.13568038362E+03  0.12500000000E+03 0.  0.
</event>
<event>
 4    0  0.2233588E-002  0.1879742E+03  0.7546771E-02  0.1160301E+00
         21   -1    0    0  502  501  0.00000000000E+00  0.00000000000E+00  0.14155289242E+03  0.14155289242E+03  0.00000000000E+00 0.  1.
         21   -1    0    0  501  502 -0.00000000000E+00 -0.00000000000E+00 -0.24961901002E+03  0.24961901002E+03  0.00000000000E+00 0.  1.
         25    1    1    2    0    0  0.64611308817E+02  0.19601263240E+02  0.74038411197E+02  0.16020461005E+03  0.12500000000E+03 0.  0.
         25    1    1    2    0    0 -0.64611308817E+02 -0.19601263240E+02 -0.18210452880E+03  0.23096729240E+03  0.12500000000E+03 0.  0.
</event>
<event>
 4    0  0.2233588E-002  0.1742072E+03  0.7546771E-02  0.1173530E+00
         21   -1    0    0  502  501  0.00000000000E+00  0.00000000000E+00  0.19473362032E+02  0.19473362032E+02  0.00000000000E+00 0. -1.
         21   -1    0    0  501  502 -0.00000000000E+00 -0.00000000000E+00 -0.15584450928E+04  0.15584450928E+04  0.00000000000E+00 0. -1.
         25    1    1    2    0    0  0.74729604724E+02 -0.34890969463E+02 -0.36641092431E+03  0.39583312017E+03  0.12500000000E+03 0.  0.
         25    1    1    2    0    0 -0.74729604724E+02  0.34890969463E+02 -0.11725608064E+04  0.11820853346E+04  0.12500000000E+03 0.  0.
</event>
<event>
 4    0  0.2233588E-002  0.2147296E+03  0.7546771E-02  0.1137874E+00
         21   -1    0    0  502  501  0.00000000000E+00  0.00000000000E+00  0.10608396700E+03  0.10608396700E+03  0.00000000000E+00 0. -1.
         21   -1    0    0  501  502 -0.00000000000E+00 -0.00000000000E+00 -0.43464444646E+03  0.43464444646E+03  0.00000000000E+00 0. -1.
         25    1    1    2    0    0 -0.91952836022E+02 -0.74033927702E+02 -0.32624589406E+03  0.36877870044E+03  0.12500000000E+03 0.  0.
         25    1    1    2    0    0  0.91952836022E+02  0.74033927702E+02 -0.23145853942E+01  0.17194971302E+03  0.12500000000E+03 0.  0.
</event>
<event>
 4    0  0.2233588E-002  0.1590884E+03  0.7546771E-02  0.1189730E+00
         21   -1    0    0  502  501  0.00000000000E+00  0.00000000000E+00  0.16903261665E+04  0.16903261665E+04  0.00000000000E+00 0. -1.
         21   -1    0    0  501  502 -0.00000000000E+00 -0.00000000000E+00 -0.14972920390E+02  0.14972920390E+02  0.00000000000E+00 0. -1.
         25    1    1    2    0    0 -0.37396408335E+00 -0.66211759994E+02  0.44749280793E+03  0.46931753660E+03  0.12500000000E+03 0.  0.
         25    1    1    2    0    0  0.37396408335E+00  0.66211759994E+02  0.12278604381E+04  0.12359815502E+04  0.12500000000E+03 0.  0.
</event>
<event>
 4    0  0.2233588E-002  0.1545414E+03  0.7546771E-02  0.1195001E+00
         21   -1    0    0  502  501  0.00000000000E+00  0.00000000000E+00  0.62843302749E+02  0.62843302749E+02  0.00000000000E+00 0.  1.
         21   -1    0    0  501  502 -0.00000000000E+00 -0.00000000000E+00 -0.38004114381E+03  0.38004114381E+03  0.00000000000E+00 0. -1.
         25    1    1    2    0    0 -0.75027716824E+02 -0.49444365821E+02 -0.13915489335E+03  0.20751623538E+03  0.12500000000E+03 0.  0.
         25    1    1    2    0    0  0.75027716824E+02  0.49444365821E+02 -0.17804294771E+03  0.23536821117E+03  0.12500000000E+03 0.  0.
</event>
<event>
 4    0  0.2233588E-002  0.3289823E+03  0.7546771E-02  0.1071588E+00
         21   -1    0    0  502  501  0.00000000000E+00  0.00000000000E+00  0.76924364056E+03  0.76924364056E+03  0.00000000000E+00 0. -1.
         21   -1    0    0  501  502 -0.00000000000E+00 -0.00000000000E+00 -0.14069582725E+03  0.14069582725E+03  0.00000000000E+00 0. -1.
         25    1    1    2    0    0 -0.21764275106E+02 -0.10909700252E+03 -0.77444843699E+02  0.18438693946E+03  0.12500000000E+03 0.  0.
         25    1    1    2    0    0  0.21764275106E+02  0.10909700252E+03  0.70599265701E+03  0.72555252834E+03  0.12500000000E+03 0.  0.
</event>
<event>
 4    0  0.2233588E-002  0.2804457E+03  0.7546771E-02  0.1095446E+00
         21   -1    0    0  502  501  0.00000000000E+00  0.00000000000E+00  0.69591159976E+02  0.69591159976E+02  0.00000000000E+00 0.  1.
         21   -1    0    0  501  502 -0.00000000000E+00 -0.00000000000E+00 -0.11301689920E+04  0.11301689920E+04  0.00000000000E+00 0.  1.
         25    1    1    2    0    0 -0.22023601258E+03 -0.11501061495E+03 -0.45336048218E+03  0.53187599081E+03  0.12500000000E+03 0.  0.
         25    1    1    2    0    0  0.22023601258E+03  0.11501061495E+03 -0.60721734981E+03  0.66788416114E+03  0.12500000000E+03 0.  0.
</event>
<event>
 4    0  0.2233588E-002  0.1824547E+03  0.7546771E-02  0.1165448E+00
         21   -1    0    0  502  501  0.00000000000E+00  0.00000000000E+00  0.19884861503E+03  0.19884861503E+03  0.00000000000E+00 0.  1.
         21   -1    0    0  501  502 -0.00000000000E+00 -0.00000000000E+00 -0.16741244914E+03  0.16741244914E+03  0.00000000000E+00 0.  1.
         25    1    1    2    0    0  0.33052309808E+01 -0.85491785487E+02 -0.86368832742E+02  0.17436841803E+03  0.12500000000E+03 0.  0.
         25    1    1    2    0    0 -0.33052309808E+01  0.85491785487E+02  0.11780499864E+03  0.19189264614E+03  0.12500000000E+03 0.  0.
</event>
<event>
 4    0  0.2233588E-002  0.1632428E+03  0.7546771E-02  0.1185084E+00
         21   -1    0    0  502  501  0.00000000000E+00  0.00000000000E+00  0.10431188881E+03  0.10431188881E+03  0.00000000000E+00 0. -1.
         21   -1    0    0  501  502 -0.00000000000E+00 -0.00000000000E+00 -0.25546677616E+03  0.25546677616E+03  0.00000000000E+00 0. -1.
         25    1    1    2    0    0  0.13672393986E+02  0.62729132133E+02  0.15968291389E+02  0.14142794881E+03  0.12500000000E+03 0.  0.
         25    1    1    2    0    0 -0.13672393986E+02 -0.62729132133E+02 -0.16712317874E+03  0.21835071616E+03  0.12500000000E+03 0.  0.
</event>
<event>
 4    0  0.2233588E-002  0.2056375E+03  0.7546771E-02  0.1145068E+00
         21   -1    0    0  502  501  0.00000000000E+00  0.00000000000E+00  0.58422174615E+03  0.58422174615E+03  0.00000000000E+00 0.  1.
         21   -1    0    0  501  502 -0.00000000000E+00 -0.00000000000E+00 -0.72381418006E+02  0.72381418006E+02  0.00000000000E+00 0.  1.
         25    1    1    2    0    0  0.35664891417E+02  0.15416017598E+03  0.32026656970E+03  0.37846138509E+03  0.12500000000E+03 0.  0.
         25    1    1    2    0    0 -0.35664891417E+02 -0.15416017598E+03  0.19157375845E+03  0.27814177907E+03  0.12500000000E+03 0.  0.
</event>
<event>
 4    0  0.2233588E-002  0.2905757E+03  0.7546771E-02  0.1090049E+00
         21   -1    0    0  502  501  0.00000000000E+00  0.00000000000E+00  0.96739050276E+03  0.96739050276E+03  0.00000000000E+00 0.  1.
         21   -1    0    0  501  502 -0.00000000000E+00 -0.00000000000E+00 -0.87280421023E+02  0.87280421023E+02  0.00000000000E+00 0.  1.
         25    1    1    2    0    0  0.17718631244E+03 -0.18358786597E+03  0.55059017823E+03  0.61957569207E+03  0.12500000000E+03 0.  0.
         25    1    1    2    0    0 -0.17718631244E+03  0.18358786597E+03  0.32951990351E+03  0.43509523171E+03  0.12500000000E+03 0.  0.
</event>
<event>
 4    0  0.2233588E-002  0.2086763E+03  0.7546771E-02  0.1142619E+00
         21   -1    0    0  502  501  0.00000000000E+00  0.00000000000E+00  0.86237226555E+02  0.86237226555E+02  0.00000000000E+00 0.  1.
         21   -1    0    0  501  502 -0.00000000000E+00 -0.00000000000E+00 -0.50495358154E+03  0.50495358154E+03  0.00000000000E+00 0.  1.
         25    1    1    2    0    0  0.68720365610E+02 -0.15190767392E+03 -0.19368866124E+03  0.28449732431E+03  0.12500000000E+03 0.  0.
         25    1    1    2    0    0 -0.68720365610E+02  0.15190767392E+03 -0.22502769375E+03  0.30669348379E+03  0.12500000000E+03 0.  0.
</event>
<event>
 4    0  0.2233588E-002  0.3245429E+03  0.7546771E-02  0.1073577E+00
         21   -1    0    0  502  501  0.00000000000E+00  0.00000000000E+00  0.17615556432E+03  0.17615556432E+03  0.00000000000E+00 0. -1.
         21   -1    0    0  501  502 -0.00000000000E+00 -0.00000000000E+00 -0.59792639829E+03  0.59792639829E+03  0.00000000000E+00 0. -1.
         25    1    1    2    0    0 -0.72812637438E+02  0.16856147181E+03  0.71299619603E+02  0.23328798877E+03  0.12500000000E+03 0.  0.
         25    1    1    2    0    0  0.72812637438E+02 -0.16856147181E+03 -0.49307045357E+03  0.54079397383E+03  0.12500000000E+03 0.  0.
</event>
<event>
 4    0  0.2233588E-002  0.2906110E+03  0.7546771E-02  0.1090031E+00
         21   -1    0    0  502  501  0.00000000000E+00  0.00000000000E+00  0.39579282066E+03  0.39579282066E+03  0.00000000000E+00 0.  1.
         21   -1    0    0  501  502 -0.00000000000E+00 -0.00000000000E+00 -0.21338116672E+03  0.21338116672E+03  0.00000000000E+00 0.  1.
         25    1    1    2    0    0 -0.15159837606E+03  0.19374762013E+03  0.18674632019E+03  0.33319573232E+03  0.12500000000E+03 0.  0.
         25    1    1    2    0    0  0.15159837606E+03 -0.19374762013E+03 -0.43346662476E+01  0.27597825506E+03  0.12500000000E+03 0.  0.
</event>
<event>
 4    0  0.2233588E-002  0.1928997E+03  0.7546771E-02  0.1155872E+00
         21   -1    0    0  502  501  0.00000000000E+00  0.00000000000E+00  0.19136078258E+03  0.19136078258E+03  0.00000000000E+00 0.  1.
         21   -1    0    0  501  502 -0.00000000000E+00 -0.00000000000E+00 -0.19445102226E+03  0.19445102226E+03  0.00000000000E+00 0.  1.
         25    1    1    2    0    0  0.32737266126E+02 -0.14287411433E+03 -0.11573335366E+02  0.19298622549E+03  0.12500000000E+03 0.  0.
         25    1    1    2    0    0 -0.32737266126E+02  0.14287411433E+03  0.84830956919E+01  0.19282557935E+03  0.12500000000E+03 0.  0.
</event>
<event>
 4    0  0.2233588E-002  0.2350247E+03  0.7546771E-02  0.1123152E+00
         21   -1    0    0  502  501  0.00000000000E+00  0.00000000000E+00  0.39418231763E+02  0.39418231763E+02  0.00000000000E+00 0. -1.
         21   -1    0    0  501  502 -0.00000000000E+00 -0.00000000000E+00 -0.14012953999E+04  0.14012953999E+04  0.00000000000E+00 0. -1.
         25    1    1    2    0    0  0.81386068949E+01  0.78155125503E+02 -0.12414038783E+04  0.12501532105E+04  0.12500000000E+03 0.  0.
         25    1    1    2    0    0 -0.81386068949E+01 -0.78155125503E+02 -0.12047328983E+03  0.19056042120E+03  0.12500000000E+03 0.  0.
</event>
<event>
 4    0  0.2233588E-002  0.2143623E+03  0.7546771E-02  0.1138157E+00
         21   -1    0    0  502  501  0.00000000000E+00  0.00000000000E+00  0.51647776599E+03  0.51647776599E+03  0.00000000000E+00 0.  1.
         21   -1    0    0  501  502 -0.00000000000E+00 -0.00000000000E+00 -0.88970333019E+02  0.88970333019E+02  0.00000000000E+00 0.  1.
         25    1    1    2    0    0  0.89803112712E+02  0.54164940714E+02  0.17422547817E+02  0.16409443936E+03  0.12500000000E+03 0.  0.
         25    1    1    2    0    0 -0.89803112712E+02 -0.54164940714E+02  0.41008488515E+03  0.44135365965E+03  0.12500000000E+03 0.  0.
</event>
<event>
 4    0  0.2233588E-002  0.2036834E+03  0.7546771E-02  0.1146668E+00
         21   -1    0    0  502  501  0.00000000000E+00  0.00000000000E+00  0.64077508768E+02  0.64077508768E+02  0.00000000000E+00 0.  1.
         21   -1    0    0  501  502 -0.00000000000E+00 -0.00000000000E+00 -0.64744901392E+03  0.64744901392E+03  0.00000000000E+00 0.  1.
         25    1    1    2    0    0  0.38128880215E+02  0.10810822310E+03 -0.48868354342E+03  0.51727923312E+03  0.12500000000E+03 0.  0.
         25    1    1    2    0    0 -0.38128880215E+02 -0.10810822310E+03 -0.94687961734E+02  0.19424728957E+03  0.12500000000E+03 0.  0.
</event>
<event>
 4    0  0.2233588E-002  0.2253507E+03  0.7546771E-02  0.1129956E+00
         21   -1    0    0  502  501  0.00000000000E+00  0.00000000000E+00  0.74669569171E+02  0.74669569171E+02  0.00000000000E+00 0.  1.
         21   -1    0    0  501  502 -0.00000000000E+00 -0.00000000000E+00 -0.68010227752E+03  0.68010227752E+03  0.00000000000E+00 0.  1.
         25    1    1    2    0    0 -0.10370125533E+03 -0.85942134544E+02 -0.52118056202E+03  0.55262480860E+03  0.12500000000E+03 0.  0.
         25    1    1    2    0    0  0.10370125533E+03  0.85942134544E+02 -0.84252146320E+02  0.20214703809E+03  0.12500000000E+03 0.  0.
</event>
<event>
 4    0  0.2233588E-002  0.3407315E+03  0.7546771E-02  0.1066485E+00
         21   -1    0    0  502  501  0.00000000000E+00  0.00000000000E+00  0.19718022954E+03  0.19718022954E+03  0.00000000000E+00 0. -1.
         21   -1    0    0  501  502 -0.00000000000E+00 -0.00000000000E+00 -0.58879092698E+03  0.58879092698E+03  0.00000000000E+00 0. -1.
         25    1    1    2    0    0 -0.72364544503E+01 -0.15507566580E+03  0.12293111189E+03  0.23417490614E+03  0.12500000000E+03 0.  0.
         25    1    1    2    0    0  0.72364544503E+01  0.15507566580E+03 -0.51454180933E+03  0.55179625039E+03  0.12500000000E+03 0.  0.
</event>
<event>
 4    0  0.2233588E-002  0.4104098E+03  0.7546771E-02  0.1040234E+00
         21   -1    0    0  502  501  0.00000000000E+00  0.00000000000E+00  0.27813065176E+04  0.27813065176E+04  0.00000000000E+00 0.  1.
         21   -1    0    0  501  502 -0.00000000000E+00 -0.00000000000E+00 -0.60560115204E+02  0.60560115204E+02  0.00000000000E+00 0.  1.
         25    1    1    2    0    0  0.16693524090E+03  0.84892925906E+02  0.25483624678E+04  0.25582905329E+04  0.12500000000E+03 0.  0.
         25    1    1    2    0    0 -0.16693524090E+03 -0.84892925906E+02  0.17238393461E+03  0.28357609990E+03  0.12500000000E+03 0.  0.
</event>
<event>
 4    0  0.2233588E-002  0.2946638E+03  0.7546771E-02  0.1087939E+00
         21   -1    0    0  502  501  0.00000000000E+00  0.00000000000E+00  0.84837166154E+03  0.84837166154E+03  0.00000000000E+00 0. -1.
         21   -1    0    0  501  502 -0.00000000000E+00 -0.00000000000E+00 -0.10234518387E+03  0.10234518387E+03  0.00000000000E+00 0. -1.
         25    1    1    2    0    0  0.19063086663E+03 -0.53052504761E+02  0.66180745790E+03  0.70197493325E+03  0.12500000000E+03 0.  0.
         25    1    1    2    0    0 -0.19063086663E+03  0.53052504761E+02  0.84219019759E+02  0.24874191216E+03  0.12500000000E+03 0.  0.
</event>
<event>
 4    0  0.2233588E-002  0.1482158E+03  0.7546771E-02  0.1202683E+00
         21   -1    0    0  502  501  0.00000000000E+00  0.00000000000E+00  0.27687809073E+02  0.27687809073E+02  0.00000000000E+00 0.  1.
         21   -1    0    0  501  502 -0.00000000000E+00 -0.00000000000E+00 -0.79341458010E+03  0.79341458010E+03  0.00000000000E+00 0.  1.
         25    1    1    2    0    0  0.21040167610E+02 -0.67945549505E+02 -0.48210459059E+03  0.50309951562E+03  0.12500000000E+03 0.  0.
         25    1    1    2    0    0 -0.21040167610E+02  0.67945549505E+02 -0.28362218043E+03  0.31800287354E+03  0.12500000000E+03 0.  0.
</event>
<event>
 4    0  0.2233588E-002  0.1507943E+03  0.7546771E-02  0.1199500E+00
         21   -1    0    0  502  501  0.00000000000E+00  0.00000000000E+00  0.23950270851E+03  0.23950270851E+03  0.00000000000E+00 0.  1.
         21   -1    0    0  501  502 -0.00000000000E+00 -0.00000000000E+00 -0.94942220543E+02  0.94942220543E+02  0.00000000000E+00 0.  1.
         25    1    1    2    0    0 -0.47812293569E+02 -0.32041782137E+01  0.14925117513E+03  0.20049238253E+03  0.12500000000E+03 0.  0.
         25    1    1    2    0    0  0.47812293569E+02  0.32041782137E+01 -0.46906871624E+01  0.13395254652E+03  0.12500000000E+03 0.  0.
</event>
<event>
 4    0  0.2233588E-002  0.2113355E+03  0.7546771E-02  0.1140513E+00
         21   -1    0    0  502  501  0.00000000000E+00  0.00000000000E+00  0.38139695813E+03  0.38139695813E+03  0.00000000000E+00 0.  1.
         21   -1    0    0  501  502 -0.00000000000E+00 -0.00000000000E+00 -0.11710287120E+03  0.11710287120E+03  0.00000000000E+00 0.  1.
         25    1    1    2    0    0 -0.16416718060E+03 -0.32458648952E+02  0.17005808504E+03  0.26934954866E+03  0.12500000000E+03 0.  0.
         25    1    1    2    0    0  0.16416718060E+03  0.32458648952E+02  0.94236001898E+02  0.22915028067E+03  0.12500000000E+03 0.  0.
</event>
<event>
 4    0  0.2233588E-002  0.1709432E+03  0.7546771E-02  0.1176868E+00
         21   -1    0    0  502  501  0.00000000000E+00  0.00000000000E+00  0.16583385131E+03  0.16583385131E+03  0.00000000000E+00 0.  1.
         21   -1    0    0  501  502 -0.00000000000E+00 -0.00000000000E+00 -0.17620987305E+03  0.17620987305E+03  0.00000000000E+00 0.  1.
         25    1    1    2    0    0 -0.16306317399E+02 -0.99859234272E+02  0.52793822139E+02  0.16926296202E+03  0.12500000000E+03 0.  0.
         25    1    1    2    0    0  0.16306317399E+02  0.99859234272E+02 -0.63169843884E+02  0.17278076233E+03  0.12500000000E+03 0.  0.
</event>
<event>
 4    0  0.2233588E-002  0.1866123E+03  0.7546771E-02  0.1161553E+00
         21   -1    0    0  502  501  0.00000000000E+00  0.00000000000E+00  0.64682172480E+03  0.64682172480E+03  0.00000000000E+00 0.  1.
         21   -1    0    0  501  502 -0.00000000000E+00 -0.00000000000E+00 -0.53838885850E+02  0.53838885850E+02  0.00000000000E+00 0.  1.
         25    1    1    2    0    0  0.13602681004E+03 -0.22712305030E+02  0.32167959654E+03  0.37164755439E+03  0.12500000000E+03 0.  0.
         25    1    1    2    0    0 -0.13602681004E+03  0.22712305030E+02  0.27130324241E+03  0.32901305626E+03  0.12500000000E+03 0.  0.
</event>
<event>
 4    0  0.2233588E-002  0.2538697E+03  0.7546771E-02  0.1110883E+00
         21   -1    0    0  502  501  0.00000000000E+00  0.00000000000E+00  0.16916560639E+04  0.16916560639E+04  0.00000000000E+00 0.  1.
         21   -1    0    0  501  502 -0.00000000000E+00 -0.00000000000E+00 -0.38098646435E+02  0.38098646435E+02  0.00000000000E+00 0.  1.
         25    1    1    2    0    0  0.16564987223E+03  0.14576315277E+03  0.78675387783E+03  0.82661565504E+03  0.12500000000E+03 0.  0.
         25    1    1    2    0    0 -0.16564987223E+03 -0.14576315277E+03  0.86680353968E+03  0.90313905534E+03  0.12500000000E+03 0.  0.
</event>
<event>
 4    0  0.2233588E-002  0.4838996E+03  0.7546771E-02  0.1018069E+00
         21   -1    0    0  502  501  0.00000000000E+00  0.00000000000E+00  0.18720397993E+03  0.18720397993E+03  0.00000000000E+00 0. -1.
         21   -1    0    0  501  502 -0.00000000000E+00 -0.00000000000E+00 -0.12508216338E+04  0.12508216338E+04  0.00000000000E+00 0. -1.
         25    1    1    2    0    0  0.83777324162E+02 -0.24530354072E+03 -0.11098518388E+04  0.11465550886E+04  0.12500000000E+03 0.  0.
         25    1    1    2    0    0 -0.83777324162E+02  0.24530354072E+03  0.46234184967E+02  0.29147052509E+03  0.12500000000E+03 0.  0.
</event>
<event>
 4    0  0.2233588E-002  0.4196048E+03  0.7546771E-02  0.1037195E+00
         21   -1    0    0  502  501  0.00000000000E+00  0.00000000000E+00  0.14608756677E+03  0.14608756677E+03  0.00000000000E+00 0.  1.
         21   -1    0    0  501  502 -0.00000000000E+00 -0.00000000000E+00 -0.12052237192E+04  0.12052237192E+04  0.00000000000E+00 0.  1.
         25    1    1    2    0    0  0.19204967989E+03 -0.14143243529E+03 -0.10477409202E+04  0.10817912225E+04  0.12500000000E+03 0.  0.
         25    1    1    2    0    0 -0.19204967989E+03  0.14143243529E+03 -0.11395232269E+02  0.26952006347E+03  0.12500000000E+03 0.  0.
</event>
<event>
 4    0  0.2233588E-002  0.2258099E+03  0.7546771E-02  0.1129624E+00
         21   -1    0    0  502  501  0.00000000000E+00  0.00000000000E+00  0.30303367668E+03  0.30303367668E+03  0.00000000000E+00 0. -1.
         21   -1    0    0  501  502 -0.00000000000E+00 -0.00000000000E+00 -0.16826544408E+03  0.16826544408E+03  0.00000000000E+00 0. -1.
         25    1    1    2    0    0  0.14049436335E+03 -0.67255959801E+02 -0.42578528616E+02  0.20420568396E+03  0.12500000000E+03 0.  0.
         25    1    1    2    0    0 -0.14049436335E+03  0.67255959801E+02  0.17734676122E+03  0.26709343680E+03  0.12500000000E+03 0.  0.
</event>
<event>
 4    0  0.2233588E-002  0.2305140E+03  0.7546771E-02  0.1126278E+00
         21   -1    0    0  502  501  0.00000000000E+00  0.00000000000E+00  0.13245823522E+03  0.13245823522E+03  0.00000000000E+00 0. -1.
         21   -1    0    0  501  502 -0.00000000000E+00 -0.00000000000E+00 -0.40115822969E+03  0.40115822969E+03  0.00000000000E+00 0. -1.
         25    1    1    2    0    0  0.89170239498E+02  0.12535828468E+03  0.18443352419E+01  0.19822823392E+03  0.12500000000E+03 0.  0.
         25    1    1    2    0    0 -0.89170239498E+02 -0.12535828468E+03 -0.27054432971E+03  0.33538823099E+03  0.12500000000E+03 0.  0.
</event>
<event>
 4    0  0.2233588E-002  0.2115120E+03  0.7546771E-02  0.1140374E+00
         21   -1    0    0  502  501  0.00000000000E+00  0.00000000000E+00  0.29916953056E+04  0.29916953056E+04  0.00000000000E+00 0. -1.
         21   -1    0    0  501  502 -0.00000000000E+00 -0.00000000000E+00 -0.14953831075E+02  0.14953831075E+02  0.00000000000E+00 0. -1.
         25    1    1    2    0    0 -0.62799271322E+02 -0.12697579681E+03  0.21643588277E+04  0.21725884876E+04  0.12500000000E+03 0.  0.
         25    1    1    2    0    0  0.62799271322E+02  0.12697579681E+03  0.81238264685E+03  0.83406064909E+03  0.12500000000E+03 0.  0.
</event>
<event>
 4    0  0.2233588E-002  0.2053949E+03  0.7546771E-02  0.1145266E+00
         21   -1    0    0  502  501  0.00000000000E+00  0.00000000000E+00  0.21639648987E+04  0.21639648987E+04  0.00000000000E+00 0. -1.
         21   -1    0    0  501  502 -0.00000000000E+00 -0.00000000000E+00 -0.19495260462E+02  0.19495260462E+02  0.00000000000E+00 0. -1.
         25    1    1    2    0    0 -0.13938100813E+03 -0.34741331859E+02  0.66299207916E+03  0.68979527586E+03  0.12500000000E+03 0.  0.
         25    1    1    2    0    0  0.13938100813E+03  0.34741331859E+02  0.14814775591E+04  0.14936648833E+04  0.12500000000E+03 0.  0.
</event>
<event>
 4    0  0.2233588E-002  0.2460798E+03  0.7546771E-02  0.1115808E+00
         21   -1    0    0  502  501  0.00000000000E+00  0.00000000000E+00  0.16303799128E+03  0.16303799128E+03  0.00000000000E+00 0. -1.
         21   -1    0    0  501  502 -0.00000000000E+00 -0.00000000000E+00 -0.37141820526E+03  0.37141820526E+03  0.00000000000E+00 0. -1.
         25    1    1    2    0    0  0.15589901297E+03 -0.22668260823E+02 -0.25819444303E+03  0.32727316222E+03  0.12500000000E+03 0.  0.
         25    1    1    2    0    0 -0.15589901297E+03  0.22668260823E+02  0.49814229055E+02  0.20718303432E+03  0.12500000000E+03 0.  0.
</event>
<event>
 4    0  0.2233588E-002  0.2266134E+03  0.7546771E-02  0.1129046E+00
         21   -1    0    0  502  501  0.00000000000E+00  0.00000000000E+00  0.41726330954E+03  0.41726330954E+03  0.00000000000E+00 0.  1.
         21   -1    0    0  501  502 -0.00000000000E+00 -0.00000000000E+00 -0.12307248262E+03  0.12307248262E+03  0.00000000000E+00 0.  1.
         25    1    1    2    0    0 -0.77879867484E+02  0.15387222752E+03  0.54850646817E+02  0.21994437846E+03  0.12500000000E+03 0.  0.
         25    1    1    2    0    0  0.77879867484E+02 -0.15387222752E+03  0.23934018010E+03  0.32039141370E+03  0.12500000000E+03 0.  0.
</event>
<event>
 4    0  0.2233588E-002  0.2310388E+03  0.7546771E-02  0.1125911E+00
         21   -1    0    0  502  501  0.00000000000E+00  0.00000000000E+00  0.14232993401E+03  0.14232993401E+03  0.00000000000E+00 0.  1.
         21   -1    0    0  501  502 -0.00000000000E+00 -0.00000000000E+00 -0.37503661761E+03  0.37503661761E+03  0.00000000000E+00 0.  1.
         25    1    1    2    0    0  0.75050815856E+02 -0.17770061942E+03 -0.14246315500E+03  0.27042722798E+03  0.12500000000E+03 0.  0.
         25    1    1    2    0    0 -0.75050815856E+02  0.17770061942E+03 -0.90243528603E+02  0.24693932363E+03  0.12500000000E+03 0.  0.
</event>
<event>
 4    0  0.2233588E-002  0.1809678E+03  0.7546771E-02  0.1166870E+00
         21   -1    0    0  502  501  0.00000000000E+00  0.00000000000E+00  0.58962409332E+03  0.58962409332E+03  0.00000000000E+00 0. -1.
         21   -1    0    0  501  502 -0.00000000000E+00 -0.00000000000E+00 -0.55542737456E+02  0.55542737456E+02  0.00000000000E+00 0. -1.
         25    1    1    2    0    0  0.10098290921E+03 -0.81187540615E+02  0.29968471541E+03  0.34960676961E+03  0.12500000000E+03 0.  0.
         25    1    1    2    0    0 -0.10098290921E+03  0.81187540615E+02  0.23439664045E+03  0.29556006116E+03  0.12500000000E+03 0.  0.
</event>
<event>
 4    0  0.2233588E-002  0.2543771E+03  0.7546771E-02  0.1110569E+00
         21   -1    0    0  502  501  0.00000000000E+00  0.00000000000E+00  0.18806814041E+03  0.18806814041E+03  0.00000000000E+00 0. -1.
         21   -1    0    0  501  502 -0.00000000000E+00 -0.00000000000E+00 -0.34406526907E+03  0.34406526907E+03  0.00000000000E+00 0. -1.
         25    1    1    2    0    0 -0.15799393396E+03  0.15501869296E+03 -0.87912363542E+02  0.26897297633E+03  0.12500000000E+03 0.  0.
         25    1    1    2    0    0  0.15799393396E+03 -0.15501869296E+03 -0.68084765125E+02  0.26316043315E+03  0.12500000000E+03 0.  0.
</event>
<event>
 4    0  0.2233588E-002  0.1902179E+03  0.7546771E-02  0.1158265E+00
         21   -1    0    0  502  501  0.00000000000E+00  0.00000000000E+00  0.69807991152E+02  0.69807991152E+02  0.00000000000E+00 0. -1.
         21   -1    0    0  501  502 -0.00000000000E+00 -0.00000000000E+00 -0.51831944382E+03  0.51831944382E+03  0.00000000000E+00 0. -1.
         25    1    1    2    0    0  0.49509548425E+02 -0.10923376493E+03 -0.10277831344E+03  0.20142391243E+03  0.12500000000E+03 0.  0.
         25    1    1    2    0    0 -0.49509548425E+02  0.10923376493E+03 -0.34573313923E+03  0.38670352255E+03  0.12500000000E+03 0.  0.
</event>
<event>
 4    0  0.2233588E-002  0.1604536E+03  0.7546771E-02  0.1188186E+00
         21   -1    0    0  502  501  0.00000000000E+00  0.00000000000E+00  0.78975698894E+03  0.78975698894E+03  0.00000000000E+00 0. -1.
         21   -1    0    0  501  502 -0.00000000000E+00 -0.00000000000E+00 -0.32599076542E+02  0.32599076542E+02  0.00000000000E+00 0. -1.
         25    1    1    2    0    0 -0.86517516725E+02  0.50664714565E+02  0.35742323278E+03  0.39169958046E+03  0.12500000000E+03 0.  0.
         25    1    1    2    0    0  0.86517516725E+02 -0.50664714565E+02  0.39973467962E+03  0.43065648502E+03  0.12500000000E+03 0.  0.
</event>
<event>
 4    0  0.2233588E-002  0.2026309E+03  0.7546771E-02  0.1147538E+00
         21   -1    0    0  502  501  0.00000000000E+00  0.00000000000E+00  0.32641435252E+03  0.32641435252E+03  0.00000000000E+00 0. -1.
         21   -1    0    0  501  502 -0.00000000000E+00 -0.00000000000E+00 -0.12578884279E+03  0.12578884279E+03  0.00000000000E+00 0. -1.
         25    1    1    2    0    0 -0.47755527488E+02  0.14913998154E+03  0.66634668667E+02  0.21115990047E+03  0.12500000000E+03 0.  0.
         25    1    1    2    0    0  0.47755527488E+02 -0.14913998154E+03  0.13399084106E+03  0.24104329484E+03  0.12500000000E+03 0.  0.
</event>
<event>
 4    0  0.2233588E-002  0.2640426E+03  0.7546771E-02  0.1104738E+00
         21   -1    0    0  502  501  0.00000000000E+00  0.00000000000E+00  0.24901215878E+03  0.24901215878E+03  0.00000000000E+00 0.  1.
         21   -1    0    0  501  502 -0.00000000000E+00 -0.00000000000E+00 -0.27998038417E+03  0.27998038417E+03  0.00000000000E+00 0.  1.
         25    1    1    2    0    0  0.28725060787E+02  0.12321209303E+03 -0.21097874269E+03  0.27594089739E+03  0.12500000000E+03 0.  0.
         25    1    1    2    0    0 -0.28725060787E+02 -0.12321209303E+03  0.18001051729E+03  0.25305164556E+03  0.12500000000E+03 0.  0.
</event>
<event>
 4    0  0.2233588E-002  0.3045295E+03  0.7546771E-02  0.1082998E+00
         21   -1    0    0  502  501  0.00000000000E+00  0.00000000000E+00  0.65395680649E+03  0.65395680649E+03  0.00000000000E+00 0. -1.
         21   -1    0    0  501  502 -0.00000000000E+00 -0.00000000000E+00 -0.14181089267E+03  0.14181089267E+03  0.00000000000E+00 0. -1.
         25    1    1    2    0    0  0.16065678087E+03  0.22309030151E+02  0.55056922991E+03  0.58741788446E+03  0.12500000000E+03 0.  0.
         25    1    1    2    0    0 -0.16065678087E+03 -0.22309030151E+02 -0.38423316094E+02  0.20834981470E+03  0.12500000000E+03 0.  0.
</event>
<event>
 4    0  0.2233588E-002  0.2041828E+03  0.7546771E-02  0.1146257E+00
         21   -1    0    0  502  501  0.00000000000E+00  0.00000000000E+00  0.42156637641E+02  0.42156637641E+02  0.00000000000E+00 0.  1.
         21   -1    0    0  501  502 -0.00000000000E+00 -0.00000000000E+00 -0.98894503465E+03  0.98894503465E+03  0.00000000000E+00 0.  1.
         25    1    1    2    0    0 -0.55684599414E+02 -0.62669148493E+02 -0.12501175462E+03  0.19565565562E+03  0.12500000000E+03 0.  0.
         25    1    1    2    0    0  0.55684599414E+02  0.62669148493E+02 -0.82177664239E+03  0.83544601667E+03  0.12500000000E+03 0.  0.
</event>
<event>
 4    0  0.2233588E-002  0.3759931E+03  0.7546771E-02  0.1052425E+00
         21   -1    0    0  502  501  0.00000000000E+00  0.00000000000E+00  0.31535371608E+03  0.31535371608E+03  0.00000000000E+00 0. -1.
         21   -1    0    0  501  502 -0.00000000000E+00 -0.00000000000E+00 -0.44829284208E+03  0.44829284208E+03  0.00000000000E+00 0.  1.
         25    1    1    2    0    0  0.22885846682E+02 -0.30291196620E+03  0.11930531027E+03  0.34948272962E+03  0.12500000000E+03 0.  0.
         25    1    1    2    0    0 -0.22885846682E+02  0.30291196620E+03 -0.25224443627E+03  0.41416382854E+03  0.12500000000E+03 0.  0.
</event>
<event>
 4    0  0.2233588E-002  0.6891027E+03  0.7546771E-02  0.9736052E-01
         21   -1    0    0  502  501  0.00000000000E+00  0.00000000000E+00  0.73905143931E+03  0.73905143931E+03  0.00000000000E+00 0. -1.
         21   -1    0    0  501  502 -0.00000000000E+00 -0.00000000000E+00 -0.64252980621E+03  0.64252980621E+03  0.00000000000E+00 0. -1.
         25    1    1    2    0    0  0.51891335404E+02  0.63967458427E+03 -0.16989873825E+03  0.67554930665E+03  0.12500000000E+03 0.  0.
         25    1    1    2    0    0 -0.51891335404E+02 -0.63967458427E+03  0.26642037135E+03  0.70603193888E+03  0.12500000000E+03 0.  0.
</event>
<event>
 4    0  0.2233588E-002  0.2091324E+03  0.7546771E-02  0.1142255E+00
         21   -1    0    0  502  501  0.00000000000E+00  0.00000000000E+00  0.67147635133E+03  0.67147635133E+03  0.00000000000E+00 0. -1.
         21   -1    0    0  501  502 -0.00000000000E+00 -0.00000000000E+00 -0.65134627070E+02  0.65134627070E+02  0.00000000000E+00 0.  1.
         25    1    1    2    0    0 -0.13224734349E+03  0.97803655714E+02  0.36041231936E+03  0.41542382560E+03  0.12500000000E+03 0.  0.
         25    1    1    2    0    0  0.13224734349E+03 -0.97803655714E+02  0.24592940490E+03  0.32118715280E+03  0.12500000000E+03 0.  0.
</event>
<event>
 4    0  0.2233588E-002  0.1757199E+03  0.7546771E-02  0.1172011E+00
         21   -1    0    0  502  501  0.00000000000E+00  0.00000000000E+00  0.97710274360E+02  0.97710274360E+02  0.00000000000E+00 0. -1.
         21   -1    0    0  501  502 -0.00000000000E+00 -0.00000000000E+00 -0.31601064410E+03  0.31601064410E+03  0.00000000000E+00 0. -1.
         25    1    1    2    0    0  0.87423360437E+01 -0.99380091550E+02 -0.19485008987E+03  0.25208012329E+03  0.12500000000E+03 0.  0.
         25    1    1    2    0    0 -0.87423360437E+01  0.99380091550E+02 -0.23450279866E+02  0.16164079517E+03  0.12500000000E+03 0.  0.
</event>
<event>
 4    0  0.2233588E-002  0.2127639E+03  0.7546771E-02  0.1139396E+00
         21   -1    0    0  502  501  0.00000000000E+00  0.00000000000E+00  0.16651799580E+04  0.16651799580E+04  0.00000000000E+00 0. -1.
         21   -1    0    0  501  502 -0.00000000000E+00 -0.00000000000E+00 -0.27185348619E+02  0.27185348619E+02  0.00000000000E+00 0. -1.
         25    1    1    2    0    0 -0.13594697890E+03 -0.87373244323E+02  0.10552191581E+04  0.10748153965E+04  0.12500000000E+03 0.  0.
         25    1    1    2    0    0  0.13594697890E+03  0.87373244323E+02  0.58277545132E+03  0.61754991018E+03  0.12500000000E+03 0.  0.
</event>
<event>
 4    0  0.2233588E-002  0.1405473E+03  0.7546771E-02  0.1212594E+00
         21   -1    0    0  502  501  0.00000000000E+00  0.00000000000E+00  0.10607328641E+03  0.10607328641E+03  0.00000000000E+00 0.  1.
         21   -1    0    0  501  502 -0.00000000000E+00 -0.00000000000E+00 -0.18622530173E+03  0.18622530173E+03  0.00000000000E+00 0.  1.
         25    1    1    2    0    0 -0.20790002619E+02 -0.37665637665E+02 -0.89702502137E+02  0.15975751425E+03  0.12500000000E+03 0.  0.
         25    1    1    2    0    0  0.20790002619E+02  0.37665637665E+02  0.95504868193E+01  0.13254107389E+03  0.12500000000E+03 0.  0.
</event>
<event>
 4    0  0.2233588E-002  0.1754324E+03  0.7546771E-02  0.1172298E+00
         21   -1    0    0  502  501  0.00000000000E+00  0.00000000000E+00  0.93761633643E+03  0.93761633643E+03  0.00000000000E+00 0. -1.
         21   -1    0    0  501  502 -0.00000000000E+00 -0.00000000000E+00 -0.32824234810E+02  0.32824234810E+02  0.00000000000E+00 0. -1.
         25    1    1    2    0    0  0.60101779362E+02  0.10617141364E+03  0.40720622854E+03  0.44308746937E+03  0.12500000000E+03 0.  0.
         25    1    1    2    0    0 -0.60101779362E+02 -0.10617141364E+03  0.49758587308E+03  0.52735310187E+03  0.12500000000E+03 0.  0.
</event>
<event>
 4    0  0.2233588E-002  0.2456133E+03  0.7546771E-02  0.1116109E+00
         21   -1    0    0  502  501  0.00000000000E+00  0.00000000000E+00  0.35689326320E+03  0.35689326320E+03  0.00000000000E+00 0.  1.
         21   -1    0    0  501  502 -0.00000000000E+00 -0.00000000000E+00 -0.16903060252E+03  0.16903060252E+03  0.00000000000E+00 0.  1.
         25    1    1    2    0    0  0.16831328674E+03  0.98425977268E+02  0.64018570591E+01  0.23169596299E+03  0.12500000000E+03 0.  0.
         25    1    1    2    0    0 -0.16831328674E+03 -0.98425977268E+02  0.18146080362E+03  0.29422790273E+03  0.12500000000E+03 0.  0.
</event>
<event>
 4    0  0.2233588E-002  0.2263927E+03  0.7546771E-02  0.1129205E+00
         21   -1    0    0  502  501  0.00000000000E+00  0.00000000000E+00  0.21133473102E+04  0.21133473102E+04  0.00000000000E+00 0. -1.
         21   -1    0    0  501  502 -0.00000000000E+00 -0.00000000000E+00 -0.24252354999E+02  0.24252354999E+02  0.00000000000E+00 0. -1.
         25    1    1    2    0    0 -0.69205935256E+02 -0.41744265804E+02  0.23925223625E+03  0.28177770982E+03  0.12500000000E+03 0.  0.
         25    1    1    2    0    0  0.69205935256E+02  0.41744265804E+02  0.18498427189E+04  0.18558219554E+04  0.12500000000E+03 0.  0.
</event>
<event>
 4    0  0.2233588E-002  0.1921271E+03  0.7546771E-02  0.1156557E+00
         21   -1    0    0  502  501  0.00000000000E+00  0.00000000000E+00  0.45836686329E+03  0.45836686329E+03  0.00000000000E+00 0. -1.
         21   -1    0    0  501  502 -0.00000000000E+00 -0.00000000000E+00 -0.80531183523E+02  0.80531183523E+02  0.00000000000E+00 0. -1.
         25    1    1    2    0    0  0.39581592518E+02 -0.13774284375E+03  0.15056052437E+03  0.24255569457E+03  0.12500000000E+03 0.  0.
         25    1    1    2    0    0 -0.39581592518E+02  0.13774284375E+03  0.22727515540E+03  0.29634235224E+03  0.12500000000E+03 0.  0.
</event>
<event>
 4    0  0.2233588E-002  0.1988074E+03  0.7546771E-02  0.1150749E+00
         21   -1    0    0  502  501  0.00000000000E+00  0.00000000000E+00  0.57317741991E+03  0.57317741991E+03  0.00000000000E+00 0.  1.
         21   -1    0    0  501  502 -0.00000000000E+00 -0.00000000000E+00 -0.68956659625E+02  0.68956659625E+02  0.00000000000E+00 0.  1.
         25    1    1    2    0    0  0.14409358008E+03 -0.55794056374E+02  0.24428759601E+03  0.31492438158E+03  0.12500000000E+03 0.  0.
         25    1    1    2    0    0 -0.14409358008E+03  0.55794056374E+02  0.25993316427E+03  0.32720969796E+03  0.12500000000E+03 0.  0.
</event>
<event>
 4    0  0.2233588E-002  0.2951078E+03  0.7546771E-02  0.1087712E+00
         21   -1    0    0  502  501  0.00000000000E+00  0.00000000000E+00  0.39134970339E+02  0.39134970339E+02  0.00000000000E+00 0.  1.
         21   -1    0    0  501  502 -0.00000000000E+00 -0.00000000000E+00 -0.22253395839E+04  0.22253395839E+04  0.00000000000E+00 0.  1.
         25    1    1    2    0    0  0.52485032937E+02  0.18521910622E+03 -0.18047314249E+04  0.18192694446E+04  0.12500000000E+03 0.  0.
         25    1    1    2    0    0 -0.52485032937E+02 -0.18521910622E+03 -0.38147318864E+03  0.44520510963E+03  0.12500000000E+03 0.  0.
</event>
<event>
 4    0  0.2233588E-002  0.1447602E+03  0.7546771E-02  0.1207064E+00
         21   -1    0    0  502  501  0.00000000000E+00  0.00000000000E+00  0.18750280047E+03  0.18750280047E+03  0.00000000000E+00 0.  1.
         21   -1    0    0  501  502 -0.00000000000E+00 -0.00000000000E+00 -0.11176105999E+03  0.11176105999E+03  0.00000000000E+00 0.  1.
         25    1    1    2    0    0 -0.35589497241E+02 -0.61338801529E+02  0.19924220151E+02  0.14508974959E+03  0.12500000000E+03 0.  0.
         25    1    1    2    0    0  0.35589497241E+02  0.61338801529E+02  0.55817520328E+02  0.15417411087E+03  0.12500000000E+03 0.  0.
</event>
<event>
 4    0  0.2233588E-002  0.1857874E+03  0.7546771E-02  0.1162317E+00
         21   -1    0    0  502  501  0.00000000000E+00  0.00000000000E+00  0.65994025133E+02  0.65994025133E+02  0.00000000000E+00 0.  1.
         21   -1    0    0  501  502 -0.00000000000E+00 -0.00000000000E+00 -0.52303148846E+03  0.52303148846E+03  0.00000000000E+00 0.  1.
         25    1    1    2    0    0  0.82022608425E+02  0.93405234425E+02 -0.13554749356E+03  0.22237438953E+03  0.12500000000E+03 0.  0.
         25    1    1    2    0    0 -0.82022608425E+02 -0.93405234425E+02 -0.32148996977E+03  0.36665112406E+03  0.12500000000E+03 0.  0.
</event>
<event>
 4    0  0.2233588E-002  0.2269617E+03  0.7546771E-02  0.1128797E+00
         21   -1    0    0  502  501  0.00000000000E+00  0.00000000000E+00  0.27460598800E+03  0.27460598800E+03  0.00000000000E+00 0. -1.
         21   -1    0    0  501  502 -0.00000000000E+00 -0.00000000000E+00 -0.18758379266E+03  0.18758379266E+03  0.00000000000E+00 0.  1.
         25    1    1    2    0    0  0.11187524582E+03 -0.13044530781E+03  0.12467842383E+03  0.24637726828E+03  0.12500000000E+03 0.  0.
         25    1    1    2    0    0 -0.11187524582E+03  0.13044530781E+03 -0.37656228494E+02  0.21581251238E+03  0.12500000000E+03 0.  0.
</event>
<event>
 4    0  0.2233588E-002  0.1953470E+03  0.7546771E-02  0.1153725E+00
         21   -1    0    0  502  501  0.00000000000E+00  0.00000000000E+00  0.31887347039E+02  0.31887347039E+02  0.00000000000E+00 0. -1.
         21   -1    0    0  501  502 -0.00000000000E+00 -0.00000000000E+00 -0.11967266661E+04  0.11967266661E+04  0.00000000000E+00 0. -1.
         25    1    1    2    0    0  0.57270063522E+02 -0.94492061692E+02 -0.90198691668E+03  0.91728621911E+03  0.12500000000E+03 0.  0.
         25    1    1    2    0    0 -0.57270063522E+02  0.94492061692E+02 -0.26285240236E+03  0.31132779401E+03  0.12500000000E+03 0.  0.
</event>
<event>
 4    0  0.2233588E-002  0.2824284E+03  0.7546771E-02  0.1094370E+00
         21   -1    0    0  502  501  0.00000000000E+00  0.00000000000E+00  0.29106549644E+03  0.29106549644E+03  0.00000000000E+00 0. -1.
         21   -1    0    0  501  502 -0.00000000000E+00 -0.00000000000E+00 -0.27404758461E+03  0.27404758461E+03  0.00000000000E+00 0. -1.
         25    1    1    2    0    0  0.14875097299E+03  0.20345615886E+03 -0.16392812382E+02  0.28180664442E+03  0.12500000000E+03 0.  0.
         25    1    1    2    0    0 -0.14875097299E+03 -0.20345615886E+03  0.33410724212E+02  0.28330643663E+03  0.12500000000E+03 0.  0.
</event>
<event>
 4    0  0.2233588E-002  0.2449411E+03  0.7546771E-02  0.1116544E+00
         21   -1    0    0  502  501  0.00000000000E+00  0.00000000000E+00  0.53826638363E+03  0.53826638363E+03  0.00000000000E+00 0.  1.
         21   -1    0    0  501  502 -0.00000000000E+00 -0.00000000000E+00 -0.11146179794E+03  0.11146179794E+03  0.00000000000E+00 0. -1.
         25    1    1    2    0    0 -0.18094510132E+03  0.55241247227E+02  0.90561233314E+02  0.24417014983E+03  0.12500000000E+03 0.  0.
         25    1    1    2    0    0  0.18094510132E+03 -0.55241247227E+02  0.33624335238E+03  0.40555803174E+03  0.12500000000E+03 0.  0.
</event>
<event>
 4    0  0.2233588E-002  0.2009783E+03  0.7546771E-02  0.1148916E+00
         21   -1    0    0  502  501  0.00000000000E+00  0.00000000000E+00  0.12575919535E+03  0.12575919535E+03  0.00000000000E+00 0.  1.
         21   -1    0    0  501  502 -0.00000000000E+00 -0.00000000000E+00 -0.32118735659E+03  0.32118735659E+03  0.00000000000E+00 0.  1.
         25    1    1    2    0    0 -0.78108647523E+02  0.24658501000E+02  0.51707891210E+02  0.15813825756E+03  0.12500000000E+03 0.  0.
         25    1    1    2    0    0  0.78108647523E+02 -0.24658501000E+02 -0.24713605244E+03  0.28880829439E+03  0.12500000000E+03 0.  0.
</event>
<event>
 4    0  0.2233588E-002  0.1904378E+03  0.7546771E-02  0.1158067E+00
         21   -1    0    0  502  501  0.00000000000E+00  0.00000000000E+00  0.37778131469E+03  0.37778131469E+03  0.00000000000E+00 0. -1.
         21   -1    0    0  501  502 -0.00000000000E+00 -0.00000000000E+00 -0.95998846576E+02  0.95998846576E+02  0.00000000000E+00 0. -1.
         25    1    1    2    0    0 -0.95120596925E+01  0.13775779816E+03  0.19024036081E+03  0.26624065263E+03  0.12500000000E+03 0.  0.
         25    1    1    2    0    0  0.95120596925E+01 -0.13775779816E+03  0.91542107311E+02  0.20753950864E+03  0.12500000000E+03 0.  0.
</event>
<event>
 4    0  0.2233588E-002  0.2527670E+03  0.7546771E-02  0.1111569E+00
         21   -1    0    0  502  501  0.00000000000E+00  0.00000000000E+00  0.29985328730E+03  0.29985328730E+03  0.00000000000E+00 0. -1.
         21   -1    0    0  501  502 -0.00000000000E+00 -0.00000000000E+00 -0.21307472889E+03  0.21307472889E+03  0.00000000000E+00 0. -1.
         25    1    1    2    0    0  0.39194853338E+02 -0.45039827031E+02 -0.17112998282E+03  0.22017105524E+03  0.12500000000E+03 0.  0.
         25    1    1    2    0    0 -0.39194853338E+02  0.45039827031E+02  0.25790854122E+03  0.29275696095E+03  0.12500000000E+03 0.  0.
</event>
<event>
 4    0  0.2233588E-002  0.2397946E+03  0.7546771E-02  0.1119930E+00
         21   -1    0    0  502  501  0.00000000000E+00  0.00000000000E+00  0.10571061337E+04  0.10571061337E+04  0.00000000000E+00 0.  1.
         21   -1    0    0  501  502 -0.00000000000E+00 -0.00000000000E+00 -0.54395154197E+02  0.54395154197E+02  0.00000000000E+00 0.  1.
         25    1    1    2    0    0 -0.46140653465E+01 -0.18501349619E+03  0.70373440975E+03  0.73832134118E+03  0.12500000000E+03 0.  0.
         25    1    1    2    0    0  0.46140653465E+01  0.18501349619E+03  0.29897656974E+03  0.37317994671E+03  0.12500000000E+03 0.  0.
</event>
<event>
 4    0  0.2233588E-002  0.1593418E+03  0.7546771E-02  0.1189442E+00
         21   -1    0    0  502  501  0.00000000000E+00  0.00000000000E+00  0.12289170705E+03  0.12289170705E+03  0.00000000000E+00 0. -1.
         21   -1    0    0  501  502 -0.00000000000E+00 -0.00000000000E+00 -0.20660321461E+03  0.20660321461E+03  0.00000000000E+00 0. -1.
         25    1    1    2    0    0  0.92886469456E+02  0.20061362128E+02 -0.69876205110E+02  0.17186633905E+03  0.12500000000E+03 0.  0.
         25    1    1    2    0    0 -0.92886469456E+02 -0.20061362128E+02 -0.13835302451E+02  0.15762858260E+03  0.12500000000E+03 0.  0.
</event>
<event>
 4    0  0.2233588E-002  0.1735925E+03  0.7546771E-02  0.1174152E+00
         21   -1    0    0  502  501  0.00000000000E+00  0.00000000000E+00  0.37060370244E+03  0.37060370244E+03  0.00000000000E+00 0. -1.
         21   -1    0    0  501  502 -0.00000000000E+00 -0.00000000000E+00 -0.81311513814E+02  0.81311513814E+02  0.00000000000E+00 0. -1.
         25    1    1    2    0    0 -0.28494918240E+02 -0.23352904248E+02  0.29392294254E+03  0.32151674086E+03  0.12500000000E+03 0.  0.
         25    1    1    2    0    0  0.28494918240E+02  0.23352904248E+02 -0.46307539174E+01  0.13039847539E+03  0.12500000000E+03 0.  0.
</event>
<event>
 4    0  0.2233588E-002  0.3035364E+03  0.7546771E-02  0.1083486E+00
         21   -1    0    0  502  501  0.00000000000E+00  0.00000000000E+00  0.68888402083E+03  0.68888402083E+03  0.00000000000E+00 0. -1.
         21   -1    0    0  501  502 -0.00000000000E+00 -0.00000000000E+00 -0.13374435554E+03  0.13374435554E+03  0.00000000000E+00 0. -1.
         25    1    1    2    0    0  0.13522148082E+03  0.24081746411E+03  0.25695446707E+03  0.39740218676E+03  0.12500000000E+03 0.  0.
         25    1    1    2    0    0 -0.13522148082E+03 -0.24081746411E+03  0.29818519822E+03  0.42522618961E+03  0.12500000000E+03 0.  0.
</event>
<event>
 4    0  0.2233588E-002  0.1874841E+03  0.7546771E-02  0.1160750E+00
         21   -1    0    0  502  501  0.00000000000E+00  0.00000000000E+00  0.26680748895E+03  0.26680748895E+03  0.00000000000E+00 0. -1.
         21   -1    0    0  501  502 -0.00000000000E+00 -0.00000000000E+00 -0.13174400828E+03  0.13174400828E+03  0.00000000000E+00 0. -1.
         25    1    1    2    0    0 -0.66246642440E+02  0.49126137046E+02 -0.52360139700E+02  0.15864608159E+03  0.12500000000E+03 0.  0.
         25    1    1    2    0    0  0.66246642440E+02 -0.49126137046E+02  0.18742362037E+03  0.23990541563E+03  0.12500000000E+03 0.  0.
</event>
<event>
 4    0  0.2233588E-002  0.1776194E+03  0.7546771E-02  0.1170127E+00
         21   -1    0    0  502  501  0.00000000000E+00  0.00000000000E+00  0.17611982626E+03  0.17611982626E+03  0.00000000000E+00 0. -1.
         21   -1    0    0  501  502 -0.00000000000E+00 -0.00000000000E+00 -0.17913176472E+03  0.17913176472E+03  0.00000000000E+00 0. -1.
         25    1    1    2    0    0 -0.28475779325E+02 -0.10246737304E+03  0.66417181199E+02  0.17704992094E+03  0.12500000000E+03 0.  0.
         25    1    1    2    0    0  0.28475779325E+02  0.10246737304E+03 -0.69429119663E+02  0.17820167004E+03  0.12500000000E+03 0.  0.
</event>
<event>
 4    0  0.2233588E-002  0.2071104E+03  0.7546771E-02  0.1143875E+00
         21   -1    0    0  502  501  0.00000000000E+00  0.00000000000E+00  0.32212425196E+03  0.32212425196E+03  0.00000000000E+00 0. -1.
         21   -1    0    0  501  502 -0.00000000000E+00 -0.00000000000E+00 -0.13316197314E+03  0.13316197314E+03  0.00000000000E+00 0. -1.
         25    1    1    2    0    0 -0.32894890149E+02  0.97515531692E+02  0.23642911784E+03  0.28655729005E+03  0.12500000000E+03 0.  0.
         25    1    1    2    0    0  0.32894890149E+02 -0.97515531692E+02 -0.47466839019E+02  0.16872893506E+03  0.12500000000E+03 0.  0.
</event>
<event>
 4    0  0.2233588E-002  0.1639388E+03  0.7546771E-02  0.1184320E+00
         21   -1    0    0  502  501  0.00000000000E+00  0.00000000000E+00  0.62480577120E+02  0.62480577120E+02  0.00000000000E+00 0.  1.
         21   -1    0    0  501  502 -0.00000000000E+00 -0.00000000000E+00 -0.43014853019E+03  0.43014853019E+03  0.00000000000E+00 0.  1.
         25    1    1    2    0    0 -0.61358058546E+02  0.69567621623E+02 -0.26112717082E+03  0.30400142215E+03  0.12500000000E+03 0.  0.
         25    1    1    2    0    0  0.61358058546E+02 -0.69567621623E+02 -0.10654078225E+03  0.18862768516E+03  0.12500000000E+03 0.  0.
</event>
<event>
 4    0  0.2233588E-002  0.2148510E+03  0.7546771E-02  0.1137781E+00
         21   -1    0    0  502  501  0.00000000000E+00  0.00000000000E+00  0.81351609483E+02  0.81351609483E+02  0.00000000000E+00 0. -1.
         21   -1    0    0  501  502 -0.00000000000E+00 -0.00000000000E+00 -0.56742516208E+03  0.56742516208E+03  0.00000000000E+00 0. -1.
         25    1    1    2    0    0  0.13298686183E+03  0.47149271290E+02 -0.39868395613E+03  0.44100165088E+03  0.12500000000E+03 0.  0.
         25    1    1    2    0    0 -0.13298686183E+03 -0.47149271290E+02 -0.87389596466E+02  0.20777512068E+03  0.12500000000E+03 0.  0.
</event>
<event>
 4    0  0.2233588E-002  0.2235568E+03  0.7546771E-02  0.1131259E+00
         21   -1    0    0  502  501  0.00000000000E+00  0.00000000000E+00  0.18973852925E+03  0.18973852925E+03  0.00000000000E+00 0.  1.
         21   -1    0    0  501  502 -0.00000000000E+00 -0.00000000000E+00 -0.26340266405E+03  0.26340266405E+03  0.00000000000E+00 0.  1.
         25    1    1    2    0    0  0.98890104058E+02  0.36832743408E+02 -0.19125657709E+03  0.25167435695E+03  0.12500000000E+03 0.  0.
         25    1    1    2    0    0 -0.98890104058E+02 -0.36832743408E+02  0.11759244229E+03  0.20146683636E+03  0.12500000000E+03 0.  0.
</event>
<event>
 4    0  0.2233588E-002  0.2078472E+03  0.7546771E-02  0.1143282E+00
         21   -1    0    0  502  501  0.00000000000E+00  0.00000000000E+00  0.15653473518E+03  0.15653473518E+03  0.00000000000E+00 0.  1.
         21   -1    0    0  501  502 -0.00000000000E+00 -0.00000000000E+00 -0.27597990323E+03  0.27597990323E+03  0.00000000000E+00 0.  1.
         25    1    1    2    0    0 -0.62960144449E+02  0.49210263062E+02 -0.21117990446E+03  0.25808444709E+03  0.12500000000E+03 0.  0.
         25    1    1    2    0    0  0.62960144449E+02 -0.49210263062E+02  0.91734736418E+02  0.17443019132E+03  0.12500000000E+03 0.  0.
</event>
<event>
 4    0  0.2233588E-002  0.2077975E+03  0.7546771E-02  0.1143322E+00
         21   -1    0    0  502  501  0.00000000000E+00  0.00000000000E+00  0.16946311924E+04  0.16946311924E+04  0.00000000000E+00 0. -1.
         21   -1    0    0  501  502 -0.00000000000E+00 -0.00000000000E+00 -0.25480363432E+02  0.25480363432E+02  0.00000000000E+00 0. -1.
         25    1    1    2    0    0 -0.14547571647E+03 -0.73263224442E+02  0.70212152535E+03  0.73152602175E+03  0.12500000000E+03 0.  0.
         25    1    1    2    0    0  0.14547571647E+03  0.73263224442E+02  0.96702930365E+03  0.98858553411E+03  0.12500000000E+03 0.  0.
</event>
<event>
 4    0  0.2233588E-002  0.2090456E+03  0.7546771E-02  0.1142324E+00
         21   -1    0    0  502  501  0.00000000000E+00  0.00000000000E+00  0.13960663263E+03  0.13960663263E+03  0.00000000000E+00 0.  1.
         21   -1    0    0  501  502 -0.00000000000E+00 -0.00000000000E+00 -0.31302271647E+03  0.31302271647E+03  0.00000000000E+00 0.  1.
         25    1    1    2    0    0 -0.13263284533E+03  0.38000990744E+02 -0.18963851669E+03  0.26575047313E+03  0.12500000000E+03 0.  0.
         25    1    1    2    0    0  0.13263284533E+03 -0.38000990744E+02  0.16222432844E+02  0.18687887597E+03  0.12500000000E+03 0.  0.
</event>
<event>
 4    0  0.2233588E-002  0.2424264E+03  0.7546771E-02  0.1118187E+00
         21   -1    0    0  502  501  0.00000000000E+00  0.00000000000E+00  0.12122245406E+04  0.12122245406E+04  0.00000000000E+00 0.  1.
         21   -1    0    0  501  502 -0.00000000000E+00 -0.00000000000E+00 -0.48481573630E+02  0.48481573630E+02  0.00000000000E+00 0.  1.
         25    1    1    2    0    0  0.69966294133E+02 -0.23050234643E+02  0.76880277615E+02  0.16420162215E+03  0.12500000000E+03 0.  0.
         25    1    1    2    0    0 -0.69966294133E+02  0.23050234643E+02  0.10868626894E+04  0.10965044921E+04  0.12500000000E+03 0.  0.
</event>
<event>
 4    0  0.2233588E-002  0.2614998E+03  0.7546771E-02  0.1106245E+00
         21   -1    0    0  502  501  0.00000000000E+00  0.00000000000E+00  0.31811871751E+03  0.31811871751E+03  0.00000000000E+00 0.  1.
         21   -1    0    0  501  502 -0.00000000000E+00 -0.00000000000E+00 -0.21495795631E+03  0.21495795631E+03  0.00000000000E+00 0.  1.
         25    1    1    2    0    0 -0.22665396031E+03  0.83271049620E+01  0.88553131298E+02  0.27369328721E+03  0.12500000000E+03 0.  0.
         25    1    1    2    0    0  0.22665396031E+03 -0.83271049620E+01  0.14607629906E+02  0.25938338661E+03  0.12500000000E+03 0.  0.
</event>
<event>
 4    0  0.2233588E-002  0.1994240E+03  0.7546771E-02  0.1150226E+00
         21   -1    0    0  502  501  0.00000000000E+00  0.00000000000E+00  0.13641526190E+03  0.13641526190E+03  0.00000000000E+00 0.  1.
         21   -1    0    0  501  502 -0.00000000000E+00 -0.00000000000E+00 -0.29153570170E+03  0.29153570170E+03  0.00000000000E+00 0.  1.
         25    1    1    2    0    0  0.43394390049E+02  0.69984221779E+02 -0.21894811597E+03  0.26522470072E+03  0.12500000000E+03 0.  0.
         25    1    1    2    0    0 -0.43394390049E+02 -0.69984221779E+02  0.63827676173E+02  0.16272626288E+03  0.12500000000E+03 0.  0.
</event>
<event>
 4    0  0.2233588E-002  0.2173305E+03  0.7546771E-02  0.1135889E+00
         21   -1    0    0  502  501  0.00000000000E+00  0.00000000000E+00  0.25625828279E+04  0.25625828279E+04  0.00000000000E+00 0.  1.
         21   -1    0    0  501  502 -0.00000000000E+00 -0.00000000000E+00 -0.18431608944E+02  0.18431608944E+02  0.00000000000E+00 0.  1.
         25    1    1    2    0    0 -0.11602560677E+03 -0.46660044323E+02  0.20224376889E+04  0.20301522866E+04  0.12500000000E+03 0.  0.
         25    1    1    2    0    0  0.11602560677E+03  0.46660044323E+02  0.52171353000E+03  0.55086215022E+03  0.12500000000E+03 0.  0.
</event>
<event>
 4    0  0.2233588E-002  0.4264870E+03  0.7546771E-02  0.1034975E+00
         21   -1    0    0  502  501  0.00000000000E+00  0.00000000000E+00  0.52244489263E+03  0.52244489263E+03  0.00000000000E+00 0.  1.
         21   -1    0    0  501  502 -0.00000000000E+00 -0.00000000000E+00 -0.34815382199E+03  0.34815382199E+03  0.00000000000E+00 0.  1.
         25    1    1    2    0    0  0.11400839563E+03  0.83083685568E+02  0.47762785124E+03  0.51347266467E+03  0.12500000000E+03 0.  0.
         25    1    1    2    0    0 -0.11400839563E+03 -0.83083685568E+02 -0.30333678060E+03  0.35712604994E+03  0.12500000000E+03 0.  0.
</event>
<event>
 4    0  0.2233588E-002  0.1805822E+03  0.7546771E-02  0.1167241E+00
         21   -1    0    0  502  501  0.00000000000E+00  0.00000000000E+00  0.89522158427E+02  0.89522158427E+02  0.00000000000E+00 0.  1.
         21   -1    0    0  501  502 -0.00000000000E+00 -0.00000000000E+00 -0.36426671037E+03  0.36426671037E+03  0.00000000000E+00 0.  1.
         25    1    1    2    0    0  0.11242661340E+00 -0.56597041988E+02  0.10130533841E+02  0.13758948186E+03  0.12500000000E+03 0.  0.
         25    1    1    2    0    0 -0.11242661340E+00  0.56597041988E+02 -0.28487508578E+03  0.31619938694E+03  0.12500000000E+03 0.  0.
</event>
<event>
 4    0  0.2233588E-002  0.2049383E+03  0.7546771E-02  0.1145638E+00
         21   -1    0    0  502  501  0.00000000000E+00  0.00000000000E+00  0.27564083053E+03  0.27564083053E+03  0.00000000000E+00 0.  1.
         21   -1    0    0  501  502 -0.00000000000E+00 -0.00000000000E+00 -0.15237116877E+03  0.15237116877E+03  0.00000000000E+00 0.  1.
         25    1    1    2    0    0 -0.14375123593E+03  0.54868832122E+02  0.11589251426E+03  0.22963249211E+03  0.12500000000E+03 0.  0.
         25    1    1    2    0    0  0.14375123593E+03 -0.54868832122E+02  0.73771475061E+01  0.19837950719E+03  0.12500000000E+03 0.  0.
</event>
<event>
 4    0  0.2233588E-002  0.2651888E+03  0.7546771E-02  0.1104065E+00
         21   -1    0    0  502  501  0.00000000000E+00  0.00000000000E+00  0.18558233299E+03  0.18558233299E+03  0.00000000000E+00 0.  1.
         21   -1    0    0  501  502 -0.00000000000E+00 -0.00000000000E+00 -0.37894294357E+03  0.37894294357E+03  0.00000000000E+00 0.  1.
         25    1    1    2    0    0  0.76347196211E+02  0.20568729995E+03 -0.10445816434E+02  0.25272569084E+03  0.12500000000E+03 0.  0.
         25    1    1    2    0    0 -0.76347196211E+02 -0.20568729995E+03 -0.18291479415E+03  0.31179958571E+03  0.12500000000E+03 0.  0.
</event>
<event>
 4    0  0.2233588E-002  0.1663851E+03  0.7546771E-02  0.1181671E+00
         21   -1    0    0  502  501  0.00000000000E+00  0.00000000000E+00  0.66538806325E+03  0.66538806325E+03  0.00000000000E+00 0. -1.
         21   -1    0    0  501  502 -0.00000000000E+00 -0.00000000000E+00 -0.41605773772E+02  0.41605773772E+02  0.00000000000E+00 0. -1.
         25    1    1    2    0    0 -0.57786878750E+02  0.76970166413E+02  0.19956468476E+03  0.25439102436E+03  0.12500000000E+03 0.  0.
         25    1    1    2    0    0  0.57786878750E+02 -0.76970166413E+02  0.42421760472E+03  0.45260281266E+03  0.12500000000E+03 0.  0.
</event>
<event>
 4    0  0.2233588E-002  0.1859986E+03  0.7546771E-02  0.1162121E+00
         21   -1    0    0  502  501  0.00000000000E+00  0.00000000000E+00  0.14499884634E+02  0.14499884634E+02  0.00000000000E+00 0. -1.
         21   -1    0    0  501  502 -0.00000000000E+00 -0.00000000000E+00 -0.23859142411E+04  0.23859142411E+04  0.00000000000E+00 0. -1.
         25    1    1    2    0    0  0.13736366843E+03 -0.89027608622E+01 -0.11551366277E+04  0.11700058398E+04  0.12500000000E+03 0.  0.
         25    1    1    2    0    0 -0.13736366843E+03  0.89027608622E+01 -0.12162777288E+04  0.12304082859E+04  0.12500000000E+03 0.  0.
</event>
<event>
 4    0  0.2233588E-002  0.2818280E+03  0.7546771E-02  0.1094695E+00
         21   -1    0    0  502  501  0.00000000000E+00  0.00000000000E+00  0.15331617046E+03  0.15331617046E+03  0.00000000000E+00 0.  1.
         21   -1    0    0  501  502 -0.00000000000E+00 -0.00000000000E+00 -0.51806013037E+03  0.51806013037E+03  0.00000000000E+00 0.  1.
         25    1    1    2    0    0 -0.35423976221E+02 -0.18377208670E+03  0.19678221832E+02  0.22591872511E+03  0.12500000000E+03 0.  0.
         25    1    1    2    0    0  0.35423976221E+02  0.18377208670E+03 -0.38442218175E+03  0.44545757572E+03  0.12500000000E+03 0.  0.
</event>
<event>
 4    0  0.2233588E-002  0.2205822E+03  0.7546771E-02  0.1133450E+00
         21   -1    0    0  502  501  0.00000000000E+00  0.00000000000E+00  0.89578018249E+02  0.89578018249E+02  0.00000000000E+00 0.  1.
         21   -1    0    0  501  502 -0.00000000000E+00 -0.00000000000E+00 -0.54317446636E+03  0.54317446636E+03  0.00000000000E+00 0.  1.
         25    1    1    2    0    0 -0.82460009047E+02  0.82810430440E+02 -0.27158868618E+02  0.17326230007E+03  0.12500000000E+03 0.  0.
         25    1    1    2    0    0  0.82460009047E+02 -0.82810430440E+02 -0.42643757950E+03  0.45949018454E+03  0.12500000000E+03 0.  0.
</event>
<event>
 4    0  0.2233588E-002  0.1785700E+03  0.7546771E-02  0.1169194E+00
         21   -1    0    0  502  501  0.00000000000E+00  0.00000000000E+00  0.84099997415E+02  0.84099997415E+02  0.00000000000E+00 0.  1.
         21   -1    0    0  501  502 -0.00000000000E+00 -0.00000000000E+00 -0.37915886465E+03  0.37915886465E+03  0.00000000000E+00 0.  1.
         25    1    1    2    0    0  0.39012663334E+02 -0.12835087034E+02  0.90725837378E+01  0.13188646305E+03  0.12500000000E+03 0.  0.
         25    1    1    2    0    0 -0.39012663334E+02  0.12835087034E+02 -0.30413145097E+03  0.33137239901E+03  0.12500000000E+03 0.  0.
</event>
<event>
 4    0  0.2233588E-002  0.2193861E+03  0.7546771E-02  0.1134342E+00
         21   -1    0    0  502  501  0.00000000000E+00  0.00000000000E+00  0.96596509411E+03  0.96596509411E+03  0.00000000000E+00 0.  1.
         21   -1    0    0  501  502 -0.00000000000E+00 -0.00000000000E+00 -0.49826084863E+02  0.49826084863E+02  0.00000000000E+00 0.  1.
         25    1    1    2    0    0  0.12568418488E+03 -0.12103436390E+03  0.35300922233E+03  0.41314203686E+03  0.12500000000E+03 0.  0.
         25    1    1    2    0    0 -0.12568418488E+03  0.12103436390E+03  0.56312978692E+03  0.60264914212E+03  0.12500000000E+03 0.  0.
</event>
<event>
 4    0  0.2233588E-002  0.1761528E+03  0.7546771E-02  0.1171579E+00
         21   -1    0    0  502  501  0.00000000000E+00  0.00000000000E+00  0.33446846844E+03  0.33446846844E+03  0.00000000000E+00 0.  1.
         21   -1    0    0  501  502 -0.00000000000E+00 -0.00000000000E+00 -0.92773472473E+02  0.92773472473E+02  0.00000000000E+00 0.  1.
         25    1    1    2    0    0  0.35579502884E+02  0.11220660075E+03  0.73125231048E+02  0.18662401157E+03  0.12500000000E+03 0.  0.
         25    1    1    2    0    0 -0.35579502884E+02 -0.11220660075E+03  0.16856976491E+03  0.24061792934E+03  0.12500000000E+03 0.  0.
</event>
<event>
 4    0  0.2233588E-002  0.2868862E+03  0.7546771E-02  0.1091986E+00
         21   -1    0    0  502  501  0.00000000000E+00  0.00000000000E+00  0.14258220302E+03  0.14258220302E+03  0.00000000000E+00 0. -1.
         21   -1    0    0  501  502 -0.00000000000E+00 -0.00000000000E+00 -0.57723667859E+03  0.57723667859E+03  0.00000000000E+00 0. -1.
         25    1    1    2    0    0 -0.16645782478E+03  0.47049966776E+02 -0.45784784535E+03  0.50514508440E+03  0.12500000000E+03 0.  0.
         25    1    1    2    0    0  0.16645782478E+03 -0.47049966776E+02  0.23193369789E+02  0.21467379721E+03  0.12500000000E+03 0.  0.
</event>
<event>
 4    0  0.2233588E-002  0.1706269E+03  0.7546771E-02  0.1177196E+00
         21   -1    0    0  502  501  0.00000000000E+00  0.00000000000E+00  0.39240183255E+02  0.39240183255E+02  0.00000000000E+00 0.  1.
         21   -1    0    0  501  502 -0.00000000000E+00 -0.00000000000E+00 -0.74193156112E+03  0.74193156112E+03  0.00000000000E+00 0.  1.
         25    1    1    2    0    0  0.65202187630E+02  0.87641731606E+02 -0.44164663806E+03  0.47181474256E+03  0.12500000000E+03 0.  0.
         25    1    1    2    0    0 -0.65202187630E+02 -0.87641731606E+02 -0.26104473981E+03  0.30935700182E+03  0.12500000000E+03 0.  0.
</event>
<event>
 4    0  0.2233588E-002  0.3314623E+03  0.7546771E-02  0.1070492E+00
         21   -1    0    0  502  501  0.00000000000E+00  0.00000000000E+00  0.63294695656E+02  0.63294695656E+02  0.00000000000E+00 0. -1.
         21   -1    0    0  501  502 -0.00000000000E+00 -0.00000000000E+00 -0.17358046032E+04  0.17358046032E+04  0.00000000000E+00 0. -1.
         25    1    1    2    0    0 -0.26270252797E+03  0.39792430665E+02 -0.12535771183E+04  0.12875079213E+04  0.12500000000E+03 0.  0.
         25    1    1    2    0    0  0.26270252797E+03 -0.39792430665E+02 -0.41893278921E+03  0.51159137758E+03  0.12500000000E+03 0.  0.
</event>
<event>
 4    0  0.2233588E-002  0.6197809E+03  0.7546771E-02  0.9865196E-01
         21   -1    0    0  502  501  0.00000000000E+00  0.00000000000E+00  0.16190164045E+04  0.16190164045E+04  0.00000000000E+00 0.  1.
         21   -1    0    0  501  502 -0.00000000000E+00 -0.00000000000E+00 -0.23726030346E+03  0.23726030346E+03  0.00000000000E+00 0.  1.
         25    1    1    2    0    0 -0.27836600014E+03  0.53513131645E+02  0.14947472747E+04  0.15265142320E+04  0.12500000000E+03 0.  0.
         25    1    1    2    0    0  0.27836600014E+03 -0.53513131645E+02 -0.11299117357E+03  0.32976247603E+03  0.12500000000E+03 0.  0.
</event>
<event>
 4    0  0.2233588E-002  0.2129100E+03  0.7546771E-02  0.1139282E+00
         21   -1    0    0  502  501  0.00000000000E+00  0.00000000000E+00  0.13671205657E+03  0.13671205657E+03  0.00000000000E+00 0. -1.
         21   -1    0    0  501  502 -0.00000000000E+00 -0.00000000000E+00 -0.33157755475E+03  0.33157755475E+03  0.00000000000E+00 0. -1.
         25    1    1    2    0    0 -0.87782344188E+01 -0.14780605329E+03 -0.41903583128E+00  0.19377528836E+03  0.12500000000E+03 0.  0.
         25    1    1    2    0    0  0.87782344188E+01  0.14780605329E+03 -0.19444646235E+03  0.27451432296E+03  0.12500000000E+03 0.  0.
</event>
<event>
 4    0  0.2233588E-002  0.2085604E+03  0.7546771E-02  0.1142711E+00
         21   -1    0    0  502  501  0.00000000000E+00  0.00000000000E+00  0.20785000276E+03  0.20785000276E+03  0.00000000000E+00 0.  1.
         21   -1    0    0  501  502 -0.00000000000E+00 -0.00000000000E+00 -0.20927318225E+03  0.20927318225E+03  0.00000000000E+00 0.  1.
         25    1    1    2    0    0 -0.78236268457E+02 -0.78510354576E+02 -0.12556279514E+03  0.20898757141E+03  0.12500000000E+03 0.  0.
         25    1    1    2    0    0  0.78236268457E+02  0.78510354576E+02  0.12413961565E+03  0.20813561360E+03  0.12500000000E+03 0.  0.
</event>
<event>
 4    0  0.2233588E-002  0.2195994E+03  0.7546771E-02  0.1134182E+00
         21   -1    0    0  502  501  0.00000000000E+00  0.00000000000E+00  0.91226759973E+03  0.91226759973E+03  0.00000000000E+00 0.  1.
         21   -1    0    0  501  502 -0.00000000000E+00 -0.00000000000E+00 -0.52861583184E+02  0.52861583184E+02  0.00000000000E+00 0.  1.
         25    1    1    2    0    0 -0.42690085761E+02 -0.11625323366E+03  0.71841539723E+03  0.73965055312E+03  0.12500000000E+03 0.  0.
         25    1    1    2    0    0  0.42690085761E+02  0.11625323366E+03  0.14099061932E+03  0.22547862979E+03  0.12500000000E+03 0.  0.
</event>
<event>
 4    0  0.2233588E-002  0.1655555E+03  0.7546771E-02  0.1182564E+00
         21   -1    0    0  502  501  0.00000000000E+00  0.00000000000E+00  0.70356311137E+02  0.70356311137E+02  0.00000000000E+00 0.  1.
         21   -1    0    0  501  502 -0.00000000000E+00 -0.00000000000E+00 -0.38956899438E+03  0.38956899438E+03  0.00000000000E+00 0.  1.
         25    1    1    2    0    0  0.32418688891E+01 -0.10096701153E+03 -0.21479830002E+03  0.26826881449E+03  0.12500000000E+03 0.  0.
         25    1    1    2    0    0 -0.32418688891E+01  0.10096701153E+03 -0.10441438322E+03  0.19165649104E+03  0.12500000000E+03 0.  0.
</event>
<event>
 4    0  0.2233588E-002  0.1813556E+03  0.7546771E-02  0.1166497E+00
         21   -1    0    0  502  501  0.00000000000E+00  0.00000000000E+00  0.53826567530E+02  0.53826567530E+02  0.00000000000E+00 0.  1.
         21   -1    0    0  501  502 -0.00000000000E+00 -0.00000000000E+00 -0.61103392318E+03  0.61103392318E+03  0.00000000000E+00 0.  1.
         25    1    1    2    0    0 -0.83488567493E+02  0.42204049765E+02 -0.10947415893E+03  0.19068590454E+03  0.12500000000E+03 0.  0.
         25    1    1    2    0    0  0.83488567493E+02 -0.42204049765E+02 -0.44773319672E+03  0.47417458616E+03  0.12500000000E+03 0.  0.
</event>
<event>
 4    0  0.2233588E-002  0.3852512E+03  0.7546771E-02  0.1049010E+00
         21   -1    0    0  502  501  0.00000000000E+00  0.00000000000E+00  0.16743151074E+04  0.16743151074E+04  0.00000000000E+00 0. -1.
         21   -1    0    0  501  502 -0.00000000000E+00 -0.00000000000E+00 -0.88644319736E+02  0.88644319736E+02  0.00000000000E+00 0. -1.
         25    1    1    2    0    0 -0.18216582178E+03  0.27192700179E+03  0.11593890640E+04  0.12111716157E+04  0.12500000000E+03 0.  0.
         25    1    1    2    0    0  0.18216582178E+03 -0.27192700179E+03  0.42628172364E+03  0.55178781143E+03  0.12500000000E+03 0.  0.
</event>
<event>
 4    0  0.2233588E-002  0.2810313E+03  0.7546771E-02  0.1095127E+00
         21   -1    0    0  502  501  0.00000000000E+00  0.00000000000E+00  0.73934553644E+03  0.73934553644E+03  0.00000000000E+00 0. -1.
         21   -1    0    0  501  502 -0.00000000000E+00 -0.00000000000E+00 -0.10682227503E+03  0.10682227503E+03  0.00000000000E+00 0. -1.
         25    1    1    2    0    0  0.11297269855E+03 -0.66996747520E+02  0.63950720294E+03  0.66471486926E+03  0.12500000000E+03 0.  0.
         25    1    1    2    0    0 -0.11297269855E+03  0.66996747520E+02 -0.69839415338E+01  0.18145294221E+03  0.12500000000E+03 0.  0.
</event>
<event>
 4    0  0.2233588E-002  0.2318342E+03  0.7546771E-02  0.1125355E+00
         21   -1    0    0  502  501  0.00000000000E+00  0.00000000000E+00  0.35158031664E+03  0.35158031664E+03  0.00000000000E+00 0.  1.
         21   -1    0    0  501  502 -0.00000000000E+00 -0.00000000000E+00 -0.15287286131E+03  0.15287286131E+03  0.00000000000E+00 0.  1.
         25    1    1    2    0    0 -0.11368960291E+03 -0.13922945118E+03  0.18229550218E+03  0.28489790452E+03  0.12500000000E+03 0.  0.
         25    1    1    2    0    0  0.11368960291E+03  0.13922945118E+03  0.16411953160E+02  0.21955527343E+03  0.12500000000E+03 0.  0.
</event>
<event>
 4    0  0.2233588E-002  0.2024337E+03  0.7546771E-02  0.1147702E+00
         21   -1    0    0  502  501  0.00000000000E+00  0.00000000000E+00  0.13010249389E+03  0.13010249389E+03  0.00000000000E+00 0.  1.
         21   -1    0    0  501  502 -0.00000000000E+00 -0.00000000000E+00 -0.31497768911E+03  0.31497768911E+03  0.00000000000E+00 0.  1.
         25    1    1    2    0    0 -0.64477931279E+02 -0.13892022249E+03 -0.44542513734E+02  0.20264566950E+03  0.12500000000E+03 0.  0.
         25    1    1    2    0    0  0.64477931279E+02  0.13892022249E+03 -0.14033268149E+03  0.24243451349E+03  0.12500000000E+03 0.  0.
</event>
<event>
 4    0  0.2233588E-002  0.1692137E+03  0.7546771E-02  0.1178670E+00
         21   -1    0    0  502  501  0.00000000000E+00  0.00000000000E+00  0.17406749211E+03  0.17406749211E+03  0.00000000000E+00 0.  1.
         21   -1    0    0  501  502 -0.00000000000E+00 -0.00000000000E+00 -0.16449528818E+03  0.16449528818E+03  0.00000000000E+00 0.  1.
         25    1    1    2    0    0  0.21095947253E+02  0.10669689620E+03 -0.29564427093E+02  0.16831019576E+03  0.12500000000E+03 0.  0.
         25    1    1    2    0    0 -0.21095947253E+02 -0.10669689620E+03  0.39136631025E+02  0.17025258452E+03  0.12500000000E+03 0.  0.
</event>
<event>
 4    0  0.2233588E-002  0.1697459E+03  0.7546771E-02  0.1178113E+00
         21   -1    0    0  502  501  0.00000000000E+00  0.00000000000E+00  0.22446551288E+03  0.22446551288E+03  0.00000000000E+00 0. -1.
         21   -1    0    0  501  502 -0.00000000000E+00 -0.00000000000E+00 -0.12836562466E+03  0.12836562466E+03  0.00000000000E+00 0. -1.
         25    1    1    2    0    0  0.61023258074E+02  0.94164042956E+02  0.22636095411E+02  0.16949365129E+03  0.12500000000E+03 0.  0.
         25    1    1    2    0    0 -0.61023258074E+02 -0.94164042956E+02  0.73463792811E+02  0.18333748625E+03  0.12500000000E+03 0.  0.
</event>
<event>
 4    0  0.2233588E-002  0.1977289E+03  0.7546771E-02  0.1151669E+00
         21   -1    0    0  502  501  0.00000000000E+00  0.00000000000E+00  0.44134552637E+03  0.44134552637E+03  0.00000000000E+00 0. -1.
         21   -1    0    0  501  502 -0.00000000000E+00 -0.00000000000E+00 -0.88585255372E+02  0.88585255372E+02  0.00000000000E+00 0. -1.
         25    1    1    2    0    0 -0.21372663745E+01  0.14931909640E+03  0.22223521439E+03  0.29548984918E+03  0.12500000000E+03 0.  0.
         25    1    1    2    0    0  0.21372663745E+01 -0.14931909640E+03  0.13052505662E+03  0.23444093256E+03  0.12500000000E+03 0.  0.
</event>
<event>
 4    0  0.2233588E-002  0.3174715E+03  0.7546771E-02  0.1076819E+00
         21   -1    0    0  502  501  0.00000000000E+00  0.00000000000E+00  0.19479879992E+03  0.19479879992E+03  0.00000000000E+00 0. -1.
         21   -1    0    0  501  502 -0.00000000000E+00 -0.00000000000E+00 -0.51739623637E+03  0.51739623637E+03  0.00000000000E+00 0. -1.
         25    1    1    2    0    0 -0.15346585965E+02 -0.14566936108E+03  0.12181535147E+03  0.22785754390E+03  0.12500000000E+03 0.  0.
         25    1    1    2    0    0  0.15346585965E+02  0.14566936108E+03 -0.44441278793E+03  0.48433749239E+03  0.12500000000E+03 0.  0.
</event>
<event>
 4    0  0.2233588E-002  0.1656164E+03  0.7546771E-02  0.1182498E+00
         21   -1    0    0  502  501  0.00000000000E+00  0.00000000000E+00  0.32347959224E+02  0.32347959224E+02  0.00000000000E+00 0.  1.
         21   -1    0    0  501  502 -0.00000000000E+00 -0.00000000000E+00 -0.84792948064E+03  0.84792948064E+03  0.00000000000E+00 0.  1.
         25    1    1    2    0    0 -0.45620580616E+01 -0.15521407256E+02 -0.12227639623E+03  0.17560821032E+03  0.12500000000E+03 0.  0.
         25    1    1    2    0    0  0.45620580616E+01  0.15521407256E+02 -0.69330512518E+03  0.70466922954E+03  0.12500000000E+03 0.  0.
</event>
<event>
 4    0  0.2233588E-002  0.2330652E+03  0.7546771E-02  0.1124501E+00
         21   -1    0    0  502  501  0.00000000000E+00  0.00000000000E+00  0.11926991041E+03  0.11926991041E+03  0.00000000000E+00 0.  1.
         21   -1    0    0  501  502 -0.00000000000E+00 -0.00000000000E+00 -0.45543232531E+03  0.45543232531E+03  0.00000000000E+00 0.  1.
         25    1    1    2    0    0 -0.15239435664E+03  0.48736323923E+02 -0.26993237455E+02  0.20482408080E+03  0.12500000000E+03 0.  0.
         25    1    1    2    0    0  0.15239435664E+03 -0.48736323923E+02 -0.30916917745E+03  0.36987815493E+03  0.12500000000E+03 0.  0.
</event>
<event>
 4    0  0.2233588E-002  0.3305944E+03  0.7546771E-02  0.1070874E+00
         21   -1    0    0  502  501  0.00000000000E+00  0.00000000000E+00  0.59602612642E+03  0.59602612642E+03  0.00000000000E+00 0. -1.
         21   -1    0    0  501  502 -0.00000000000E+00 -0.00000000000E+00 -0.18336887558E+03  0.18336887558E+03  0.00000000000E+00 0. -1.
         25    1    1    2    0    0 -0.12818031694E+03  0.24798641224E+03  0.35421804196E+03  0.46799879867E+03  0.12500000000E+03 0.  0.
         25    1    1    2    0    0  0.12818031694E+03 -0.24798641224E+03  0.58439208884E+02  0.31139620332E+03  0.12500000000E+03 0.  0.
</event>
<event>
 4    0  0.2233588E-002  0.6364826E+03  0.7546771E-02  0.9832479E-01
         21   -1    0    0  502  501  0.00000000000E+00  0.00000000000E+00  0.10060766826E+04  0.10060766826E+04  0.00000000000E+00 0.  1.
         21   -1    0    0  501  502 -0.00000000000E+00 -0.00000000000E+00 -0.40266324901E+03  0.40266324901E+03  0.00000000000E+00 0. -1.
         25    1    1    2    0    0 -0.43250319619E+03  0.42977377120E+03  0.15438951505E+03  0.64126876697E+03  0.12500000000E+03 0.  0.
         25    1    1    2    0    0  0.43250319619E+03 -0.42977377120E+03  0.44902391852E+03  0.76747116463E+03  0.12500000000E+03 0.  0.
</event>
<event>
 4    0  0.2233588E-002  0.1936345E+03  0.7546771E-02  0.1155223E+00
         21   -1    0    0  502  501  0.00000000000E+00  0.00000000000E+00  0.10667720026E+03  0.10667720026E+03  0.00000000000E+00 0.  1.
         21   -1    0    0  501  502 -0.00000000000E+00 -0.00000000000E+00 -0.35147457866E+03  0.35147457866E+03  0.00000000000E+00 0.  1.
         25    1    1    2    0    0 -0.35501487322E+02  0.70663494852E+02 -0.27023342736E+03  0.30806621102E+03  0.12500000000E+03 0.  0.
         25    1    1    2    0    0  0.35501487322E+02 -0.70663494852E+02  0.25436048955E+02  0.15008556790E+03  0.12500000000E+03 0.  0.
</event>
<event>
 4    0  0.2233588E-002  0.3068741E+03  0.7546771E-02  0.1081854E+00
         21   -1    0    0  502  501  0.00000000000E+00  0.00000000000E+00  0.29079379321E+03  0.29079379321E+03  0.00000000000E+00 0. -1.
         21   -1    0    0  501  502 -0.00000000000E+00 -0.00000000000E+00 -0.32384368419E+03  0.32384368419E+03  0.00000000000E+00 0. -1.
         25    1    1    2    0    0  0.19102010596E+03 -0.15048229362E+03 -0.15605782639E+03  0.31482161100E+03  0.12500000000E+03 0.  0.
         25    1    1    2    0    0 -0.19102010596E+03  0.15048229362E+03  0.12300793541E+03  0.29981586640E+03  0.12500000000E+03 0.  0.
</event>
<event>
 4    0  0.2233588E-002  0.2167353E+03  0.7546771E-02  0.1136341E+00
         21   -1    0    0  502  501  0.00000000000E+00  0.00000000000E+00  0.44212405552E+03  0.44212405552E+03  0.00000000000E+00 0. -1.
         21   -1    0    0  501  502 -0.00000000000E+00 -0.00000000000E+00 -0.10624665590E+03  0.10624665590E+03  0.00000000000E+00 0. -1.
         25    1    1    2    0    0  0.76122878059E+02 -0.62327830902E+02  0.35416521297E+03  0.38824921010E+03  0.12500000000E+03 0.  0.
         25    1    1    2    0    0 -0.76122878059E+02  0.62327830902E+02 -0.18287813348E+02  0.16012150132E+03  0.12500000000E+03 0.  0.
</event>
<event>
 4    0  0.2233588E-002  0.3072888E+03  0.7546771E-02  0.1081653E+00
         21   -1    0    0  502  501  0.00000000000E+00  0.00000000000E+00  0.12529984515E+04  0.12529984515E+04  0.00000000000E+00 0. -1.
         21   -1    0    0  501  502 -0.00000000000E+00 -0.00000000000E+00 -0.75360358094E+02  0.75360358094E+02  0.00000000000E+00 0. -1.
         25    1    1    2    0    0  0.31178264691E+02  0.21553802980E+02  0.11900069813E+04  0.11971542365E+04  0.12500000000E+03 0.  0.
         25    1    1    2    0    0 -0.31178264691E+02 -0.21553802980E+02 -0.12368887827E+02  0.13120457308E+03  0.12500000000E+03 0.  0.
</event>
<event>
 4    0  0.2233588E-002  0.2707432E+03  0.7546771E-02  0.1100855E+00
         21   -1    0    0  502  501  0.00000000000E+00  0.00000000000E+00  0.17454173388E+03  0.17454173388E+03  0.00000000000E+00 0.  1.
         21   -1    0    0  501  502 -0.00000000000E+00 -0.00000000000E+00 -0.41996760843E+03  0.41996760843E+03  0.00000000000E+00 0.  1.
         25    1    1    2    0    0 -0.52829865131E+02  0.17661672984E+03  0.46282808931E+02  0.22748969715E+03  0.12500000000E+03 0.  0.
         25    1    1    2    0    0  0.52829865131E+02 -0.17661672984E+03 -0.29170868349E+03  0.36701964516E+03  0.12500000000E+03 0.  0.
</event>
<event>
 4    0  0.2233588E-002  0.1631472E+03  0.7546771E-02  0.1185189E+00
         21   -1    0    0  502  501  0.00000000000E+00  0.00000000000E+00  0.28913618477E+03  0.28913618477E+03  0.00000000000E+00 0.  1.
         21   -1    0    0  501  502 -0.00000000000E+00 -0.00000000000E+00 -0.92057028643E+02  0.92057028643E+02  0.00000000000E+00 0.  1.
         25    1    1    2    0    0 -0.95455560731E+02  0.39609200078E+01  0.48093868138E+02  0.16451587496E+03  0.12500000000E+03 0.  0.
         25    1    1    2    0    0  0.95455560731E+02 -0.39609200078E+01  0.14898528799E+03  0.21667733846E+03  0.12500000000E+03 0.  0.
</event>
<event>
 4    0  0.2233588E-002  0.5344070E+03  0.7546771E-02  0.1005169E+00
         21   -1    0    0  502  501  0.00000000000E+00  0.00000000000E+00  0.51337434939E+03  0.51337434939E+03  0.00000000000E+00 0. -1.
         21   -1    0    0  501  502 -0.00000000000E+00 -0.00000000000E+00 -0.55630131232E+03  0.55630131232E+03  0.00000000000E+00 0. -1.
         25    1    1    2    0    0 -0.45987310696E+02 -0.49705449161E+03  0.12283259036E+03  0.52904711097E+03  0.12500000000E+03 0.  0.
         25    1    1    2    0    0  0.45987310696E+02  0.49705449161E+03 -0.16575955329E+03  0.54062855074E+03  0.12500000000E+03 0.  0.
</event>
<event>
 4    0  0.2233588E-002  0.1796336E+03  0.7546771E-02  0.1168158E+00
         21   -1    0    0  502  501  0.00000000000E+00  0.00000000000E+00  0.10062770753E+03  0.10062770753E+03  0.00000000000E+00 0.  1.
         21   -1    0    0  501  502 -0.00000000000E+00 -0.00000000000E+00 -0.32066945828E+03  0.32066945828E+03  0.00000000000E+00 0.  1.
         25    1    1    2    0    0  0.11394237335E+03  0.41881479293E+02 -0.16122060684E+03  0.23738998889E+03  0.12500000000E+03 0.  0.
         25    1    1    2    0    0 -0.11394237335E+03 -0.41881479293E+02 -0.58821143905E+02  0.18390717692E+03  0.12500000000E+03 0.  0.
</event>
<event>
 4    0  0.2233588E-002  0.2080155E+03  0.7546771E-02  0.1143147E+00
         21   -1    0    0  502  501  0.00000000000E+00  0.00000000000E+00  0.25451543996E+03  0.25451543996E+03  0.00000000000E+00 0.  1.
         21   -1    0    0  501  502 -0.00000000000E+00 -0.00000000000E+00 -0.17001114224E+03  0.17001114224E+03  0.00000000000E+00 0.  1.
         25    1    1    2    0    0  0.30469040407E+02  0.15282319005E+03 -0.16916141642E+02  0.20048552489E+03  0.12500000000E+03 0.  0.
         25    1    1    2    0    0 -0.30469040407E+02 -0.15282319005E+03  0.10142043937E+03  0.22404105731E+03  0.12500000000E+03 0.  0.
</event>
<event>
 4    0  0.2233588E-002  0.2983327E+03  0.7546771E-02  0.1086077E+00
         21   -1    0    0  502  501  0.00000000000E+00  0.00000000000E+00  0.71137824980E+02  0.71137824980E+02  0.00000000000E+00 0. -1.
         21   -1    0    0  501  502 -0.00000000000E+00 -0.00000000000E+00 -0.12511260186E+04  0.12511260186E+04  0.00000000000E+00 0. -1.
         25    1    1    2    0    0 -0.23821031290E+03 -0.92813783797E+02 -0.39154785989E+03  0.48403850902E+03  0.12500000000E+03 0.  0.
         25    1    1    2    0    0  0.23821031290E+03  0.92813783797E+02 -0.78844033375E+03  0.83822533457E+03  0.12500000000E+03 0.  0.
</event>
<event>
 4    0  0.2233588E-002  0.1506551E+03  0.7546771E-02  0.1199670E+00
         21   -1    0    0  502  501  0.00000000000E+00  0.00000000000E+00  0.11065396837E+04  0.11065396837E+04  0.00000000000E+00 0. -1.
         21   -1    0    0  501  502 -0.00000000000E+00 -0.00000000000E+00 -0.20511646478E+02  0.20511646478E+02  0.00000000000E+00 0. -1.
         25    1    1    2    0    0 -0.82417584430E+02 -0.16424217762E+02  0.55456584666E+03  0.57465702069E+03  0.12500000000E+03 0.  0.
         25    1    1    2    0    0  0.82417584430E+02  0.16424217762E+02  0.53146219056E+03  0.55239430948E+03  0.12500000000E+03 0.  0.
</event>
<event>
 4    0  0.2233588E-002  0.2093680E+03  0.7546771E-02  0.1142067E+00
         21   -1    0    0  502  501  0.00000000000E+00  0.00000000000E+00  0.87752106045E+02  0.87752106045E+02  0.00000000000E+00 0. -1.
         21   -1    0    0  501  502 -0.00000000000E+00 -0.00000000000E+00 -0.49953185695E+03  0.49953185695E+03  0.00000000000E+00 0. -1.
         25    1    1    2    0    0  0.23475274803E+02  0.16146062775E+03 -0.14997626954E+03  0.25443762353E+03  0.12500000000E+03 0.  0.
         25    1    1    2    0    0 -0.23475274803E+02 -0.16146062775E+03 -0.26180348136E+03  0.33284633946E+03  0.12500000000E+03 0.  0.
</event>
<event>
 4    0  0.2233588E-002  0.2357929E+03  0.7546771E-02  0.1122628E+00
         21   -1    0    0  502  501  0.00000000000E+00  0.00000000000E+00  0.97603340645E+03  0.97603340645E+03  0.00000000000E+00 0.  1.
         21   -1    0    0  501  502 -0.00000000000E+00 -0.00000000000E+00 -0.56963490099E+02  0.56963490099E+02  0.00000000000E+00 0.  1.
         25    1    1    2    0    0  0.10343757288E+03 -0.12573435449E+02  0.83330380056E+03  0.84904513825E+03  0.12500000000E+03 0.  0.
         25    1    1    2    0    0 -0.10343757288E+03  0.12573435449E+02  0.85766115790E+02  0.18395175829E+03  0.12500000000E+03 0.  0.
</event>
<event>
 4    0  0.2233588E-002  0.4085531E+03  0.7546771E-02  0.1040858E+00
         21   -1    0    0  502  501  0.00000000000E+00  0.00000000000E+00  0.13335688980E+03  0.13335688980E+03  0.00000000000E+00 0.  1.
         21   -1    0    0  501  502 -0.00000000000E+00 -0.00000000000E+00 -0.12516463899E+04  0.12516463899E+04  0.00000000000E+00 0.  1.
         25    1    1    2    0    0  0.29473443142E+03  0.22958961519E+03 -0.74257343901E+03  0.84060697641E+03  0.12500000000E+03 0.  0.
         25    1    1    2    0    0 -0.29473443142E+03 -0.22958961519E+03 -0.37571606107E+03  0.54439630327E+03  0.12500000000E+03 0.  0.
</event>
<event>
 4    0  0.2233588E-002  0.2195830E+03  0.7546771E-02  0.1134194E+00
         21   -1    0    0  502  501  0.00000000000E+00  0.00000000000E+00  0.83822548662E+02  0.83822548662E+02  0.00000000000E+00 0. -1.
         21   -1    0    0  501  502 -0.00000000000E+00 -0.00000000000E+00 -0.57522361725E+03  0.57522361725E+03  0.00000000000E+00 0. -1.
         25    1    1    2    0    0 -0.55999911993E+02 -0.12609084388E+03 -0.42042991970E+03  0.45980562027E+03  0.12500000000E+03 0.  0.
         25    1    1    2    0    0  0.55999911993E+02  0.12609084388E+03 -0.70971148892E+02  0.19924054565E+03  0.12500000000E+03 0.  0.
</event>
<event>
 4    0  0.2233588E-002  0.2611863E+03  0.7546771E-02  0.1106433E+00
         21   -1    0    0  502  501  0.00000000000E+00  0.00000000000E+00  0.14386250100E+03  0.14386250100E+03  0.00000000000E+00 0.  1.
         21   -1    0    0  501  502 -0.00000000000E+00 -0.00000000000E+00 -0.47419088483E+03  0.47419088483E+03  0.00000000000E+00 0.  1.
         25    1    1    2    0    0  0.18584520001E+03  0.99561284954E+02 -0.58400944423E+02  0.25196539076E+03  0.12500000000E+03 0.  0.
         25    1    1    2    0    0 -0.18584520001E+03 -0.99561284954E+02 -0.27192743940E+03  0.36608799507E+03  0.12500000000E+03 0.  0.
</event>
<event>
 4    0  0.2233588E-002  0.2332575E+03  0.7546771E-02  0.1124368E+00
         21   -1    0    0  502  501  0.00000000000E+00  0.00000000000E+00  0.79943570444E+03  0.79943570444E+03  0.00000000000E+00 0. -1.
         21   -1    0    0  501  502 -0.00000000000E+00 -0.00000000000E+00 -0.68059319171E+02  0.68059319171E+02  0.00000000000E+00 0. -1.
         25    1    1    2    0    0 -0.44015601436E+02 -0.18822534058E+03  0.29566790604E+03  0.37471410791E+03  0.12500000000E+03 0.  0.
         25    1    1    2    0    0  0.44015601436E+02  0.18822534058E+03  0.43570847923E+03  0.49278091570E+03  0.12500000000E+03 0.  0.
</event>
<event>
 4    0  0.2233588E-002  0.1785785E+03  0.7546771E-02  0.1169186E+00
         21   -1    0    0  502  501  0.00000000000E+00  0.00000000000E+00  0.10748490630E+03  0.10748490630E+03  0.00000000000E+00 0. -1.
         21   -1    0    0  501  502 -0.00000000000E+00 -0.00000000000E+00 -0.29669559537E+03  0.29669559537E+03  0.00000000000E+00 0. -1.
         25    1    1    2    0    0  0.40101071577E+02  0.22008035158E+02  0.40118555990E+02  0.13902139435E+03  0.12500000000E+03 0.  0.
         25    1    1    2    0    0 -0.40101071577E+02 -0.22008035158E+02 -0.22932924506E+03  0.26515910731E+03  0.12500000000E+03 0.  0.
</event>
<event>
 4    0  0.2233588E-002  0.2968650E+03  0.7546771E-02  0.1086818E+00
         21   -1    0    0  502  501  0.00000000000E+00  0.00000000000E+00  0.15543558425E+03  0.15543558425E+03  0.00000000000E+00 0. -1.
         21   -1    0    0  501  502 -0.00000000000E+00 -0.00000000000E+00 -0.56697985807E+03  0.56697985807E+03  0.00000000000E+00 0. -1.
         25    1    1    2    0    0 -0.16314650203E+03  0.41808554738E+02  0.49856654345E+02  0.21558159095E+03  0.12500000000E+03 0.  0.
         25    1    1    2    0    0  0.16314650203E+03 -0.41808554738E+02 -0.46140092816E+03  0.50683385136E+03  0.12500000000E+03 0.  0.
</event>
<event>
 4    0  0.2233588E-002  0.2663157E+03  0.7546771E-02  0.1103407E+00
         21   -1    0    0  502  501  0.00000000000E+00  0.00000000000E+00  0.42862446406E+03  0.42862446406E+03  0.00000000000E+00 0. -1.
         21   -1    0    0  501  502 -0.00000000000E+00 -0.00000000000E+00 -0.16546898856E+03  0.16546898856E+03  0.00000000000E+00 0. -1.
         25    1    1    2    0    0  0.11313171923E+03  0.12035779277E+03 -0.55110802604E+02  0.21435247780E+03  0.12500000000E+03 0.  0.
         25    1    1    2    0    0 -0.11313171923E+03 -0.12035779277E+03  0.31826627811E+03  0.37974097482E+03  0.12500000000E+03 0.  0.
</event>
<event>
 4    0  0.2233588E-002  0.6451010E+03  0.7546771E-02  0.9816015E-01
         21   -1    0    0  502  501  0.00000000000E+00  0.00000000000E+00  0.11426572976E+04  0.11426572976E+04  0.00000000000E+00 0.  1.
         21   -1    0    0  501  502 -0.00000000000E+00 -0.00000000000E+00 -0.36419961029E+03  0.36419961029E+03  0.00000000000E+00 0.  1.
         25    1    1    2    0    0  0.14298124655E+03  0.57967421094E+03  0.63439401676E+03  0.88008328935E+03  0.12500000000E+03 0.  0.
         25    1    1    2    0    0 -0.14298124655E+03 -0.57967421094E+03  0.14406367052E+03  0.62677361851E+03  0.12500000000E+03 0.  0.
</event>
<event>
 4    0  0.2233588E-002  0.1723538E+03  0.7546771E-02  0.1175415E+00
         21   -1    0    0  502  501  0.00000000000E+00  0.00000000000E+00  0.12697048099E+03  0.12697048099E+03  0.00000000000E+00 0.  1.
         21   -1    0    0  501  502 -0.00000000000E+00 -0.00000000000E+00 -0.23395864640E+03  0.23395864640E+03  0.00000000000E+00 0.  1.
         25    1    1    2    0    0 -0.65358480479E+02 -0.29601619117E+02  0.45467389312E+02  0.15112997822E+03  0.12500000000E+03 0.  0.
         25    1    1    2    0    0  0.65358480479E+02  0.29601619117E+02 -0.15245555473E+03  0.20979914917E+03  0.12500000000E+03 0.  0.
</event>
<event>
 4    0  0.2233588E-002  0.1648551E+03  0.7546771E-02  0.1183322E+00
         21   -1    0    0  502  501  0.00000000000E+00  0.00000000000E+00  0.37446366654E+02  0.37446366654E+02  0.00000000000E+00 0. -1.
         21   -1    0    0  501  502 -0.00000000000E+00 -0.00000000000E+00 -0.72576325309E+03  0.72576325309E+03  0.00000000000E+00 0. -1.
         25    1    1    2    0    0  0.54206662999E+02 -0.49114325044E+02 -0.16186795713E+03  0.21720224397E+03  0.12500000000E+03 0.  0.
         25    1    1    2    0    0 -0.54206662999E+02  0.49114325044E+02 -0.52644892930E+03  0.54600737577E+03  0.12500000000E+03 0.  0.
</event>
<event>
 4    0  0.2233588E-002  0.1892999E+03  0.7546771E-02  0.1159094E+00
         21   -1    0    0  502  501  0.00000000000E+00  0.00000000000E+00  0.23657514991E+03  0.23657514991E+03  0.00000000000E+00 0. -1.
         21   -1    0    0  501  502 -0.00000000000E+00 -0.00000000000E+00 -0.15147168719E+03  0.15147168719E+03  0.00000000000E+00 0. -1.
         25    1    1    2    0    0  0.12108157565E+03 -0.69353246516E+02  0.70411153540E+02  0.20013333383E+03  0.12500000000E+03 0.  0.
         25    1    1    2    0    0 -0.12108157565E+03  0.69353246516E+02  0.14692309175E+02  0.18791350328E+03  0.12500000000E+03 0.  0.
</event>
<event>
 4    0  0.2233588E-002  0.2785007E+03  0.7546771E-02  0.1096511E+00
         21   -1    0    0  502  501  0.00000000000E+00  0.00000000000E+00  0.16682505254E+04  0.16682505254E+04  0.00000000000E+00 0.  1.
         21   -1    0    0  501  502 -0.00000000000E+00 -0.00000000000E+00 -0.46493403948E+02  0.46493403948E+02  0.00000000000E+00 0.  1.
         25    1    1    2    0    0  0.18333645145E+03 -0.67701787306E+02  0.33652700060E+03  0.40874345079E+03  0.12500000000E+03 0.  0.
         25    1    1    2    0    0 -0.18333645145E+03  0.67701787306E+02  0.12852301208E+04  0.13060004785E+04  0.12500000000E+03 0.  0.
</event>
<event>
 4    0  0.2233588E-002  0.2543759E+03  0.7546771E-02  0.1110570E+00
         21   -1    0    0  502  501  0.00000000000E+00  0.00000000000E+00  0.11028297468E+03  0.11028297468E+03  0.00000000000E+00 0.  1.
         21   -1    0    0  501  502 -0.00000000000E+00 -0.00000000000E+00 -0.58673691132E+03  0.58673691132E+03  0.00000000000E+00 0.  1.
         25    1    1    2    0    0 -0.21001093635E+03 -0.58391816944E+02 -0.18397723372E+03  0.31142707044E+03  0.12500000000E+03 0.  0.
         25    1    1    2    0    0  0.21001093635E+03  0.58391816944E+02 -0.29247670291E+03  0.38559281557E+03  0.12500000000E+03 0.  0.
</event>
<event>
 4    0  0.2233588E-002  0.2810840E+03  0.7546771E-02  0.1095098E+00
         21   -1    0    0  502  501  0.00000000000E+00  0.00000000000E+00  0.61174426948E+03  0.61174426948E+03  0.00000000000E+00 0.  1.
         21   -1    0    0  501  502 -0.00000000000E+00 -0.00000000000E+00 -0.12915239188E+03  0.12915239188E+03  0.00000000000E+00 0.  1.
         25    1    1    2    0    0  0.62525079532E+02  0.20304623781E+03  0.63272907157E+02  0.25449090561E+03  0.12500000000E+03 0.  0.
         25    1    1    2    0    0 -0.62525079532E+02 -0.20304623781E+03  0.41931897044E+03  0.48640575575E+03  0.12500000000E+03 0.  0.
</event>
<event>
 4    0  0.2233588E-002  0.3984602E+03  0.7546771E-02  0.1044314E+00
         21   -1    0    0  502  501  0.00000000000E+00  0.00000000000E+00  0.50162091331E+03  0.50162091331E+03  0.00000000000E+00 0.  1.
         21   -1    0    0  501  502 -0.00000000000E+00 -0.00000000000E+00 -0.31651503930E+03  0.31651503930E+03  0.00000000000E+00 0.  1.
         25    1    1    2    0    0  0.32160430538E+02 -0.39785226492E+02  0.47740387477E+03  0.49614173094E+03  0.12500000000E+03 0.  0.
         25    1    1    2    0    0 -0.32160430538E+02  0.39785226492E+02 -0.29229800076E+03  0.32199422166E+03  0.12500000000E+03 0.  0.
</event>
<event>
 4    0  0.2233588E-002  0.3304638E+03  0.7546771E-02  0.1070932E+00
         21   -1    0    0  502  501  0.00000000000E+00  0.00000000000E+00  0.55295660172E+03  0.55295660172E+03  0.00000000000E+00 0.  1.
         21   -1    0    0  501  502 -0.00000000000E+00 -0.00000000000E+00 -0.19749534408E+03  0.19749534408E+03  0.00000000000E+00 0.  1.
         25    1    1    2    0    0 -0.29402260399E+03  0.38210839704E+02  0.26324455256E+03  0.41573074745E+03  0.12500000000E+03 0.  0.
         25    1    1    2    0    0  0.29402260399E+03 -0.38210839704E+02  0.92216705083E+02  0.33472119835E+03  0.12500000000E+03 0.  0.
</event>
<event>
 4    0  0.2233588E-002  0.2191087E+03  0.7546771E-02  0.1134549E+00
         21   -1    0    0  502  501  0.00000000000E+00  0.00000000000E+00  0.23189902263E+03  0.23189902263E+03  0.00000000000E+00 0. -1.
         21   -1    0    0  501  502 -0.00000000000E+00 -0.00000000000E+00 -0.20702383210E+03  0.20702383210E+03  0.00000000000E+00 0. -1.
         25    1    1    2    0    0  0.96349548228E+02 -0.15092532976E+03  0.30408990753E+02  0.22047992500E+03  0.12500000000E+03 0.  0.
         25    1    1    2    0    0 -0.96349548228E+02  0.15092532976E+03 -0.55338002194E+01  0.21844292974E+03  0.12500000000E+03 0.  0.
</event>
<event>
 4    0  0.2233588E-002  0.2368703E+03  0.7546771E-02  0.1121895E+00
         21   -1    0    0  502  501  0.00000000000E+00  0.00000000000E+00  0.31088313672E+03  0.31088313672E+03  0.00000000000E+00 0. -1.
         21   -1    0    0  501  502 -0.00000000000E+00 -0.00000000000E+00 -0.18047793853E+03  0.18047793853E+03  0.00000000000E+00 0. -1.
         25    1    1    2    0    0 -0.79943098636E+02 -0.88706606107E+02  0.23316014917E+03  0.29025577711E+03  0.12500000000E+03 0.  0.
         25    1    1    2    0    0  0.79943098636E+02  0.88706606107E+02 -0.10275495098E+03  0.20110529814E+03  0.12500000000E+03 0.  0.
</event>
<event>
 4    0  0.2233588E-002  0.2273826E+03  0.7546771E-02  0.1128496E+00
         21   -1    0    0  502  501  0.00000000000E+00  0.00000000000E+00  0.39702332403E+03  0.39702332403E+03  0.00000000000E+00 0. -1.
         21   -1    0    0  501  502 -0.00000000000E+00 -0.00000000000E+00 -0.13022619554E+03  0.13022619554E+03  0.00000000000E+00 0. -1.
         25    1    1    2    0    0 -0.24549051513E+02 -0.17582361639E+03  0.21170010901E+03  0.30324665895E+03  0.12500000000E+03 0.  0.
         25    1    1    2    0    0  0.24549051513E+02  0.17582361639E+03  0.55097019484E+02  0.22400286062E+03  0.12500000000E+03 0.  0.
</event>
<event>
 4    0  0.2233588E-002  0.2868871E+03  0.7546771E-02  0.1091986E+00
         21   -1    0    0  502  501  0.00000000000E+00  0.00000000000E+00  0.22956332153E+03  0.22956332153E+03  0.00000000000E+00 0.  1.
         21   -1    0    0  501  502 -0.00000000000E+00 -0.00000000000E+00 -0.35852505827E+03  0.35852505827E+03  0.00000000000E+00 0.  1.
         25    1    1    2    0    0 -0.15309423361E+03  0.59415297414E+00 -0.27761327498E+03  0.34078193589E+03  0.12500000000E+03 0.  0.
         25    1    1    2    0    0  0.15309423361E+03 -0.59415297414E+00  0.14865153824E+03  0.24730644392E+03  0.12500000000E+03 0.  0.
</event>
<event>
 4    0  0.2233588E-002  0.2267833E+03  0.7546771E-02  0.1128925E+00
         21   -1    0    0  502  501  0.00000000000E+00  0.00000000000E+00  0.94224569362E+03  0.94224569362E+03  0.00000000000E+00 0. -1.
         21   -1    0    0  501  502 -0.00000000000E+00 -0.00000000000E+00 -0.54583077696E+02  0.54583077696E+02  0.00000000000E+00 0. -1.
         25    1    1    2    0    0  0.16975551396E+03  0.34703067551E+02  0.27667997032E+03  0.34956836727E+03  0.12500000000E+03 0.  0.
         25    1    1    2    0    0 -0.16975551396E+03 -0.34703067551E+02  0.61098264561E+03  0.64726040405E+03  0.12500000000E+03 0.  0.
</event>
<event>
 4    0  0.2233588E-002  0.2751924E+03  0.7546771E-02  0.1098344E+00
         21   -1    0    0  502  501  0.00000000000E+00  0.00000000000E+00  0.24917241711E+03  0.24917241711E+03  0.00000000000E+00 0. -1.
         21   -1    0    0  501  502 -0.00000000000E+00 -0.00000000000E+00 -0.30392959589E+03  0.30392959589E+03  0.00000000000E+00 0. -1.
         25    1    1    2    0    0 -0.16717610782E+03  0.17288381149E+02  0.15199386068E+03  0.25879310816E+03  0.12500000000E+03 0.  0.
         25    1    1    2    0    0  0.16717610782E+03 -0.17288381149E+02 -0.20675103946E+03  0.29430890484E+03  0.12500000000E+03 0.  0.
</event>
<event>
 4    0  0.2233588E-002  0.2088677E+03  0.7546771E-02  0.1142466E+00
         21   -1    0    0  502  501  0.00000000000E+00  0.00000000000E+00  0.23083937303E+03  0.23083937303E+03  0.00000000000E+00 0. -1.
         21   -1    0    0  501  502 -0.00000000000E+00 -0.00000000000E+00 -0.18898740479E+03  0.18898740479E+03  0.00000000000E+00 0. -1.
         25    1    1    2    0    0  0.78865435972E+02 -0.14535453726E+03  0.46608476881E+02  0.21247364215E+03  0.12500000000E+03 0.  0.
         25    1    1    2    0    0 -0.78865435972E+02  0.14535453726E+03 -0.47565086439E+01  0.20735313566E+03  0.12500000000E+03 0.  0.
</event>
<event>
 4    0  0.2233588E-002  0.3150675E+03  0.7546771E-02  0.1077942E+00
         21   -1    0    0  502  501  0.00000000000E+00  0.00000000000E+00  0.18838859205E+04  0.18838859205E+04  0.00000000000E+00 0.  1.
         21   -1    0    0  501  502 -0.00000000000E+00 -0.00000000000E+00 -0.52692976355E+02  0.52692976355E+02  0.00000000000E+00 0.  1.
         25    1    1    2    0    0 -0.23406453138E+03 -0.76159179565E+02  0.13822502085E+04  0.14095485321E+04  0.12500000000E+03 0.  0.
         25    1    1    2    0    0  0.23406453138E+03  0.76159179565E+02  0.44894273570E+03  0.52703036480E+03  0.12500000000E+03 0.  0.
</event>
<event>
 4    0  0.2233588E-002  0.2224101E+03  0.7546771E-02  0.1132099E+00
         21   -1    0    0  502  501  0.00000000000E+00  0.00000000000E+00  0.57401966573E+03  0.57401966573E+03  0.00000000000E+00 0. -1.
         21   -1    0    0  501  502 -0.00000000000E+00 -0.00000000000E+00 -0.86175176606E+02  0.86175176606E+02  0.00000000000E+00 0. -1.
         25    1    1    2    0    0  0.91934499874E+02 -0.31732953215E+02  0.47567510867E+03  0.50134892200E+03  0.12500000000E+03 0.  0.
         25    1    1    2    0    0 -0.91934499874E+02  0.31732953215E+02  0.12169380459E+02  0.15884592034E+03  0.12500000000E+03 0.  0.
</event>
<event>
 4    0  0.2233588E-002  0.2453759E+03  0.7546771E-02  0.1116262E+00
         21   -1    0    0  502  501  0.00000000000E+00  0.00000000000E+00  0.22243453133E+02  0.22243453133E+02  0.00000000000E+00 0.  1.
         21   -1    0    0  501  502 -0.00000000000E+00 -0.00000000000E+00 -0.27068345996E+04  0.27068345996E+04  0.00000000000E+00 0.  1.
         25    1    1    2    0    0  0.15917718764E+03 -0.13519914297E+03 -0.15153283148E+04  0.15347511482E+04  0.12500000000E+03 0.  0.
         25    1    1    2    0    0 -0.15917718764E+03  0.13519914297E+03 -0.11692628317E+04  0.11943269045E+04  0.12500000000E+03 0.  0.
</event>
<event>
 4    0  0.2233588E-002  0.1639899E+03  0.7546771E-02  0.1184264E+00
         21   -1    0    0  502  501  0.00000000000E+00  0.00000000000E+00  0.32535808570E+03  0.32535808570E+03  0.00000000000E+00 0.  1.
         21   -1    0    0  501  502 -0.00000000000E+00 -0.00000000000E+00 -0.82655611933E+02  0.82655611933E+02  0.00000000000E+00 0.  1.
         25    1    1    2    0    0 -0.66348223069E+02 -0.43820126208E+02  0.33867430058E+02  0.15196806567E+03  0.12500000000E+03 0.  0.
         25    1    1    2    0    0  0.66348223069E+02  0.43820126208E+02  0.20883504371E+03  0.25604563196E+03  0.12500000000E+03 0.  0.
</event>
<event>
 4    0  0.2233588E-002  0.2467633E+03  0.7546771E-02  0.1115368E+00
         21   -1    0    0  502  501  0.00000000000E+00  0.00000000000E+00  0.88813957094E+02  0.88813957094E+02  0.00000000000E+00 0.  1.
         21   -1    0    0  501  502 -0.00000000000E+00 -0.00000000000E+00 -0.68561412314E+03  0.68561412314E+03  0.00000000000E+00 0.  1.
         25    1    1    2    0    0  0.72038430031E+02 -0.18333655690E+03 -0.42457240728E+03  0.48444665085E+03  0.12500000000E+03 0.  0.
         25    1    1    2    0    0 -0.72038430031E+02  0.18333655690E+03 -0.17222775876E+03  0.28998142938E+03  0.12500000000E+03 0.  0.
</event>
<event>
 4    0  0.2233588E-002  0.2671717E+03  0.7546771E-02  0.1102909E+00
         21   -1    0    0  502  501  0.00000000000E+00  0.00000000000E+00  0.24087237915E+03  0.24087237915E+03  0.00000000000E+00 0.  1.
         21   -1    0    0  501  502 -0.00000000000E+00 -0.00000000000E+00 -0.29634240876E+03  0.29634240876E+03  0.00000000000E+00 0.  1.
         25    1    1    2    0    0 -0.15585606320E+03 -0.13905132506E+03  0.82989998940E+02  0.25717449983E+03  0.12500000000E+03 0.  0.
         25    1    1    2    0    0  0.15585606320E+03  0.13905132506E+03 -0.13846002856E+03  0.28004028808E+03  0.12500000000E+03 0.  0.
</event>
<event>
 4    0  0.2233588E-002  0.2383723E+03  0.7546771E-02  0.1120882E+00
         21   -1    0    0  502  501  0.00000000000E+00  0.00000000000E+00  0.14448104064E+03  0.14448104064E+03  0.00000000000E+00 0.  1.
         21   -1    0    0  501  502 -0.00000000000E+00 -0.00000000000E+00 -0.39327905703E+03  0.39327905703E+03  0.00000000000E+00 0.  1.
         25    1    1    2    0    0  0.99243986530E+02  0.87713637537E+02 -0.29787874636E+03  0.34914151659E+03  0.12500000000E+03 0.  0.
         25    1    1    2    0    0 -0.99243986530E+02 -0.87713637537E+02  0.49080729969E+02  0.18861858108E+03  0.12500000000E+03 0.  0.
</event>
<event>
 4    0  0.2233588E-002  0.2216255E+03  0.7546771E-02  0.1132677E+00
         21   -1    0    0  502  501  0.00000000000E+00  0.00000000000E+00  0.13659902366E+04  0.13659902366E+04  0.00000000000E+00 0.  1.
         21   -1    0    0  501  502 -0.00000000000E+00 -0.00000000000E+00 -0.35957689802E+02  0.35957689802E+02  0.00000000000E+00 0.  1.
         25    1    1    2    0    0  0.12647104436E+02 -0.58523437393E+02  0.12120010506E+04  0.12199001962E+04  0.12500000000E+03 0.  0.
         25    1    1    2    0    0 -0.12647104436E+02  0.58523437393E+02  0.11803149611E+03  0.18204773014E+03  0.12500000000E+03 0.  0.
</event>
<event>
 4    0  0.2233588E-002  0.1880113E+03  0.7546771E-02  0.1160267E+00
         21   -1    0    0  502  501  0.00000000000E+00  0.00000000000E+00  0.20626024296E+04  0.20626024296E+04  0.00000000000E+00 0. -1.
         21   -1    0    0  501  502 -0.00000000000E+00 -0.00000000000E+00 -0.17137685890E+02  0.17137685890E+02  0.00000000000E+00 0. -1.
         25    1    1    2    0    0 -0.23691123394E+02  0.61019759373E+02  0.17099566703E+04  0.17157684852E+04  0.12500000000E+03 0.  0.
         25    1    1    2    0    0  0.23691123394E+02 -0.61019759373E+02  0.33550807339E+03  0.36397163031E+03  0.12500000000E+03 0.  0.
</event>
<event>
 4    0  0.2233588E-002  0.5803333E+03  0.7546771E-02  0.9947070E-01
         21   -1    0    0  502  501  0.00000000000E+00  0.00000000000E+00  0.14482797070E+04  0.14482797070E+04  0.00000000000E+00 0. -1.
         21   -1    0    0  501  502 -0.00000000000E+00 -0.00000000000E+00 -0.23254262005E+03  0.23254262005E+03  0.00000000000E+00 0.  1.
         25    1    1    2    0    0 -0.43518508382E+03 -0.12191780163E+03  0.11030260760E+04  0.11985581054E+04  0.12500000000E+03 0.  0.
         25    1    1    2    0    0  0.43518508382E+03  0.12191780163E+03  0.11271101093E+03  0.48226422169E+03  0.12500000000E+03 0.  0.
</event>
<event>
 4    0  0.2233588E-002  0.3610524E+03  0.7546771E-02  0.1058168E+00
         21   -1    0    0  502  501  0.00000000000E+00  0.00000000000E+00  0.23285195318E+04  0.23285195318E+04  0.00000000000E+00 0. -1.
         21   -1    0    0  501  502 -0.00000000000E+00 -0.00000000000E+00 -0.55983581324E+02  0.55983581324E+02  0.00000000000E+00 0. -1.
         25    1    1    2    0    0  0.88270456955E+02 -0.32510501729E+03  0.10195697208E+04  0.10810330066E+04  0.12500000000E+03 0.  0.
         25    1    1    2    0    0 -0.88270456955E+02  0.32510501729E+03  0.12529662297E+04  0.13034701065E+04  0.12500000000E+03 0.  0.
</event>
<event>
 4    0  0.2233588E-002  0.2744639E+03  0.7546771E-02  0.1098752E+00
         21   -1    0    0  502  501  0.00000000000E+00  0.00000000000E+00  0.13908946877E+03  0.13908946877E+03  0.00000000000E+00 0. -1.
         21   -1    0    0  501  502 -0.00000000000E+00 -0.00000000000E+00 -0.54159692772E+03  0.54159692772E+03  0.00000000000E+00 0. -1.
         25    1    1    2    0    0  0.65765688714E+02 -0.14456244184E+03  0.29011361109E+02  0.20418149886E+03  0.12500000000E+03 0.  0.
         25    1    1    2    0    0 -0.65765688714E+02  0.14456244184E+03 -0.43151882005E+03  0.47650489763E+03  0.12500000000E+03 0.  0.
</event>
<event>
 4    0  0.2233588E-002  0.3505014E+03  0.7546771E-02  0.1062409E+00
         21   -1    0    0  502  501  0.00000000000E+00  0.00000000000E+00  0.65492006824E+03  0.65492006824E+03  0.00000000000E+00 0. -1.
         21   -1    0    0  501  502 -0.00000000000E+00 -0.00000000000E+00 -0.18758197543E+03  0.18758197543E+03  0.00000000000E+00 0. -1.
         25    1    1    2    0    0  0.26204037792E+03  0.19493203099E+03  0.26217459668E+03  0.43706312532E+03  0.12500000000E+03 0.  0.
         25    1    1    2    0    0 -0.26204037792E+03 -0.19493203099E+03  0.20516349613E+03  0.40543891835E+03  0.12500000000E+03 0.  0.
</event>
<event>
 4    0  0.2233588E-002  0.1664746E+03  0.7546771E-02  0.1181575E+00
         21   -1    0    0  502  501  0.00000000000E+00  0.00000000000E+00  0.23288275693E+03  0.23288275693E+03  0.00000000000E+00 0. -1.
         21   -1    0    0  501  502 -0.00000000000E+00 -0.00000000000E+00 -0.11900319306E+03  0.11900319306E+03  0.00000000000E+00 0. -1.
         25    1    1    2    0    0  0.20638169977E+01 -0.93901326378E+02 -0.34694609427E+01  0.15639295251E+03  0.12500000000E+03 0.  0.
         25    1    1    2    0    0 -0.20638169977E+01  0.93901326378E+02  0.11734902482E+03  0.19549299748E+03  0.12500000000E+03 0.  0.
</event>
<event>
 4    0  0.2233588E-002  0.1686865E+03  0.7546771E-02  0.1179225E+00
         21   -1    0    0  502  501  0.00000000000E+00  0.00000000000E+00  0.88820503346E+03  0.88820503346E+03  0.00000000000E+00 0.  1.
         21   -1    0    0  501  502 -0.00000000000E+00 -0.00000000000E+00 -0.32036670456E+02  0.32036670456E+02  0.00000000000E+00 0.  1.
         25    1    1    2    0    0  0.77641517441E+02  0.28278735791E+02  0.21676044288E+03  0.26351087592E+03  0.12500000000E+03 0.  0.
         25    1    1    2    0    0 -0.77641517441E+02 -0.28278735791E+02  0.63940792012E+03  0.65673082800E+03  0.12500000000E+03 0.  0.
</event>
<event>
 4    0  0.2233588E-002  0.2047369E+03  0.7546771E-02  0.1145803E+00
         21   -1    0    0  502  501  0.00000000000E+00  0.00000000000E+00  0.24470056381E+03  0.24470056381E+03  0.00000000000E+00 0. -1.
         21   -1    0    0  501  502 -0.00000000000E+00 -0.00000000000E+00 -0.17129991716E+03  0.17129991716E+03  0.00000000000E+00 0. -1.
         25    1    1    2    0    0  0.13867597474E+03 -0.19287653787E+02 -0.46390514406E+02  0.19333938912E+03  0.12500000000E+03 0.  0.
         25    1    1    2    0    0 -0.13867597474E+03  0.19287653787E+02  0.11979116106E+03  0.22266109185E+03  0.12500000000E+03 0.  0.
</event>
<event>
 4    0  0.2233588E-002  0.3447437E+03  0.7546771E-02  0.1064793E+00
         21   -1    0    0  502  501  0.00000000000E+00  0.00000000000E+00  0.98457785919E+02  0.98457785919E+02  0.00000000000E+00 0. -1.
         21   -1    0    0  501  502 -0.00000000000E+00 -0.00000000000E+00 -0.12070980182E+04  0.12070980182E+04  0.00000000000E+00 0.  1.
         25    1    1    2    0    0 -0.14177693153E+03  0.27126332151E+03 -0.73925292821E+03  0.80981749782E+03  0.12500000000E+03 0.  0.
         25    1    1    2    0    0  0.14177693153E+03 -0.27126332151E+03 -0.36938730404E+03  0.49573830627E+03  0.12500000000E+03 0.  0.
</event>
<event>
 4    0  0.2233588E-002  0.2043823E+03  0.7546771E-02  0.1146093E+00
         21   -1    0    0  502  501  0.00000000000E+00  0.00000000000E+00  0.79173099849E+03  0.79173099849E+03  0.00000000000E+00 0. -1.
         21   -1    0    0  501  502 -0.00000000000E+00 -0.00000000000E+00 -0.52760480466E+02  0.52760480466E+02  0.00000000000E+00 0. -1.
         25    1    1    2    0    0 -0.12430723045E+03  0.23782456534E+02  0.57741182333E+03  0.60419144855E+03  0.12500000000E+03 0.  0.
         25    1    1    2    0    0  0.12430723045E+03 -0.23782456534E+02  0.16155869470E+03  0.24030003041E+03  0.12500000000E+03 0.  0.
</event>
<event>
 4    0  0.2233588E-002  0.3267437E+03  0.7546771E-02  0.1072587E+00
         21   -1    0    0  502  501  0.00000000000E+00  0.00000000000E+00  0.10930853695E+04  0.10930853695E+04  0.00000000000E+00 0.  1.
         21   -1    0    0  501  502 -0.00000000000E+00 -0.00000000000E+00 -0.97669830569E+02  0.97669830569E+02  0.00000000000E+00 0.  1.
         25    1    1    2    0    0  0.13533816953E+03 -0.54849808069E+02  0.97915517017E+03  0.99784506255E+03  0.12500000000E+03 0.  0.
         25    1    1    2    0    0 -0.13533816953E+03  0.54849808069E+02  0.16260368785E+02  0.19291013755E+03  0.12500000000E+03 0.  0.
</event>
<event>
 4    0  0.2233588E-002  0.2092570E+03  0.7546771E-02  0.1142156E+00
         21   -1    0    0  502  501  0.00000000000E+00  0.00000000000E+00  0.12640007276E+03  0.12640007276E+03  0.00000000000E+00 0.  1.
         21   -1    0    0  501  502 -0.00000000000E+00 -0.00000000000E+00 -0.34642763228E+03  0.34642763228E+03  0.00000000000E+00 0.  1.
         25    1    1    2    0    0  0.11774525799E+03  0.92238766715E+02 -0.24035232505E+02  0.19640424707E+03  0.12500000000E+03 0.  0.
         25    1    1    2    0    0 -0.11774525799E+03 -0.92238766715E+02 -0.19599232702E+03  0.27642345797E+03  0.12500000000E+03 0.  0.
</event>
<event>
 4    0  0.2233588E-002  0.2066018E+03  0.7546771E-02  0.1144286E+00
         21   -1    0    0  502  501  0.00000000000E+00  0.00000000000E+00  0.97471113605E+02  0.97471113605E+02  0.00000000000E+00 0.  1.
         21   -1    0    0  501  502 -0.00000000000E+00 -0.00000000000E+00 -0.43791747807E+03  0.43791747807E+03  0.00000000000E+00 0.  1.
         25    1    1    2    0    0  0.15300159911E+03  0.84361852544E+01 -0.24773436532E+03  0.31698260884E+03  0.12500000000E+03 0.  0.
         25    1    1    2    0    0 -0.15300159911E+03 -0.84361852544E+01 -0.92711999149E+02  0.21840598283E+03  0.12500000000E+03 0.  0.
</event>
<event>
 4    0  0.2233588E-002  0.2134445E+03  0.7546771E-02  0.1138867E+00
         21   -1    0    0  502  501  0.00000000000E+00  0.00000000000E+00  0.13137191402E+03  0.13137191402E+03  0.00000000000E+00 0. -1.
         21   -1    0    0  501  502 -0.00000000000E+00 -0.00000000000E+00 -0.34679061052E+03  0.34679061052E+03  0.00000000000E+00 0. -1.
         25    1    1    2    0    0  0.13609317919E+03  0.10597742772E+03 -0.92640741568E+02  0.23229265078E+03  0.12500000000E+03 0.  0.
         25    1    1    2    0    0 -0.13609317919E+03 -0.10597742772E+03 -0.12277795493E+03  0.24586987377E+03  0.12500000000E+03 0.  0.
</event>
<event>
 4    0  0.2233588E-002  0.2102131E+03  0.7546771E-02  0.1141397E+00
         21   -1    0    0  502  501  0.00000000000E+00  0.00000000000E+00  0.30043233185E+02  0.30043233185E+02  0.00000000000E+00 0. -1.
         21   -1    0    0  501  502 -0.00000000000E+00 -0.00000000000E+00 -0.14708649229E+04  0.14708649229E+04  0.00000000000E+00 0. -1.
         25    1    1    2    0    0  0.47001834082E+02  0.73993259951E+02 -0.12362726977E+04  0.12456642236E+04  0.12500000000E+03 0.  0.
         25    1    1    2    0    0 -0.47001834082E+02 -0.73993259951E+02 -0.20454899201E+03  0.25524393246E+03  0.12500000000E+03 0.  0.
</event>
<event>
 4    0  0.2233588E-002  0.2999052E+03  0.7546771E-02  0.1085288E+00
         21   -1    0    0  502  501  0.00000000000E+00  0.00000000000E+00  0.33745427174E+03  0.33745427174E+03  0.00000000000E+00 0. -1.
         21   -1    0    0  501  502 -0.00000000000E+00 -0.00000000000E+00 -0.26653431943E+03  0.26653431943E+03  0.00000000000E+00 0. -1.
         25    1    1    2    0    0  0.24104304674E+03 -0.72512440386E+02 -0.69951306168E+02  0.28961697054E+03  0.12500000000E+03 0.  0.
         25    1    1    2    0    0 -0.24104304674E+03  0.72512440386E+02  0.14087125848E+03  0.31437162063E+03  0.12500000000E+03 0.  0.
</event>
<event>
 4    0  0.2233588E-002  0.2287005E+03  0.7546771E-02  0.1127558E+00
         21   -1    0    0  502  501  0.00000000000E+00  0.00000000000E+00  0.80742907324E+02  0.80742907324E+02  0.00000000000E+00 0. -1.
         21   -1    0    0  501  502 -0.00000000000E+00 -0.00000000000E+00 -0.64778329447E+03  0.64778329447E+03  0.00000000000E+00 0. -1.
         25    1    1    2    0    0 -0.18493774746E+03 -0.35591962271E+02 -0.22811283914E+03  0.32113739364E+03  0.12500000000E+03 0.  0.
         25    1    1    2    0    0  0.18493774746E+03  0.35591962271E+02 -0.33892754801E+03  0.40738880816E+03  0.12500000000E+03 0.  0.
</event>
<event>
 4    0  0.2233588E-002  0.1774829E+03  0.7546771E-02  0.1170262E+00
         21   -1    0    0  502  501  0.00000000000E+00  0.00000000000E+00  0.34987336045E+02  0.34987336045E+02  0.00000000000E+00 0.  1.
         21   -1    0    0  501  502 -0.00000000000E+00 -0.00000000000E+00 -0.90033101218E+03  0.90033101218E+03  0.00000000000E+00 0.  1.
         25    1    1    2    0    0  0.85232853285E+02  0.69273661559E+02 -0.59535121905E+03  0.61816790073E+03  0.12500000000E+03 0.  0.
         25    1    1    2    0    0 -0.85232853285E+02 -0.69273661559E+02 -0.26999245709E+03  0.31715044750E+03  0.12500000000E+03 0.  0.
</event>
<event>
 4    0  0.2233588E-002  0.2143685E+03  0.7546771E-02  0.1138153E+00
         21   -1    0    0  502  501  0.00000000000E+00  0.00000000000E+00  0.11851955320E+03  0.11851955320E+03  0.00000000000E+00 0. -1.
         21   -1    0    0  501  502 -0.00000000000E+00 -0.00000000000E+00 -0.38773230860E+03  0.38773230860E+03  0.00000000000E+00 0. -1.
         25    1    1    2    0    0 -0.74600008133E+02  0.99428329353E+02  0.94205268464E+01  0.17653583267E+03  0.12500000000E+03 0.  0.
         25    1    1    2    0    0  0.74600008133E+02 -0.99428329353E+02 -0.27863328224E+03  0.32971602913E+03  0.12500000000E+03 0.  0.
</event>
<event>
 4    0  0.2233588E-002  0.1853924E+03  0.7546771E-02  0.1162684E+00
         21   -1    0    0  502  501  0.00000000000E+00  0.00000000000E+00  0.28049167617E+02  0.28049167617E+02  0.00000000000E+00 0. -1.
         21   -1    0    0  501  502 -0.00000000000E+00 -0.00000000000E+00 -0.12253605277E+04  0.12253605277E+04  0.00000000000E+00 0.  1.
         25    1    1    2    0    0 -0.21104685365E+00 -0.13691345389E+03 -0.59843052551E+03  0.62648977027E+03  0.12500000000E+03 0.  0.
         25    1    1    2    0    0  0.21104685365E+00  0.13691345389E+03 -0.59888083462E+03  0.62691992509E+03  0.12500000000E+03 0.  0.
</event>
<event>
 4    0  0.2233588E-002  0.1744485E+03  0.7546771E-02  0.1173287E+00
         21   -1    0    0  502  501  0.00000000000E+00  0.00000000000E+00  0.17338076944E+03  0.17338076944E+03  0.00000000000E+00 0.  1.
         21   -1    0    0  501  502 -0.00000000000E+00 -0.00000000000E+00 -0.17552285351E+03  0.17552285351E+03  0.00000000000E+00 0.  1.
         25    1    1    2    0    0  0.65228442023E+02  0.71339581050E+02 -0.74985911013E+02  0.17490560975E+03  0.12500000000E+03 0.  0.
         25    1    1    2    0    0 -0.65228442023E+02 -0.71339581050E+02  0.72843826946E+02  0.17399801320E+03  0.12500000000E+03 0.  0.
</event>
<event>
 4    0  0.2233588E-002  0.1977328E+03  0.7546771E-02  0.1151666E+00
         21   -1    0    0  502  501  0.00000000000E+00  0.00000000000E+00  0.37249690172E+03  0.37249690172E+03  0.00000000000E+00 0. -1.
         21   -1    0    0  501  502 -0.00000000000E+00 -0.00000000000E+00 -0.10496268292E+03  0.10496268292E+03  0.00000000000E+00 0. -1.
         25    1    1    2    0    0 -0.94985646999E+02 -0.74121289137E+02  0.19502964188E+02  0.17470433381E+03  0.12500000000E+03 0.  0.
         25    1    1    2    0    0  0.94985646999E+02  0.74121289137E+02  0.24803125462E+03  0.30275525083E+03  0.12500000000E+03 0.  0.
</event>
<event>
 4    0  0.2233588E-002  0.2354454E+03  0.7546771E-02  0.1122865E+00
         21   -1    0    0  502  501  0.00000000000E+00  0.00000000000E+00  0.12334065887E+04  0.12334065887E+04  0.00000000000E+00 0. -1.
         21   -1    0    0  501  502 -0.00000000000E+00 -0.00000000000E+00 -0.44944251389E+02  0.44944251389E+02  0.00000000000E+00 0. -1.
         25    1    1    2    0    0 -0.43754629055E+02 -0.68010638484E+02  0.99061782550E+02  0.17882435872E+03  0.12500000000E+03 0.  0.
         25    1    1    2    0    0  0.43754629055E+02  0.68010638484E+02  0.10894005548E+04  0.10995264814E+04  0.12500000000E+03 0.  0.
</event>
<event>
 4    0  0.2233588E-002  0.2507895E+03  0.7546771E-02  0.1112807E+00
         21   -1    0    0  502  501  0.00000000000E+00  0.00000000000E+00  0.77281736213E+03  0.77281736213E+03  0.00000000000E+00 0. -1.
         21   -1    0    0  501  502 -0.00000000000E+00 -0.00000000000E+00 -0.81384547655E+02  0.81384547655E+02  0.00000000000E+00 0. -1.
         25    1    1    2    0    0  0.20336857495E+03  0.22061701463E+02  0.22028196063E+03  0.32556817739E+03  0.12500000000E+03 0.  0.
         25    1    1    2    0    0 -0.20336857495E+03 -0.22061701463E+02  0.47115085385E+03  0.52863373240E+03  0.12500000000E+03 0.  0.
</event>
<event>
 4    0  0.2233588E-002  0.2211427E+03  0.7546771E-02  0.1133034E+00
         21   -1    0    0  502  501  0.00000000000E+00  0.00000000000E+00  0.11903479729E+03  0.11903479729E+03  0.00000000000E+00 0. -1.
         21   -1    0    0  501  502 -0.00000000000E+00 -0.00000000000E+00 -0.41083850316E+03  0.41083850316E+03  0.00000000000E+00 0. -1.
         25    1    1    2    0    0 -0.16105563568E+03  0.19785324860E+02 -0.46035010609E+02  0.20993951288E+03  0.12500000000E+03 0.  0.
         25    1    1    2    0    0  0.16105563568E+03 -0.19785324860E+02 -0.24576869526E+03  0.31993378758E+03  0.12500000000E+03 0.  0.
</event>
<event>
 4    0  0.2233588E-002  0.2347567E+03  0.7546771E-02  0.1123336E+00
         21   -1    0    0  502  501  0.00000000000E+00  0.00000000000E+00  0.22471118220E+03  0.22471118220E+03  0.00000000000E+00 0. -1.
         21   -1    0    0  501  502 -0.00000000000E+00 -0.00000000000E+00 -0.24525133140E+03  0.24525133140E+03  0.00000000000E+00 0. -1.
         25    1    1    2    0    0  0.96745285805E+02  0.13935400897E+02  0.16290370064E+03  0.22741253573E+03  0.12500000000E+03 0.  0.
         25    1    1    2    0    0 -0.96745285805E+02 -0.13935400897E+02 -0.18344384984E+03  0.24254997788E+03  0.12500000000E+03 0.  0.
</event>
<event>
 4    0  0.2233588E-002  0.2121737E+03  0.7546771E-02  0.1139856E+00
         21   -1    0    0  502  501  0.00000000000E+00  0.00000000000E+00  0.12702329319E+04  0.12702329319E+04  0.00000000000E+00 0. -1.
         21   -1    0    0  501  502 -0.00000000000E+00 -0.00000000000E+00 -0.35440498461E+02  0.35440498461E+02  0.00000000000E+00 0. -1.
         25    1    1    2    0    0 -0.48429808395E+01  0.34384669474E+02  0.10081709256E+03  0.16430108371E+03  0.12500000000E+03 0.  0.
         25    1    1    2    0    0  0.48429808395E+01 -0.34384669474E+02  0.11339753409E+04  0.11413723466E+04  0.12500000000E+03 0.  0.
</event>
<event>
 4    0  0.2233588E-002  0.1500850E+03  0.7546771E-02  0.1200369E+00
         21   -1    0    0  502  501  0.00000000000E+00  0.00000000000E+00  0.73344557056E+03  0.73344557056E+03  0.00000000000E+00 0.  1.
         21   -1    0    0  501  502 -0.00000000000E+00 -0.00000000000E+00 -0.30711890022E+02  0.30711890022E+02  0.00000000000E+00 0.  1.
         25    1    1    2    0    0  0.88666241183E+01  0.76179973412E+02  0.43261152398E+03  0.45679288091E+03  0.12500000000E+03 0.  0.
         25    1    1    2    0    0 -0.88666241183E+01 -0.76179973412E+02  0.27012215657E+03  0.30736457968E+03  0.12500000000E+03 0.  0.
</event>
<event>
 4    0  0.2233588E-002  0.2172925E+03  0.7546771E-02  0.1135918E+00
         21   -1    0    0  502  501  0.00000000000E+00  0.00000000000E+00  0.27485496032E+03  0.27485496032E+03  0.00000000000E+00 0. -1.
         21   -1    0    0  501  502 -0.00000000000E+00 -0.00000000000E+00 -0.17178524124E+03  0.17178524124E+03  0.00000000000E+00 0. -1.
         25    1    1    2    0    0  0.16285523806E+03 -0.68393088173E+02  0.31197489577E+02  0.21862691149E+03  0.12500000000E+03 0.  0.
         25    1    1    2    0    0 -0.16285523806E+03  0.68393088173E+02  0.71872229498E+02  0.22801329007E+03  0.12500000000E+03 0.  0.
</event>
<event>
 4    0  0.2233588E-002  0.1838614E+03  0.7546771E-02  0.1164117E+00
         21   -1    0    0  502  501  0.00000000000E+00  0.00000000000E+00  0.22008316329E+02  0.22008316329E+02  0.00000000000E+00 0. -1.
         21   -1    0    0  501  502 -0.00000000000E+00 -0.00000000000E+00 -0.15360101768E+04  0.15360101768E+04  0.00000000000E+00 0. -1.
         25    1    1    2    0    0 -0.64825821303E+02  0.94224350162E+02 -0.45444131830E+03  0.48499745056E+03  0.12500000000E+03 0.  0.
         25    1    1    2    0    0  0.64825821303E+02 -0.94224350162E+02 -0.10595605422E+04  0.10730210426E+04  0.12500000000E+03 0.  0.
</event>
<event>
 4    0  0.2233588E-002  0.2301610E+03  0.7546771E-02  0.1126526E+00
         21   -1    0    0  502  501  0.00000000000E+00  0.00000000000E+00  0.24082547460E+03  0.24082547460E+03  0.00000000000E+00 0. -1.
         21   -1    0    0  501  502 -0.00000000000E+00 -0.00000000000E+00 -0.21996877592E+03  0.21996877592E+03  0.00000000000E+00 0. -1.
         25    1    1    2    0    0 -0.18655330143E+03  0.36107292314E+02  0.45723762891E+02  0.23199468383E+03  0.12500000000E+03 0.  0.
         25    1    1    2    0    0  0.18655330143E+03 -0.36107292314E+02 -0.24867064204E+02  0.22879956669E+03  0.12500000000E+03 0.  0.
</event>
<event>
 4    0  0.2233588E-002  0.1639580E+03  0.7546771E-02  0.1184299E+00
         21   -1    0    0  502  501  0.00000000000E+00  0.00000000000E+00  0.89513502507E+02  0.89513502507E+02  0.00000000000E+00 0.  1.
         21   -1    0    0  501  502 -0.00000000000E+00 -0.00000000000E+00 -0.30031471881E+03  0.30031471881E+03  0.00000000000E+00 0.  1.
         25    1    1    2    0    0  0.97237684932E+02 -0.18362533797E+02 -0.15090052282E+03  0.21951837692E+03  0.12500000000E+03 0.  0.
         25    1    1    2    0    0 -0.97237684932E+02  0.18362533797E+02 -0.59900693481E+02  0.17030984440E+03  0.12500000000E+03 0.  0.
</event>
<event>
 4    0  0.2233588E-002  0.1564077E+03  0.7546771E-02  0.1192813E+00
         21   -1    0    0  502  501  0.00000000000E+00  0.00000000000E+00  0.14161871700E+03  0.14161871700E+03  0.00000000000E+00 0.  1.
         21   -1    0    0  501  502 -0.00000000000E+00 -0.00000000000E+00 -0.17274101549E+03  0.17274101549E+03  0.00000000000E+00 0.  1.
         25    1    1    2    0    0  0.85137489907E+02  0.32703650546E+01 -0.55497421876E+02  0.16113364425E+03  0.12500000000E+03 0.  0.
         25    1    1    2    0    0 -0.85137489907E+02 -0.32703650546E+01  0.24375123394E+02  0.15322608823E+03  0.12500000000E+03 0.  0.
</event>
<event>
 4    0  0.2233588E-002  0.2054156E+03  0.7546771E-02  0.1145249E+00
         21   -1    0    0  502  501  0.00000000000E+00  0.00000000000E+00  0.48587071139E+03  0.48587071139E+03  0.00000000000E+00 0.  1.
         21   -1    0    0  501  502 -0.00000000000E+00 -0.00000000000E+00 -0.86845235061E+02  0.86845235061E+02  0.00000000000E+00 0.  1.
         25    1    1    2    0    0 -0.23851804094E+02 -0.15394155845E+03  0.26642159658E+03  0.33297504276E+03  0.12500000000E+03 0.  0.
         25    1    1    2    0    0  0.23851804094E+02  0.15394155845E+03  0.13260387974E+03  0.23974090369E+03  0.12500000000E+03 0.  0.
</event>
<event>
 4    0  0.2233588E-002  0.2660443E+03  0.7546771E-02  0.1103565E+00
         21   -1    0    0  502  501  0.00000000000E+00  0.00000000000E+00  0.13525308909E+04  0.13525308909E+04  0.00000000000E+00 0.  1.
         21   -1    0    0  501  502 -0.00000000000E+00 -0.00000000000E+00 -0.52331214915E+02  0.52331214915E+02  0.00000000000E+00 0.  1.
         25    1    1    2    0    0 -0.19431655458E+03 -0.12159720679E+03  0.51521855114E+03  0.57759844141E+03  0.12500000000E+03 0.  0.
         25    1    1    2    0    0  0.19431655458E+03  0.12159720679E+03  0.78498112488E+03  0.82726366444E+03  0.12500000000E+03 0.  0.
</event>
<event>
 4    0  0.2233588E-002  0.2020181E+03  0.7546771E-02  0.1148047E+00
         21   -1    0    0  502  501  0.00000000000E+00  0.00000000000E+00  0.12876173873E+03  0.12876173873E+03  0.00000000000E+00 0. -1.
         21   -1    0    0  501  502 -0.00000000000E+00 -0.00000000000E+00 -0.31695228886E+03  0.31695228886E+03  0.00000000000E+00 0. -1.
         25    1    1    2    0    0 -0.75357800258E+01  0.15831157313E+03 -0.85066542330E+02  0.21904487849E+03  0.12500000000E+03 0.  0.
         25    1    1    2    0    0  0.75357800258E+01 -0.15831157313E+03 -0.10312400780E+03  0.22666914910E+03  0.12500000000E+03 0.  0.
</event>
<event>
 4    0  0.2233588E-002  0.1684128E+03  0.7546771E-02  0.1179513E+00
         21   -1    0    0  502  501  0.00000000000E+00  0.00000000000E+00  0.65226393529E+03  0.65226393529E+03  0.00000000000E+00 0. -1.
         21   -1    0    0  501  502 -0.00000000000E+00 -0.00000000000E+00 -0.43483738773E+02  0.43483738773E+02  0.00000000000E+00 0. -1.
         25    1    1    2    0    0  0.77559511230E+02  0.10921676542E+01  0.47373424204E+03  0.49605020179E+03  0.12500000000E+03 0.  0.
         25    1    1    2    0    0 -0.77559511230E+02 -0.10921676542E+01  0.13504595448E+03  0.19969747228E+03  0.12500000000E+03 0.  0.
</event>
<event>
 4    0  0.2233588E-002  0.1674103E+03  0.7546771E-02  0.1180576E+00
         21   -1    0    0  502  501  0.00000000000E+00  0.00000000000E+00  0.62408322247E+03  0.62408322247E+03  0.00000000000E+00 0.  1.
         21   -1    0    0  501  502 -0.00000000000E+00 -0.00000000000E+00 -0.44907813598E+02  0.44907813598E+02  0.00000000000E+00 0.  1.
         25    1    1    2    0    0  0.58232735146E+02  0.92665371680E+02  0.33069579841E+03  0.37008463037E+03  0.12500000000E+03 0.  0.
         25    1    1    2    0    0 -0.58232735146E+02 -0.92665371680E+02  0.24847961046E+03  0.29890640570E+03  0.12500000000E+03 0.  0.
</event>
<event>
 4    0  0.2233588E-002  0.2667505E+03  0.7546771E-02  0.1103154E+00
         21   -1    0    0  502  501  0.00000000000E+00  0.00000000000E+00  0.68236658591E+02  0.68236658591E+02  0.00000000000E+00 0.  1.
         21   -1    0    0  501  502 -0.00000000000E+00 -0.00000000000E+00 -0.10427800041E+04  0.10427800041E+04  0.00000000000E+00 0.  1.
         25    1    1    2    0    0  0.11775719454E+03 -0.20352932706E+03 -0.51952553489E+03  0.58380024429E+03  0.12500000000E+03 0.  0.
         25    1    1    2    0    0 -0.11775719454E+03  0.20352932706E+03 -0.45501781060E+03  0.52721641837E+03  0.12500000000E+03 0.  0.
</event>
<event>
 4    0  0.2233588E-002  0.2078370E+03  0.7546771E-02  0.1143290E+00
         21   -1    0    0  502  501  0.00000000000E+00  0.00000000000E+00  0.76954707105E+03  0.76954707105E+03  0.00000000000E+00 0.  1.
         21   -1    0    0  501  502 -0.00000000000E+00 -0.00000000000E+00 -0.56131995513E+02  0.56131995513E+02  0.00000000000E+00 0.  1.
         25    1    1    2    0    0 -0.75356409184E+02  0.11488438623E+03  0.17149375182E+03  0.25280846014E+03  0.12500000000E+03 0.  0.
         25    1    1    2    0    0  0.75356409184E+02 -0.11488438623E+03  0.54192132372E+03  0.57287060642E+03  0.12500000000E+03 0.  0.
</event>
<event>
 4    0  0.2233588E-002  0.2161296E+03  0.7546771E-02  0.1136802E+00
         21   -1    0    0  502  501  0.00000000000E+00  0.00000000000E+00  0.38479295531E+03  0.38479295531E+03  0.00000000000E+00 0. -1.
         21   -1    0    0  501  502 -0.00000000000E+00 -0.00000000000E+00 -0.12139516685E+03  0.12139516685E+03  0.00000000000E+00 0. -1.
         25    1    1    2    0    0  0.10827599311E+03 -0.13915145012E+03  0.13220698690E+03  0.25335844991E+03  0.12500000000E+03 0.  0.
         25    1    1    2    0    0 -0.10827599311E+03  0.13915145012E+03  0.13119080156E+03  0.25282967225E+03  0.12500000000E+03 0.  0.
</event>
<event>
 4    0  0.2233588E-002  0.1511948E+03  0.7546771E-02  0.1199012E+00
         21   -1    0    0  502  501  0.00000000000E+00  0.00000000000E+00  0.35732352736E+03  0.35732352736E+03  0.00000000000E+00 0.  1.
         21   -1    0    0  501  502 -0.00000000000E+00 -0.00000000000E+00 -0.63975299770E+02  0.63975299770E+02  0.00000000000E+00 0.  1.
         25    1    1    2    0    0 -0.10763438395E+02  0.18881896557E+02  0.32102510229E+02  0.13087378953E+03  0.12500000000E+03 0.  0.
         25    1    1    2    0    0  0.10763438395E+02 -0.18881896557E+02  0.26124571736E+03  0.29042503759E+03  0.12500000000E+03 0.  0.
</event>
<event>
 4    0  0.2233588E-002  0.1874872E+03  0.7546771E-02  0.1160747E+00
         21   -1    0    0  502  501  0.00000000000E+00  0.00000000000E+00  0.42252192657E+03  0.42252192657E+03  0.00000000000E+00 0. -1.
         21   -1    0    0  501  502 -0.00000000000E+00 -0.00000000000E+00 -0.83194351922E+02  0.83194351922E+02  0.00000000000E+00 0. -1.
         25    1    1    2    0    0  0.62829654735E+02 -0.50122167253E+01  0.14649660711E+01  0.13999940699E+03  0.12500000000E+03 0.  0.
         25    1    1    2    0    0 -0.62829654735E+02  0.50122167253E+01  0.33786260857E+03  0.36571687150E+03  0.12500000000E+03 0.  0.
</event>
<event>
 4    0  0.2233588E-002  0.2421462E+03  0.7546771E-02  0.1118371E+00
         21   -1    0    0  502  501  0.00000000000E+00  0.00000000000E+00  0.42362317706E+03  0.42362317706E+03  0.00000000000E+00 0.  1.
         21   -1    0    0  501  502 -0.00000000000E+00 -0.00000000000E+00 -0.13841255900E+03  0.13841255900E+03  0.00000000000E+00 0.  1.
         25    1    1    2    0    0 -0.87715902035E+02 -0.39231611151E+02 -0.70681548960E+02  0.17278333295E+03  0.12500000000E+03 0.  0.
         25    1    1    2    0    0  0.87715902035E+02  0.39231611151E+02  0.35589216702E+03  0.38925240311E+03  0.12500000000E+03 0.  0.
</event>
<event>
 4    0  0.2233588E-002  0.2586066E+03  0.7546771E-02  0.1107983E+00
         21   -1    0    0  502  501  0.00000000000E+00  0.00000000000E+00  0.16499986823E+03  0.16499986823E+03  0.00000000000E+00 0. -1.
         21   -1    0    0  501  502 -0.00000000000E+00 -0.00000000000E+00 -0.40531788724E+03  0.40531788724E+03  0.00000000000E+00 0. -1.
         25    1    1    2    0    0 -0.82864909371E+02  0.68702806280E+01  0.11202816189E+03  0.18732085580E+03  0.12500000000E+03 0.  0.
         25    1    1    2    0    0  0.82864909371E+02 -0.68702806280E+01 -0.35234618090E+03  0.38299689967E+03  0.12500000000E+03 0.  0.
</event>
<event>
 4    0  0.2233588E-002  0.2083053E+03  0.7546771E-02  0.1142915E+00
         21   -1    0    0  502  501  0.00000000000E+00  0.00000000000E+00  0.42599302320E+03  0.42599302320E+03  0.00000000000E+00 0. -1.
         21   -1    0    0  501  502 -0.00000000000E+00 -0.00000000000E+00 -0.10185866477E+03  0.10185866477E+03  0.00000000000E+00 0. -1.
         25    1    1    2    0    0  0.15846053035E+03  0.24546047935E+02  0.21948731123E+03  0.29918544072E+03  0.12500000000E+03 0.  0.
         25    1    1    2    0    0 -0.15846053035E+03 -0.24546047935E+02  0.10464704720E+03  0.22866624725E+03  0.12500000000E+03 0.  0.
</event>
<event>
 4    0  0.2233588E-002  0.2378921E+03  0.7546771E-02  0.1121205E+00
         21   -1    0    0  502  501  0.00000000000E+00  0.00000000000E+00  0.28325353692E+03  0.28325353692E+03  0.00000000000E+00 0.  1.
         21   -1    0    0  501  502 -0.00000000000E+00 -0.00000000000E+00 -0.19979511831E+03  0.19979511831E+03  0.00000000000E+00 0.  1.
         25    1    1    2    0    0 -0.18528504416E+03  0.18251039196E+02 -0.38880948058E+02  0.22759695987E+03  0.12500000000E+03 0.  0.
         25    1    1    2    0    0  0.18528504416E+03 -0.18251039196E+02  0.12233936667E+03  0.25545169535E+03  0.12500000000E+03 0.  0.
</event>
<event>
 4    0  0.2233588E-002  0.2059440E+03  0.7546771E-02  0.1144819E+00
         21   -1    0    0  502  501  0.00000000000E+00  0.00000000000E+00  0.22223121342E+02  0.22223121342E+02  0.00000000000E+00 0.  1.
         21   -1    0    0  501  502 -0.00000000000E+00 -0.00000000000E+00 -0.19085049033E+04  0.19085049033E+04  0.00000000000E+00 0.  1.
         25    1    1    2    0    0  0.16263024941E+03  0.15458563272E+02 -0.99010279898E+03  0.10112448357E+04  0.12500000000E+03 0.  0.
         25    1    1    2    0    0 -0.16263024941E+03 -0.15458563272E+02 -0.89617898301E+03  0.91948318897E+03  0.12500000000E+03 0.  0.
</event>
<event>
 4    0  0.2233588E-002  0.3592827E+03  0.7546771E-02  0.1058868E+00
         21   -1    0    0  502  501  0.00000000000E+00  0.00000000000E+00  0.11391852792E+03  0.11391852792E+03  0.00000000000E+00 0.  1.
         21   -1    0    0  501  502 -0.00000000000E+00 -0.00000000000E+00 -0.11331262654E+04  0.11331262654E+04  0.00000000000E+00 0.  1.
         25    1    1    2    0    0  0.19205245407E+03  0.27667985770E+03 -0.50124704899E+03  0.61669238108E+03  0.12500000000E+03 0.  0.
         25    1    1    2    0    0 -0.19205245407E+03 -0.27667985770E+03 -0.51796068848E+03  0.63035241221E+03  0.12500000000E+03 0.  0.
</event>
<event>
 4    0  0.2233588E-002  0.2264191E+03  0.7546771E-02  0.1129186E+00
         21   -1    0    0  502  501  0.00000000000E+00  0.00000000000E+00  0.33370567906E+03  0.33370567906E+03  0.00000000000E+00 0.  1.
         21   -1    0    0  501  502 -0.00000000000E+00 -0.00000000000E+00 -0.15362527476E+03  0.15362527476E+03  0.00000000000E+00 0.  1.
         25    1    1    2    0    0  0.53060849009E+02 -0.96313777010E+02  0.25518523941E+03  0.30469050486E+03  0.12500000000E+03 0.  0.
         25    1    1    2    0    0 -0.53060849009E+02  0.96313777010E+02 -0.75104835110E+02  0.18264044896E+03  0.12500000000E+03 0.  0.
</event>
