<event>
 6    0  0.5775861E+002  0.1829769E+03  0.7546771E-02  0.1164953E+00
          1   -1    0    0  505    0 -0.00000000000E+00  0.00000000000E+00  0.10922657919E+04  0.10922657919E+04  0.00000000000E+00 0. -1.
         21   -1    0    0  504  502  0.00000000000E+00 -0.00000000000E+00 -0.11082699705E+03  0.11082699705E+03  0.00000000000E+00 0. -1.
         21    1    1    2  503  501  0.42803860634E+02  0.15222362709E+03  0.47185898688E+03  0.49764958217E+03  0.00000000000E+00 0. -1.
         21    1    1    2  504  503  0.27311704154E+02  0.39474317004E+02 -0.34161799223E+01  0.48122979666E+02  0.00000000000E+00 0. -1.
         21    1    1    2  505  502 -0.98977913347E+02 -0.20539344489E+03  0.11015377360E+03  0.25321324683E+03  0.00000000000E+00 0. -1.
          1    1    1    2  501    0  0.28862348559E+02  0.13695500789E+02  0.40284221430E+03  0.40410698030E+03  0.00000000000E+00 0. -1.
<scales pt_clust_3="14000.00000" pt_clust_4="48.90276" pt_clust_5="182.97690" pt_clust_6="31.94686"></scales>
<clustering>
<clus scale="   31.947">  1  6  2 -1</clus>
<clus scale="   48.903">  2  4  1 -1</clus>
<clus scale="  182.977">  2  5  1 -1</clus>
<clus scale="   48.903">  2  3  1 -1</clus>
</clustering>
</event>
<event>
 6    0  0.5775861E+002  0.9597016E+02  0.7546771E-02  0.1289006E+00
         21   -1    0    0  501  502  0.00000000000E+00  0.00000000000E+00  0.16211808140E+03  0.16211808140E+03  0.00000000000E+00 0.  1.
          2   -1    0    0  504    0 -0.00000000000E+00 -0.00000000000E+00 -0.15519803077E+04  0.15519803077E+04  0.00000000000E+00 0.  1.
         21    1    1    2  503  505  0.35118760644E+02  0.75812576575E+02  0.40484363184E+02  0.92843189188E+02  0.00000000000E+00 0.  1.
         21    1    1    2  504  503 -0.44817768551E+02 -0.60788848195E+01 -0.10188893944E+03  0.11147619117E+03  0.00000000000E+00 0. -1.
         21    1    1    2  505  502 -0.25949747492E+02  0.21678158963E+02  0.85747871937E+02  0.92173909067E+02  0.00000000000E+00 0.  1.
          2    1    1    2  501    0  0.35648755399E+02 -0.91411850718E+02 -0.14142055220E+04  0.14176050997E+04  0.00000000000E+00 0.  1.
<scales pt_clust_3="95.97016" pt_clust_4="46.75080" pt_clust_5="33.81319" pt_clust_6="14000.00000"></scales>
<clustering>
<clus scale="   33.813">  1  5  2 -1</clus>
<clus scale="   46.751">  2  4  1 -1</clus>
<clus scale="   95.970">  1  3  2 -1</clus>
<clus scale="   33.813">  1  3  2 -1</clus>
</clustering>
</event>
<event>
 6    0  0.5775861E+002  0.1972737E+03  0.7546771E-02  0.1152060E+00
         21   -1    0    0  504  502  0.00000000000E+00  0.00000000000E+00  0.49398247989E+03  0.49398247989E+03  0.00000000000E+00 0.  1.
          1   -1    0    0  503    0 -0.00000000000E+00 -0.00000000000E+00 -0.69962877540E+03  0.69962877540E+03  0.00000000000E+00 0.  1.
         21    1    1    2  503  502  0.46504110868E+02 -0.93391047134E+01  0.20074946957E+03  0.20627700002E+03  0.00000000000E+00 0.  1.
         21    1    1    2  504  505 -0.60346033549E+02 -0.18279094899E+03  0.15077657745E+03  0.24451533920E+03  0.00000000000E+00 0.  1.
         21    1    1    2  505  501  0.91419784374E+02  0.19954032397E+03 -0.44113013176E+02  0.22387468771E+03  0.00000000000E+00 0.  1.
          1    1    1    2  501    0 -0.77577861693E+02 -0.74102702702E+01 -0.51305932934E+03  0.51894422837E+03  0.00000000000E+00 0.  1.
<scales pt_clust_3="47.43260" pt_clust_4="197.27370" pt_clust_5="14000.00000" pt_clust_6="77.47114"></scales>
<clustering>
<clus scale="   47.433">  1  3  2 -1</clus>
<clus scale="   77.471">  2  6  1 -1</clus>
<clus scale="  197.274">  1  4  2 -1</clus>
<clus scale="   47.433">  1  3  2 -1</clus>
</clustering>
</event>
<event>
 6    0  0.5775861E+002  0.9921555E+02  0.7546771E-02  0.1281954E+00
          2   -1    0    0  504    0 -0.00000000000E+00  0.00000000000E+00  0.47768317715E+03  0.47768317715E+03  0.00000000000E+00 0. -1.
         21   -1    0    0  505  502  0.00000000000E+00 -0.00000000000E+00 -0.25589478240E+03  0.25589478240E+03  0.00000000000E+00 0.  1.
         21    1    1    2  503  502 -0.10217018706E+03  0.94967125679E+02 -0.51731253928E+02  0.14877373665E+03  0.00000000000E+00 0. -1.
         21    1    1    2  504  503  0.76831762133E+02  0.82340825357E+01  0.43255042301E+02  0.88554607289E+02  0.00000000000E+00 0.  1.
         21    1    1    2  505  501  0.55071986963E+02 -0.13793326724E+02 -0.12041763162E+03  0.13312995762E+03  0.00000000000E+00 0.  1.
          2    1    1    2  501    0 -0.29733562037E+02 -0.89407881491E+02  0.35068223800E+03  0.36311965801E+03  0.00000000000E+00 0. -1.
<scales pt_clust_3="14000.00000" pt_clust_4="86.68745" pt_clust_5="56.77305" pt_clust_6="99.21555"></scales>
<clustering>
<clus scale="   56.773">  2  5  1 -1</clus>
<clus scale="   86.687">  1  4  2 -1</clus>
<clus scale="   99.216">  1  6  2 -1</clus>
<clus scale="   56.773">  2  3  1 -1</clus>
</clustering>
</event>
<event>
 6    0  0.5775861E+002  0.1739293E+03  0.7546771E-02  0.1173811E+00
         21   -1    0    0  503  502  0.00000000000E+00  0.00000000000E+00  0.15130689247E+04  0.15130689247E+04  0.00000000000E+00 0. -1.
          1   -1    0    0  504    0 -0.00000000000E+00 -0.00000000000E+00 -0.28996325326E+03  0.28996325326E+03  0.00000000000E+00 0.  1.
         21    1    1    2  503  501  0.57658191019E+02 -0.77309567354E+02 -0.34421555391E+02  0.10240156088E+03  0.00000000000E+00 0.  1.
         21    1    1    2  504  505  0.38444125299E+02 -0.48556844371E+02  0.63412347973E+02  0.88638839008E+02  0.00000000000E+00 0.  1.
         21    1    1    2  505  502 -0.79462430289E+02  0.16224612637E+03  0.13952598216E+04  0.14069072653E+04  0.00000000000E+00 0. -1.
          1    1    1    2  501    0 -0.16639886029E+02 -0.36379714641E+02 -0.20114494268E+03  0.20508451285E+03  0.00000000000E+00 0.  1.
<scales pt_clust_3="14000.00000" pt_clust_4="64.78243" pt_clust_5="173.92928" pt_clust_6="40.00462"></scales>
<clustering>
<clus scale="   40.005">  2  6  1 -1</clus>
<clus scale="   64.782">  2  4  1 -1</clus>
<clus scale="  173.929">  1  5  2 -1</clus>
<clus scale="  173.929">  1  3  2 -1</clus>
</clustering>
</event>
<event>
 6    0  0.5775861E+002  0.1585854E+03  0.7546771E-02  0.1190303E+00
          2   -1    0    0  504    0 -0.00000000000E+00  0.00000000000E+00  0.19181345900E+04  0.19181345900E+04  0.00000000000E+00 0.  1.
         21   -1    0    0  501  502  0.00000000000E+00 -0.00000000000E+00 -0.32839996314E+03  0.32839996314E+03  0.00000000000E+00 0. -1.
         21    1    1    2  503  502 -0.67882001067E+02 -0.51084109805E+02 -0.15918167218E+03  0.18043380254E+03  0.00000000000E+00 0. -1.
         21    1    1    2  504  505  0.10844553357E+03  0.44524593075E+02  0.36400651353E+02  0.12275129555E+03  0.00000000000E+00 0. -1.
         21    1    1    2  505  503 -0.79801052359E+02 -0.16662675441E+02 -0.10069917185E+03  0.12956147545E+03  0.00000000000E+00 0. -1.
          2    1    1    2  501    0  0.39237519854E+02  0.23222192170E+02  0.18132148195E+04  0.18137879796E+04  0.00000000000E+00 0.  1.
<scales pt_clust_3="45.51739" pt_clust_4="151.62529" pt_clust_5="45.51739" pt_clust_6="45.59444"></scales>
<clustering>
<clus scale="   45.517">  3  5 -1 -1</clus>
<clus scale="   45.594">  1  6  2 -1</clus>
<clus scale="  151.625">  1  4  2 -1</clus>
<clus scale="  158.585">  2  3  1 -1</clus>
</clustering>
</event>
<event>
 6    0  0.5775861E+002  0.1184175E+03  0.7546771E-02  0.1245731E+00
          2   -1    0    0  505    0 -0.00000000000E+00  0.00000000000E+00  0.65957701982E+03  0.65957701982E+03  0.00000000000E+00 0. -1.
         21   -1    0    0  503  502  0.00000000000E+00 -0.00000000000E+00 -0.11380601189E+04  0.11380601189E+04  0.00000000000E+00 0.  1.
         21    1    1    2  503  504  0.29693160186E+02  0.33366354940E+02 -0.85743842173E+03  0.85860098093E+03  0.00000000000E+00 0.  1.
         21    1    1    2  504  501 -0.13236022959E+03  0.25984860473E+02 -0.25364480086E+03  0.28728057427E+03  0.00000000000E+00 0.  1.
         21    1    1    2  505  502  0.10781881587E+03 -0.25237392749E+02  0.35107349899E+03  0.36812283920E+03  0.00000000000E+00 0.  1.
          2    1    1    2  501    0 -0.51517464665E+01 -0.34113822664E+02  0.28152662447E+03  0.28363274436E+03  0.00000000000E+00 0. -1.
<scales pt_clust_3="44.62083" pt_clust_4="118.41748" pt_clust_5="14000.00000" pt_clust_6="34.50063"></scales>
<clustering>
<clus scale="   34.501">  1  6  2 -1</clus>
<clus scale="   44.621">  2  3  1 -1</clus>
<clus scale="  118.417">  2  4  1 -1</clus>
<clus scale="   44.621">  2  3  1 -1</clus>
</clustering>
</event>
<event>
 6    0  0.5775861E+002  0.1388093E+03  0.7546771E-02  0.1214940E+00
          1   -1    0    0  503    0 -0.00000000000E+00  0.00000000000E+00  0.13829148063E+04  0.13829148063E+04  0.00000000000E+00 0.  1.
         21   -1    0    0  504  502  0.00000000000E+00 -0.00000000000E+00 -0.41861759158E+02  0.41861759158E+02  0.00000000000E+00 0.  1.
         21    1    1    2  503  505  0.12809314153E+00  0.32642853774E+02  0.21480536080E+03  0.21727152445E+03  0.00000000000E+00 0.  1.
         21    1    1    2  504  501  0.23108903626E+02 -0.21827790428E+02  0.87661846128E+01  0.32974533423E+02  0.00000000000E+00 0. -1.
         21    1    1    2  505  502  0.11721276698E+03  0.42412951086E+02  0.14806859441E+03  0.19355102638E+03  0.00000000000E+00 0.  1.
          1    1    1    2  501    0 -0.14044976375E+03 -0.53228014432E+02  0.96941290731E+03  0.98097948119E+03  0.00000000000E+00 0.  1.
<scales pt_clust_3="31.75693" pt_clust_4="31.78795" pt_clust_5="14000.00000" pt_clust_6="138.80929"></scales>
<clustering>
<clus scale="   31.788">  2  4  1 -1</clus>
<clus scale="   31.757">  1  3  2 -1</clus>
<clus scale="  138.809">  1  6  2 -1</clus>
<clus scale="   31.788">  2  3  1 -1</clus>
</clustering>
</event>
<event>
 6    0  0.5775861E+002  0.1113364E+03  0.7546771E-02  0.1258115E+00
         21   -1    0    0  503  502  0.00000000000E+00  0.00000000000E+00  0.17902213650E+03  0.17902213650E+03  0.00000000000E+00 0. -1.
          2   -1    0    0  505    0 -0.00000000000E+00 -0.00000000000E+00 -0.51878217392E+03  0.51878217392E+03  0.00000000000E+00 0.  1.
         21    1    1    2  503  504 -0.77519510400E+02  0.65382484167E+02  0.69146040813E+02  0.12274085990E+03  0.00000000000E+00 0. -1.
         21    1    1    2  504  501  0.24331448648E+02 -0.79131709250E+02 -0.12329417924E+03  0.14851027385E+03  0.00000000000E+00 0.  1.
         21    1    1    2  505  502 -0.50896217169E+01  0.33792157039E+02  0.63463549582E+02  0.72079374665E+02  0.00000000000E+00 0. -1.
          2    1    1    2  501    0  0.58277683468E+02 -0.20042931955E+02 -0.34907544857E+03  0.35447380200E+03  0.00000000000E+00 0.  1.
<scales pt_clust_3="111.33643" pt_clust_4="14000.00000" pt_clust_5="34.17330" pt_clust_6="61.24898"></scales>
<clustering>
<clus scale="   34.173">  1  5  2 -1</clus>
<clus scale="   61.249">  2  6  1 -1</clus>
<clus scale="  111.336">  1  3  2 -1</clus>
<clus scale="   34.173">  1  3  2 -1</clus>
</clustering>
</event>
<event>
 6    0  0.5775861E+002  0.1065403E+03  0.7546771E-02  0.1267114E+00
          2   -1    0    0  504    0 -0.00000000000E+00  0.00000000000E+00  0.27647669570E+03  0.27647669570E+03  0.00000000000E+00 0.  1.
         21   -1    0    0  505  502  0.00000000000E+00 -0.00000000000E+00 -0.30316839195E+03  0.30316839195E+03  0.00000000000E+00 0.  1.
         21    1    1    2  503  502 -0.21255843847E+02 -0.23506162424E+02 -0.23524953282E+02  0.39468645739E+02  0.00000000000E+00 0. -1.
         21    1    1    2  504  503  0.29716611113E+02 -0.10054599150E+03 -0.17930512698E+03  0.20770869491E+03  0.00000000000E+00 0.  1.
         21    1    1    2  505  501  0.47859425815E+02  0.33239366391E+02 -0.53549712833E+02  0.79138813877E+02  0.00000000000E+00 0.  1.
          2    1    1    2  501    0 -0.56320193081E+02  0.90812787534E+02  0.22968809683E+03  0.25332893312E+03  0.00000000000E+00 0.  1.
<scales pt_clust_3="31.69149" pt_clust_4="106.54034" pt_clust_5="50.76221" pt_clust_6="14000.00000"></scales>
<clustering>
<clus scale="   31.691">  2  3  1 -1</clus>
<clus scale="   50.762">  2  5  1 -1</clus>
<clus scale="  106.540">  2  4  1 -1</clus>
<clus scale="   31.691">  2  3  1 -1</clus>
</clustering>
</event>
<event>
 6    0  0.5775861E+002  0.1135289E+03  0.7546771E-02  0.1254171E+00
         21   -1    0    0  505  502  0.00000000000E+00  0.00000000000E+00  0.17534161230E+04  0.17534161230E+04  0.00000000000E+00 0. -1.
          1   -1    0    0  502    0 -0.00000000000E+00 -0.00000000000E+00 -0.34885994868E+03  0.34885994868E+03  0.00000000000E+00 0. -1.
         21    1    1    2  503  504  0.89214152607E+02 -0.89430182505E+02  0.46268497486E+03  0.47961892011E+03  0.00000000000E+00 0. -1.
         21    1    1    2  504  501  0.30087793982E+02  0.88787766015E+02  0.38687182953E+02  0.10141617655E+03  0.00000000000E+00 0. -1.
         21    1    1    2  505  503 -0.10421896158E+03  0.41091323488E+02  0.12081005980E+04  0.12132836205E+04  0.00000000000E+00 0. -1.
          1    1    1    2  501    0 -0.15082985013E+02 -0.40448906997E+02 -0.30491658152E+03  0.30795735451E+03  0.00000000000E+00 0. -1.
<scales pt_clust_3="113.52889" pt_clust_4="61.85282" pt_clust_5="14000.00000" pt_clust_6="43.16956"></scales>
<clustering>
<clus scale="   43.170">  2  6  1 -1</clus>
<clus scale="   61.853">  2  4  1 -1</clus>
<clus scale="  113.529">  2  3  1 -1</clus>
<clus scale="  113.529">  1  3  2 -1</clus>
</clustering>
</event>
<event>
 6    0  0.5775861E+002  0.1438027E+03  0.7546771E-02  0.1208302E+00
         21   -1    0    0  505  502  0.00000000000E+00  0.00000000000E+00  0.42833317542E+03  0.42833317542E+03  0.00000000000E+00 0.  1.
         -3   -1    0    0    0  501 -0.00000000000E+00 -0.00000000000E+00 -0.45499223202E+03  0.45499223202E+03  0.00000000000E+00 0.  1.
         21    1    1    2  503  501  0.79763883184E+01 -0.16717981661E+03  0.58999908644E+02  0.17746465302E+03  0.00000000000E+00 0.  1.
         21    1    1    2  504  502  0.10197397538E+00  0.32717134141E+02  0.72254367530E+02  0.79316548666E+02  0.00000000000E+00 0. -1.
         21    1    1    2  505  503 -0.34170676157E+02 -0.47931154240E+01  0.22013332435E+03  0.22282120535E+03  0.00000000000E+00 0.  1.
         -3    1    1    2    0  504  0.26092313863E+02  0.13925579789E+03 -0.37804665712E+03  0.40372300040E+03  0.00000000000E+00 0.  1.
<scales pt_clust_3="14000.00000" pt_clust_4="32.71729" pt_clust_5="37.57196" pt_clust_6="143.80273"></scales>
<clustering>
<clus scale="   32.717">  1  4  2 -1</clus>
<clus scale="   37.572">  1  5  2 -1</clus>
<clus scale="  143.803">  2  6  1 -1</clus>
<clus scale="   32.717">  1  3  2 -1</clus>
</clustering>
</event>
<event>
 6    0  0.5775861E+002  0.1601000E+03  0.7546771E-02  0.1188584E+00
          2   -1    0    0  503    0 -0.00000000000E+00  0.00000000000E+00  0.39621272769E+03  0.39621272769E+03  0.00000000000E+00 0.  1.
         21   -1    0    0  505  502  0.00000000000E+00 -0.00000000000E+00 -0.28926625447E+03  0.28926625447E+03  0.00000000000E+00 0.  1.
         21    1    1    2  503  504 -0.46588510789E+02 -0.12835816199E+02  0.37285624685E+02  0.61036590035E+02  0.00000000000E+00 0.  1.
         21    1    1    2  504  502 -0.13178602542E+03 -0.14725998178E+03 -0.35384482166E+02  0.20076135163E+03  0.00000000000E+00 0.  1.
         21    1    1    2  505  501  0.11863972302E+03 -0.39783731179E+00 -0.10096592874E+03  0.15578722964E+03  0.00000000000E+00 0.  1.
          2    1    1    2  501    0  0.59734813193E+02  0.16049363529E+03  0.20601125944E+03  0.26789381085E+03  0.00000000000E+00 0.  1.
<scales pt_clust_3="48.32440" pt_clust_4="14000.00000" pt_clust_5="114.96876" pt_clust_6="160.10002"></scales>
<clustering>
<clus scale="   48.324">  1  3  2 -1</clus>
<clus scale="  114.969">  2  5  1 -1</clus>
<clus scale="  160.100">  1  6  2 -1</clus>
<clus scale="  114.969">  2  3  1 -1</clus>
</clustering>
</event>
<event>
 6    0  0.5775861E+002  0.1120881E+03  0.7546771E-02  0.1256751E+00
         21   -1    0    0  503  502  0.00000000000E+00  0.00000000000E+00  0.35626833500E+03  0.35626833500E+03  0.00000000000E+00 0. -1.
          2   -1    0    0  504    0 -0.00000000000E+00 -0.00000000000E+00 -0.10411309884E+04  0.10411309884E+04  0.00000000000E+00 0. -1.
         21    1    1    2  503  505  0.48283338066E+02  0.57726620393E+02  0.31783744002E+03  0.32662559868E+03  0.00000000000E+00 0. -1.
         21    1    1    2  504  502 -0.11006227813E+03 -0.86093482867E+02 -0.62910028652E+03  0.64443227989E+03  0.00000000000E+00 0. -1.
         21    1    1    2  505  501  0.84555036163E+02 -0.42528808554E+02 -0.81507813240E+02  0.12490707473E+03  0.00000000000E+00 0. -1.
          2    1    1    2  501    0 -0.22776096097E+02  0.70895671028E+02 -0.29209199365E+03  0.30143437010E+03  0.00000000000E+00 0. -1.
<scales pt_clust_3="75.49285" pt_clust_4="14000.00000" pt_clust_5="112.08807" pt_clust_6="74.46440"></scales>
<clustering>
<clus scale="   74.464">  2  6  1 -1</clus>
<clus scale="   75.493">  1  3  2 -1</clus>
<clus scale="  112.088">  1  5  2 -1</clus>
<clus scale="   75.493">  1  3  2 -1</clus>
</clustering>
</event>
<event>
 6    0  0.5775861E+002  0.8898433E+02  0.7546771E-02  0.1305330E+00
          2   -1    0    0  504    0 -0.00000000000E+00  0.00000000000E+00  0.16384381563E+04  0.16384381563E+04  0.00000000000E+00 0.  1.
         21   -1    0    0  505  502  0.00000000000E+00 -0.00000000000E+00 -0.39353631316E+02  0.39353631316E+02  0.00000000000E+00 0. -1.
         21    1    1    2  503  502 -0.17114896133E+02 -0.25300441481E+02  0.15445328357E+01  0.30584597275E+02  0.00000000000E+00 0. -1.
         21    1    1    2  504  503 -0.19389688037E+02  0.91251211583E+02  0.13103255697E+03  0.16084860771E+03  0.00000000000E+00 0.  1.
         21    1    1    2  505  501  0.89142368811E+01 -0.10328332185E+03  0.27411760875E+03  0.29306547327E+03  0.00000000000E+00 0. -1.
          2    1    1    2  501    0  0.27590347289E+02  0.37332551750E+02  0.11923898264E+04  0.11932931093E+04  0.00000000000E+00 0.  1.
<scales pt_clust_3="30.54557" pt_clust_4="14000.00000" pt_clust_5="88.98433" pt_clust_6="45.86637"></scales>
<clustering>
<clus scale="   30.546">  2  3  1 -1</clus>
<clus scale="   45.866">  1  6  2 -1</clus>
<clus scale="   88.984">  1  5  2 -1</clus>
<clus scale="   30.546">  2  3  1 -1</clus>
</clustering>
</event>
<event>
 6    0  0.5775861E+002  0.8713432E+02  0.7546771E-02  0.1309944E+00
         21   -1    0    0  503  502  0.00000000000E+00  0.00000000000E+00  0.14467835622E+03  0.14467835622E+03  0.00000000000E+00 0.  1.
          1   -1    0    0  505    0 -0.00000000000E+00 -0.00000000000E+00 -0.15405613813E+04  0.15405613813E+04  0.00000000000E+00 0. -1.
         21    1    1    2  503  501  0.16020061063E+02  0.85789551678E+02 -0.76365690746E+02  0.11596641004E+03  0.00000000000E+00 0. -1.
         21    1    1    2  504  502  0.55694091972E+02  0.91764445294E+01  0.10120296618E+03  0.11587959000E+03  0.00000000000E+00 0.  1.
         21    1    1    2  505  504  0.14624836671E+02 -0.67930444728E+02 -0.66584341888E+02  0.96238795469E+02  0.00000000000E+00 0.  1.
          1    1    1    2  501    0 -0.86338989707E+02 -0.27035551479E+02 -0.13541359586E+04  0.13571549420E+04  0.00000000000E+00 0. -1.
<scales pt_clust_3="14000.00000" pt_clust_4="56.44501" pt_clust_5="74.30792" pt_clust_6="87.13432"></scales>
<clustering>
<clus scale="   56.445">  1  4  2 -1</clus>
<clus scale="   74.308">  1  5  2 -1</clus>
<clus scale="   87.134">  2  6  1 -1</clus>
<clus scale="   56.445">  1  3  2 -1</clus>
</clustering>
</event>
<event>
 6    0  0.5775861E+002  0.8748553E+02  0.7546771E-02  0.1309058E+00
         21   -1    0    0  504  502  0.00000000000E+00  0.00000000000E+00  0.34424082439E+03  0.34424082439E+03  0.00000000000E+00 0.  1.
          1   -1    0    0  503    0 -0.00000000000E+00 -0.00000000000E+00 -0.67175126488E+03  0.67175126488E+03  0.00000000000E+00 0. -1.
         21    1    1    2  503  505  0.34795468098E+02 -0.10224529649E+03 -0.10961159898E+03  0.15388153849E+03  0.00000000000E+00 0.  1.
         21    1    1    2  504  501 -0.74674703782E+02  0.10191362628E+03  0.27150853993E+03  0.29946550029E+03  0.00000000000E+00 0.  1.
         21    1    1    2  505  502  0.12552499522E+02 -0.48209193716E+02  0.17413346297E+02  0.52772305542E+02  0.00000000000E+00 0. -1.
          1    1    1    2  501    0  0.27326736162E+02  0.48540863927E+02 -0.50682072773E+03  0.50987274495E+03  0.00000000000E+00 0. -1.
<scales pt_clust_3="14000.00000" pt_clust_4="87.48553" pt_clust_5="49.81658" pt_clust_6="55.52756"></scales>
<clustering>
<clus scale="   49.817">  1  5  2 -1</clus>
<clus scale="   55.528">  2  6  1 -1</clus>
<clus scale="   87.486">  1  4  2 -1</clus>
<clus scale="   49.817">  1  3  2 -1</clus>
</clustering>
</event>
<event>
 6    0  0.5775861E+002  0.1158605E+03  0.7546771E-02  0.1250087E+00
         21   -1    0    0  504  502  0.00000000000E+00  0.00000000000E+00  0.25488648312E+03  0.25488648312E+03  0.00000000000E+00 0.  1.
          2   -1    0    0  503    0 -0.00000000000E+00 -0.00000000000E+00 -0.25223755704E+04  0.25223755704E+04  0.00000000000E+00 0.  1.
         21    1    1    2  503  502 -0.32764795399E+02  0.53665574023E+01 -0.11193428772E+03  0.11675451393E+03  0.00000000000E+00 0.  1.
         21    1    1    2  504  505  0.14319800419E+02 -0.28504077429E+02  0.20262813843E+03  0.20512362516E+03  0.00000000000E+00 0.  1.
         21    1    1    2  505  501 -0.56253412168E+02 -0.66570994498E+02  0.68936853519E+01  0.87428065212E+02  0.00000000000E+00 0. -1.
          2    1    1    2  501    0  0.74698407148E+02  0.89708514524E+02 -0.23650766234E+04  0.23679558493E+04  0.00000000000E+00 0.  1.
<scales pt_clust_3="32.33903" pt_clust_4="31.89889" pt_clust_5="115.86046" pt_clust_6="14000.00000"></scales>
<clustering>
<clus scale="   31.899">  1  4  2 -1</clus>
<clus scale="   32.339">  1  3  2 -1</clus>
<clus scale="  115.860">  1  5  2 -1</clus>
<clus scale="   31.899">  1  3  2 -1</clus>
</clustering>
</event>
<event>
 6    0  0.5775861E+002  0.1418978E+03  0.7546771E-02  0.1210798E+00
         -2   -1    0    0    0  501 -0.00000000000E+00  0.00000000000E+00  0.24243896496E+03  0.24243896496E+03  0.00000000000E+00 0.  1.
         21   -1    0    0  503  502  0.00000000000E+00 -0.00000000000E+00 -0.17032958269E+04  0.17032958269E+04  0.00000000000E+00 0. -1.
         21    1    1    2  503  504  0.11136114808E+03  0.88698230931E+02 -0.13745120136E+04  0.13818653904E+04  0.00000000000E+00 0. -1.
         21    1    1    2  504  501 -0.16855757960E+03 -0.75370434811E+02  0.76093317834E+02  0.19970616691E+03  0.00000000000E+00 0.  1.
         21    1    1    2  505  502  0.17142239953E+02 -0.31990806223E+02 -0.25712444135E+03  0.25967334560E+03  0.00000000000E+00 0. -1.
         -2    1    1    2    0  505  0.40054191559E+02  0.18663010103E+02  0.94686275162E+02  0.10448988904E+03  0.00000000000E+00 0.  1.
<scales pt_clust_3="14000.00000" pt_clust_4="141.89776" pt_clust_5="36.29419" pt_clust_6="44.19580"></scales>
<clustering>
<clus scale="   36.294">  2  5  1 -1</clus>
<clus scale="   44.196">  1  6  2 -1</clus>
<clus scale="  141.898">  1  4  2 -1</clus>
<clus scale="   36.294">  2  3  1 -1</clus>
</clustering>
</event>
<event>
 6    0  0.5775861E+002  0.2191526E+03  0.7546771E-02  0.1134516E+00
         21   -1    0    0  503  502  0.00000000000E+00  0.00000000000E+00  0.47913267610E+03  0.47913267610E+03  0.00000000000E+00 0. -1.
          1   -1    0    0  504    0 -0.00000000000E+00 -0.00000000000E+00 -0.10712304283E+04  0.10712304283E+04  0.00000000000E+00 0.  1.
         21    1    1    2  503  505 -0.10807628702E+03  0.93468752547E+02  0.29833590571E+03  0.33078876062E+03  0.00000000000E+00 0. -1.
         21    1    1    2  504  502  0.45288352868E+02 -0.28419942246E+03 -0.28566942367E+03  0.40549644419E+03  0.00000000000E+00 0.  1.
         21    1    1    2  505  501  0.34292120254E+02  0.14316232078E+03  0.51133979459E+02  0.15583992896E+03  0.00000000000E+00 0. -1.
          1    1    1    2  501    0  0.28495813900E+02  0.47568349131E+02 -0.65589821370E+03  0.65823797063E+03  0.00000000000E+00 0.  1.
<scales pt_clust_3="143.27834" pt_clust_4="219.15255" pt_clust_5="14000.00000" pt_clust_6="55.45051"></scales>
<clustering>
<clus scale="   55.451">  2  6  1 -1</clus>
<clus scale="  143.278">  1  3  2 -1</clus>
<clus scale="  219.153">  2  4  1 -1</clus>
<clus scale="  143.278">  1  3  2 -1</clus>
</clustering>
</event>
<event>
 6    0  0.5775861E+002  0.1530285E+03  0.7546771E-02  0.1196800E+00
          2   -1    0    0  504    0 -0.00000000000E+00  0.00000000000E+00  0.13653365136E+04  0.13653365136E+04  0.00000000000E+00 0.  1.
         21   -1    0    0  505  502  0.00000000000E+00 -0.00000000000E+00 -0.12379822845E+03  0.12379822845E+03  0.00000000000E+00 0. -1.
         21    1    1    2  503  501 -0.74297362561E+02  0.15789741933E+03  0.16542858389E+03  0.24045438129E+03  0.00000000000E+00 0. -1.
         21    1    1    2  504  502  0.21116623561E+02 -0.58351294444E+02  0.11936869192E+03  0.13453501390E+03  0.00000000000E+00 0.  1.
         21    1    1    2  505  503 -0.13522820519E+02  0.34709112667E+02 -0.68515370606E+02  0.77986827004E+02  0.00000000000E+00 0. -1.
          2    1    1    2  501    0  0.66703559519E+02 -0.13425523755E+03  0.10252563799E+04  0.10361585198E+04  0.00000000000E+00 0.  1.
<scales pt_clust_3="153.02849" pt_clust_4="56.46815" pt_clust_5="37.25036" pt_clust_6="14000.00000"></scales>
<clustering>
<clus scale="   37.250">  2  5  1 -1</clus>
<clus scale="   56.468">  2  4  1 -1</clus>
<clus scale="  153.028">  2  3  1 -1</clus>
<clus scale="   37.250">  2  3  1 -1</clus>
</clustering>
</event>
<event>
 6    0  0.5775861E+002  0.1098610E+03  0.7546771E-02  0.1260828E+00
         21   -1    0    0  504  502  0.00000000000E+00  0.00000000000E+00  0.26008079455E+03  0.26008079455E+03  0.00000000000E+00 0. -1.
          1   -1    0    0  505    0 -0.00000000000E+00 -0.00000000000E+00 -0.49987389506E+03  0.49987389506E+03  0.00000000000E+00 0. -1.
         21    1    1    2  503  502  0.21228247440E+02 -0.89979961953E+02  0.75758661112E+02  0.11952575779E+03  0.00000000000E+00 0. -1.
         21    1    1    2  504  501  0.32796141468E+02  0.14752825728E+03  0.95837193142E+02  0.17895513734E+03  0.00000000000E+00 0. -1.
         21    1    1    2  505  503  0.30182924582E+02  0.48649848606E+02 -0.51863145469E+02  0.77250259311E+02  0.00000000000E+00 0. -1.
          1    1    1    2  501    0 -0.84207313491E+02 -0.10619814394E+03 -0.35952580930E+03  0.38422353516E+03  0.00000000000E+00 0. -1.
<scales pt_clust_3="14000.00000" pt_clust_4="109.86100" pt_clust_5="57.25222" pt_clust_6="87.12865"></scales>
<clustering>
<clus scale="   57.252">  2  5  1 -1</clus>
<clus scale="   87.129">  2  6  1 -1</clus>
<clus scale="  109.861">  2  4  1 -1</clus>
<clus scale="  109.861">  1  3  2 -1</clus>
</clustering>
</event>
<event>
 6    0  0.5775861E+002  0.7685915E+02  0.7546771E-02  0.1338209E+00
         21   -1    0    0  505  502  0.00000000000E+00  0.00000000000E+00  0.21024176412E+03  0.21024176412E+03  0.00000000000E+00 0. -1.
         -4   -1    0    0    0  501 -0.00000000000E+00 -0.00000000000E+00 -0.49496541480E+03  0.49496541480E+03  0.00000000000E+00 0.  1.
         21    1    1    2  503  502 -0.23345996331E+02 -0.23513275293E+02  0.81865910768E+02  0.88317252026E+02  0.00000000000E+00 0. -1.
         21    1    1    2  504  503  0.62328450179E+02 -0.26566552609E+02 -0.31516225323E+02  0.74725429927E+02  0.00000000000E+00 0. -1.
         21    1    1    2  505  501 -0.10958948214E+03  0.75384348910E+02  0.55738671388E+02  0.14422015859E+03  0.00000000000E+00 0. -1.
         -4    1    1    2    0  504  0.70607028294E+02 -0.25304521007E+02 -0.39081200751E+03  0.39794433837E+03  0.00000000000E+00 0.  1.
<scales pt_clust_3="33.13472" pt_clust_4="65.85298" pt_clust_5="76.85915" pt_clust_6="14000.00000"></scales>
<clustering>
<clus scale="   33.135">  1  3  2 -1</clus>
<clus scale="   65.853">  1  4  2 -1</clus>
<clus scale="   76.859">  1  5  2 -1</clus>
<clus scale="   33.135">  1  3  2 -1</clus>
</clustering>
</event>
<event>
 6    0  0.5775861E+002  0.1358659E+03  0.7546771E-02  0.1219003E+00
         21   -1    0    0  504  502  0.00000000000E+00  0.00000000000E+00  0.28031760053E+04  0.28031760053E+04  0.00000000000E+00 0. -1.
          3   -1    0    0  503    0 -0.00000000000E+00 -0.00000000000E+00 -0.69795492490E+02  0.69795492490E+02  0.00000000000E+00 0. -1.
         21    1    1    2  503  505  0.17208249258E+03 -0.12992666413E+02  0.47063964794E+03  0.50128123029E+03  0.00000000000E+00 0. -1.
         21    1    1    2  504  501  0.37490094641E+02  0.11506428577E+02  0.53593238625E+03  0.53736526472E+03  0.00000000000E+00 0. -1.
         21    1    1    2  505  502 -0.98772690045E+02  0.78624455829E+02  0.16895650379E+04  0.16942750268E+04  0.00000000000E+00 0. -1.
          3    1    1    2  501    0 -0.11079989717E+03 -0.77138217994E+02  0.37243440775E+02  0.14004997597E+03  0.00000000000E+00 0. -1.
<scales pt_clust_3="14000.00000" pt_clust_4="39.21613" pt_clust_5="112.32564" pt_clust_6="135.86586"></scales>
<clustering>
<clus scale="   39.216">  1  4  2 -1</clus>
<clus scale="  112.326">  1  5  2 -1</clus>
<clus scale="  135.866">  2  6  1 -1</clus>
<clus scale="   39.216">  1  3  2 -1</clus>
</clustering>
</event>
<event>
 6    0  0.5775861E+002  0.2256665E+03  0.7546771E-02  0.1129728E+00
         21   -1    0    0  504  502  0.00000000000E+00  0.00000000000E+00  0.13402799320E+04  0.13402799320E+04  0.00000000000E+00 0.  1.
          2   -1    0    0  505    0 -0.00000000000E+00 -0.00000000000E+00 -0.48401929101E+03  0.48401929101E+03  0.00000000000E+00 0.  1.
         21    1    1    2  503  502 -0.22580980528E+02  0.25481339690E+02  0.77528502466E+02  0.84675073360E+02  0.00000000000E+00 0. -1.
         21    1    1    2  504  501 -0.24844581934E+02  0.37259908642E+02  0.11106098404E+04  0.11115123803E+04  0.00000000000E+00 0.  1.
         21    1    1    2  505  503 -0.88208353502E+02 -0.23602310346E+03 -0.28850370150E+02  0.25361380651E+03  0.00000000000E+00 0.  1.
          2    1    1    2  501    0  0.13563391596E+03  0.17328185513E+03 -0.30302733165E+03  0.37449796289E+03  0.00000000000E+00 0.  1.
<scales pt_clust_3="34.04702" pt_clust_4="74.65673" pt_clust_5="225.66647" pt_clust_6="14000.00000"></scales>
<clustering>
<clus scale="   34.047">  1  3  2 -1</clus>
<clus scale="   74.657">  1  4  2 -1</clus>
<clus scale="  225.666">  1  5  2 -1</clus>
<clus scale="   34.047">  1  3  2 -1</clus>
</clustering>
</event>
<event>
 6    0  0.5775861E+002  0.2246769E+03  0.7546771E-02  0.1130443E+00
          2   -1    0    0  505    0 -0.00000000000E+00  0.00000000000E+00  0.19658120111E+04  0.19658120111E+04  0.00000000000E+00 0. -1.
         21   -1    0    0  504  502  0.00000000000E+00 -0.00000000000E+00 -0.36141017494E+03  0.36141017494E+03  0.00000000000E+00 0.  1.
         21    1    1    2  503  501  0.31006454475E+02  0.15716324458E+03  0.13629103216E+02  0.16077138465E+03  0.00000000000E+00 0.  1.
         21    1    1    2  504  503  0.32879924290E+02  0.10487844698E+02 -0.15234330994E+02  0.37724914162E+02  0.00000000000E+00 0.  1.
         21    1    1    2  505  502 -0.11089939561E+03  0.59765069614E+02 -0.23846291702E+03  0.26969446099E+03  0.00000000000E+00 0.  1.
          2    1    1    2  501    0  0.47013016850E+02 -0.22741615889E+03  0.18444699809E+04  0.18590314262E+04  0.00000000000E+00 0. -1.
<scales pt_clust_3="14000.00000" pt_clust_4="34.51209" pt_clust_5="109.42898" pt_clust_6="224.67692"></scales>
<clustering>
<clus scale="   34.512">  2  4  1 -1</clus>
<clus scale="  109.429">  2  5  1 -1</clus>
<clus scale="  224.677">  1  6  2 -1</clus>
<clus scale="   34.512">  2  3  1 -1</clus>
</clustering>
</event>
<event>
 6    0  0.5775861E+002  0.1538600E+03  0.7546771E-02  0.1195809E+00
          3   -1    0    0  505    0 -0.00000000000E+00  0.00000000000E+00  0.46991366077E+03  0.46991366077E+03  0.00000000000E+00 0.  1.
         21   -1    0    0  503  502  0.00000000000E+00 -0.00000000000E+00 -0.70842425861E+03  0.70842425861E+03  0.00000000000E+00 0. -1.
         21    1    1    2  503  501  0.87503927338E+02 -0.12437133543E+02  0.24034774059E+03  0.25608329894E+03  0.00000000000E+00 0.  1.
         21    1    1    2  504  502 -0.35502931124E+02  0.38595483431E+00 -0.55827000120E+03  0.55939789177E+03  0.00000000000E+00 0. -1.
         21    1    1    2  505  504 -0.79807197430E+02  0.73915992924E+02 -0.11419520170E+03  0.15771273526E+03  0.00000000000E+00 0. -1.
          3    1    1    2  501    0  0.27806201216E+02 -0.61864814215E+02  0.19360686447E+03  0.20514399342E+03  0.00000000000E+00 0.  1.
<scales pt_clust_3="65.95843" pt_clust_4="35.50503" pt_clust_5="134.44731" pt_clust_6="65.95843"></scales>
<clustering>
<clus scale="   35.505">  2  4  1 -1</clus>
<clus scale="   65.958">  3  6 -1 -1</clus>
<clus scale="  134.447">  2  5  1 -1</clus>
<clus scale="   35.505">  2  3  1 -1</clus>
</clustering>
</event>
<event>
 6    0  0.5775861E+002  0.7733461E+02  0.7546771E-02  0.1336790E+00
          2   -1    0    0  505    0 -0.00000000000E+00  0.00000000000E+00  0.10624487033E+04  0.10624487033E+04  0.00000000000E+00 0. -1.
         21   -1    0    0  503  502  0.00000000000E+00 -0.00000000000E+00 -0.15510470764E+03  0.15510470764E+03  0.00000000000E+00 0.  1.
         21    1    1    2  503  504  0.79535968754E+02 -0.66092061901E+02 -0.97825892300E+02  0.14235180426E+03  0.00000000000E+00 0.  1.
         21    1    1    2  504  501 -0.13277548887E+02  0.60092272480E+02  0.29612316790E+03  0.30245050022E+03  0.00000000000E+00 0.  1.
         21    1    1    2  505  502 -0.93439392264E+01  0.29516521830E+02 -0.22717178184E+02  0.38400578718E+02  0.00000000000E+00 0.  1.
          2    1    1    2  501    0 -0.56914480641E+02 -0.23516732410E+02  0.73176389823E+03  0.73435052772E+03  0.00000000000E+00 0. -1.
<scales pt_clust_3="77.33461" pt_clust_4="14000.00000" pt_clust_5="30.96020" pt_clust_6="61.55507"></scales>
<clustering>
<clus scale="   30.960">  2  5  1 -1</clus>
<clus scale="   61.555">  1  6  2 -1</clus>
<clus scale="   77.335">  2  3  1 -1</clus>
<clus scale="   30.960">  2  3  1 -1</clus>
</clustering>
</event>
<event>
 6    0  0.5775861E+002  0.1037439E+03  0.7546771E-02  0.1272614E+00
         21   -1    0    0  504  502  0.00000000000E+00  0.00000000000E+00  0.64367412507E+02  0.64367412507E+02  0.00000000000E+00 0. -1.
          1   -1    0    0  505    0 -0.00000000000E+00 -0.00000000000E+00 -0.17360567429E+04  0.17360567429E+04  0.00000000000E+00 0. -1.
         21    1    1    2  503  501  0.51289211414E+02 -0.73646263143E+02 -0.60215860431E+03  0.60880977326E+03  0.00000000000E+00 0. -1.
         21    1    1    2  504  503 -0.72323679496E+02 -0.43080626754E+01 -0.86283091524E+02  0.11266785656E+03  0.00000000000E+00 0. -1.
         21    1    1    2  505  502 -0.99634113650E+01  0.81140074786E+02  0.12510239736E+02  0.82701193466E+02  0.00000000000E+00 0. -1.
          1    1    1    2  501    0  0.30997879447E+02 -0.31857489685E+01 -0.99575787425E+03  0.99624533206E+03  0.00000000000E+00 0. -1.
<scales pt_clust_3="14000.00000" pt_clust_4="68.32142" pt_clust_5="103.74391" pt_clust_6="31.16115"></scales>
<clustering>
<clus scale="   31.161">  2  6  1 -1</clus>
<clus scale="   68.321">  1  4  2 -1</clus>
<clus scale="  103.744">  1  5  2 -1</clus>
<clus scale="   68.321">  1  3  2 -1</clus>
</clustering>
</event>
<event>
 6    0  0.5775861E+002  0.1477155E+03  0.7546771E-02  0.1203309E+00
         21   -1    0    0  503  502  0.00000000000E+00  0.00000000000E+00  0.31787127606E+04  0.31787127606E+04  0.00000000000E+00 0.  1.
          4   -1    0    0  502    0 -0.00000000000E+00 -0.00000000000E+00 -0.20371315508E+02  0.20371315508E+02  0.00000000000E+00 0.  1.
         21    1    1    2  503  505  0.48024370611E+02  0.22274143027E+02  0.15167279717E+04  0.15176515469E+04  0.00000000000E+00 0.  1.
         21    1    1    2  504  501  0.22582935723E+01 -0.98471381525E+02  0.90064666438E+03  0.90601662618E+03  0.00000000000E+00 0.  1.
         21    1    1    2  505  504  0.39965355117E+02 -0.23310044836E+02  0.47693745292E+03  0.47917629512E+03  0.00000000000E+00 0.  1.
          4    1    1    2  501    0 -0.90248019300E+02  0.99507283334E+02  0.26402935607E+03  0.29623960791E+03  0.00000000000E+00 0.  1.
<scales pt_clust_3="52.93843" pt_clust_4="45.50256" pt_clust_5="45.50256" pt_clust_6="131.95449"></scales>
<clustering>
<clus scale="   45.503">  4  5 -1 -1</clus>
<clus scale="   52.938">  1  3  2 -1</clus>
<clus scale="  131.954">  2  6  1 -1</clus>
<clus scale="   52.938">  1  3  2 -1</clus>
</clustering>
</event>
<event>
 6    0  0.5775861E+002  0.1318902E+03  0.7546771E-02  0.1224678E+00
          2   -1    0    0  505    0 -0.00000000000E+00  0.00000000000E+00  0.13789676904E+04  0.13789676904E+04  0.00000000000E+00 0. -1.
         21   -1    0    0  503  502  0.00000000000E+00 -0.00000000000E+00 -0.27373154288E+03  0.27373154288E+03  0.00000000000E+00 0.  1.
         21    1    1    2  503  504  0.10423912708E+03 -0.85843956094E+02  0.85035281225E+02  0.15958063625E+03  0.00000000000E+00 0.  1.
         21    1    1    2  504  501 -0.45492481921E+02  0.18462402810E+02  0.77159849894E+01  0.49698718829E+02  0.00000000000E+00 0. -1.
         21    1    1    2  505  502 -0.76078158489E+02  0.10793550594E+03 -0.19479428512E+03  0.23533544815E+03  0.00000000000E+00 0.  1.
          2    1    1    2  501    0  0.17331513335E+02 -0.40553952653E+02  0.12072791664E+04  0.12080844300E+04  0.00000000000E+00 0. -1.
<scales pt_clust_3="14000.00000" pt_clust_4="44.15656" pt_clust_5="131.89024" pt_clust_6="44.10220"></scales>
<clustering>
<clus scale="   44.102">  1  6  2 -1</clus>
<clus scale="   44.157">  1  4  2 -1</clus>
<clus scale="  131.890">  2  5  1 -1</clus>
<clus scale="  131.890">  2  3  1 -1</clus>
</clustering>
</event>
<event>
 6    0  0.5775861E+002  0.6056994E+02  0.7546771E-02  0.1395455E+00
         21   -1    0    0  505  502  0.00000000000E+00  0.00000000000E+00  0.44946278704E+03  0.44946278704E+03  0.00000000000E+00 0. -1.
          4   -1    0    0  503    0 -0.00000000000E+00 -0.00000000000E+00 -0.23401974859E+03  0.23401974859E+03  0.00000000000E+00 0. -1.
         21    1    1    2  503  504 -0.93476941495E+02  0.34056870601E+02 -0.50231166831E+02  0.11144944660E+03  0.00000000000E+00 0. -1.
         21    1    1    2  504  502  0.21404169188E+02  0.43684458129E+02  0.34000507341E+03  0.34346749523E+03  0.00000000000E+00 0. -1.
         21    1    1    2  505  501  0.26735796375E+02 -0.47898321907E+02  0.61429703811E+02  0.82356909605E+02  0.00000000000E+00 0. -1.
          4    1    1    2  501    0  0.45336975932E+02 -0.29843006823E+02 -0.13576057193E+03  0.14620868419E+03  0.00000000000E+00 0. -1.
<scales pt_clust_3="14000.00000" pt_clust_4="48.64638" pt_clust_5="45.10017" pt_clust_6="60.56994"></scales>
<clustering>
<clus scale="   48.646">  1  4  2 -1</clus>
<clus scale="   45.100">  1  5  2 -1</clus>
<clus scale="   60.570">  2  6  1 -1</clus>
<clus scale="   48.646">  1  3  2 -1</clus>
</clustering>
</event>
<event>
 6    0  0.5775861E+002  0.1264924E+03  0.7546771E-02  0.1232755E+00
         21   -1    0    0  504  502  0.00000000000E+00  0.00000000000E+00  0.92653876906E+02  0.92653876906E+02  0.00000000000E+00 0. -1.
          2   -1    0    0  505    0 -0.00000000000E+00 -0.00000000000E+00 -0.26624096172E+04  0.26624096172E+04  0.00000000000E+00 0.  1.
         21    1    1    2  503  502 -0.49513287591E+02 -0.17743643251E+02  0.61842599615E+02  0.81184417538E+02  0.00000000000E+00 0. -1.
         21    1    1    2  504  501  0.45226223903E+02  0.91547662851E+02 -0.62565770212E+03  0.63393528544E+03  0.00000000000E+00 0.  1.
         21    1    1    2  505  503 -0.57604193931E+02 -0.10044993281E+03 -0.18830309636E+03  0.22105765822E+03  0.00000000000E+00 0.  1.
          2    1    1    2  501    0  0.61891257619E+02  0.26645913213E+02 -0.18176375414E+04  0.18188861329E+04  0.00000000000E+00 0.  1.
<scales pt_clust_3="52.59660" pt_clust_4="126.49241" pt_clust_5="14000.00000" pt_clust_6="65.83334"></scales>
<clustering>
<clus scale="   52.597">  1  3  2 -1</clus>
<clus scale="   65.833">  2  6  1 -1</clus>
<clus scale="  126.492">  2  4  1 -1</clus>
<clus scale="   52.597">  1  3  2 -1</clus>
</clustering>
</event>
<event>
 6    0  0.5775861E+002  0.2012784E+03  0.7546771E-02  0.1148665E+00
         21   -1    0    0  501  502  0.00000000000E+00  0.00000000000E+00  0.13691281477E+03  0.13691281477E+03  0.00000000000E+00 0. -1.
          2   -1    0    0  503    0 -0.00000000000E+00 -0.00000000000E+00 -0.76661205540E+03  0.76661205540E+03  0.00000000000E+00 0. -1.
         21    1    1    2  503  504 -0.19034410642E+03  0.46094561000E+02 -0.72733908636E-01  0.19584583910E+03  0.00000000000E+00 0. -1.
         21    1    1    2  504  505  0.60589500401E-01 -0.33723354988E+02 -0.26440795095E+02  0.42853051093E+02  0.00000000000E+00 0. -1.
         21    1    1    2  505  502 -0.71627341362E+01  0.31239658508E+02 -0.38277648521E+01  0.32278054585E+02  0.00000000000E+00 0. -1.
          2    1    1    2  501    0  0.19744625105E+03 -0.43610864520E+02 -0.59935794677E+03  0.63254792539E+03  0.00000000000E+00 0. -1.
<scales pt_clust_3="14000.00000" pt_clust_4="31.63662" pt_clust_5="32.05029" pt_clust_6="201.27835"></scales>
<clustering>
<clus scale="   32.050">  1  5  2 -1</clus>
<clus scale="   31.637">  1  4  2 -1</clus>
<clus scale="  201.278">  2  6  1 -1</clus>
<clus scale="   32.050">  1  3  2 -1</clus>
</clustering>
</event>
<event>
 6    0  0.5775861E+002  0.1029847E+03  0.7546771E-02  0.1274142E+00
         21   -1    0    0  503  502  0.00000000000E+00  0.00000000000E+00  0.36286493872E+03  0.36286493872E+03  0.00000000000E+00 0. -1.
          1   -1    0    0  505    0 -0.00000000000E+00 -0.00000000000E+00 -0.16287811552E+04  0.16287811552E+04  0.00000000000E+00 0.  1.
         21    1    1    2  503  501 -0.50045682108E+01 -0.72041197843E+02 -0.42909681423E+02  0.84001313379E+02  0.00000000000E+00 0.  1.
         21    1    1    2  504  502 -0.19806592807E+02 -0.38631717908E+02  0.33689761494E+03  0.33968325496E+03  0.00000000000E+00 0. -1.
         21    1    1    2  505  504  0.50519189442E+02  0.86100021484E+02 -0.67487961743E+03  0.68222276437E+03  0.00000000000E+00 0.  1.
          1    1    1    2  501    0 -0.25708028425E+02  0.24572894267E+02 -0.88502453252E+03  0.88573876116E+03  0.00000000000E+00 0.  1.
<scales pt_clust_3="102.98473" pt_clust_4="43.39431" pt_clust_5="14000.00000" pt_clust_6="35.56304"></scales>
<clustering>
<clus scale="   35.563">  2  6  1 -1</clus>
<clus scale="   43.394">  1  4  2 -1</clus>
<clus scale="  102.985">  1  3  2 -1</clus>
<clus scale="   43.394">  1  3  2 -1</clus>
</clustering>
</event>
<event>
 6    0  0.5775861E+002  0.1133665E+03  0.7546771E-02  0.1254460E+00
         21   -1    0    0  501  502  0.00000000000E+00  0.00000000000E+00  0.23496259689E+04  0.23496259689E+04  0.00000000000E+00 0.  1.
          4   -1    0    0  503    0 -0.00000000000E+00 -0.00000000000E+00 -0.18813345123E+03  0.18813345123E+03  0.00000000000E+00 0.  1.
         21    1    1    2  503  505  0.64007560256E+02  0.40917784892E+01  0.15251509880E+02  0.65926618105E+02  0.00000000000E+00 0.  1.
         21    1    1    2  504  502 -0.60246829417E+02  0.82904013099E+02  0.13891771760E+04  0.13929522541E+04  0.00000000000E+00 0.  1.
         21    1    1    2  505  504 -0.36048689101E+02 -0.14768010304E+03  0.90398316297E+03  0.91667577679E+03  0.00000000000E+00 0.  1.
          4    1    1    2  501    0  0.32287958262E+02  0.60684311456E+02 -0.14691933119E+03  0.16220477115E+03  0.00000000000E+00 0.  1.
<scales pt_clust_3="64.13821" pt_clust_4="102.08698" pt_clust_5="14000.00000" pt_clust_6="113.36655"></scales>
<clustering>
<clus scale="   64.138">  2  3  1 -1</clus>
<clus scale="  102.087">  1  4  2 -1</clus>
<clus scale="  113.367">  2  6  1 -1</clus>
<clus scale="  102.087">  1  3  2 -1</clus>
</clustering>
</event>
<event>
 6    0  0.5775861E+002  0.1140517E+03  0.7546771E-02  0.1253245E+00
          1   -1    0    0  505    0 -0.00000000000E+00  0.00000000000E+00  0.60671015684E+03  0.60671015684E+03  0.00000000000E+00 0. -1.
         21   -1    0    0  501  502  0.00000000000E+00 -0.00000000000E+00 -0.17329172276E+03  0.17329172276E+03  0.00000000000E+00 0.  1.
         21    1    1    2  503  502  0.94077335166E+02 -0.10290714262E+03 -0.10312481912E+03  0.17342189399E+03  0.00000000000E+00 0.  1.
         21    1    1    2  504  503 -0.18575550253E+02  0.80187323503E+02  0.23802677744E+02  0.85683285334E+02  0.00000000000E+00 0.  1.
         21    1    1    2  505  504 -0.43408313112E+02  0.19630382026E+02  0.16718763118E+03  0.17384285308E+03  0.00000000000E+00 0. -1.
          1    1    1    2  501    0 -0.32093471800E+02  0.30894370939E+01  0.34555294428E+03  0.34705384720E+03  0.00000000000E+00 0. -1.
<scales pt_clust_3="14000.00000" pt_clust_4="114.05175" pt_clust_5="67.96485" pt_clust_6="32.24183"></scales>
<clustering>
<clus scale="   32.242">  1  6  2 -1</clus>
<clus scale="   67.965">  1  5  2 -1</clus>
<clus scale="  114.052">  1  4  2 -1</clus>
<clus scale="  114.052">  2  3  1 -1</clus>
</clustering>
</event>
<event>
 6    0  0.5775861E+002  0.2269933E+03  0.7546771E-02  0.1128774E+00
          2   -1    0    0  505    0 -0.00000000000E+00  0.00000000000E+00  0.30440829173E+03  0.30440829173E+03  0.00000000000E+00 0. -1.
         21   -1    0    0  504  502  0.00000000000E+00 -0.00000000000E+00 -0.42288048183E+03  0.42288048183E+03  0.00000000000E+00 0.  1.
         21    1    1    2  503  501 -0.55160574398E+02 -0.11411855806E+03 -0.24210585105E+03  0.27327820508E+03  0.00000000000E+00 0.  1.
         21    1    1    2  504  503 -0.28792925824E+02 -0.84127788181E+02 -0.78232408411E+02  0.11843490637E+03  0.00000000000E+00 0.  1.
         21    1    1    2  505  502 -0.37881879870E+02  0.35601049892E+01  0.34910503091E+02  0.51637722607E+02  0.00000000000E+00 0.  1.
          2    1    1    2  501    0  0.12183538009E+03  0.19468624125E+03  0.16695556627E+03  0.28393793949E+03  0.00000000000E+00 0. -1.
<scales pt_clust_3="56.06616" pt_clust_4="56.06616" pt_clust_5="38.04880" pt_clust_6="216.91749"></scales>
<clustering>
<clus scale="   38.049">  1  5  2 -1</clus>
<clus scale="   56.066">  3  4 -1 -1</clus>
<clus scale="  216.917">  1  6  2 -1</clus>
<clus scale="  226.993">  2  3  1 -1</clus>
</clustering>
</event>
<event>
 6    0  0.5775861E+002  0.1026507E+03  0.7546771E-02  0.1274819E+00
         21   -1    0    0  503  502  0.00000000000E+00  0.00000000000E+00  0.28907271887E+03  0.28907271887E+03  0.00000000000E+00 0.  1.
          2   -1    0    0  505    0 -0.00000000000E+00 -0.00000000000E+00 -0.21301029280E+03  0.21301029280E+03  0.00000000000E+00 0.  1.
         21    1    1    2  503  501 -0.11623292559E+03 -0.30020220780E+02 -0.45038126036E+02  0.12821754733E+03  0.00000000000E+00 0.  1.
         21    1    1    2  504  502  0.28563613214E+02  0.42781779630E+02  0.15247418859E+03  0.16091780154E+03  0.00000000000E+00 0.  1.
         21    1    1    2  505  504  0.67554778751E+02  0.28735464046E+02  0.70088340125E+02  0.10149753912E+03  0.00000000000E+00 0.  1.
          2    1    1    2  501    0  0.20114533626E+02 -0.41497022896E+02 -0.10146197660E+03  0.11145012368E+03  0.00000000000E+00 0.  1.
<scales pt_clust_3="14000.00000" pt_clust_4="50.54055" pt_clust_5="102.65073" pt_clust_6="46.11504"></scales>
<clustering>
<clus scale="   46.115">  2  6  1 -1</clus>
<clus scale="   50.541">  1  4  2 -1</clus>
<clus scale="  102.651">  1  5  2 -1</clus>
<clus scale="   50.541">  1  3  2 -1</clus>
</clustering>
</event>
<event>
 6    0  0.5775861E+002  0.1127175E+03  0.7546771E-02  0.1255619E+00
          2   -1    0    0  504    0 -0.00000000000E+00  0.00000000000E+00  0.47219425456E+04  0.47219425456E+04  0.00000000000E+00 0. -1.
         21   -1    0    0  503  502  0.00000000000E+00 -0.00000000000E+00 -0.86342229999E+01  0.86342229999E+01  0.00000000000E+00 0. -1.
         21    1    1    2  503  505 -0.13386916702E+02 -0.28582187956E+02  0.17892497681E+03  0.18168736427E+03  0.00000000000E+00 0.  1.
         21    1    1    2  504  502  0.11016216907E+03  0.69670733932E+02  0.97425113306E+03  0.98293183127E+03  0.00000000000E+00 0. -1.
         21    1    1    2  505  501 -0.27279636434E+02  0.44266679034E+02  0.34076470781E+03  0.34470901283E+03  0.00000000000E+00 0. -1.
          2    1    1    2  501    0 -0.69495615930E+02 -0.85355225010E+02  0.32193675049E+04  0.32212485602E+04  0.00000000000E+00 0. -1.
<scales pt_clust_3="31.56186" pt_clust_4="14000.00000" pt_clust_5="47.83207" pt_clust_6="112.71747"></scales>
<clustering>
<clus scale="   31.562">  2  3  1 -1</clus>
<clus scale="   47.832">  2  5  1 -1</clus>
<clus scale="  112.717">  1  6  2 -1</clus>
<clus scale="   31.562">  2  3  1 -1</clus>
</clustering>
</event>
<event>
 6    0  0.5775861E+002  0.2107737E+03  0.7546771E-02  0.1140955E+00
          1   -1    0    0  502    0 -0.00000000000E+00  0.00000000000E+00  0.16113274185E+03  0.16113274185E+03  0.00000000000E+00 0. -1.
         21   -1    0    0  505  502  0.00000000000E+00 -0.00000000000E+00 -0.83348532839E+03  0.83348532839E+03  0.00000000000E+00 0. -1.
         21    1    1    2  503  504 -0.12507165592E+03  0.10705905817E+03 -0.40349442357E+03  0.43578929646E+03  0.00000000000E+00 0. -1.
         21    1    1    2  504  501  0.11121445628E+03 -0.69686840140E+02  0.15391592108E+02  0.13214314997E+03  0.00000000000E+00 0. -1.
         21    1    1    2  505  503 -0.70465947454E+02 -0.22063660627E+02 -0.32393324882E+03  0.33224238827E+03  0.00000000000E+00 0. -1.
          1    1    1    2  501    0  0.84323147092E+02 -0.15308557405E+02  0.39683493750E+02  0.94443235552E+02  0.00000000000E+00 0. -1.
<scales pt_clust_3="203.90343" pt_clust_4="43.13180" pt_clust_5="73.83939" pt_clust_6="43.13180"></scales>
<clustering>
<clus scale="   43.132">  4  6 -1 -1</clus>
<clus scale="   73.839">  2  5  1 -1</clus>
<clus scale="  203.903">  2  3  1 -1</clus>
<clus scale="   73.839">  2  3  1 -1</clus>
</clustering>
</event>
<event>
 6    0  0.5775861E+002  0.1448372E+03  0.7546771E-02  0.1206964E+00
         21   -1    0    0  504  502  0.00000000000E+00  0.00000000000E+00  0.17905900682E+04  0.17905900682E+04  0.00000000000E+00 0. -1.
          1   -1    0    0  503    0 -0.00000000000E+00 -0.00000000000E+00 -0.58388087307E+02  0.58388087307E+02  0.00000000000E+00 0. -1.
         21    1    1    2  503  505 -0.55954970624E+02 -0.13228082561E+03  0.49807045475E+03  0.51836604196E+03  0.00000000000E+00 0. -1.
         21    1    1    2  504  501 -0.27739515482E+01  0.15534319819E+03  0.72824914685E+03  0.74463818322E+03  0.00000000000E+00 0. -1.
         21    1    1    2  505  502  0.10158542573E+03 -0.37057682662E+02  0.52571497968E+03  0.53672070057E+03  0.00000000000E+00 0. -1.
          1    1    1    2  501    0 -0.42856503553E+02  0.13995310078E+02 -0.19832600399E+02  0.49253229737E+02  0.00000000000E+00 0. -1.
<scales pt_clust_3="14000.00000" pt_clust_4="144.83716" pt_clust_5="97.73609" pt_clust_6="45.08380"></scales>
<clustering>
<clus scale="   45.084">  2  6  1 -1</clus>
<clus scale="   97.736">  1  5  2 -1</clus>
<clus scale="  144.837">  1  4  2 -1</clus>
<clus scale="   97.736">  1  3  2 -1</clus>
</clustering>
</event>
<event>
 6    0  0.5775861E+002  0.1597546E+03  0.7546771E-02  0.1188974E+00
          2   -1    0    0  504    0 -0.00000000000E+00  0.00000000000E+00  0.17066982229E+04  0.17066982229E+04  0.00000000000E+00 0. -1.
         21   -1    0    0  503  502  0.00000000000E+00 -0.00000000000E+00 -0.12704443660E+02  0.12704443660E+02  0.00000000000E+00 0. -1.
         21    1    1    2  503  505  0.44285614340E+01 -0.41622620572E+02  0.25765447354E+03  0.26103233983E+03  0.00000000000E+00 0. -1.
         21    1    1    2  504  502 -0.11048239374E+03  0.73812465668E+02  0.67371161617E+03  0.68668914450E+03  0.00000000000E+00 0. -1.
         21    1    1    2  505  501  0.41228640882E+02 -0.31928390378E+02  0.38758942612E+03  0.39108155950E+03  0.00000000000E+00 0. -1.
          2    1    1    2  501    0  0.64825191427E+02 -0.26145471852E+00  0.37503826345E+03  0.38059962277E+03  0.00000000000E+00 0. -1.
<scales pt_clust_3="33.74371" pt_clust_4="132.87076" pt_clust_5="63.87166" pt_clust_6="63.87166"></scales>
<clustering>
<clus scale="   33.744">  3  5 -1 -1</clus>
<clus scale="   63.872">  3  6 -1 -1</clus>
<clus scale="  132.871">  2  4  1 -1</clus>
<clus scale="  132.871">  2  3  1 -1</clus>
</clustering>
</event>
<event>
 6    0  0.5775861E+002  0.2232644E+03  0.7546771E-02  0.1131472E+00
         21   -1    0    0  504  502  0.00000000000E+00  0.00000000000E+00  0.99047714292E+03  0.99047714292E+03  0.00000000000E+00 0.  1.
          2   -1    0    0  505    0 -0.00000000000E+00 -0.00000000000E+00 -0.10547564282E+04  0.10547564282E+04  0.00000000000E+00 0.  1.
         21    1    1    2  503  502  0.27761265234E+02 -0.65498335812E+02  0.57743809188E+03  0.58180363508E+03  0.00000000000E+00 0.  1.
         21    1    1    2  504  501  0.18432972294E+03 -0.13780744047E+01  0.31262532734E+03  0.36292415343E+03  0.00000000000E+00 0.  1.
         21    1    1    2  505  503 -0.30405100172E+03  0.42605118353E+02 -0.26779630559E+03  0.40740283387E+03  0.00000000000E+00 0.  1.
          2    1    1    2  501    0  0.91960013543E+02  0.24271291864E+02 -0.68654639891E+03  0.69310294875E+03  0.00000000000E+00 0.  1.
<scales pt_clust_3="71.13874" pt_clust_4="14000.00000" pt_clust_5="223.26437" pt_clust_6="95.19156"></scales>
<clustering>
<clus scale="   71.139">  1  3  2 -1</clus>
<clus scale="   95.192">  2  6  1 -1</clus>
<clus scale="  223.264">  2  5  1 -1</clus>
<clus scale="   71.139">  1  3  2 -1</clus>
</clustering>
</event>
<event>
 6    0  0.5775861E+002  0.8836959E+02  0.7546771E-02  0.1306849E+00
         21   -1    0    0  503  502  0.00000000000E+00  0.00000000000E+00  0.18420248999E+04  0.18420248999E+04  0.00000000000E+00 0. -1.
          3   -1    0    0  502    0 -0.00000000000E+00 -0.00000000000E+00 -0.51812582019E+02  0.51812582019E+02  0.00000000000E+00 0. -1.
         21    1    1    2  503  505  0.38418069044E+02 -0.46747462093E+02  0.91268527129E+03  0.91468884199E+03  0.00000000000E+00 0. -1.
         21    1    1    2  504  501 -0.31411263289E+02  0.10820832530E+03  0.48775705289E+03  0.50060228902E+03  0.00000000000E+00 0. -1.
         21    1    1    2  505  504 -0.76483893127E+02 -0.76235578044E+01  0.38272789295E+03  0.39036975367E+03  0.00000000000E+00 0. -1.
          3    1    1    2  501    0  0.69477087372E+02 -0.53837305408E+02  0.70421007932E+01  0.88176597274E+02  0.00000000000E+00 0. -1.
<scales pt_clust_3="60.50846" pt_clust_4="14000.00000" pt_clust_5="66.27579" pt_clust_6="88.36959"></scales>
<clustering>
<clus scale="   60.508">  1  3  2 -1</clus>
<clus scale="   66.276">  1  5  2 -1</clus>
<clus scale="   88.370">  2  6  1 -1</clus>
<clus scale="   60.508">  1  3  2 -1</clus>
</clustering>
</event>
<event>
 6    0  0.5775861E+002  0.2530777E+03  0.7546771E-02  0.1111375E+00
          2   -1    0    0  505    0 -0.00000000000E+00  0.00000000000E+00  0.29262095133E+04  0.29262095133E+04  0.00000000000E+00 0. -1.
         21   -1    0    0  503  502  0.00000000000E+00 -0.00000000000E+00 -0.17599028935E+03  0.17599028935E+03  0.00000000000E+00 0. -1.
         21    1    1    2  503  504  0.33333219555E+02 -0.30692023840E+02 -0.11222021917E+03  0.12102264848E+03  0.00000000000E+00 0. -1.
         21    1    1    2  504  501 -0.52511630164E+02  0.24896284532E+02  0.55829409710E+00  0.58117191762E+02  0.00000000000E+00 0. -1.
         21    1    1    2  505  502  0.57205534526E+02 -0.24616360753E+03  0.21891179612E+04  0.22036575149E+04  0.00000000000E+00 0. -1.
          2    1    1    2  501    0 -0.38027123917E+02  0.25195934683E+03  0.67276318778E+03  0.71940244748E+03  0.00000000000E+00 0. -1.
<scales pt_clust_3="45.31119" pt_clust_4="37.70826" pt_clust_5="14000.00000" pt_clust_6="253.07770"></scales>
<clustering>
<clus scale="   45.311">  2  3  1 -1</clus>
<clus scale="   37.708">  2  4  1 -1</clus>
<clus scale="  253.078">  2  6  1 -1</clus>
<clus scale="   45.311">  2  3  1 -1</clus>
</clustering>
</event>
<event>
 6    0  0.5775861E+002  0.8911937E+02  0.7546771E-02  0.1304998E+00
          2   -1    0    0  505    0 -0.00000000000E+00  0.00000000000E+00  0.17960181143E+04  0.17960181143E+04  0.00000000000E+00 0.  1.
         21   -1    0    0  504  502  0.00000000000E+00 -0.00000000000E+00 -0.39373729093E+02  0.39373729093E+02  0.00000000000E+00 0. -1.
         21    1    1    2  503  501  0.75275838711E+02  0.90036382780E+02  0.58601885815E+03  0.59765466971E+03  0.00000000000E+00 0.  1.
         21    1    1    2  504  503 -0.30289570310E+02 -0.43363230921E+02  0.52584932835E+01  0.53155240730E+02  0.00000000000E+00 0. -1.
         21    1    1    2  505  502 -0.53936893494E+02  0.54315781800E+00  0.71025897056E+02  0.89186106277E+02  0.00000000000E+00 0. -1.
          2    1    1    2  501    0  0.89506250931E+01 -0.47216309677E+02  0.10943411368E+04  0.10953958267E+04  0.00000000000E+00 0.  1.
<scales pt_clust_3="89.11937" pt_clust_4="14000.00000" pt_clust_5="53.13621" pt_clust_6="48.05719"></scales>
<clustering>
<clus scale="   48.057">  1  6  2 -1</clus>
<clus scale="   53.136">  2  5  1 -1</clus>
<clus scale="   89.119">  1  3  2 -1</clus>
<clus scale="   53.136">  2  3  1 -1</clus>
</clustering>
</event>
<event>
 6    0  0.5775861E+002  0.1124028E+03  0.7546771E-02  0.1256184E+00
          2   -1    0    0  503    0 -0.00000000000E+00  0.00000000000E+00  0.13921841549E+04  0.13921841549E+04  0.00000000000E+00 0.  1.
         21   -1    0    0  505  502  0.00000000000E+00 -0.00000000000E+00 -0.71499539883E+02  0.71499539883E+02  0.00000000000E+00 0.  1.
         21    1    1    2  503  502 -0.48664325483E+02  0.54616314183E+02  0.82031089938E+01  0.73610117150E+02  0.00000000000E+00 0.  1.
         21    1    1    2  504  501  0.10827075492E+03 -0.13973642861E+03  0.30011795140E+03  0.34830964759E+03  0.00000000000E+00 0.  1.
         21    1    1    2  505  504  0.96910842778E+01  0.51655212228E+02  0.39207349925E+02  0.65569767065E+02  0.00000000000E+00 0.  1.
          2    1    1    2  501    0 -0.69297513716E+02  0.33464902205E+02  0.97315620469E+03  0.97619416296E+03  0.00000000000E+00 0.  1.
<scales pt_clust_3="14000.00000" pt_clust_4="112.40276" pt_clust_5="52.55643" pt_clust_6="77.32389"></scales>
<clustering>
<clus scale="   52.556">  2  5  1 -1</clus>
<clus scale="   77.324">  1  6  2 -1</clus>
<clus scale="  112.403">  1  4  2 -1</clus>
<clus scale="   52.556">  2  3  1 -1</clus>
</clustering>
</event>
<event>
 6    0  0.5775861E+002  0.1154987E+03  0.7546771E-02  0.1250713E+00
          1   -1    0    0  505    0 -0.00000000000E+00  0.00000000000E+00  0.96667315242E+03  0.96667315242E+03  0.00000000000E+00 0. -1.
         21   -1    0    0  503  502  0.00000000000E+00 -0.00000000000E+00 -0.10817026991E+03  0.10817026991E+03  0.00000000000E+00 0. -1.
         21    1    1    2  503  504 -0.38176534371E+02 -0.23733166964E+02 -0.36088082633E+02  0.57645994647E+02  0.00000000000E+00 0. -1.
         21    1    1    2  504  501 -0.25794440694E+02 -0.22148451049E+02  0.52609821327E+01  0.34403270012E+02  0.00000000000E+00 0. -1.
         21    1    1    2  505  502  0.13487895894E+03  0.12849359799E+03  0.16054433759E+03  0.24592157820E+03  0.00000000000E+00 0. -1.
          1    1    1    2  501    0 -0.70907983878E+02 -0.82611979978E+02  0.72878564541E+03  0.73687257947E+03  0.00000000000E+00 0. -1.
<scales pt_clust_3="86.73383" pt_clust_4="31.66064" pt_clust_5="14000.00000" pt_clust_6="115.49873"></scales>
<clustering>
<clus scale="   31.661">  3  4 -1 -1</clus>
<clus scale="   86.734">  2  3  1 -1</clus>
<clus scale="  115.499">  1  6  2 -1</clus>
<clus scale="   86.734">  2  3  1 -1</clus>
</clustering>
</event>
<event>
 6    0  0.5775861E+002  0.1201768E+03  0.7546771E-02  0.1242806E+00
         21   -1    0    0  503  502  0.00000000000E+00  0.00000000000E+00  0.10110712691E+03  0.10110712691E+03  0.00000000000E+00 0. -1.
          2   -1    0    0  505    0 -0.00000000000E+00 -0.00000000000E+00 -0.11803038428E+04  0.11803038428E+04  0.00000000000E+00 0. -1.
         21    1    1    2  503  504 -0.80658355946E+02 -0.90037376271E+01 -0.97071564574E+02  0.12652954724E+03  0.00000000000E+00 0. -1.
         21    1    1    2  504  501 -0.14801223781E+02  0.10545054099E+03  0.42378629594E+02  0.11460733426E+03  0.00000000000E+00 0. -1.
         21    1    1    2  505  502  0.83682559577E+02 -0.22731767665E+01 -0.40706484441E+03  0.41558359648E+03  0.00000000000E+00 0. -1.
          2    1    1    2  501    0  0.11777020151E+02 -0.94173626593E+02 -0.61743893652E+03  0.62469049175E+03  0.00000000000E+00 0. -1.
<scales pt_clust_3="81.15934" pt_clust_4="14000.00000" pt_clust_5="79.75153" pt_clust_6="120.17681"></scales>
<clustering>
<clus scale="   81.159">  1  3  2 -1</clus>
<clus scale="   79.752">  2  5  1 -1</clus>
<clus scale="  120.177">  2  6  1 -1</clus>
<clus scale="   81.159">  1  3  2 -1</clus>
</clustering>
</event>
<event>
 6    0  0.5775861E+002  0.1129960E+03  0.7546771E-02  0.1255120E+00
         21   -1    0    0  504  502  0.00000000000E+00  0.00000000000E+00  0.19217756643E+03  0.19217756643E+03  0.00000000000E+00 0.  1.
         -1   -1    0    0    0  501 -0.00000000000E+00 -0.00000000000E+00 -0.25759091986E+03  0.25759091986E+03  0.00000000000E+00 0. -1.
         21    1    1    2  503  502 -0.11659932614E+03  0.61215881393E+02  0.14676784310E+02  0.13250733938E+03  0.00000000000E+00 0.  1.
         21    1    1    2  504  505  0.61034588278E+02  0.17898884111E+02  0.68490485402E+02  0.93469447465E+02  0.00000000000E+00 0.  1.
         21    1    1    2  505  501  0.61919343497E+02 -0.11227501779E+03 -0.91661659108E+02  0.15761200611E+03  0.00000000000E+00 0.  1.
         -1    1    1    2    0  503 -0.63546056309E+01  0.33160252284E+02 -0.56918964034E+02  0.66179693343E+02  0.00000000000E+00 0. -1.
<scales pt_clust_3="112.99601" pt_clust_4="63.84689" pt_clust_5="14000.00000" pt_clust_6="33.76364"></scales>
<clustering>
<clus scale="   33.764">  2  6  1 -1</clus>
<clus scale="   63.847">  1  4  2 -1</clus>
<clus scale="  112.996">  1  3  2 -1</clus>
<clus scale="   63.847">  1  3  2 -1</clus>
</clustering>
</event>
<event>
 6    0  0.5775861E+002  0.1209405E+03  0.7546771E-02  0.1241554E+00
          2   -1    0    0  505    0 -0.00000000000E+00  0.00000000000E+00  0.22150468299E+04  0.22150468299E+04  0.00000000000E+00 0.  1.
         21   -1    0    0  503  502  0.00000000000E+00 -0.00000000000E+00 -0.22722388848E+03  0.22722388848E+03  0.00000000000E+00 0. -1.
         21    1    1    2  503  501  0.64923766583E+02  0.26808407522E+02 -0.55175316287E+02  0.89320220043E+02  0.00000000000E+00 0. -1.
         21    1    1    2  504  502  0.62930018818E+02 -0.34343976851E+02 -0.13738189848E+03  0.15496284085E+03  0.00000000000E+00 0. -1.
         21    1    1    2  505  504 -0.94809398534E+02  0.53819924708E+02  0.34694047850E+03  0.36366619580E+03  0.00000000000E+00 0.  1.
          2    1    1    2  501    0 -0.33044386866E+02 -0.46284355379E+02  0.18334396777E+04  0.18343214617E+04  0.00000000000E+00 0.  1.
<scales pt_clust_3="68.09508" pt_clust_4="120.94050" pt_clust_5="14000.00000" pt_clust_6="56.86979"></scales>
<clustering>
<clus scale="   56.870">  1  6  2 -1</clus>
<clus scale="   68.095">  2  3  1 -1</clus>
<clus scale="  120.941">  2  4  1 -1</clus>
<clus scale="   68.095">  2  3  1 -1</clus>
</clustering>
</event>
<event>
 6    0  0.5775861E+002  0.9902479E+02  0.7546771E-02  0.1282360E+00
          1   -1    0    0  503    0 -0.00000000000E+00  0.00000000000E+00  0.14202473322E+04  0.14202473322E+04  0.00000000000E+00 0.  1.
         21   -1    0    0  504  502  0.00000000000E+00 -0.00000000000E+00 -0.13350585333E+03  0.13350585333E+03  0.00000000000E+00 0. -1.
         21    1    1    2  503  502 -0.21058756298E+01  0.11223554832E+03  0.18368806328E+01  0.11227033068E+03  0.00000000000E+00 0. -1.
         21    1    1    2  504  505  0.41536231032E+02 -0.14521801963E+02 -0.52365748552E+02  0.68398193266E+02  0.00000000000E+00 0.  1.
         21    1    1    2  505  501 -0.57395945151E+02 -0.73668618136E+00  0.35304978100E+02  0.67389010269E+02  0.00000000000E+00 0. -1.
          1    1    1    2  501    0  0.17965589749E+02 -0.96977060179E+02  0.13019653687E+04  0.13056956513E+04  0.00000000000E+00 0.  1.
<scales pt_clust_3="99.02479" pt_clust_4="44.00160" pt_clust_5="48.44274" pt_clust_6="14000.00000"></scales>
<clustering>
<clus scale="   44.002">  2  4  1 -1</clus>
<clus scale="   48.443">  2  5  1 -1</clus>
<clus scale="   99.025">  2  3  1 -1</clus>
<clus scale="   44.002">  2  3  1 -1</clus>
</clustering>
</event>
<event>
 6    0  0.5775861E+002  0.2192984E+03  0.7546771E-02  0.1134407E+00
         21   -1    0    0  504  502  0.00000000000E+00  0.00000000000E+00  0.26751036606E+04  0.26751036606E+04  0.00000000000E+00 0.  1.
          2   -1    0    0  502    0 -0.00000000000E+00 -0.00000000000E+00 -0.29859596147E+04  0.29859596147E+04  0.00000000000E+00 0. -1.
         21    1    1    2  503  505 -0.11498948102E+03  0.12415765982E+03  0.17114071944E+04  0.17197535551E+04  0.00000000000E+00 0.  1.
         21    1    1    2  504  503 -0.44784801702E+02  0.12099421759E+02  0.82177691979E+03  0.82308528134E+03  0.00000000000E+00 0.  1.
         21    1    1    2  505  501  0.16522044370E+03 -0.82385997188E+02  0.74569489461E+02  0.19911267239E+03  0.00000000000E+00 0.  1.
          2    1    1    2  501    0 -0.54461609732E+01 -0.53871084396E+02 -0.29186095578E+04  0.29191117665E+04  0.00000000000E+00 0. -1.
<scales pt_clust_3="36.70181" pt_clust_4="36.70181" pt_clust_5="207.79319" pt_clust_6="54.14568"></scales>
<clustering>
<clus scale="   36.702">  3  4 -1 -1</clus>
<clus scale="   54.146">  2  6  1 -1</clus>
<clus scale="  207.793">  2  5  1 -1</clus>
<clus scale="  219.298">  1  3  2 -1</clus>
</clustering>
</event>
<event>
 6    0  0.5775861E+002  0.9603057E+02  0.7546771E-02  0.1288872E+00
         21   -1    0    0  503  502  0.00000000000E+00  0.00000000000E+00  0.53500103150E+03  0.53500103150E+03  0.00000000000E+00 0.  1.
         -2   -1    0    0    0  501 -0.00000000000E+00 -0.00000000000E+00 -0.26856192461E+03  0.26856192461E+03  0.00000000000E+00 0.  1.
         21    1    1    2  503  501 -0.55125662799E+02  0.50089655703E+02 -0.99721463715E+01  0.75148226930E+02  0.00000000000E+00 0. -1.
         21    1    1    2  504  505  0.16900054532E+02  0.53087243094E+02  0.58305977591E+02  0.80643996958E+02  0.00000000000E+00 0.  1.
         21    1    1    2  505  502  0.60278456559E+02 -0.78599015111E+02  0.42595199280E+03  0.43731727346E+03  0.00000000000E+00 0.  1.
         -2    1    1    2    0  504 -0.22052848292E+02 -0.24577883686E+02 -0.20784671713E+03  0.21045345876E+03  0.00000000000E+00 0.  1.
<scales pt_clust_3="14000.00000" pt_clust_4="50.11686" pt_clust_5="96.03057" pt_clust_6="33.02121"></scales>
<clustering>
<clus scale="   33.021">  2  6  1 -1</clus>
<clus scale="   50.117">  2  4  1 -1</clus>
<clus scale="   96.031">  1  5  2 -1</clus>
<clus scale="   96.031">  1  3  2 -1</clus>
</clustering>
</event>
<event>
 6    0  0.5775861E+002  0.3119520E+03  0.7546771E-02  0.1079414E+00
         21   -1    0    0  505  502  0.00000000000E+00  0.00000000000E+00  0.21882278221E+04  0.21882278221E+04  0.00000000000E+00 0. -1.
          1   -1    0    0  503    0 -0.00000000000E+00 -0.00000000000E+00 -0.18372716904E+04  0.18372716904E+04  0.00000000000E+00 0. -1.
         21    1    1    2  503  504 -0.60975734530E+02 -0.76411150575E+00 -0.57700448024E+03  0.58021788518E+03  0.00000000000E+00 0.  1.
         21    1    1    2  504  502  0.34770645838E+02  0.29667125954E+02  0.74829409624E+03  0.74968872917E+03  0.00000000000E+00 0.  1.
         21    1    1    2  505  501  0.17068375773E+03 -0.26517000563E+03  0.14046910546E+04  0.14396544849E+04  0.00000000000E+00 0. -1.
          1    1    1    2  501    0 -0.14447866904E+03  0.23626699118E+03 -0.12250245389E+04  0.12559384132E+04  0.00000000000E+00 0. -1.
<scales pt_clust_3="60.94130" pt_clust_4="45.70707" pt_clust_5="311.95202" pt_clust_6="14000.00000"></scales>
<clustering>
<clus scale="   45.707">  1  4  2 -1</clus>
<clus scale="   60.941">  2  3  1 -1</clus>
<clus scale="  311.952">  1  5  2 -1</clus>
<clus scale="   45.707">  1  3  2 -1</clus>
</clustering>
</event>
<event>
 6    0  0.5775861E+002  0.1176256E+03  0.7546771E-02  0.1247066E+00
          2   -1    0    0  505    0 -0.00000000000E+00  0.00000000000E+00  0.13546328457E+04  0.13546328457E+04  0.00000000000E+00 0.  1.
         21   -1    0    0  504  502  0.00000000000E+00 -0.00000000000E+00 -0.35860772664E+03  0.35860772664E+03  0.00000000000E+00 0.  1.
         21    1    1    2  503  501 -0.51639304016E+02 -0.13261953459E+02  0.89178097337E+02  0.10390009708E+03  0.00000000000E+00 0.  1.
         21    1    1    2  504  503  0.39569058697E+01 -0.11899260517E+03 -0.32349803869E+03  0.34471129692E+03  0.00000000000E+00 0.  1.
         21    1    1    2  505  502  0.48626339543E+02  0.95559043815E+02  0.15394621681E+03  0.18760460927E+03  0.00000000000E+00 0.  1.
          2    1    1    2  501    0 -0.94394139648E+00  0.36695514815E+02  0.10763988436E+04  0.10770245691E+04  0.00000000000E+00 0.  1.
<scales pt_clust_3="51.96975" pt_clust_4="14000.00000" pt_clust_5="117.62559" pt_clust_6="36.70765"></scales>
<clustering>
<clus scale="   36.708">  1  6  2 -1</clus>
<clus scale="   51.970">  1  3  2 -1</clus>
<clus scale="  117.626">  1  5  2 -1</clus>
<clus scale="  117.626">  2  3  1 -1</clus>
</clustering>
</event>
<event>
 6    0  0.5775861E+002  0.1033598E+03  0.7546771E-02  0.1273385E+00
         21   -1    0    0  505  502  0.00000000000E+00  0.00000000000E+00  0.12256106193E+03  0.12256106193E+03  0.00000000000E+00 0.  1.
          1   -1    0    0  504    0 -0.00000000000E+00 -0.00000000000E+00 -0.38480725871E+04  0.38480725871E+04  0.00000000000E+00 0. -1.
         21    1    1    2  503  501 -0.81644632350E+02 -0.13046278065E+02 -0.16214952759E+03  0.18201241898E+03  0.00000000000E+00 0. -1.
         21    1    1    2  504  502  0.50054818359E+02  0.72504382901E+02  0.82068435150E+02  0.12040597339E+03  0.00000000000E+00 0.  1.
         21    1    1    2  505  503 -0.33785578095E+02 -0.14433791844E+02 -0.19836942165E+02  0.41752891022E+02  0.00000000000E+00 0. -1.
          1    1    1    2  501    0  0.65375392086E+02 -0.45024312992E+02 -0.36255934905E+04  0.36264623656E+04  0.00000000000E+00 0. -1.
<scales pt_clust_3="35.72727" pt_clust_4="88.37813" pt_clust_5="35.72727" pt_clust_6="79.37966"></scales>
<clustering>
<clus scale="   35.727">  3  5 -1 -1</clus>
<clus scale="   79.380">  2  6  1 -1</clus>
<clus scale="   88.378">  1  4  2 -1</clus>
<clus scale="   88.378">  1  3  2 -1</clus>
</clustering>
</event>
<event>
 6    0  0.5775861E+002  0.2992755E+03  0.7546771E-02  0.1085603E+00
          1   -1    0    0  503    0 -0.00000000000E+00  0.00000000000E+00  0.30985457273E+03  0.30985457273E+03  0.00000000000E+00 0. -1.
         21   -1    0    0  505  502  0.00000000000E+00 -0.00000000000E+00 -0.12180232797E+04  0.12180232797E+04  0.00000000000E+00 0.  1.
         21    1    1    2  503  504 -0.26812769363E+02  0.66054716976E+02 -0.12613173527E+03  0.14488397040E+03  0.00000000000E+00 0. -1.
         21    1    1    2  504  502 -0.41062739150E+02  0.21145895369E+03 -0.86002604352E+03  0.88659225870E+03  0.00000000000E+00 0.  1.
         21    1    1    2  505  501  0.92008357618E+02 -0.25471525127E+03 -0.11959011398E+03  0.29605268528E+03  0.00000000000E+00 0.  1.
          1    1    1    2  501    0 -0.24132849104E+02 -0.22798419399E+02  0.19757918578E+03  0.20034893808E+03  0.00000000000E+00 0. -1.
<scales pt_clust_3="56.88315" pt_clust_4="56.88315" pt_clust_5="282.40170" pt_clust_6="33.19883"></scales>
<clustering>
<clus scale="   33.199">  1  6  2 -1</clus>
<clus scale="   56.883">  3  4 -1 -1</clus>
<clus scale="  282.402">  1  5  2 -1</clus>
<clus scale="  299.276">  2  3  1 -1</clus>
</clustering>
</event>
<event>
 6    0  0.5775861E+002  0.1460166E+03  0.7546771E-02  0.1205455E+00
         21   -1    0    0  503  502  0.00000000000E+00  0.00000000000E+00  0.19349299439E+02  0.19349299439E+02  0.00000000000E+00 0.  1.
          1   -1    0    0  504    0 -0.00000000000E+00 -0.00000000000E+00 -0.11414647566E+04  0.11414647566E+04  0.00000000000E+00 0.  1.
         21    1    1    2  503  501 -0.40329487446E+00  0.38713453879E+02 -0.95701781829E+02  0.10323625915E+03  0.00000000000E+00 0.  1.
         21    1    1    2  504  505 -0.31069206971E+02 -0.57409858902E+02 -0.22433608804E+03  0.23364046721E+03  0.00000000000E+00 0.  1.
         21    1    1    2  505  502  0.25419941603E+02 -0.75648291870E+02 -0.21574454140E+03  0.23003161660E+03  0.00000000000E+00 0.  1.
          1    1    1    2  501    0  0.60525602426E+01  0.94344696894E+02 -0.58633304590E+03  0.59390571308E+03  0.00000000000E+00 0.  1.
<scales pt_clust_3="35.62472" pt_clust_4="54.14760" pt_clust_5="54.14760" pt_clust_6="144.34481"></scales>
<clustering>
<clus scale="   35.625">  3  6 -1 -1</clus>
<clus scale="   54.148">  4  5 -1 -1</clus>
<clus scale="  144.345">  2  3  1 -1</clus>
<clus scale="  146.017">  1  3  2 -1</clus>
</clustering>
</event>
<event>
 6    0  0.5775861E+002  0.6500533E+02  0.7546771E-02  0.1377951E+00
          1   -1    0    0  504    0 -0.00000000000E+00  0.00000000000E+00  0.26886588779E+04  0.26886588779E+04  0.00000000000E+00 0.  1.
         21   -1    0    0  505  502  0.00000000000E+00 -0.00000000000E+00 -0.17267371700E+03  0.17267371700E+03  0.00000000000E+00 0.  1.
         21    1    1    2  503  501  0.13609096655E+02 -0.10884211841E+03  0.65019248984E+03  0.65938007864E+03  0.00000000000E+00 0. -1.
         21    1    1    2  504  502 -0.34097773625E+02  0.25259189607E+02 -0.88763586786E+02  0.98385258880E+02  0.00000000000E+00 0.  1.
         21    1    1    2  505  503  0.50829850493E+02  0.37178786403E+02 -0.60748275225E+02  0.87500221728E+02  0.00000000000E+00 0.  1.
          1    1    1    2  501    0 -0.30341173523E+02  0.46404142399E+02  0.20153045331E+04  0.20160670357E+04  0.00000000000E+00 0.  1.
<scales pt_clust_3="65.00533" pt_clust_4="42.43448" pt_clust_5="14000.00000" pt_clust_6="55.63493"></scales>
<clustering>
<clus scale="   42.434">  2  4  1 -1</clus>
<clus scale="   55.635">  1  6  2 -1</clus>
<clus scale="   65.005">  1  3  2 -1</clus>
<clus scale="   42.434">  2  3  1 -1</clus>
</clustering>
</event>
<event>
 6    0  0.5775861E+002  0.1848216E+03  0.7546771E-02  0.1163217E+00
          2   -1    0    0  504    0 -0.00000000000E+00  0.00000000000E+00  0.42173848994E+03  0.42173848994E+03  0.00000000000E+00 0.  1.
         21   -1    0    0  505  502  0.00000000000E+00 -0.00000000000E+00 -0.12589225886E+04  0.12589225886E+04  0.00000000000E+00 0. -1.
         21    1    1    2  503  502  0.46162881460E+01  0.50030570363E+02 -0.86652143988E+03  0.86797682795E+03  0.00000000000E+00 0. -1.
         21    1    1    2  504  503  0.41528723355E+02  0.19340647649E+03 -0.20126605799E+03  0.28220334178E+03  0.00000000000E+00 0. -1.
         21    1    1    2  505  501  0.10969260353E+02 -0.17190716337E+03 -0.91900600050E+02  0.19523861755E+03  0.00000000000E+00 0. -1.
          2    1    1    2  501    0 -0.57114271853E+02 -0.71529883483E+02  0.32250399929E+03  0.33524229124E+03  0.00000000000E+00 0.  1.
<scales pt_clust_3="50.24309" pt_clust_4="14000.00000" pt_clust_5="184.82156" pt_clust_6="90.85300"></scales>
<clustering>
<clus scale="   50.243">  2  3  1 -1</clus>
<clus scale="   90.853">  1  6  2 -1</clus>
<clus scale="  184.822">  2  5  1 -1</clus>
<clus scale="   50.243">  2  3  1 -1</clus>
</clustering>
</event>
<event>
 6    0  0.5775861E+002  0.1438641E+03  0.7546771E-02  0.1208222E+00
          1   -1    0    0  504    0 -0.00000000000E+00  0.00000000000E+00  0.95523150365E+03  0.95523150365E+03  0.00000000000E+00 0.  1.
         21   -1    0    0  503  502  0.00000000000E+00 -0.00000000000E+00 -0.12503601325E+03  0.12503601325E+03  0.00000000000E+00 0.  1.
         21    1    1    2  503  501  0.45246468630E+01 -0.11609419291E+03  0.80746782814E+02  0.14148631380E+03  0.00000000000E+00 0.  1.
         21    1    1    2  504  505  0.99798571133E+02  0.15865817796E+03  0.27019154662E+03  0.32883984567E+03  0.00000000000E+00 0.  1.
         21    1    1    2  505  502 -0.40871152611E+02 -0.39457363222E+02 -0.50728121502E+02  0.76162175253E+02  0.00000000000E+00 0.  1.
          1    1    1    2  501    0 -0.63452065385E+02 -0.31066218293E+01  0.52998528247E+03  0.53377918218E+03  0.00000000000E+00 0.  1.
<scales pt_clust_3="143.86410" pt_clust_4="14000.00000" pt_clust_5="56.80963" pt_clust_6="64.85503"></scales>
<clustering>
<clus scale="   56.810">  2  5  1 -1</clus>
<clus scale="   64.855">  1  6  2 -1</clus>
<clus scale="  143.864">  2  3  1 -1</clus>
<clus scale="   56.810">  2  3  1 -1</clus>
</clustering>
</event>
<event>
 6    0  0.5775861E+002  0.1929441E+03  0.7546771E-02  0.1155832E+00
         21   -1    0    0  503  502  0.00000000000E+00  0.00000000000E+00  0.39901437561E+03  0.39901437561E+03  0.00000000000E+00 0.  1.
          2   -1    0    0  504    0 -0.00000000000E+00 -0.00000000000E+00 -0.20701897448E+03  0.20701897448E+03  0.00000000000E+00 0.  1.
         21    1    1    2  503  501  0.41068296892E+02 -0.20170944539E+02  0.11348952359E+03  0.12236561600E+03  0.00000000000E+00 0.  1.
         21    1    1    2  504  505 -0.16548179318E+03 -0.11881674814E+03  0.14749017012E+02  0.20425272830E+03  0.00000000000E+00 0.  1.
         21    1    1    2  505  502 -0.23524505391E+02  0.28101598908E+02  0.85727043195E+02  0.93232119734E+02  0.00000000000E+00 0. -1.
          2    1    1    2  501    0  0.14793800168E+03  0.11088609377E+03 -0.21970182671E+02  0.18618288606E+03  0.00000000000E+00 0.  1.
<scales pt_clust_3="33.47188" pt_clust_4="192.94413" pt_clust_5="36.64836" pt_clust_6="14000.00000"></scales>
<clustering>
<clus scale="   36.648">  1  5  2 -1</clus>
<clus scale="   33.472">  1  3  2 -1</clus>
<clus scale="  192.944">  1  4  2 -1</clus>
<clus scale="   36.648">  1  3  2 -1</clus>
</clustering>
</event>
<event>
 6    0  0.5775861E+002  0.9694318E+02  0.7546771E-02  0.1286859E+00
         21   -1    0    0  501  502  0.00000000000E+00  0.00000000000E+00  0.28656871761E+02  0.28656871761E+02  0.00000000000E+00 0. -1.
          2   -1    0    0  505    0 -0.00000000000E+00 -0.00000000000E+00 -0.11221379547E+04  0.11221379547E+04  0.00000000000E+00 0. -1.
         21    1    1    2  503  504  0.34796561592E+02 -0.84341796153E+02 -0.33868633833E+03  0.35076028146E+03  0.00000000000E+00 0. -1.
         21    1    1    2  504  502 -0.66975209060E+02  0.76518712350E+02 -0.16708299169E+03  0.19559529156E+03  0.00000000000E+00 0. -1.
         21    1    1    2  505  503 -0.51744610667E+02 -0.13790752052E+02 -0.19049917892E+03  0.19788286117E+03  0.00000000000E+00 0. -1.
          2    1    1    2  501    0  0.83923258135E+02  0.21613835855E+02 -0.39721257396E+03  0.40655639224E+03  0.00000000000E+00 0. -1.
<scales pt_clust_3="14000.00000" pt_clust_4="96.94318" pt_clust_5="53.55081" pt_clust_6="63.47062"></scales>
<clustering>
<clus scale="   53.551">  2  5  1 -1</clus>
<clus scale="   63.471">  2  6  1 -1</clus>
<clus scale="   96.943">  1  4  2 -1</clus>
<clus scale="   96.943">  1  3  2 -1</clus>
</clustering>
</event>
<event>
 6    0  0.5775861E+002  0.1094031E+03  0.7546771E-02  0.1261679E+00
         21   -1    0    0  503  502  0.00000000000E+00  0.00000000000E+00  0.32101865551E+02  0.32101865551E+02  0.00000000000E+00 0. -1.
          2   -1    0    0  505    0 -0.00000000000E+00 -0.00000000000E+00 -0.27564719277E+04  0.27564719277E+04  0.00000000000E+00 0. -1.
         21    1    1    2  503  504 -0.20350526447E+02  0.28319523430E+02 -0.20457356273E+02  0.40430715547E+02  0.00000000000E+00 0.  1.
         21    1    1    2  504  501  0.53885613230E+02  0.21009065570E+02 -0.18490707891E+03  0.19374123975E+03  0.00000000000E+00 0. -1.
         21    1    1    2  505  502  0.58849429391E+02  0.16603318671E+02 -0.40598630110E+02  0.73397372551E+02  0.00000000000E+00 0. -1.
          2    1    1    2  501    0 -0.92384516174E+02 -0.65931907671E+02 -0.24784069969E+04  0.24810044654E+04  0.00000000000E+00 0. -1.
<scales pt_clust_3="34.87319" pt_clust_4="56.50815" pt_clust_5="14000.00000" pt_clust_6="109.40315"></scales>
<clustering>
<clus scale="   34.873">  1  3  2 -1</clus>
<clus scale="   56.508">  1  4  2 -1</clus>
<clus scale="  109.403">  2  6  1 -1</clus>
<clus scale="   34.873">  1  3  2 -1</clus>
</clustering>
</event>
<event>
 6    0  0.5775861E+002  0.1891082E+03  0.7546771E-02  0.1159268E+00
          1   -1    0    0  505    0 -0.00000000000E+00  0.00000000000E+00  0.66669565643E+03  0.66669565643E+03  0.00000000000E+00 0.  1.
         21   -1    0    0  504  502  0.00000000000E+00 -0.00000000000E+00 -0.17990986352E+03  0.17990986352E+03  0.00000000000E+00 0.  1.
         21    1    1    2  503  502  0.12391423946E+02 -0.33437579674E+02 -0.46343903581E+02  0.58475435193E+02  0.00000000000E+00 0.  1.
         21    1    1    2  504  501  0.59569306314E+01 -0.17327993720E+03 -0.18205162825E+02  0.17433545139E+03  0.00000000000E+00 0.  1.
         21    1    1    2  505  503 -0.77368351134E+02  0.16171232836E+03  0.27982954946E+03  0.33232712145E+03  0.00000000000E+00 0.  1.
          1    1    1    2  501    0  0.59019996556E+02  0.45005188507E+02  0.27150530985E+03  0.28146751191E+03  0.00000000000E+00 0.  1.
<scales pt_clust_3="35.65977" pt_clust_4="189.10820" pt_clust_5="14000.00000" pt_clust_6="73.82634"></scales>
<clustering>
<clus scale="   35.660">  2  3  1 -1</clus>
<clus scale="   73.826">  1  6  2 -1</clus>
<clus scale="  189.108">  2  4  1 -1</clus>
<clus scale="   35.660">  2  3  1 -1</clus>
</clustering>
</event>
<event>
 6    0  0.5775861E+002  0.9877408E+02  0.7546771E-02  0.1282895E+00
         21   -1    0    0  503  502  0.00000000000E+00  0.00000000000E+00  0.29287136075E+03  0.29287136075E+03  0.00000000000E+00 0. -1.
          2   -1    0    0  504    0 -0.00000000000E+00 -0.00000000000E+00 -0.10373219399E+04  0.10373219399E+04  0.00000000000E+00 0.  1.
         21    1    1    2  503  501  0.58688933096E+02  0.20572690573E+02  0.24330265068E+03  0.25112508098E+03  0.00000000000E+00 0. -1.
         21    1    1    2  504  505  0.29235459301E+02  0.15725305280E+02 -0.65150571174E+02  0.73120409127E+02  0.00000000000E+00 0.  1.
         21    1    1    2  505  502  0.40624728196E+02 -0.21961532414E+02  0.22963987441E+02  0.51575402724E+02  0.00000000000E+00 0. -1.
          2    1    1    2  501    0 -0.12854912059E+03 -0.14336463440E+02 -0.94556664608E+03  0.95437240780E+03  0.00000000000E+00 0.  1.
<scales pt_clust_3="98.77408" pt_clust_4="33.19634" pt_clust_5="46.45224" pt_clust_6="14000.00000"></scales>
<clustering>
<clus scale="   33.196">  2  4  1 -1</clus>
<clus scale="   46.452">  1  5  2 -1</clus>
<clus scale="   98.774">  1  3  2 -1</clus>
<clus scale="   46.452">  1  3  2 -1</clus>
</clustering>
</event>
<event>
 6    0  0.5775861E+002  0.7148763E+02  0.7546771E-02  0.1355106E+00
         -1   -1    0    0    0  501 -0.00000000000E+00  0.00000000000E+00  0.38061706099E+03  0.38061706099E+03  0.00000000000E+00 0.  1.
         21   -1    0    0  503  502  0.00000000000E+00 -0.00000000000E+00 -0.21310493100E+03  0.21310493100E+03  0.00000000000E+00 0. -1.
         21    1    1    2  503  505 -0.65133765634E+02 -0.28026055193E+02 -0.10546108163E+03  0.12708228411E+03  0.00000000000E+00 0. -1.
         21    1    1    2  504  502  0.81952992253E+01  0.86980815334E+02 -0.41693304195E+02  0.96804735320E+02  0.00000000000E+00 0. -1.
         21    1    1    2  505  501  0.79468742776E+02  0.32946286038E+01  0.43400250197E+02  0.90607490713E+02  0.00000000000E+00 0. -1.
         -1    1    1    2    0  504 -0.22530276368E+02 -0.62249388745E+02  0.27126626562E+03  0.27922748184E+03  0.00000000000E+00 0.  1.
<scales pt_clust_3="71.48763" pt_clust_4="70.73928" pt_clust_5="14000.00000" pt_clust_6="66.20121"></scales>
<clustering>
<clus scale="   66.201">  1  6  2 -1</clus>
<clus scale="   70.739">  1  4  2 -1</clus>
<clus scale="   71.488">  2  3  1 -1</clus>
<clus scale="   71.488">  2  3  1 -1</clus>
</clustering>
</event>
<event>
 6    0  0.5775861E+002  0.1357071E+03  0.7546771E-02  0.1219225E+00
          1   -1    0    0  504    0 -0.00000000000E+00  0.00000000000E+00  0.36997276177E+03  0.36997276177E+03  0.00000000000E+00 0. -1.
         21   -1    0    0  503  502  0.00000000000E+00 -0.00000000000E+00 -0.12302071675E+04  0.12302071675E+04  0.00000000000E+00 0.  1.
         21    1    1    2  503  505 -0.26419173706E+02 -0.12972876858E+03 -0.90100850238E+03  0.91068317624E+03  0.00000000000E+00 0.  1.
         21    1    1    2  504  502  0.17986230949E+02 -0.12224224904E+03  0.10244647900E+02  0.12398235666E+03  0.00000000000E+00 0.  1.
         21    1    1    2  505  501  0.13833839752E+01  0.15359699283E+03 -0.23585228850E+03  0.28146092438E+03  0.00000000000E+00 0.  1.
          1    1    1    2  501    0  0.70495587815E+01  0.98374024780E+02  0.26638173723E+03  0.28405347201E+03  0.00000000000E+00 0. -1.
<scales pt_clust_3="135.70710" pt_clust_4="57.36887" pt_clust_5="14000.00000" pt_clust_6="98.62629"></scales>
<clustering>
<clus scale="   98.626">  1  6  2 -1</clus>
<clus scale="   57.369">  1  4  2 -1</clus>
<clus scale="  135.707">  2  3  1 -1</clus>
<clus scale="  135.707">  2  3  1 -1</clus>
</clustering>
</event>
<event>
 6    0  0.5775861E+002  0.9203955E+02  0.7546771E-02  0.1297986E+00
          2   -1    0    0  505    0 -0.00000000000E+00  0.00000000000E+00  0.92992046412E+03  0.92992046412E+03  0.00000000000E+00 0.  1.
         21   -1    0    0  501  502  0.00000000000E+00 -0.00000000000E+00 -0.65331250214E+03  0.65331250214E+03  0.00000000000E+00 0.  1.
         21    1    1    2  503  504 -0.70689602709E+02  0.24005266693E+02 -0.10187047704E+03  0.12629674126E+03  0.00000000000E+00 0. -1.
         21    1    1    2  504  502  0.63092038315E+01  0.42474724903E+02 -0.52417240165E+03  0.52592833633E+03  0.00000000000E+00 0.  1.
         21    1    1    2  505  503  0.66408000785E+02 -0.12396624061E+03  0.37977262481E+03  0.40497518187E+03  0.00000000000E+00 0.  1.
          2    1    1    2  501    0 -0.20276019078E+01  0.57486249013E+02  0.52287821586E+03  0.52603270679E+03  0.00000000000E+00 0.  1.
<scales pt_clust_3="14000.00000" pt_clust_4="42.94075" pt_clust_5="92.03955" pt_clust_6="58.04133"></scales>
<clustering>
<clus scale="   42.941">  2  4  1 -1</clus>
<clus scale="   58.041">  1  6  2 -1</clus>
<clus scale="   92.040">  1  5  2 -1</clus>
<clus scale="   42.941">  2  3  1 -1</clus>
</clustering>
</event>
<event>
 6    0  0.8369332E+002  0.8816218E+02  0.7546771E-02  0.1307364E+00
         21   -1    0    0  503  502  0.00000000000E+00  0.00000000000E+00  0.40000213305E+03  0.40000213305E+03  0.00000000000E+00 0.  1.
          1   -1    0    0  504    0 -0.00000000000E+00 -0.00000000000E+00 -0.30395195004E+04  0.30395195004E+04  0.00000000000E+00 0.  1.
         21    1    1    2  503  505  0.27126358468E+02 -0.50874365324E+02  0.69183102555E+01  0.58068092681E+02  0.00000000000E+00 0.  1.
         21    1    1    2  504  502 -0.13131597375E+03  0.38406022043E+02  0.31894798940E+03  0.34705435804E+03  0.00000000000E+00 0.  1.
         21    1    1    2  505  501  0.25576025026E+02  0.52173206640E+02  0.89254744960E+01  0.58786398445E+02  0.00000000000E+00 0. -1.
          1    1    1    2  501    0  0.78613590256E+02 -0.39704863359E+02 -0.29743091415E+04  0.29756127843E+04  0.00000000000E+00 0.  1.
<scales pt_clust_3="57.65449" pt_clust_4="14000.00000" pt_clust_5="55.16497" pt_clust_6="88.16218"></scales>
<clustering>
<clus scale="   57.654">  1  3  2 -1</clus>
<clus scale="   55.165">  1  5  2 -1</clus>
<clus scale="   88.162">  2  6  1 -1</clus>
<clus scale="   57.654">  1  3  2 -1</clus>
</clustering>
</event>
<event>
 6    0  0.5775861E+002  0.6891615E+02  0.7546771E-02  0.1363818E+00
         21   -1    0    0  503  502  0.00000000000E+00  0.00000000000E+00  0.42130186922E+03  0.42130186922E+03  0.00000000000E+00 0. -1.
          2   -1    0    0  504    0 -0.00000000000E+00 -0.00000000000E+00 -0.86336149055E+03  0.86336149055E+03  0.00000000000E+00 0.  1.
         21    1    1    2  503  501  0.53653178617E+02 -0.73761100609E+02  0.17404937911E+03  0.19650076312E+03  0.00000000000E+00 0. -1.
         21    1    1    2  504  505 -0.93098262773E+02  0.70414636852E+01 -0.59134181987E+02  0.11051570124E+03  0.00000000000E+00 0. -1.
         21    1    1    2  505  502  0.82821748917E+01  0.56567451330E+02  0.20609293962E+03  0.21387559639E+03  0.00000000000E+00 0. -1.
          2    1    1    2  501    0  0.31162909264E+02  0.10152185594E+02 -0.76306775807E+03  0.76377129901E+03  0.00000000000E+00 0.  1.
<scales pt_clust_3="14000.00000" pt_clust_4="68.91615" pt_clust_5="57.74875" pt_clust_6="32.77490"></scales>
<clustering>
<clus scale="   32.775">  2  6  1 -1</clus>
<clus scale="   57.749">  1  5  2 -1</clus>
<clus scale="   68.916">  2  4  1 -1</clus>
<clus scale="   57.749">  1  3  2 -1</clus>
</clustering>
</event>
<event>
 6    0  0.5775861E+002  0.1904325E+03  0.7546771E-02  0.1158072E+00
         21   -1    0    0  503  502  0.00000000000E+00  0.00000000000E+00  0.72919193283E+03  0.72919193283E+03  0.00000000000E+00 0.  1.
          2   -1    0    0  505    0 -0.00000000000E+00 -0.00000000000E+00 -0.53611057143E+04  0.53611057143E+04  0.00000000000E+00 0.  1.
         21    1    1    2  503  504 -0.93845053928E+00  0.62091699994E+02  0.60078691764E+03  0.60398773191E+03  0.00000000000E+00 0.  1.
         21    1    1    2  504  501  0.20996436667E+03 -0.99939815345E+01  0.23153237751E+02  0.21147337269E+03  0.00000000000E+00 0.  1.
         21    1    1    2  505  502 -0.10878740646E+03 -0.26622131708E+02 -0.34153781761E+03  0.35943221692E+03  0.00000000000E+00 0.  1.
          2    1    1    2  501    0 -0.10023850967E+03 -0.25475586751E+02 -0.49143161193E+04  0.49154043256E+04  0.00000000000E+00 0.  1.
<scales pt_clust_3="62.09879" pt_clust_4="190.43255" pt_clust_5="14000.00000" pt_clust_6="103.36376"></scales>
<clustering>
<clus scale="   62.099">  1  3  2 -1</clus>
<clus scale="  103.364">  2  6  1 -1</clus>
<clus scale="  190.433">  1  4  2 -1</clus>
<clus scale="   62.099">  1  3  2 -1</clus>
</clustering>
</event>
<event>
 6    0  0.5775861E+002  0.1305884E+03  0.7546771E-02  0.1226585E+00
         21   -1    0    0  505  502  0.00000000000E+00  0.00000000000E+00  0.32752473622E+02  0.32752473622E+02  0.00000000000E+00 0.  1.
          1   -1    0    0  504    0 -0.00000000000E+00 -0.00000000000E+00 -0.21270191248E+04  0.21270191248E+04  0.00000000000E+00 0.  1.
         21    1    1    2  503  501 -0.28717512284E+02  0.12022656967E+03 -0.26822814194E+03  0.29533956676E+03  0.00000000000E+00 0.  1.
         21    1    1    2  504  502  0.80001397467E+01 -0.11884413427E+03 -0.13763804603E+04  0.13815249190E+04  0.00000000000E+00 0.  1.
         21    1    1    2  505  503 -0.29836276851E+02  0.66201040472E+01 -0.21864292960E+00  0.30562673290E+02  0.00000000000E+00 0.  1.
          1    1    1    2  501    0  0.50553649387E+02 -0.80025394446E+01 -0.44943940608E+03  0.45234443938E+03  0.00000000000E+00 0.  1.
<scales pt_clust_3="14000.00000" pt_clust_4="130.58845" pt_clust_5="30.56189" pt_clust_6="48.66306"></scales>
<clustering>
<clus scale="   30.562">  1  5  2 -1</clus>
<clus scale="   48.663">  2  6  1 -1</clus>
<clus scale="  130.588">  2  4  1 -1</clus>
<clus scale="   30.562">  1  3  2 -1</clus>
</clustering>
</event>
<event>
 6    0  0.5775861E+002  0.1643769E+03  0.7546771E-02  0.1183842E+00
         21   -1    0    0  503  502  0.00000000000E+00  0.00000000000E+00  0.52551866503E+03  0.52551866503E+03  0.00000000000E+00 0. -1.
          2   -1    0    0  502    0 -0.00000000000E+00 -0.00000000000E+00 -0.67364382610E+03  0.67364382610E+03  0.00000000000E+00 0.  1.
         21    1    1    2  503  504 -0.15459917058E+03  0.28543184575E+01  0.46930382406E+03  0.49412056217E+03  0.00000000000E+00 0. -1.
         21    1    1    2  504  505  0.37045424766E+02  0.25218447328E+01 -0.43326655400E+02  0.57060689315E+02  0.00000000000E+00 0. -1.
         21    1    1    2  505  501  0.10217238870E+03 -0.89342055665E+02 -0.10614537234E+03  0.17230217640E+03  0.00000000000E+00 0. -1.
          2    1    1    2  501    0  0.15381357115E+02  0.83965892474E+02 -0.46795695739E+03  0.47567906325E+03  0.00000000000E+00 0.  1.
<scales pt_clust_3="153.86250" pt_clust_4="30.25579" pt_clust_5="30.25579" pt_clust_6="85.36309"></scales>
<clustering>
<clus scale="   30.256">  4  5 -1 -1</clus>
<clus scale="   85.363">  2  6  1 -1</clus>
<clus scale="  153.862">  1  3  2 -1</clus>
<clus scale="  153.862">  1  3  2 -1</clus>
</clustering>
</event>
<event>
 6    0  0.5775861E+002  0.1271600E+03  0.7546771E-02  0.1231732E+00
         21   -1    0    0  503  502  0.00000000000E+00  0.00000000000E+00  0.24173578208E+03  0.24173578208E+03  0.00000000000E+00 0.  1.
          2   -1    0    0  504    0 -0.00000000000E+00 -0.00000000000E+00 -0.20311286937E+04  0.20311286937E+04  0.00000000000E+00 0.  1.
         21    1    1    2  503  505 -0.41680687220E+02 -0.13012635682E+03  0.19815105414E+03  0.24069480402E+03  0.00000000000E+00 0.  1.
         21    1    1    2  504  502 -0.30499719266E+02  0.84311871441E+02 -0.10566978842E+03  0.13858148767E+03  0.00000000000E+00 0.  1.
         21    1    1    2  505  501  0.10536430698E+03 -0.23626404556E+02 -0.61721413151E+03  0.62658848402E+03  0.00000000000E+00 0.  1.
          2    1    1    2  501    0 -0.33183900492E+02  0.69440889932E+02 -0.12646600459E+04  0.12669997001E+04  0.00000000000E+00 0.  1.
<scales pt_clust_3="127.16002" pt_clust_4="14000.00000" pt_clust_5="84.98424" pt_clust_6="76.96238"></scales>
<clustering>
<clus scale="   76.962">  2  6  1 -1</clus>
<clus scale="   84.984">  2  5  1 -1</clus>
<clus scale="  127.160">  1  3  2 -1</clus>
<clus scale="  127.160">  1  3  2 -1</clus>
</clustering>
</event>
<event>
 6    0  0.5775861E+002  0.1800373E+03  0.7546771E-02  0.1167767E+00
         21   -1    0    0  504  502  0.00000000000E+00  0.00000000000E+00  0.41879438998E+03  0.41879438998E+03  0.00000000000E+00 0. -1.
         -1   -1    0    0    0  501 -0.00000000000E+00 -0.00000000000E+00 -0.45820665763E+03  0.45820665763E+03  0.00000000000E+00 0.  1.
         21    1    1    2  503  505 -0.41151073021E+02 -0.84995604422E+02 -0.25111434587E+03  0.26828357811E+03  0.00000000000E+00 0.  1.
         21    1    1    2  504  501 -0.28536155353E+02 -0.37322774274E+02 -0.26765207221E+02  0.54071045482E+02  0.00000000000E+00 0.  1.
         21    1    1    2  505  502  0.47651541525E+02  0.16482599592E+03  0.37369047552E+03  0.41119685047E+03  0.00000000000E+00 0. -1.
         -1    1    1    2    0  503  0.22035686850E+02 -0.42507617225E+02 -0.13522319008E+03  0.14344957355E+03  0.00000000000E+00 0.  1.
<scales pt_clust_3="42.98961" pt_clust_4="46.98193" pt_clust_5="169.61246" pt_clust_6="42.98961"></scales>
<clustering>
<clus scale="   42.990">  3  6 -1 -1</clus>
<clus scale="   46.982">  2  4  1 -1</clus>
<clus scale="  169.612">  1  5  2 -1</clus>
<clus scale="  169.612">  1  3  2 -1</clus>
</clustering>
</event>
<event>
 6    0  0.5775861E+002  0.2009244E+03  0.7546771E-02  0.1148961E+00
          2   -1    0    0  503    0 -0.00000000000E+00  0.00000000000E+00  0.24280575224E+04  0.24280575224E+04  0.00000000000E+00 0.  1.
         21   -1    0    0  505  502  0.00000000000E+00 -0.00000000000E+00 -0.28671986964E+03  0.28671986964E+03  0.00000000000E+00 0.  1.
         21    1    1    2  503  502 -0.25570067401E+02 -0.20381884415E+02  0.11663179955E+02  0.34717133031E+02  0.00000000000E+00 0.  1.
         21    1    1    2  504  501  0.11170098905E+03 -0.13374949967E+03 -0.17630827545E+03  0.24789241136E+03  0.00000000000E+00 0.  1.
         21    1    1    2  505  504 -0.34915409523E+02 -0.41060090480E+02 -0.46415692337E+02  0.71129693852E+02  0.00000000000E+00 0.  1.
          2    1    1    2  501    0 -0.51215512130E+02  0.19519147456E+03  0.23523984406E+04  0.23610381538E+04  0.00000000000E+00 0.  1.
<scales pt_clust_3="32.69938" pt_clust_4="200.92436" pt_clust_5="60.76673" pt_clust_6="14000.00000"></scales>
<clustering>
<clus scale="   32.699">  2  3  1 -1</clus>
<clus scale="   60.767">  2  5  1 -1</clus>
<clus scale="  200.924">  2  4  1 -1</clus>
<clus scale="   32.699">  2  3  1 -1</clus>
</clustering>
</event>
<event>
 6    0  0.5775861E+002  0.8075965E+02  0.7546771E-02  0.1326909E+00
         21   -1    0    0  503  502  0.00000000000E+00  0.00000000000E+00  0.10303040249E+03  0.10303040249E+03  0.00000000000E+00 0. -1.
          1   -1    0    0  505    0 -0.00000000000E+00 -0.00000000000E+00 -0.13204225252E+04  0.13204225252E+04  0.00000000000E+00 0. -1.
         21    1    1    2  503  504 -0.13594879797E+02 -0.37727710047E+02  0.84277662479E+02  0.93332337670E+02  0.00000000000E+00 0. -1.
         21    1    1    2  504  501  0.22729205581E+02  0.36876946369E+02 -0.97782154224E+02  0.10694800440E+03  0.00000000000E+00 0. -1.
         21    1    1    2  505  502 -0.88282308339E+02 -0.28763547257E+01 -0.23502412185E+03  0.25107444561E+03  0.00000000000E+00 0. -1.
          1    1    1    2  501    0  0.79147982556E+02  0.37271184042E+01 -0.96886350914E+03  0.97209814006E+03  0.00000000000E+00 0. -1.
<scales pt_clust_3="40.10238" pt_clust_4="30.78795" pt_clust_5="14000.00000" pt_clust_6="80.75965"></scales>
<clustering>
<clus scale="   40.102">  1  3  2 -1</clus>
<clus scale="   30.788">  1  4  2 -1</clus>
<clus scale="   80.760">  2  6  1 -1</clus>
<clus scale="   40.102">  1  3  2 -1</clus>
</clustering>
</event>
<event>
 6    0  0.5775861E+002  0.8093791E+02  0.7546771E-02  0.1326411E+00
         21   -1    0    0  505  502  0.00000000000E+00  0.00000000000E+00  0.51761903944E+02  0.51761903944E+02  0.00000000000E+00 0. -1.
          2   -1    0    0  504    0 -0.00000000000E+00 -0.00000000000E+00 -0.23391745986E+04  0.23391745986E+04  0.00000000000E+00 0.  1.
         21    1    1    2  503  502  0.35297253651E+02  0.59203399206E+02 -0.46525167165E+02  0.83159664337E+02  0.00000000000E+00 0. -1.
         21    1    1    2  504  503  0.26412856623E+02  0.20137730520E+02 -0.65326943460E+03  0.65411323284E+03  0.00000000000E+00 0.  1.
         21    1    1    2  505  501  0.31915813132E+02 -0.10221574530E+03 -0.59487540886E+02  0.12249671521E+03  0.00000000000E+00 0. -1.
          2    1    1    2  501    0 -0.93625923406E+02  0.22874615579E+02 -0.15281305520E+04  0.15311668902E+04  0.00000000000E+00 0.  1.
<scales pt_clust_3="70.11446" pt_clust_4="33.21396" pt_clust_5="80.93791" pt_clust_6="14000.00000"></scales>
<clustering>
<clus scale="   33.214">  2  4  1 -1</clus>
<clus scale="   70.114">  1  3  2 -1</clus>
<clus scale="   80.938">  1  5  2 -1</clus>
<clus scale="   70.114">  1  3  2 -1</clus>
</clustering>
</event>
<event>
 6    0  0.5775861E+002  0.7968575E+02  0.7546771E-02  0.1329946E+00
         21   -1    0    0  505  502  0.00000000000E+00  0.00000000000E+00  0.39446683057E+03  0.39446683057E+03  0.00000000000E+00 0. -1.
          2   -1    0    0  503    0 -0.00000000000E+00 -0.00000000000E+00 -0.10364927228E+04  0.10364927228E+04  0.00000000000E+00 0. -1.
         21    1    1    2  503  502 -0.41026133769E+02 -0.10084761849E+03  0.53910566293E+02  0.12148964962E+03  0.00000000000E+00 0. -1.
         21    1    1    2  504  501 -0.43107807724E+02  0.51583946460E+02  0.68613641944E+02  0.96057370774E+02  0.00000000000E+00 0. -1.
         21    1    1    2  505  504  0.45540616824E+01  0.46525271201E+02  0.22037259514E+03  0.22527632150E+03  0.00000000000E+00 0. -1.
          2    1    1    2  501    0  0.79579879810E+02  0.27384008300E+01 -0.98492269559E+03  0.98813621146E+03  0.00000000000E+00 0. -1.
<scales pt_clust_3="14000.00000" pt_clust_4="75.50616" pt_clust_5="46.74762" pt_clust_6="79.68575"></scales>
<clustering>
<clus scale="   46.748">  1  5  2 -1</clus>
<clus scale="   79.686">  2  6  1 -1</clus>
<clus scale="   75.506">  2  4  1 -1</clus>
<clus scale="   46.748">  1  3  2 -1</clus>
</clustering>
</event>
<event>
 6    0  0.5775861E+002  0.2740513E+03  0.7546771E-02  0.1098983E+00
         21   -1    0    0  505  502  0.00000000000E+00  0.00000000000E+00  0.92991643202E+02  0.92991643202E+02  0.00000000000E+00 0. -1.
          1   -1    0    0  503    0 -0.00000000000E+00 -0.00000000000E+00 -0.32877030025E+04  0.32877030025E+04  0.00000000000E+00 0. -1.
         21    1    1    2  503  504  0.26271489160E+03 -0.44653752621E+02 -0.34490547599E+03  0.43585876068E+03  0.00000000000E+00 0. -1.
         21    1    1    2  504  502 -0.21852072738E+02 -0.44702105248E+02  0.25946687958E+02  0.56116146629E+02  0.00000000000E+00 0. -1.
         21    1    1    2  505  501 -0.13222677865E+03  0.71227334912E+01 -0.11504860763E+04  0.11580815456E+04  0.00000000000E+00 0. -1.
          1    1    1    2  501    0 -0.10863604021E+03  0.82233124378E+02 -0.17252664950E+04  0.17306381929E+04  0.00000000000E+00 0. -1.
<scales pt_clust_3="257.59386" pt_clust_4="49.75732" pt_clust_5="92.88202" pt_clust_6="92.88202"></scales>
<clustering>
<clus scale="   49.757">  1  4  2 -1</clus>
<clus scale="   92.882">  5  6 -1 -1</clus>
<clus scale="  257.594">  1  3  2 -1</clus>
<clus scale="   49.757">  1  3  2 -1</clus>
</clustering>
</event>
<event>
 6    0  0.5775861E+002  0.1987536E+03  0.7546771E-02  0.1150795E+00
         21   -1    0    0  504  502  0.00000000000E+00  0.00000000000E+00  0.98605533950E+03  0.98605533950E+03  0.00000000000E+00 0. -1.
         -1   -1    0    0    0  501 -0.00000000000E+00 -0.00000000000E+00 -0.19870519317E+03  0.19870519317E+03  0.00000000000E+00 0. -1.
         21    1    1    2  503  501 -0.56299619122E+02 -0.86713823382E+02  0.29164404110E+03  0.30942718204E+03  0.00000000000E+00 0. -1.
         21    1    1    2  504  503  0.17509234541E+02 -0.97325629087E+02  0.47569849067E+03  0.48586819755E+03  0.00000000000E+00 0. -1.
         21    1    1    2  505  502  0.41401405559E+02  0.14744664772E+03  0.17363123432E+03  0.23152191222E+03  0.00000000000E+00 0. -1.
         -1    1    1    2    0  505 -0.26110209785E+01  0.36592804750E+02 -0.15362361975E+03  0.15794324087E+03  0.00000000000E+00 0. -1.
<scales pt_clust_3="89.78228" pt_clust_4="89.78228" pt_clust_5="176.62960" pt_clust_6="36.68584"></scales>
<clustering>
<clus scale="   36.686">  2  6  1 -1</clus>
<clus scale="   89.782">  3  4 -1 -1</clus>
<clus scale="  176.630">  2  5  1 -1</clus>
<clus scale="  198.754">  1  3  2 -1</clus>
</clustering>
</event>
<event>
 6    0  0.5775861E+002  0.8756490E+02  0.7546771E-02  0.1308858E+00
          2   -1    0    0  503    0 -0.00000000000E+00  0.00000000000E+00  0.13407324047E+04  0.13407324047E+04  0.00000000000E+00 0.  1.
         21   -1    0    0  504  502  0.00000000000E+00 -0.00000000000E+00 -0.83956854804E+02  0.83956854804E+02  0.00000000000E+00 0.  1.
         21    1    1    2  503  505 -0.40311473458E+02 -0.46398277448E+02  0.82322663377E+03  0.82551796200E+03  0.00000000000E+00 0.  1.
         21    1    1    2  504  501  0.59688190382E+01 -0.80630209129E+02  0.11467244637E+03  0.14030904240E+03  0.00000000000E+00 0.  1.
         21    1    1    2  505  502  0.36586087442E+02  0.83333124580E+02 -0.38498857013E+02  0.98818588525E+02  0.00000000000E+00 0.  1.
          2    1    1    2  501    0 -0.22434330227E+01  0.43695361996E+02  0.35737532676E+03  0.36004366656E+03  0.00000000000E+00 0.  1.
<scales pt_clust_3="43.29930" pt_clust_4="87.56490" pt_clust_5="14000.00000" pt_clust_6="43.75292"></scales>
<clustering>
<clus scale="   43.753">  1  6  2 -1</clus>
<clus scale="   43.299">  1  3  2 -1</clus>
<clus scale="   87.565">  1  4  2 -1</clus>
<clus scale="   87.565">  2  3  1 -1</clus>
</clustering>
</event>
<event>
 6    0  0.5775861E+002  0.6779288E+02  0.7546771E-02  0.1367763E+00
         21   -1    0    0  501  502  0.00000000000E+00  0.00000000000E+00  0.75292959455E+03  0.75292959455E+03  0.00000000000E+00 0.  1.
          2   -1    0    0  505    0 -0.00000000000E+00 -0.00000000000E+00 -0.82315330220E+03  0.82315330220E+03  0.00000000000E+00 0.  1.
         21    1    1    2  503  502  0.38973935387E+02 -0.22900682685E+02  0.65767029842E+03  0.65922198866E+03  0.00000000000E+00 0.  1.
         21    1    1    2  504  503 -0.79682360236E+02 -0.28747700911E+02  0.65195495296E+02  0.10689322452E+03  0.00000000000E+00 0. -1.
         21    1    1    2  505  504  0.80394169757E+02  0.79877043620E+02 -0.61416620273E+03  0.62453477822E+03  0.00000000000E+00 0.  1.
          2    1    1    2  501    0 -0.39685744908E+02 -0.28228660024E+02 -0.17892329863E+03  0.18543290536E+03  0.00000000000E+00 0.  1.
<scales pt_clust_3="45.20408" pt_clust_4="14000.00000" pt_clust_5="67.79288" pt_clust_6="48.08551"></scales>
<clustering>
<clus scale="   45.204">  1  3  2 -1</clus>
<clus scale="   48.086">  2  6  1 -1</clus>
<clus scale="   67.793">  2  5  1 -1</clus>
<clus scale="   45.204">  1  3  2 -1</clus>
</clustering>
</event>
<event>
 6    0  0.5775861E+002  0.9541838E+02  0.7546771E-02  0.1290237E+00
         21   -1    0    0  504  502  0.00000000000E+00  0.00000000000E+00  0.58283538265E+02  0.58283538265E+02  0.00000000000E+00 0. -1.
          1   -1    0    0  503    0 -0.00000000000E+00 -0.00000000000E+00 -0.19271999882E+04  0.19271999882E+04  0.00000000000E+00 0.  1.
         21    1    1    2  503  505  0.37121803096E+02 -0.61321920829E+02 -0.20545805197E+03  0.21760380823E+03  0.00000000000E+00 0. -1.
         21    1    1    2  504  501 -0.16012580094E+02 -0.34529611126E+02  0.24591115208E+02  0.45314674366E+02  0.00000000000E+00 0. -1.
         21    1    1    2  505  502 -0.91107951215E+02  0.84549605080E+02 -0.21906692417E+03  0.25187221316E+03  0.00000000000E+00 0. -1.
          1    1    1    2  501    0  0.69998728214E+02  0.11301926874E+02 -0.14689825890E+04  0.14706928307E+04  0.00000000000E+00 0.  1.
<scales pt_clust_3="95.41838" pt_clust_4="38.06175" pt_clust_5="14000.00000" pt_clust_6="70.13366"></scales>
<clustering>
<clus scale="   38.062">  1  4  2 -1</clus>
<clus scale="   70.134">  2  6  1 -1</clus>
<clus scale="   95.418">  2  3  1 -1</clus>
<clus scale="   38.062">  1  3  2 -1</clus>
</clustering>
</event>
<event>
 6    0  0.5775861E+002  0.9789482E+02  0.7546771E-02  0.1284786E+00
         21   -1    0    0  503  502  0.00000000000E+00  0.00000000000E+00  0.10049235121E+04  0.10049235121E+04  0.00000000000E+00 0. -1.
          2   -1    0    0  504    0 -0.00000000000E+00 -0.00000000000E+00 -0.63201984123E+03  0.63201984123E+03  0.00000000000E+00 0.  1.
         21    1    1    2  503  505 -0.41466610147E+02 -0.25516630600E+02  0.74947841477E+03  0.75105823503E+03  0.00000000000E+00 0. -1.
         21    1    1    2  504  502 -0.47015509475E+02 -0.68616891720E+02  0.10241359851E+03  0.13193665571E+03  0.00000000000E+00 0. -1.
         21    1    1    2  505  501  0.10576638335E+03  0.61291000194E+02  0.10960636239E+03  0.16418486297E+03  0.00000000000E+00 0. -1.
          2    1    1    2  501    0 -0.17284263726E+02  0.32842522126E+02 -0.58859470475E+03  0.58976359967E+03  0.00000000000E+00 0.  1.
<scales pt_clust_3="48.64744" pt_clust_4="97.89482" pt_clust_5="14000.00000" pt_clust_6="37.11303"></scales>
<clustering>
<clus scale="   37.113">  2  6  1 -1</clus>
<clus scale="   48.647">  1  3  2 -1</clus>
<clus scale="   97.895">  2  4  1 -1</clus>
<clus scale="   48.647">  1  3  2 -1</clus>
</clustering>
</event>
<event>
 6    0  0.5775861E+002  0.8748136E+02  0.7546771E-02  0.1309068E+00
         21   -1    0    0  504  502  0.00000000000E+00  0.00000000000E+00  0.27969693013E+03  0.27969693013E+03  0.00000000000E+00 0. -1.
          2   -1    0    0  503    0 -0.00000000000E+00 -0.00000000000E+00 -0.62877280066E+03  0.62877280066E+03  0.00000000000E+00 0. -1.
         21    1    1    2  503  502  0.12334877275E+02  0.10216943998E+03  0.29490206713E+02  0.10705333230E+03  0.00000000000E+00 0.  1.
         21    1    1    2  504  505 -0.64872374947E+02 -0.60123487035E+02  0.18159374173E+03  0.20198897435E+03  0.00000000000E+00 0. -1.
         21    1    1    2  505  501  0.19662354570E+02 -0.31458321562E+02  0.10922148785E+01  0.37113705232E+02  0.00000000000E+00 0.  1.
          2    1    1    2  501    0  0.32875143102E+02 -0.10587631387E+02 -0.56125203385E+03  0.56231371891E+03  0.00000000000E+00 0. -1.
<scales pt_clust_3="14000.00000" pt_clust_4="87.48136" pt_clust_5="44.59974" pt_clust_6="34.53799"></scales>
<clustering>
<clus scale="   34.538">  2  6  1 -1</clus>
<clus scale="   44.600">  2  5  1 -1</clus>
<clus scale="   87.481">  1  4  2 -1</clus>
<clus scale="   87.481">  1  3  2 -1</clus>
</clustering>
</event>
<event>
 6    0  0.5775861E+002  0.2001295E+03  0.7546771E-02  0.1149630E+00
         21   -1    0    0  504  502  0.00000000000E+00  0.00000000000E+00  0.24363484482E+03  0.24363484482E+03  0.00000000000E+00 0. -1.
          1   -1    0    0  503    0 -0.00000000000E+00 -0.00000000000E+00 -0.76370535356E+03  0.76370535356E+03  0.00000000000E+00 0.  1.
         21    1    1    2  503  502  0.29589250297E+02 -0.23221670568E+03 -0.22040481004E+03  0.32152511942E+03  0.00000000000E+00 0. -1.
         21    1    1    2  504  505  0.54453953303E+02  0.21695103331E+02  0.33940390731E+02  0.67733748323E+02  0.00000000000E+00 0. -1.
         21    1    1    2  505  501  0.25806729038E+02  0.17175617288E+03  0.77937323515E+02  0.19036910617E+03  0.00000000000E+00 0. -1.
          1    1    1    2  501    0 -0.10984993264E+03  0.38765429471E+02 -0.41154341295E+03  0.42771222447E+03  0.00000000000E+00 0.  1.
<scales pt_clust_3="200.12946" pt_clust_4="58.61664" pt_clust_5="14000.00000" pt_clust_6="114.65027"></scales>
<clustering>
<clus scale="   58.617">  1  4  2 -1</clus>
<clus scale="  114.650">  2  6  1 -1</clus>
<clus scale="  200.129">  2  3  1 -1</clus>
<clus scale="   58.617">  1  3  2 -1</clus>
</clustering>
</event>
<event>
 6    0  0.5775861E+002  0.8299749E+02  0.7546771E-02  0.1320754E+00
          2   -1    0    0  503    0 -0.00000000000E+00  0.00000000000E+00  0.18346490513E+04  0.18346490513E+04  0.00000000000E+00 0. -1.
         21   -1    0    0  504  502  0.00000000000E+00 -0.00000000000E+00 -0.11407271783E+03  0.11407271783E+03  0.00000000000E+00 0.  1.
         21    1    1    2  503  505  0.24100087968E+02  0.34951277615E+02  0.84761243062E+02  0.94799126433E+02  0.00000000000E+00 0.  1.
         21    1    1    2  504  501 -0.86088594023E+02  0.53929676007E+02  0.82750807763E+02  0.13102424264E+03  0.00000000000E+00 0.  1.
         21    1    1    2  505  502 -0.19838770062E+01 -0.37215145052E+02 -0.79742974116E+02  0.88021842233E+02  0.00000000000E+00 0.  1.
          2    1    1    2  501    0  0.63972383061E+02 -0.51665808570E+02  0.16328072567E+04  0.16348765578E+04  0.00000000000E+00 0. -1.
<scales pt_clust_3="37.31518" pt_clust_4="82.99749" pt_clust_5="37.26799" pt_clust_6="14000.00000"></scales>
<clustering>
<clus scale="   37.268">  2  5  1 -1</clus>
<clus scale="   37.315">  2  3  1 -1</clus>
<clus scale="   82.997">  2  4  1 -1</clus>
<clus scale="   37.268">  2  3  1 -1</clus>
</clustering>
</event>
<event>
 6    0  0.5775861E+002  0.5364238E+02  0.7546771E-02  0.1426630E+00
         -4   -1    0    0    0  501 -0.00000000000E+00  0.00000000000E+00  0.15677366519E+03  0.15677366519E+03  0.00000000000E+00 0. -1.
         21   -1    0    0  503  502  0.00000000000E+00 -0.00000000000E+00 -0.52409619332E+03  0.52409619332E+03  0.00000000000E+00 0. -1.
         21    1    1    2  503  501 -0.77123292028E+01 -0.84893163318E+02 -0.29185067511E+03  0.30404464436E+03  0.00000000000E+00 0. -1.
         21    1    1    2  504  505 -0.56184613025E+02  0.41223128732E+02 -0.10591879397E+03  0.12678662390E+03  0.00000000000E+00 0. -1.
         21    1    1    2  505  502  0.10626553258E+02  0.47151851672E+02 -0.98915958275E+02  0.11009354001E+03  0.00000000000E+00 0. -1.
         -4    1    1    2    0  504  0.53270388970E+02 -0.34818170858E+01  0.12936289922E+03  0.13994505024E+03  0.00000000000E+00 0. -1.
<scales pt_clust_3="51.41138" pt_clust_4="53.64238" pt_clust_5="48.33447" pt_clust_6="14000.00000"></scales>
<clustering>
<clus scale="   48.334">  2  5  1 -1</clus>
<clus scale="   51.411">  2  3  1 -1</clus>
<clus scale="   53.642">  2  4  1 -1</clus>
<clus scale="   48.334">  2  3  1 -1</clus>
</clustering>
</event>
<event>
 6    0  0.5775861E+002  0.7481338E+02  0.7546771E-02  0.1344450E+00
          1   -1    0    0  502    0 -0.00000000000E+00  0.00000000000E+00  0.10927238164E+04  0.10927238164E+04  0.00000000000E+00 0.  1.
         21   -1    0    0  503  502  0.00000000000E+00 -0.00000000000E+00 -0.13665814376E+03  0.13665814376E+03  0.00000000000E+00 0.  1.
         21    1    1    2  503  504  0.83042705429E+01  0.38503265423E+02  0.22840712170E+01  0.39454775868E+02  0.00000000000E+00 0.  1.
         21    1    1    2  504  505  0.46372652456E+02  0.17654148051E+02 -0.80810278877E+02  0.94828228979E+02  0.00000000000E+00 0.  1.
         21    1    1    2  505  501 -0.22747985003E+02 -0.10930401657E+03  0.77283710862E+02  0.13578516423E+03  0.00000000000E+00 0.  1.
          1    1    1    2  501    0 -0.31928937996E+02  0.53146603100E+02  0.95730816939E+03  0.95931379104E+03  0.00000000000E+00 0.  1.
<scales pt_clust_3="39.38861" pt_clust_4="74.81338" pt_clust_5="14000.00000" pt_clust_6="62.24457"></scales>
<clustering>
<clus scale="   39.389">  2  3  1 -1</clus>
<clus scale="   62.245">  1  6  2 -1</clus>
<clus scale="   74.813">  2  4  1 -1</clus>
<clus scale="   39.389">  2  3  1 -1</clus>
</clustering>
</event>
<event>
 6    0  0.5775861E+002  0.6935369E+02  0.7546771E-02  0.1362305E+00
          2   -1    0    0  504    0 -0.00000000000E+00  0.00000000000E+00  0.38112263687E+03  0.38112263687E+03  0.00000000000E+00 0. -1.
         21   -1    0    0  503  502  0.00000000000E+00 -0.00000000000E+00 -0.78620399151E+03  0.78620399151E+03  0.00000000000E+00 0.  1.
         21    1    1    2  503  505 -0.33758597759E+02 -0.39977291238E+02 -0.65635366147E+03  0.65843599208E+03  0.00000000000E+00 0.  1.
         21    1    1    2  504  502 -0.80151569333E+02 -0.16332675231E+02 -0.21979630801E+02  0.84700262792E+02  0.00000000000E+00 0. -1.
         21    1    1    2  505  501  0.66062358679E+02  0.60509898401E+02 -0.46441839076E+02  0.10090851032E+03  0.00000000000E+00 0. -1.
          2    1    1    2  501    0  0.47847808413E+02 -0.41999319319E+01  0.31969377671E+03  0.32328186319E+03  0.00000000000E+00 0. -1.
<scales pt_clust_3="51.84583" pt_clust_4="14000.00000" pt_clust_5="69.35369" pt_clust_6="48.03178"></scales>
<clustering>
<clus scale="   48.032">  1  6  2 -1</clus>
<clus scale="   51.846">  2  3  1 -1</clus>
<clus scale="   69.354">  2  5  1 -1</clus>
<clus scale="   51.846">  2  3  1 -1</clus>
</clustering>
</event>
<event>
 6    0  0.5775861E+002  0.9134143E+02  0.7546771E-02  0.1299635E+00
         21   -1    0    0  501  502  0.00000000000E+00  0.00000000000E+00  0.39640595190E+03  0.39640595190E+03  0.00000000000E+00 0.  1.
          1   -1    0    0  503    0 -0.00000000000E+00 -0.00000000000E+00 -0.19745320484E+04  0.19745320484E+04  0.00000000000E+00 0.  1.
         21    1    1    2  503  504  0.17524155647E+02 -0.50052838654E+02 -0.24637067085E+03  0.25201367055E+03  0.00000000000E+00 0.  1.
         21    1    1    2  504  505 -0.13535790063E+03  0.29071838064E+02 -0.58765190299E+03  0.60373975529E+03  0.00000000000E+00 0.  1.
         21    1    1    2  505  502  0.56365932726E+02 -0.94440039408E+01  0.38237378452E+03  0.38662128584E+03  0.00000000000E+00 0.  1.
          1    1    1    2  501    0  0.61467812252E+02  0.30425004531E+02 -0.11264773072E+04  0.11285632886E+04  0.00000000000E+00 0.  1.
<scales pt_clust_3="53.03190" pt_clust_4="91.34143" pt_clust_5="57.18310" pt_clust_6="14000.00000"></scales>
<clustering>
<clus scale="   53.032">  2  3  1 -1</clus>
<clus scale="   57.183">  1  5  2 -1</clus>
<clus scale="   91.341">  1  4  2 -1</clus>
<clus scale="   57.183">  1  3  2 -1</clus>
</clustering>
</event>
<event>
 6    0  0.5775861E+002  0.2348523E+03  0.7546771E-02  0.1123270E+00
         21   -1    0    0  503  502  0.00000000000E+00  0.00000000000E+00  0.69094594439E+02  0.69094594439E+02  0.00000000000E+00 0. -1.
          2   -1    0    0  505    0 -0.00000000000E+00 -0.00000000000E+00 -0.38426750998E+04  0.38426750998E+04  0.00000000000E+00 0. -1.
         21    1    1    2  503  504 -0.12003116755E+03 -0.20288243327E+03 -0.58302557204E+03  0.62887803314E+03  0.00000000000E+00 0. -1.
         21    1    1    2  504  501 -0.10471029150E+03 -0.25023567241E+02 -0.25572062328E+03  0.27745893612E+03  0.00000000000E+00 0. -1.
         21    1    1    2  505  502  0.11432255784E+03  0.75495191937E+02 -0.11372395302E+03  0.17805142158E+03  0.00000000000E+00 0. -1.
          2    1    1    2  501    0  0.11041890121E+03  0.15241080857E+03 -0.28211103571E+04  0.28273813034E+04  0.00000000000E+00 0. -1.
<scales pt_clust_3="84.14071" pt_clust_4="84.14071" pt_clust_5="137.00062" pt_clust_6="199.13300"></scales>
<clustering>
<clus scale="   84.141">  3  4 -1 -1</clus>
<clus scale="  137.001">  1  5  2 -1</clus>
<clus scale="  199.133">  2  6  1 -1</clus>
<clus scale="  137.001">  1  3  2 -1</clus>
</clustering>
</event>
<event>
 6    0  0.7168494E+002  0.1583180E+03  0.7546771E-02  0.1190609E+00
         -4   -1    0    0    0  501 -0.00000000000E+00  0.00000000000E+00  0.24977962360E+04  0.24977962360E+04  0.00000000000E+00 0.  1.
         21   -1    0    0  503  502  0.00000000000E+00 -0.00000000000E+00 -0.15859374443E+03  0.15859374443E+03  0.00000000000E+00 0. -1.
         21    1    1    2  503  501 -0.18128974896E+02  0.36493339248E+02 -0.12287631911E+03  0.12945660794E+03  0.00000000000E+00 0. -1.
         21    1    1    2  504  502 -0.11676620853E+03  0.23719741375E+02  0.89761895938E+02  0.14917832130E+03  0.00000000000E+00 0. -1.
         21    1    1    2  505  504  0.81646240818E+02 -0.43308943239E+02  0.98859257949E+03  0.99290334949E+03  0.00000000000E+00 0.  1.
         -4    1    1    2    0  505  0.53248942604E+02 -0.16904137384E+02  0.13837243353E+04  0.13848517017E+04  0.00000000000E+00 0.  1.
<scales pt_clust_3="40.74829" pt_clust_4="145.10471" pt_clust_5="49.60338" pt_clust_6="49.60338"></scales>
<clustering>
<clus scale="   40.748">  2  3  1 -1</clus>
<clus scale="   49.603">  5  6 -1 -1</clus>
<clus scale="  145.105">  2  4  1 -1</clus>
<clus scale="   40.748">  2  3  1 -1</clus>
</clustering>
</event>
<event>
 6    0  0.5775861E+002  0.2033671E+03  0.7546771E-02  0.1146929E+00
         21   -1    0    0  504  502  0.00000000000E+00  0.00000000000E+00  0.73767977253E+03  0.73767977253E+03  0.00000000000E+00 0. -1.
          2   -1    0    0  503    0 -0.00000000000E+00 -0.00000000000E+00 -0.23959033783E+04  0.23959033783E+04  0.00000000000E+00 0.  1.
         21    1    1    2  503  505 -0.28574322315E+02 -0.49534862721E+02 -0.11567597625E+02  0.58343841452E+02  0.00000000000E+00 0.  1.
         21    1    1    2  504  501 -0.15117178673E+03  0.38086206886E+02 -0.27734997752E+03  0.31816108858E+03  0.00000000000E+00 0.  1.
         21    1    1    2  505  502  0.20555284242E+03 -0.12561004777E+02  0.67845128600E+03  0.70901755785E+03  0.00000000000E+00 0. -1.
          2    1    1    2  501    0 -0.25806733380E+02  0.24009660612E+02 -0.20477573166E+04  0.20480606629E+04  0.00000000000E+00 0.  1.
<scales pt_clust_3="56.49729" pt_clust_4="203.36710" pt_clust_5="14000.00000" pt_clust_6="35.24842"></scales>
<clustering>
<clus scale="   35.248">  2  6  1 -1</clus>
<clus scale="   56.497">  2  3  1 -1</clus>
<clus scale="  203.367">  2  4  1 -1</clus>
<clus scale="  203.367">  1  3  2 -1</clus>
</clustering>
</event>
<event>
 6    0  0.5775861E+002  0.8885053E+02  0.7546771E-02  0.1305659E+00
          2   -1    0    0  505    0 -0.00000000000E+00  0.00000000000E+00  0.17061978310E+04  0.17061978310E+04  0.00000000000E+00 0.  1.
         21   -1    0    0  504  502  0.00000000000E+00 -0.00000000000E+00 -0.18286620124E+03  0.18286620124E+03  0.00000000000E+00 0. -1.
         21    1    1    2  503  501 -0.58070850303E+02 -0.40475176885E+02  0.14622015623E+03  0.16245244747E+03  0.00000000000E+00 0. -1.
         21    1    1    2  504  503 -0.41195641585E+02 -0.15404459164E+02 -0.54005736292E+02  0.69649104806E+02  0.00000000000E+00 0. -1.
         21    1    1    2  505  502  0.12919208003E+03  0.31550129921E+02 -0.73434504181E+02  0.15191652525E+03  0.00000000000E+00 0. -1.
          2    1    1    2  501    0 -0.29925588141E+02  0.24329506128E+02  0.15045517140E+04  0.15050459547E+04  0.00000000000E+00 0.  1.
<scales pt_clust_3="14000.00000" pt_clust_4="44.75787" pt_clust_5="88.85053" pt_clust_6="38.56768"></scales>
<clustering>
<clus scale="   38.568">  1  6  2 -1</clus>
<clus scale="   44.758">  2  4  1 -1</clus>
<clus scale="   88.851">  2  5  1 -1</clus>
<clus scale="   44.758">  2  3  1 -1</clus>
</clustering>
</event>
<event>
 6    0  0.5775861E+002  0.8155232E+02  0.7546771E-02  0.1324703E+00
         -4   -1    0    0    0  501 -0.00000000000E+00  0.00000000000E+00  0.86897169005E+03  0.86897169005E+03  0.00000000000E+00 0.  1.
         21   -1    0    0  504  502  0.00000000000E+00 -0.00000000000E+00 -0.13730932986E+03  0.13730932986E+03  0.00000000000E+00 0.  1.
         21    1    1    2  503  501 -0.52733561575E+02  0.28634092414E+02  0.10024897891E+03  0.11683577165E+03  0.00000000000E+00 0.  1.
         21    1    1    2  504  505  0.79206137294E+02 -0.23027005163E+02 -0.10109665340E+03  0.13047754014E+03  0.00000000000E+00 0.  1.
         21    1    1    2  505  503  0.35026692127E+02  0.59583172061E+02  0.10911202550E+03  0.12916058866E+03  0.00000000000E+00 0.  1.
         -4    1    1    2    0  502 -0.61499267846E+02 -0.65190259312E+02  0.62339800919E+03  0.62980711945E+03  0.00000000000E+00 0.  1.
<scales pt_clust_3="60.00616" pt_clust_4="81.55232" pt_clust_5="69.43510" pt_clust_6="14000.00000"></scales>
<clustering>
<clus scale="   60.006">  1  3  2 -1</clus>
<clus scale="   69.435">  1  5  2 -1</clus>
<clus scale="   81.552">  2  4  1 -1</clus>
<clus scale="   81.552">  2  3  1 -1</clus>
</clustering>
</event>
<event>
 6    0  0.5775861E+002  0.1488476E+03  0.7546771E-02  0.1201896E+00
          2   -1    0    0  503    0 -0.00000000000E+00  0.00000000000E+00  0.18842298133E+04  0.18842298133E+04  0.00000000000E+00 0.  1.
         21   -1    0    0  504  502  0.00000000000E+00 -0.00000000000E+00 -0.13543179957E+03  0.13543179957E+03  0.00000000000E+00 0.  1.
         21    1    1    2  503  505 -0.66561623520E+02  0.63269606205E+02  0.69706988744E+02  0.11529335226E+03  0.00000000000E+00 0. -1.
         21    1    1    2  504  501 -0.24581317450E+02 -0.99671493193E+02  0.19278221323E+03  0.21841160560E+03  0.00000000000E+00 0. -1.
         21    1    1    2  505  502 -0.38970799378E+02 -0.75446105380E+02 -0.76177242313E+02  0.11407808846E+03  0.00000000000E+00 0.  1.
          2    1    1    2  501    0  0.13011374035E+03  0.11184799237E+03  0.15624860541E+04  0.15718785666E+04  0.00000000000E+00 0.  1.
<scales pt_clust_3="90.96462" pt_clust_4="148.84764" pt_clust_5="84.91665" pt_clust_6="14000.00000"></scales>
<clustering>
<clus scale="   84.917">  2  5  1 -1</clus>
<clus scale="   90.965">  2  3  1 -1</clus>
<clus scale="  148.848">  2  4  1 -1</clus>
<clus scale="   84.917">  2  3  1 -1</clus>
</clustering>
</event>
<event>
 6    0  0.5775861E+002  0.7572752E+02  0.7546771E-02  0.1341633E+00
          2   -1    0    0  505    0 -0.00000000000E+00  0.00000000000E+00  0.11253599060E+03  0.11253599060E+03  0.00000000000E+00 0.  1.
         21   -1    0    0  501  502  0.00000000000E+00 -0.00000000000E+00 -0.97738322828E+03  0.97738322828E+03  0.00000000000E+00 0. -1.
         21    1    1    2  503  504 -0.45463869200E+01 -0.98476931012E+02 -0.19974464728E+03  0.22274716540E+03  0.00000000000E+00 0.  1.
         21    1    1    2  504  502  0.55959998715E+02  0.51292250194E+02 -0.71042739623E+03  0.71447148418E+03  0.00000000000E+00 0. -1.
         21    1    1    2  505  503 -0.71157941668E+00  0.58734672727E+02 -0.26161464354E+02  0.64301557857E+02  0.00000000000E+00 0.  1.
          2    1    1    2  501    0 -0.50702032379E+02 -0.11549991910E+02  0.71486270190E+02  0.88399011454E+02  0.00000000000E+00 0.  1.
<scales pt_clust_3="75.72752" pt_clust_4="14000.00000" pt_clust_5="60.20257" pt_clust_6="52.00095"></scales>
<clustering>
<clus scale="   52.001">  1  6  2 -1</clus>
<clus scale="   60.203">  1  5  2 -1</clus>
<clus scale="   75.728">  1  3  2 -1</clus>
<clus scale="   75.728">  2  3  1 -1</clus>
</clustering>
</event>
<event>
 6    0  0.5775861E+002  0.9235551E+02  0.7546771E-02  0.1297246E+00
         21   -1    0    0  505  502  0.00000000000E+00  0.00000000000E+00  0.32667830880E+02  0.32667830880E+02  0.00000000000E+00 0. -1.
          1   -1    0    0  504    0 -0.00000000000E+00 -0.00000000000E+00 -0.26318231747E+04  0.26318231747E+04  0.00000000000E+00 0. -1.
         21    1    1    2  503  501  0.53624297878E+02 -0.94782104361E+02 -0.60549503922E+03  0.61521009025E+03  0.00000000000E+00 0. -1.
         21    1    1    2  504  502 -0.12129979028E+03  0.61759750274E+01 -0.35967651583E+03  0.37963005390E+03  0.00000000000E+00 0. -1.
         21    1    1    2  505  503  0.59125228729E+02  0.37682785428E+02 -0.53168497542E+02  0.87992466273E+02  0.00000000000E+00 0. -1.
          1    1    1    2  501    0  0.85502636700E+01  0.50923343905E+02 -0.15808152913E+04  0.15816583952E+04  0.00000000000E+00 0. -1.
<scales pt_clust_3="92.35551" pt_clust_4="14000.00000" pt_clust_5="72.48159" pt_clust_6="51.63617"></scales>
<clustering>
<clus scale="   51.636">  2  6  1 -1</clus>
<clus scale="   72.482">  1  5  2 -1</clus>
<clus scale="   92.356">  2  3  1 -1</clus>
<clus scale="   72.482">  1  3  2 -1</clus>
</clustering>
</event>
<event>
 6    0  0.5775861E+002  0.1499622E+03  0.7546771E-02  0.1200519E+00
         21   -1    0    0  503  502  0.00000000000E+00  0.00000000000E+00  0.18974267274E+04  0.18974267274E+04  0.00000000000E+00 0. -1.
         -4   -1    0    0    0  501 -0.00000000000E+00 -0.00000000000E+00 -0.29349577431E+03  0.29349577431E+03  0.00000000000E+00 0. -1.
         21    1    1    2  503  505 -0.71688644799E+02 -0.13594456756E+03  0.11037212832E+04  0.11143701621E+04  0.00000000000E+00 0. -1.
         21    1    1    2  504  502  0.52617355962E+02 -0.13656360500E+02  0.73958155760E+03  0.74157667349E+03  0.00000000000E+00 0. -1.
         21    1    1    2  505  501 -0.13632794682E+02  0.27398642461E+02  0.26538942682E+02  0.40507458303E+02  0.00000000000E+00 0. -1.
         -4    1    1    2    0  504  0.32704083519E+02  0.12220228560E+03 -0.26591083038E+03  0.29446820779E+03  0.00000000000E+00 0. -1.
<scales pt_clust_3="14000.00000" pt_clust_4="54.29082" pt_clust_5="30.60292" pt_clust_6="149.96220"></scales>
<clustering>
<clus scale="   30.603">  2  5  1 -1</clus>
<clus scale="   54.291">  1  4  2 -1</clus>
<clus scale="  149.962">  2  6  1 -1</clus>
<clus scale="   54.291">  1  3  2 -1</clus>
</clustering>
</event>
<event>
 6    0  0.5775861E+002  0.6730460E+02  0.7546771E-02  0.1369506E+00
         21   -1    0    0  503  502  0.00000000000E+00  0.00000000000E+00  0.14536880702E+03  0.14536880702E+03  0.00000000000E+00 0.  1.
          1   -1    0    0  505    0 -0.00000000000E+00 -0.00000000000E+00 -0.76463098013E+03  0.76463098013E+03  0.00000000000E+00 0.  1.
         21    1    1    2  503  501  0.17106928285E+02  0.25636257617E+02  0.27121242964E+01  0.30938977329E+02  0.00000000000E+00 0.  1.
         21    1    1    2  504  502  0.49167918005E+01 -0.61514514973E+02  0.10679639899E+03  0.12334375230E+03  0.00000000000E+00 0.  1.
         21    1    1    2  505  504 -0.93247036976E+01  0.97555727405E+02 -0.19496135531E+03  0.21820632464E+03  0.00000000000E+00 0.  1.
          1    1    1    2  501    0 -0.12699016388E+02 -0.61677470049E+02 -0.53380934109E+03  0.53751073288E+03  0.00000000000E+00 0.  1.
<scales pt_clust_3="30.81988" pt_clust_4="43.54954" pt_clust_5="14000.00000" pt_clust_6="67.30460"></scales>
<clustering>
<clus scale="   30.820">  1  3  2 -1</clus>
<clus scale="   43.550">  1  4  2 -1</clus>
<clus scale="   67.305">  2  6  1 -1</clus>
<clus scale="   30.820">  1  3  2 -1</clus>
</clustering>
</event>
<event>
 6    0  0.5775861E+002  0.1044253E+03  0.7546771E-02  0.1271256E+00
          2   -1    0    0  505    0 -0.00000000000E+00  0.00000000000E+00  0.18396511530E+04  0.18396511530E+04  0.00000000000E+00 0. -1.
         21   -1    0    0  503  502  0.00000000000E+00 -0.00000000000E+00 -0.26693314658E+03  0.26693314658E+03  0.00000000000E+00 0.  1.
         21    1    1    2  503  501  0.49189511584E+02 -0.54075684533E+02  0.38775900659E+02  0.82748765425E+02  0.00000000000E+00 0.  1.
         21    1    1    2  504  502  0.55103172179E+01  0.40655048563E+02 -0.19721874692E+03  0.20144088638E+03  0.00000000000E+00 0.  1.
         21    1    1    2  505  504 -0.15241309595E+03  0.44200127708E+02  0.99041324614E+02  0.18706305645E+03  0.00000000000E+00 0.  1.
          2    1    1    2  501    0  0.97713267151E+02 -0.30779491739E+02  0.16321195281E+04  0.16353315913E+04  0.00000000000E+00 0. -1.
<scales pt_clust_3="65.33099" pt_clust_4="41.02678" pt_clust_5="14000.00000" pt_clust_6="104.42525"></scales>
<clustering>
<clus scale="   41.027">  2  4  1 -1</clus>
<clus scale="   65.331">  2  3  1 -1</clus>
<clus scale="  104.425">  1  6  2 -1</clus>
<clus scale="   41.027">  2  3  1 -1</clus>
</clustering>
</event>
<event>
 6    0  0.5775861E+002  0.1024149E+03  0.7546771E-02  0.1275298E+00
         -1   -1    0    0    0  501 -0.00000000000E+00  0.00000000000E+00  0.67964732680E+03  0.67964732680E+03  0.00000000000E+00 0. -1.
         21   -1    0    0  501  502  0.00000000000E+00 -0.00000000000E+00 -0.20659832133E+04  0.20659832133E+04  0.00000000000E+00 0.  1.
         21    1    1    2  503  505 -0.75409869238E+02  0.20061238903E+02  0.99287679549E+02  0.12628200582E+03  0.00000000000E+00 0. -1.
         21    1    1    2  504  502  0.37376370372E+02  0.91643106222E+02 -0.19251089923E+04  0.19276514426E+04  0.00000000000E+00 0.  1.
         21    1    1    2  505  504  0.78232681727E+02 -0.92086829639E+02 -0.96013132940E+02  0.15433359446E+03  0.00000000000E+00 0. -1.
         -1    1    1    2    0  503 -0.40199182862E+02 -0.19617515486E+02  0.53549855919E+03  0.53736349719E+03  0.00000000000E+00 0. -1.
<scales pt_clust_3="14000.00000" pt_clust_4="98.67634" pt_clust_5="102.41486" pt_clust_6="44.73054"></scales>
<clustering>
<clus scale="   44.731">  1  6  2 -1</clus>
<clus scale="   98.676">  2  4  1 -1</clus>
<clus scale="  102.415">  2  5  1 -1</clus>
<clus scale="   98.676">  2  3  1 -1</clus>
</clustering>
</event>
<event>
 6    0  0.5775861E+002  0.1166200E+03  0.7546771E-02  0.1248780E+00
         21   -1    0    0  504  502  0.00000000000E+00  0.00000000000E+00  0.19012010139E+04  0.19012010139E+04  0.00000000000E+00 0. -1.
          2   -1    0    0  503    0 -0.00000000000E+00 -0.00000000000E+00 -0.33812871357E+03  0.33812871357E+03  0.00000000000E+00 0. -1.
         21    1    1    2  503  505  0.20291401937E+02 -0.61718781415E+02  0.21339263934E+03  0.22306359518E+03  0.00000000000E+00 0.  1.
         21    1    1    2  504  501  0.73458838772E+02  0.19765676163E+02  0.16472209311E+03  0.18143938632E+03  0.00000000000E+00 0.  1.
         21    1    1    2  505  502  0.23714689126E+02  0.19041233274E+02  0.14987127644E+04  0.14990213158E+04  0.00000000000E+00 0. -1.
          2    1    1    2  501    0 -0.11746492984E+03  0.22911871979E+02 -0.31375519650E+03  0.33580543019E+03  0.00000000000E+00 0. -1.
<scales pt_clust_3="61.15732" pt_clust_4="14000.00000" pt_clust_5="30.41307" pt_clust_6="116.61998"></scales>
<clustering>
<clus scale="   30.413">  1  5  2 -1</clus>
<clus scale="   61.157">  1  3  2 -1</clus>
<clus scale="  116.620">  2  6  1 -1</clus>
<clus scale="   30.413">  1  3  2 -1</clus>
</clustering>
</event>
<event>
 6    0  0.5775861E+002  0.8149318E+02  0.7546771E-02  0.1324867E+00
          2   -1    0    0  505    0 -0.00000000000E+00  0.00000000000E+00  0.31810471518E+03  0.31810471518E+03  0.00000000000E+00 0. -1.
         21   -1    0    0  503  502  0.00000000000E+00 -0.00000000000E+00 -0.93347020590E+03  0.93347020590E+03  0.00000000000E+00 0. -1.
         21    1    1    2  503  501  0.43049647232E+02 -0.49083408551E+02 -0.64159829768E+03  0.64491148905E+03  0.00000000000E+00 0. -1.
         21    1    1    2  504  502 -0.11997236982E+03  0.39437450613E+02 -0.24905045058E+03  0.27923969805E+03  0.00000000000E+00 0. -1.
         21    1    1    2  505  504 -0.12856656192E+02 -0.41674618007E+02  0.13029500689E+02  0.45517417355E+02  0.00000000000E+00 0. -1.
          2    1    1    2  501    0  0.89779378779E+02  0.51320575946E+02  0.26225375686E+03  0.28190631663E+03  0.00000000000E+00 0. -1.
<scales pt_clust_3="65.41889" pt_clust_4="81.49318" pt_clust_5="43.61270" pt_clust_6="14000.00000"></scales>
<clustering>
<clus scale="   43.613">  1  5  2 -1</clus>
<clus scale="   65.419">  2  3  1 -1</clus>
<clus scale="   81.493">  2  4  1 -1</clus>
<clus scale="   65.419">  2  3  1 -1</clus>
</clustering>
</event>
<event>
 6    0  0.5775861E+002  0.1007420E+03  0.7546771E-02  0.1278743E+00
         21   -1    0    0  503  502  0.00000000000E+00  0.00000000000E+00  0.41345509058E+02  0.41345509058E+02  0.00000000000E+00 0. -1.
          2   -1    0    0  505    0 -0.00000000000E+00 -0.00000000000E+00 -0.10053024720E+04  0.10053024720E+04  0.00000000000E+00 0. -1.
         21    1    1    2  503  504  0.79657647094E+02 -0.80371325675E+02 -0.59550951471E+02  0.12787183643E+03  0.00000000000E+00 0. -1.
         21    1    1    2  504  501 -0.70199968900E+02  0.20362612896E+02 -0.26083789524E+03  0.27088573095E+03  0.00000000000E+00 0. -1.
         21    1    1    2  505  502  0.10056206734E+02  0.28716960378E+02 -0.15663830969E+03  0.15956613415E+03  0.00000000000E+00 0. -1.
          2    1    1    2  501    0 -0.19513884929E+02  0.31291752401E+02 -0.48692980653E+03  0.48832427951E+03  0.00000000000E+00 0. -1.
<scales pt_clust_3="100.74202" pt_clust_4="14000.00000" pt_clust_5="30.42682" pt_clust_6="49.75136"></scales>
<clustering>
<clus scale="   30.427">  2  5  1 -1</clus>
<clus scale="   49.751">  2  6  1 -1</clus>
<clus scale="  100.742">  1  3  2 -1</clus>
<clus scale="  100.742">  1  3  2 -1</clus>
</clustering>
</event>
<event>
 6    0  0.5775861E+002  0.1201553E+03  0.7546771E-02  0.1242841E+00
         21   -1    0    0  504  502  0.00000000000E+00  0.00000000000E+00  0.16549089865E+03  0.16549089865E+03  0.00000000000E+00 0.  1.
          2   -1    0    0  502    0 -0.00000000000E+00 -0.00000000000E+00 -0.18421927560E+04  0.18421927560E+04  0.00000000000E+00 0.  1.
         21    1    1    2  503  505  0.32504557349E+02 -0.24320527076E+02  0.72698558364E+02  0.83265326961E+02  0.00000000000E+00 0.  1.
         21    1    1    2  504  503  0.31725864699E+02  0.24695504604E+02  0.72383973182E+02  0.82799987996E+02  0.00000000000E+00 0.  1.
         21    1    1    2  505  501  0.59779034752E+02  0.58806016346E+02 -0.24690820844E+03  0.26075916849E+03  0.00000000000E+00 0.  1.
          2    1    1    2  501    0 -0.12400945680E+03 -0.59180993874E+02 -0.15748761804E+04  0.15808591712E+04  0.00000000000E+00 0.  1.
<scales pt_clust_3="60.69894" pt_clust_4="40.20446" pt_clust_5="14000.00000" pt_clust_6="120.15535"></scales>
<clustering>
<clus scale="   40.204">  1  4  2 -1</clus>
<clus scale="   60.699">  1  3  2 -1</clus>
<clus scale="  120.155">  2  6  1 -1</clus>
<clus scale="   40.204">  1  3  2 -1</clus>
</clustering>
</event>
<event>
 6    0  0.5775861E+002  0.1770261E+03  0.7546771E-02  0.1170713E+00
          1   -1    0    0  505    0 -0.00000000000E+00  0.00000000000E+00  0.24077554680E+04  0.24077554680E+04  0.00000000000E+00 0.  1.
         21   -1    0    0  501  502  0.00000000000E+00 -0.00000000000E+00 -0.23292620343E+03  0.23292620343E+03  0.00000000000E+00 0.  1.
         21    1    1    2  503  502 -0.15834253313E+03  0.10102899392E+03 -0.14351970541E+03  0.23638342001E+03  0.00000000000E+00 0.  1.
         21    1    1    2  504  503  0.10561480985E+03 -0.94375989981E+02  0.12698259405E+03  0.19022590448E+03  0.00000000000E+00 0. -1.
         21    1    1    2  505  504  0.53025357081E+02  0.48856353908E+02  0.10734580205E+03  0.12931261744E+03  0.00000000000E+00 0.  1.
          1    1    1    2  501    0 -0.29763379515E+00 -0.55509357850E+02  0.20840205739E+04  0.20847597295E+04  0.00000000000E+00 0.  1.
<scales pt_clust_3="14000.00000" pt_clust_4="177.02610" pt_clust_5="60.12402" pt_clust_6="55.51016"></scales>
<clustering>
<clus scale="   55.510">  1  6  2 -1</clus>
<clus scale="   60.124">  1  5  2 -1</clus>
<clus scale="  177.026">  1  4  2 -1</clus>
<clus scale="  177.026">  2  3  1 -1</clus>
</clustering>
</event>
<event>
 6    0  0.5775861E+002  0.1096676E+03  0.7546771E-02  0.1261187E+00
         21   -1    0    0  503  502  0.00000000000E+00  0.00000000000E+00  0.82006847938E+03  0.82006847938E+03  0.00000000000E+00 0.  1.
          1   -1    0    0  504    0 -0.00000000000E+00 -0.00000000000E+00 -0.32302978977E+03  0.32302978977E+03  0.00000000000E+00 0. -1.
         21    1    1    2  503  505 -0.16011484868E+02  0.26122414503E+02  0.51086927059E+03  0.51178722123E+03  0.00000000000E+00 0.  1.
         21    1    1    2  504  502  0.29608093523E+02 -0.72551203765E+02  0.34102640897E+00  0.78360912889E+02  0.00000000000E+00 0. -1.
         21    1    1    2  505  501 -0.61852750209E+01  0.10157885127E+03  0.25684942556E+03  0.27627549306E+03  0.00000000000E+00 0. -1.
          1    1    1    2  501    0 -0.74113336341E+01 -0.55150062012E+02 -0.27102103295E+03  0.27667464197E+03  0.00000000000E+00 0. -1.
<scales pt_clust_3="30.63900" pt_clust_4="14000.00000" pt_clust_5="109.66762" pt_clust_6="55.42858"></scales>
<clustering>
<clus scale="   30.639">  1  3  2 -1</clus>
<clus scale="   55.429">  2  6  1 -1</clus>
<clus scale="  109.668">  1  5  2 -1</clus>
<clus scale="   30.639">  1  3  2 -1</clus>
</clustering>
</event>
<event>
 6    0  0.5775861E+002  0.8848020E+02  0.7546771E-02  0.1306574E+00
         21   -1    0    0  503  502  0.00000000000E+00  0.00000000000E+00  0.27279412780E+04  0.27279412780E+04  0.00000000000E+00 0. -1.
         -1   -1    0    0    0  501 -0.00000000000E+00 -0.00000000000E+00 -0.21951485948E+02  0.21951485948E+02  0.00000000000E+00 0. -1.
         21    1    1    2  503  505  0.16928502098E+02 -0.35458898670E+02  0.47946684932E+03  0.48107418064E+03  0.00000000000E+00 0. -1.
         21    1    1    2  504  502  0.10502390174E+03  0.41557585881E+01  0.16194263445E+04  0.16228336253E+04  0.00000000000E+00 0. -1.
         21    1    1    2  505  501 -0.66208249939E+02  0.22378556445E+02  0.57849079124E+03  0.58269711489E+03  0.00000000000E+00 0. -1.
         -1    1    1    2    0  504 -0.55744153895E+02  0.89245836367E+01  0.28605806957E+02  0.63287843052E+02  0.00000000000E+00 0. -1.
<scales pt_clust_3="39.29259" pt_clust_4="14000.00000" pt_clust_5="88.48020" pt_clust_6="56.00165"></scales>
<clustering>
<clus scale="   39.293">  1  3  2 -1</clus>
<clus scale="   56.002">  2  6  1 -1</clus>
<clus scale="   88.480">  1  5  2 -1</clus>
<clus scale="   39.293">  1  3  2 -1</clus>
</clustering>
</event>
<event>
 6    0  0.5775861E+002  0.1125264E+03  0.7546771E-02  0.1255962E+00
         21   -1    0    0  501  502  0.00000000000E+00  0.00000000000E+00  0.11633724453E+03  0.11633724453E+03  0.00000000000E+00 0. -1.
          2   -1    0    0  505    0 -0.00000000000E+00 -0.00000000000E+00 -0.14329613495E+04  0.14329613495E+04  0.00000000000E+00 0. -1.
         21    1    1    2  503  504 -0.65818657183E+02 -0.93237170262E+02  0.48324029539E+02  0.12393739300E+03  0.00000000000E+00 0. -1.
         21    1    1    2  504  502 -0.25730660953E+02  0.17098727422E+02  0.15569397721E+02  0.34595368735E+02  0.00000000000E+00 0. -1.
         21    1    1    2  505  503  0.40347602787E+02  0.19303590002E+02 -0.10710607923E+04  0.10719942997E+04  0.00000000000E+00 0. -1.
          2    1    1    2  501    0  0.51201715350E+02  0.56834852838E+02 -0.30945673986E+03  0.31877153260E+03  0.00000000000E+00 0. -1.
<scales pt_clust_3="112.52639" pt_clust_4="30.89391" pt_clust_5="44.64682" pt_clust_6="14000.00000"></scales>
<clustering>
<clus scale="   30.894">  1  4  2 -1</clus>
<clus scale="   44.647">  2  5  1 -1</clus>
<clus scale="  112.526">  1  3  2 -1</clus>
<clus scale="   30.894">  1  3  2 -1</clus>
</clustering>
</event>
<event>
 6    0  0.5775861E+002  0.1411846E+03  0.7546771E-02  0.1211744E+00
         21   -1    0    0  503  502  0.00000000000E+00  0.00000000000E+00  0.17416189209E+03  0.17416189209E+03  0.00000000000E+00 0.  1.
          1   -1    0    0  504    0 -0.00000000000E+00 -0.00000000000E+00 -0.36184894240E+03  0.36184894240E+03  0.00000000000E+00 0.  1.
         21    1    1    2  503  505  0.11072151163E+02  0.64381782709E+02  0.32566117887E+02  0.72994236145E+02  0.00000000000E+00 0.  1.
         21    1    1    2  504  502 -0.51212591364E+02 -0.92113893664E+02 -0.13738653066E+03  0.17315529945E+03  0.00000000000E+00 0.  1.
         21    1    1    2  505  501  0.51938581311E+02  0.56340795870E+02  0.87728212060E+02  0.11648236218E+03  0.00000000000E+00 0.  1.
          1    1    1    2  501    0 -0.11798141110E+02 -0.28608684915E+02 -0.17059484960E+03  0.17337893671E+03  0.00000000000E+00 0.  1.
<scales pt_clust_3="49.07855" pt_clust_4="130.56311" pt_clust_5="49.07855" pt_clust_6="30.94597"></scales>
<clustering>
<clus scale="   30.946">  2  6  1 -1</clus>
<clus scale="   49.079">  3  5 -1 -1</clus>
<clus scale="  130.563">  2  4  1 -1</clus>
<clus scale="  141.185">  1  3  2 -1</clus>
</clustering>
</event>
<event>
 6    0  0.5775861E+002  0.8552671E+02  0.7546771E-02  0.1314061E+00
         21   -1    0    0  503  502  0.00000000000E+00  0.00000000000E+00  0.74697490188E+03  0.74697490188E+03  0.00000000000E+00 0.  1.
          1   -1    0    0  504    0 -0.00000000000E+00 -0.00000000000E+00 -0.23852543774E+03  0.23852543774E+03  0.00000000000E+00 0.  1.
         21    1    1    2  503  501  0.65846414147E+02  0.75265536593E+02  0.68366948033E+03  0.69094472253E+03  0.00000000000E+00 0.  1.
         21    1    1    2  504  505 -0.44590865311E+02 -0.75070924515E+02 -0.15532664845E+03  0.17818629772E+03  0.00000000000E+00 0.  1.
         21    1    1    2  505  502  0.12403802999E+02 -0.38826447776E+02  0.25362743711E+02  0.48006417740E+02  0.00000000000E+00 0. -1.
          1    1    1    2  501    0 -0.33659351836E+02  0.38631835698E+02 -0.45256111457E+02  0.68362901632E+02  0.00000000000E+00 0.  1.
<scales pt_clust_3="85.52671" pt_clust_4="14000.00000" pt_clust_5="40.75963" pt_clust_6="50.63036"></scales>
<clustering>
<clus scale="   40.760">  1  5  2 -1</clus>
<clus scale="   50.630">  2  6  1 -1</clus>
<clus scale="   85.527">  1  3  2 -1</clus>
<clus scale="   40.760">  1  3  2 -1</clus>
</clustering>
</event>
<event>
 6    0  0.5775861E+002  0.7248179E+02  0.7546771E-02  0.1351851E+00
          1   -1    0    0  504    0 -0.00000000000E+00  0.00000000000E+00  0.54458072211E+03  0.54458072211E+03  0.00000000000E+00 0. -1.
         21   -1    0    0  505  502  0.00000000000E+00 -0.00000000000E+00 -0.14636490433E+03  0.14636490433E+03  0.00000000000E+00 0. -1.
         21    1    1    2  503  501  0.44993488176E+02 -0.51266631789E+02 -0.37147416919E+02  0.77669891831E+02  0.00000000000E+00 0. -1.
         21    1    1    2  504  502 -0.77469855364E+02  0.51436129145E+02  0.38466069014E+02  0.10063246165E+03  0.00000000000E+00 0. -1.
         21    1    1    2  505  503  0.29326835647E+02  0.60174345715E+02 -0.35687159555E+02  0.75859004267E+02  0.00000000000E+00 0. -1.
          1    1    1    2  501    0  0.31495315413E+01 -0.60343843071E+02  0.43258432523E+03  0.43678426870E+03  0.00000000000E+00 0. -1.
<scales pt_clust_3="72.48179" pt_clust_4="14000.00000" pt_clust_5="57.52748" pt_clust_6="60.42598"></scales>
<clustering>
<clus scale="   60.426">  1  6  2 -1</clus>
<clus scale="   57.527">  2  5  1 -1</clus>
<clus scale="   72.482">  2  3  1 -1</clus>
<clus scale="   57.527">  2  3  1 -1</clus>
</clustering>
</event>
<event>
 6    0  0.5775861E+002  0.9465025E+02  0.7546771E-02  0.1291966E+00
          1   -1    0    0  504    0 -0.00000000000E+00  0.00000000000E+00  0.97723809238E+02  0.97723809238E+02  0.00000000000E+00 0.  1.
         21   -1    0    0  505  502  0.00000000000E+00 -0.00000000000E+00 -0.33724103196E+03  0.33724103196E+03  0.00000000000E+00 0. -1.
         21    1    1    2  503  501 -0.79195014225E+02  0.31117668635E+02 -0.54857907069E+02  0.10124005900E+03  0.00000000000E+00 0.  1.
         21    1    1    2  504  502  0.15055228698E+02 -0.33598575716E+02 -0.15493361319E+02  0.39944567169E+02  0.00000000000E+00 0.  1.
         21    1    1    2  505  503  0.10265328210E+03  0.14393337548E+02 -0.21136812716E+03  0.23541739458E+03  0.00000000000E+00 0. -1.
          1    1    1    2  501    0 -0.38513496578E+02 -0.11912430467E+02  0.42202172829E+02  0.58362820441E+02  0.00000000000E+00 0.  1.
<scales pt_clust_3="94.65025" pt_clust_4="36.81744" pt_clust_5="14000.00000" pt_clust_6="43.39126"></scales>
<clustering>
<clus scale="   36.817">  1  4  2 -1</clus>
<clus scale="   43.391">  1  6  2 -1</clus>
<clus scale="   94.650">  1  3  2 -1</clus>
<clus scale="   94.650">  2  3  1 -1</clus>
</clustering>
</event>
<event>
 6    0  0.5775861E+002  0.9216556E+02  0.7546771E-02  0.1297691E+00
          2   -1    0    0  503    0 -0.00000000000E+00  0.00000000000E+00  0.19676464546E+03  0.19676464546E+03  0.00000000000E+00 0. -1.
         21   -1    0    0  505  502  0.00000000000E+00 -0.00000000000E+00 -0.26009654988E+03  0.26009654988E+03  0.00000000000E+00 0. -1.
         21    1    1    2  503  502  0.53304310901E+02  0.92668516387E+02 -0.15378179214E+03  0.18729026425E+03  0.00000000000E+00 0. -1.
         21    1    1    2  504  501 -0.99277266246E+02 -0.61777327006E+01  0.21527991303E+01  0.99492585245E+02  0.00000000000E+00 0. -1.
         21    1    1    2  505  504  0.19237746910E+02 -0.31268735297E+02 -0.22763821448E+02  0.43197410572E+02  0.00000000000E+00 0. -1.
          2    1    1    2  501    0  0.26735208435E+02 -0.55222048390E+02  0.11106091003E+03  0.12688093527E+03  0.00000000000E+00 0. -1.
<scales pt_clust_3="92.16556" pt_clust_4="14000.00000" pt_clust_5="36.71273" pt_clust_6="62.62574"></scales>
<clustering>
<clus scale="   36.713">  2  5  1 -1</clus>
<clus scale="   62.626">  1  6  2 -1</clus>
<clus scale="   92.166">  2  3  1 -1</clus>
<clus scale="   36.713">  2  3  1 -1</clus>
</clustering>
</event>
<event>
 6    0  0.5775861E+002  0.7133181E+02  0.7546771E-02  0.1355622E+00
         21   -1    0    0  505  502  0.00000000000E+00  0.00000000000E+00  0.49271820318E+03  0.49271820318E+03  0.00000000000E+00 0.  1.
          2   -1    0    0  503    0 -0.00000000000E+00 -0.00000000000E+00 -0.51261270651E+03  0.51261270651E+03  0.00000000000E+00 0. -1.
         21    1    1    2  503  504 -0.39407148914E+02 -0.42866511876E+02  0.25462812575E+03  0.26120096410E+03  0.00000000000E+00 0. -1.
         21    1    1    2  504  502 -0.51350310197E+02  0.69533647934E+02  0.17464258271E+03  0.19486357856E+03  0.00000000000E+00 0.  1.
         21    1    1    2  505  501  0.22059221068E+02 -0.46670222841E+02  0.33361808071E+02  0.61463234310E+02  0.00000000000E+00 0.  1.
          2    1    1    2  501    0  0.68698238042E+02  0.20003086783E+02 -0.48252701987E+03  0.48780313272E+03  0.00000000000E+00 0. -1.
<scales pt_clust_3="14000.00000" pt_clust_4="65.55742" pt_clust_5="51.62092" pt_clust_6="71.33181"></scales>
<clustering>
<clus scale="   51.621">  1  5  2 -1</clus>
<clus scale="   65.557">  1  4  2 -1</clus>
<clus scale="   71.332">  2  6  1 -1</clus>
<clus scale="   51.621">  1  3  2 -1</clus>
</clustering>
</event>
<event>
 6    0  0.5775861E+002  0.1025798E+03  0.7546771E-02  0.1274963E+00
          2   -1    0    0  505    0 -0.00000000000E+00  0.00000000000E+00  0.11958789156E+04  0.11958789156E+04  0.00000000000E+00 0.  1.
         21   -1    0    0  503  502  0.00000000000E+00 -0.00000000000E+00 -0.65157813026E+03  0.65157813026E+03  0.00000000000E+00 0.  1.
         21    1    1    2  503  501  0.52031858653E+02 -0.47120096449E+02 -0.57901643042E+03  0.58325607113E+03  0.00000000000E+00 0.  1.
         21    1    1    2  504  502 -0.27528655332E+02 -0.16120802085E+02 -0.34623670430E+02  0.47079779930E+02  0.00000000000E+00 0.  1.
         21    1    1    2  505  504  0.80140482605E+02  0.59150800067E+02  0.64475500278E+02  0.11865245146E+03  0.00000000000E+00 0. -1.
          2    1    1    2  501    0 -0.10464368593E+03  0.40900984664E+01  0.10934653859E+04  0.10984687434E+04  0.00000000000E+00 0.  1.
<scales pt_clust_3="67.59276" pt_clust_4="31.90152" pt_clust_5="14000.00000" pt_clust_6="102.57978"></scales>
<clustering>
<clus scale="   31.902">  2  4  1 -1</clus>
<clus scale="   67.593">  2  3  1 -1</clus>
<clus scale="  102.580">  1  6  2 -1</clus>
<clus scale="   31.902">  2  3  1 -1</clus>
</clustering>
</event>
<event>
 6    0  0.5775861E+002  0.2780802E+03  0.7546771E-02  0.1096742E+00
         21   -1    0    0  501  502  0.00000000000E+00  0.00000000000E+00  0.78536422260E+02  0.78536422260E+02  0.00000000000E+00 0. -1.
         -4   -1    0    0    0  501 -0.00000000000E+00 -0.00000000000E+00 -0.26061086584E+04  0.26061086584E+04  0.00000000000E+00 0. -1.
         21    1    1    2  503  504 -0.84802273215E+02  0.10216642273E+03 -0.12940566186E+03  0.18540557920E+03  0.00000000000E+00 0. -1.
         21    1    1    2  504  502 -0.58926856916E+02  0.13833545933E+03 -0.10837928993E+03  0.18535140749E+03  0.00000000000E+00 0. -1.
         21    1    1    2  505  503  0.12867636169E+03 -0.20995900213E+03 -0.12768868682E+04  0.13004154963E+04  0.00000000000E+00 0.  1.
         -4    1    1    2    0  505  0.15052768436E+02 -0.30542879923E+02 -0.10129004161E+04  0.10134725977E+04  0.00000000000E+00 0. -1.
<scales pt_clust_3="46.13622" pt_clust_4="46.13622" pt_clust_5="273.69464" pt_clust_6="34.05075"></scales>
<clustering>
<clus scale="   34.051">  2  6  1 -1</clus>
<clus scale="   46.136">  3  4 -1 -1</clus>
<clus scale="  273.695">  2  5  1 -1</clus>
<clus scale="  278.080">  1  3  2 -1</clus>
</clustering>
</event>
<event>
 6    0  0.5775861E+002  0.1818140E+03  0.7546771E-02  0.1166059E+00
         21   -1    0    0  505  502  0.00000000000E+00  0.00000000000E+00  0.38756505404E+03  0.38756505404E+03  0.00000000000E+00 0. -1.
          2   -1    0    0  504    0 -0.00000000000E+00 -0.00000000000E+00 -0.23814036301E+03  0.23814036301E+03  0.00000000000E+00 0. -1.
         21    1    1    2  503  501 -0.10143537378E+03 -0.20649817714E+02  0.16345922135E+03  0.19347988803E+03  0.00000000000E+00 0. -1.
         21    1    1    2  504  502  0.14523561453E+03  0.40240420784E+02 -0.13105559945E+03  0.19972041794E+03  0.00000000000E+00 0. -1.
         21    1    1    2  505  503 -0.40239969703E+02 -0.69792848976E+02  0.15143835681E+03  0.17153388250E+03  0.00000000000E+00 0. -1.
          2    1    1    2  501    0 -0.35602710509E+01  0.50202245905E+02 -0.34417287692E+02  0.60971228591E+02  0.00000000000E+00 0. -1.
<scales pt_clust_3="66.53898" pt_clust_4="165.02589" pt_clust_5="66.53898" pt_clust_6="50.32833"></scales>
<clustering>
<clus scale="   50.328">  2  6  1 -1</clus>
<clus scale="   66.539">  3  5 -1 -1</clus>
<clus scale="  165.026">  2  4  1 -1</clus>
<clus scale="  181.814">  1  3  2 -1</clus>
</clustering>
</event>
<event>
 6    0  0.5775861E+002  0.1288952E+03  0.7546771E-02  0.1229104E+00
          2   -1    0    0  503    0 -0.00000000000E+00  0.00000000000E+00  0.16909940150E+04  0.16909940150E+04  0.00000000000E+00 0.  1.
         21   -1    0    0  505  502  0.00000000000E+00 -0.00000000000E+00 -0.63828665314E+02  0.63828665314E+02  0.00000000000E+00 0.  1.
         21    1    1    2  503  504  0.13197267090E+03  0.37109224714E+02  0.88024329586E+03  0.89085472459E+03  0.00000000000E+00 0.  1.
         21    1    1    2  504  502 -0.25727975633E+02 -0.17536051678E+02 -0.10427740033E+01  0.31153317901E+02  0.00000000000E+00 0.  1.
         21    1    1    2  505  501 -0.48031610586E+01  0.53413783794E+02 -0.18116891513E+02  0.56606752367E+02  0.00000000000E+00 0.  1.
          2    1    1    2  501    0 -0.10144153421E+03 -0.72986956830E+02  0.76608171939E+03  0.77620788550E+03  0.00000000000E+00 0.  1.
<scales pt_clust_3="128.89523" pt_clust_4="31.13586" pt_clust_5="46.87410" pt_clust_6="14000.00000"></scales>
<clustering>
<clus scale="   31.136">  2  4  1 -1</clus>
<clus scale="   46.874">  2  5  1 -1</clus>
<clus scale="  128.895">  2  3  1 -1</clus>
<clus scale="   31.136">  2  3  1 -1</clus>
</clustering>
</event>
<event>
 6    0  0.5775861E+002  0.2922950E+03  0.7546771E-02  0.1089157E+00
         21   -1    0    0  505  502  0.00000000000E+00  0.00000000000E+00  0.28332085314E+03  0.28332085314E+03  0.00000000000E+00 0.  1.
          1   -1    0    0  502    0 -0.00000000000E+00 -0.00000000000E+00 -0.87417047379E+03  0.87417047379E+03  0.00000000000E+00 0.  1.
         21    1    1    2  503  501 -0.56194246834E+02  0.10103738365E+03 -0.19378691037E+03  0.22565396718E+03  0.00000000000E+00 0. -1.
         21    1    1    2  504  503  0.18030262355E+03 -0.15609029428E+03  0.72564475371E+02  0.24927659159E+03  0.00000000000E+00 0.  1.
         21    1    1    2  505  504  0.25462419586E+02 -0.19026660971E+02  0.91642670319E+02  0.96998596186E+02  0.00000000000E+00 0.  1.
          1    1    1    2  501    0 -0.14957079630E+03  0.74079571608E+02 -0.56126985597E+03  0.58556217198E+03  0.00000000000E+00 0.  1.
<scales pt_clust_3="101.31221" pt_clust_4="265.48196" pt_clust_5="31.78598" pt_clust_6="101.31221"></scales>
<clustering>
<clus scale="   31.786">  1  5  2 -1</clus>
<clus scale="  101.312">  3  6 -1 -1</clus>
<clus scale="  265.482">  1  4  2 -1</clus>
<clus scale="   31.786">  1  3  2 -1</clus>
</clustering>
</event>
<event>
 6    0  0.5775861E+002  0.2245841E+03  0.7546771E-02  0.1130511E+00
          1   -1    0    0  503    0 -0.00000000000E+00  0.00000000000E+00  0.92533715740E+03  0.92533715740E+03  0.00000000000E+00 0. -1.
         21   -1    0    0  504  502  0.00000000000E+00 -0.00000000000E+00 -0.24307755077E+03  0.24307755077E+03  0.00000000000E+00 0.  1.
         21    1    1    2  503  505 -0.13620387522E+03 -0.69781399537E+02  0.15588975449E+03  0.21845492648E+03  0.00000000000E+00 0. -1.
         21    1    1    2  504  501  0.19539494954E+03  0.10260748136E+03 -0.13748940318E+03  0.26002080210E+03  0.00000000000E+00 0.  1.
         21    1    1    2  505  502 -0.24068112544E+02 -0.50981346156E+02  0.51666813715E+02  0.76471114395E+02  0.00000000000E+00 0. -1.
          1    1    1    2  501    0 -0.35122961774E+02  0.18155264335E+02  0.61219244160E+03  0.61346786519E+03  0.00000000000E+00 0. -1.
<scales pt_clust_3="36.57267" pt_clust_4="216.34951" pt_clust_5="36.57267" pt_clust_6="39.53778"></scales>
<clustering>
<clus scale="   36.573">  3  5 -1 -1</clus>
<clus scale="   39.538">  1  6  2 -1</clus>
<clus scale="  216.350">  2  4  1 -1</clus>
<clus scale="  216.350">  2  3  1 -1</clus>
</clustering>
</event>
<event>
 6    0  0.5775861E+002  0.1057698E+03  0.7546771E-02  0.1268610E+00
         21   -1    0    0  503  502  0.00000000000E+00  0.00000000000E+00  0.33197633198E+02  0.33197633198E+02  0.00000000000E+00 0.  1.
          2   -1    0    0  502    0 -0.00000000000E+00 -0.00000000000E+00 -0.26878681737E+04  0.26878681737E+04  0.00000000000E+00 0.  1.
         21    1    1    2  503  505  0.31220462200E+02 -0.22277942224E+02 -0.17718803874E+01  0.38394837281E+02  0.00000000000E+00 0.  1.
         21    1    1    2  504  501 -0.87094103201E+02  0.11976502850E+03 -0.60448504527E+03  0.62235939361E+03  0.00000000000E+00 0. -1.
         21    1    1    2  505  504  0.44934589657E+02 -0.60511808191E+02 -0.24153662750E+03  0.25302319795E+03  0.00000000000E+00 0. -1.
          2    1    1    2  501    0  0.10939051343E+02 -0.36975278090E+02 -0.18068769873E+04  0.18072883780E+04  0.00000000000E+00 0.  1.
<scales pt_clust_3="38.35393" pt_clust_4="105.76985" pt_clust_5="14000.00000" pt_clust_6="38.97843"></scales>
<clustering>
<clus scale="   38.354">  1  3  2 -1</clus>
<clus scale="   38.978">  2  6  1 -1</clus>
<clus scale="  105.770">  2  4  1 -1</clus>
<clus scale="   38.354">  1  3  2 -1</clus>
</clustering>
</event>
<event>
 6    0  0.5775861E+002  0.1287416E+03  0.7546771E-02  0.1229335E+00
         21   -1    0    0  504  502  0.00000000000E+00  0.00000000000E+00  0.60684957752E+02  0.60684957752E+02  0.00000000000E+00 0. -1.
          2   -1    0    0  503    0 -0.00000000000E+00 -0.00000000000E+00 -0.22144435331E+04  0.22144435331E+04  0.00000000000E+00 0.  1.
         21    1    1    2  503  502  0.63039810840E+01  0.43602818377E+02  0.34012770204E+02  0.55658013663E+02  0.00000000000E+00 0. -1.
         21    1    1    2  504  505 -0.88799562548E+02 -0.14517326977E+03 -0.68157858903E+03  0.70250267871E+03  0.00000000000E+00 0. -1.
         21    1    1    2  505  501  0.82376361597E+02  0.59425726838E+02 -0.51733105506E+03  0.52720840518E+03  0.00000000000E+00 0.  1.
          2    1    1    2  501    0  0.11921986643E+00  0.42144724553E+02 -0.98886170144E+03  0.98975939329E+03  0.00000000000E+00 0.  1.
<scales pt_clust_3="44.42482" pt_clust_4="128.74158" pt_clust_5="14000.00000" pt_clust_6="42.14489"></scales>
<clustering>
<clus scale="   42.145">  2  6  1 -1</clus>
<clus scale="   44.425">  1  3  2 -1</clus>
<clus scale="  128.742">  1  4  2 -1</clus>
<clus scale="   44.425">  1  3  2 -1</clus>
</clustering>
</event>
<event>
 6    0  0.5775861E+002  0.1206898E+03  0.7546771E-02  0.1241963E+00
         21   -1    0    0  504  502  0.00000000000E+00  0.00000000000E+00  0.25415159942E+03  0.25415159942E+03  0.00000000000E+00 0. -1.
          1   -1    0    0  505    0 -0.00000000000E+00 -0.00000000000E+00 -0.25831658712E+04  0.25831658712E+04  0.00000000000E+00 0.  1.
         21    1    1    2  503  501 -0.13794323028E+03 -0.22079937057E+02 -0.46116660674E+03  0.48186149211E+03  0.00000000000E+00 0.  1.
         21    1    1    2  504  503 -0.33983533145E+02 -0.94328476992E+01  0.31247849525E+02  0.47119924031E+02  0.00000000000E+00 0.  1.
         21    1    1    2  505  502  0.13527161478E+03  0.70711940234E+02  0.17575930297E+03  0.23278728667E+03  0.00000000000E+00 0. -1.
          1    1    1    2  501    0  0.36655148646E+02 -0.39199155478E+02 -0.20748548175E+04  0.20755487678E+04  0.00000000000E+00 0.  1.
<scales pt_clust_3="14000.00000" pt_clust_4="35.26839" pt_clust_5="120.68982" pt_clust_6="53.64093"></scales>
<clustering>
<clus scale="   35.268">  1  4  2 -1</clus>
<clus scale="   53.641">  2  6  1 -1</clus>
<clus scale="  120.690">  1  5  2 -1</clus>
<clus scale="   35.268">  1  3  2 -1</clus>
</clustering>
</event>
<event>
 6    0  0.5775861E+002  0.1150755E+03  0.7546771E-02  0.1251449E+00
         21   -1    0    0  504  502  0.00000000000E+00  0.00000000000E+00  0.71643377159E+02  0.71643377159E+02  0.00000000000E+00 0.  1.
          2   -1    0    0  503    0 -0.00000000000E+00 -0.00000000000E+00 -0.19686460794E+04  0.19686460794E+04  0.00000000000E+00 0.  1.
         21    1    1    2  503  505  0.52054731640E+02  0.94951244778E+02 -0.10499157542E+03  0.15082660534E+03  0.00000000000E+00 0.  1.
         21    1    1    2  504  501  0.47269933266E+02 -0.24546892634E+02 -0.14906528728E+02  0.55310045450E+02  0.00000000000E+00 0. -1.
         21    1    1    2  505  502 -0.10556422069E+03  0.46450111184E+02 -0.99063002815E+02  0.15203583803E+03  0.00000000000E+00 0.  1.
          2    1    1    2  501    0  0.62395557811E+01 -0.11685446333E+03 -0.16780415953E+04  0.16821169677E+04  0.00000000000E+00 0.  1.
<scales pt_clust_3="14000.00000" pt_clust_4="53.26346" pt_clust_5="87.98196" pt_clust_6="115.07550"></scales>
<clustering>
<clus scale="   53.263">  1  4  2 -1</clus>
<clus scale="   87.982">  1  5  2 -1</clus>
<clus scale="  115.075">  2  6  1 -1</clus>
<clus scale="   53.263">  1  3  2 -1</clus>
</clustering>
</event>
<event>
 6    0  0.5775861E+002  0.1026066E+03  0.7546771E-02  0.1274908E+00
         21   -1    0    0  505  502  0.00000000000E+00  0.00000000000E+00  0.10703841928E+04  0.10703841928E+04  0.00000000000E+00 0. -1.
          4   -1    0    0  503    0 -0.00000000000E+00 -0.00000000000E+00 -0.12379243592E+03  0.12379243592E+03  0.00000000000E+00 0. -1.
         21    1    1    2  503  504  0.87791061421E+02 -0.44565622573E+02  0.35827839168E+00  0.98455540952E+02  0.00000000000E+00 0. -1.
         21    1    1    2  504  502  0.36537817255E+02  0.10095278267E+03  0.21562693940E+03  0.24087642768E+03  0.00000000000E+00 0. -1.
         21    1    1    2  505  501 -0.54757453673E+02 -0.85909913699E+02  0.76504029103E+03  0.77179371525E+03  0.00000000000E+00 0. -1.
          4    1    1    2  501    0 -0.69571425003E+02  0.29522753599E+02 -0.34433751967E+02  0.83050944796E+02  0.00000000000E+00 0. -1.
<scales pt_clust_3="41.78465" pt_clust_4="102.60661" pt_clust_5="14000.00000" pt_clust_6="75.57629"></scales>
<clustering>
<clus scale="   75.576">  2  6  1 -1</clus>
<clus scale="   41.785">  2  3  1 -1</clus>
<clus scale="  102.607">  2  4  1 -1</clus>
<clus scale="  102.607">  1  3  2 -1</clus>
</clustering>
</event>
<event>
 6    0  0.5775861E+002  0.1105869E+03  0.7546771E-02  0.1259487E+00
          2   -1    0    0  502    0 -0.00000000000E+00  0.00000000000E+00  0.47786207385E+03  0.47786207385E+03  0.00000000000E+00 0. -1.
         21   -1    0    0  504  502  0.00000000000E+00 -0.00000000000E+00 -0.29060768761E+03  0.29060768761E+03  0.00000000000E+00 0. -1.
         21    1    1    2  503  501  0.13156476001E+02 -0.84306573509E+02  0.72347091771E+02  0.11186953511E+03  0.00000000000E+00 0. -1.
         21    1    1    2  504  505 -0.65333300704E+02  0.28255451063E+01 -0.13779054158E+03  0.15252100588E+03  0.00000000000E+00 0. -1.
         21    1    1    2  505  503  0.87098297681E+02  0.11739487591E+03 -0.80676641501E+02  0.16696224373E+03  0.00000000000E+00 0. -1.
          2    1    1    2  501    0 -0.34921472978E+02 -0.35913847507E+02  0.33337447755E+03  0.33711697673E+03  0.00000000000E+00 0. -1.
<scales pt_clust_3="110.58688" pt_clust_4="67.14379" pt_clust_5="14000.00000" pt_clust_6="50.09305"></scales>
<clustering>
<clus scale="   50.093">  1  6  2 -1</clus>
<clus scale="   67.144">  2  4  1 -1</clus>
<clus scale="  110.587">  1  3  2 -1</clus>
<clus scale="   67.144">  2  3  1 -1</clus>
</clustering>
</event>
<event>
 6    0  0.5775861E+002  0.1741314E+03  0.7546771E-02  0.1173607E+00
          1   -1    0    0  505    0 -0.00000000000E+00  0.00000000000E+00  0.18787052762E+04  0.18787052762E+04  0.00000000000E+00 0. -1.
         21   -1    0    0  504  502  0.00000000000E+00 -0.00000000000E+00 -0.19724239418E+03  0.19724239418E+03  0.00000000000E+00 0. -1.
         21    1    1    2  503  502  0.94121076470E+02  0.19874568140E+02 -0.41539060716E+02  0.10478200733E+03  0.00000000000E+00 0. -1.
         21    1    1    2  504  501 -0.10068281658E+03 -0.19296717414E+02  0.10876643566E+03  0.14946414414E+03  0.00000000000E+00 0. -1.
         21    1    1    2  505  503  0.10659980881E+03 -0.12844088257E+02 -0.74037638265E+02  0.13042262734E+03  0.00000000000E+00 0. -1.
          1    1    1    2  501    0 -0.10003806870E+03  0.12266237531E+02  0.16882731453E+04  0.16912788915E+04  0.00000000000E+00 0. -1.
<scales pt_clust_3="38.15540" pt_clust_4="169.40132" pt_clust_5="38.15540" pt_clust_6="100.78728"></scales>
<clustering>
<clus scale="   38.155">  3  5 -1 -1</clus>
<clus scale="  100.787">  1  6  2 -1</clus>
<clus scale="  169.401">  1  4  2 -1</clus>
<clus scale="  174.131">  2  3  1 -1</clus>
</clustering>
</event>
<event>
 6    0  0.5775861E+002  0.1234366E+03  0.7546771E-02  0.1237533E+00
         21   -1    0    0  504  502  0.00000000000E+00  0.00000000000E+00  0.40004942552E+03  0.40004942552E+03  0.00000000000E+00 0.  1.
          1   -1    0    0  505    0 -0.00000000000E+00 -0.00000000000E+00 -0.77878929179E+03  0.77878929179E+03  0.00000000000E+00 0. -1.
         21    1    1    2  503  501  0.36335046896E+02  0.60037153448E+02  0.71242444327E+02  0.10000090650E+03  0.00000000000E+00 0.  1.
         21    1    1    2  504  503 -0.41524047757E+02  0.66689103629E+01  0.50976820651E+02  0.66085983016E+02  0.00000000000E+00 0.  1.
         21    1    1    2  505  502  0.86256812598E+02  0.30827540355E+02  0.24215085048E+03  0.25889690873E+03  0.00000000000E+00 0.  1.
          1    1    1    2  501    0 -0.81067811737E+02 -0.97533604166E+02 -0.74310998173E+03  0.75385491906E+03  0.00000000000E+00 0. -1.
<scales pt_clust_3="14000.00000" pt_clust_4="42.05616" pt_clust_5="66.25052" pt_clust_6="123.43663"></scales>
<clustering>
<clus scale="   42.056">  1  4  2 -1</clus>
<clus scale="   66.251">  1  5  2 -1</clus>
<clus scale="  123.437">  2  6  1 -1</clus>
<clus scale="   42.056">  1  3  2 -1</clus>
</clustering>
</event>
<event>
 6    0  0.5775861E+002  0.1222933E+03  0.7546771E-02  0.1239361E+00
          2   -1    0    0  504    0 -0.00000000000E+00  0.00000000000E+00  0.13174572992E+04  0.13174572992E+04  0.00000000000E+00 0.  1.
         21   -1    0    0  505  502  0.00000000000E+00 -0.00000000000E+00 -0.27064718263E+03  0.27064718263E+03  0.00000000000E+00 0. -1.
         21    1    1    2  503  501  0.68573424878E+02  0.32201556131E+02  0.69236544297E+02  0.10263018018E+03  0.00000000000E+00 0. -1.
         21    1    1    2  504  502 -0.17167060098E+03 -0.13684283547E+03 -0.55871748207E+02  0.22653566851E+03  0.00000000000E+00 0. -1.
         21    1    1    2  505  503 -0.13583943769E+02  0.74529068081E+02 -0.96444902826E+02  0.12264063274E+03  0.00000000000E+00 0. -1.
          2    1    1    2  501    0  0.11668111987E+03  0.30112211255E+02  0.11298902233E+04  0.11362980004E+04  0.00000000000E+00 0.  1.
<scales pt_clust_3="78.13629" pt_clust_4="122.29326" pt_clust_5="75.75688" pt_clust_6="14000.00000"></scales>
<clustering>
<clus scale="   75.757">  2  5  1 -1</clus>
<clus scale="   78.136">  2  3  1 -1</clus>
<clus scale="  122.293">  2  4  1 -1</clus>
<clus scale="   75.757">  2  3  1 -1</clus>
</clustering>
</event>
<event>
 6    0  0.5775861E+002  0.2019064E+03  0.7546771E-02  0.1148140E+00
         21   -1    0    0  501  502  0.00000000000E+00  0.00000000000E+00  0.35588024563E+04  0.35588024563E+04  0.00000000000E+00 0.  1.
          1   -1    0    0  505    0 -0.00000000000E+00 -0.00000000000E+00 -0.12744343734E+03  0.12744343734E+03  0.00000000000E+00 0.  1.
         21    1    1    2  503  504 -0.13551959588E+03  0.12845169184E+03  0.27144144737E+04  0.27208291628E+04  0.00000000000E+00 0.  1.
         21    1    1    2  504  502  0.15751078937E+02  0.35677953186E+02  0.66809797372E+03  0.66923532134E+03  0.00000000000E+00 0.  1.
         21    1    1    2  505  503  0.31235497815E+02  0.18224735365E+02  0.83072505865E+02  0.90602640875E+02  0.00000000000E+00 0. -1.
          1    1    1    2  501    0  0.88533019127E+02 -0.18235438039E+03 -0.34225934362E+02  0.20557876862E+03  0.00000000000E+00 0.  1.
<scales pt_clust_3="201.90645" pt_clust_4="39.13495" pt_clust_5="36.16348" pt_clust_6="14000.00000"></scales>
<clustering>
<clus scale="   36.163">  2  5  1 -1</clus>
<clus scale="   39.135">  1  4  2 -1</clus>
<clus scale="  201.906">  1  3  2 -1</clus>
<clus scale="   39.135">  1  3  2 -1</clus>
</clustering>
</event>
<event>
 6    0  0.5775861E+002  0.2397149E+03  0.7546771E-02  0.1119983E+00
          2   -1    0    0  504    0 -0.00000000000E+00  0.00000000000E+00  0.16052190048E+04  0.16052190048E+04  0.00000000000E+00 0.  1.
         21   -1    0    0  505  502  0.00000000000E+00 -0.00000000000E+00 -0.91042706413E+02  0.91042706413E+02  0.00000000000E+00 0.  1.
         21    1    1    2  503  502 -0.24739917610E+03 -0.90251180912E+01  0.19452986097E+03  0.31484864920E+03  0.00000000000E+00 0.  1.
         21    1    1    2  504  503  0.22212666338E+03  0.22372783680E+02  0.52178637640E+03  0.56754014715E+03  0.00000000000E+00 0.  1.
         21    1    1    2  505  501  0.18002784947E+01 -0.52631453979E+02  0.88104581916E+02  0.10264369589E+03  0.00000000000E+00 0.  1.
          2    1    1    2  501    0  0.23472234232E+02  0.39283788390E+02  0.70975547909E+03  0.71122921897E+03  0.00000000000E+00 0.  1.
<scales pt_clust_3="239.71488" pt_clust_4="14000.00000" pt_clust_5="48.63464" pt_clust_6="45.76201"></scales>
<clustering>
<clus scale="   45.762">  1  6  2 -1</clus>
<clus scale="   48.635">  1  5  2 -1</clus>
<clus scale="  239.715">  2  3  1 -1</clus>
<clus scale="  239.715">  2  3  1 -1</clus>
</clustering>
</event>
<event>
 6    0  0.5775861E+002  0.2261377E+03  0.7546771E-02  0.1129388E+00
          1   -1    0    0  504    0 -0.00000000000E+00  0.00000000000E+00  0.89783622188E+03  0.89783622188E+03  0.00000000000E+00 0. -1.
         21   -1    0    0  503  502  0.00000000000E+00 -0.00000000000E+00 -0.96923472994E+03  0.96923472994E+03  0.00000000000E+00 0.  1.
         21    1    1    2  503  501 -0.20889932623E+03 -0.41292979094E+02 -0.63922546865E+03  0.67376052006E+03  0.00000000000E+00 0.  1.
         21    1    1    2  504  505  0.19966547228E+03  0.12831617085E+03  0.16648738904E+01  0.23734808263E+03  0.00000000000E+00 0.  1.
         21    1    1    2  505  502 -0.77355882262E+01 -0.31369010140E+02 -0.19243945480E+03  0.19513276989E+03  0.00000000000E+00 0.  1.
          1    1    1    2  501    0  0.16969442174E+02 -0.55654181615E+02  0.75860154149E+03  0.76082957925E+03  0.00000000000E+00 0. -1.
<scales pt_clust_3="226.13773" pt_clust_4="14000.00000" pt_clust_5="32.30873" pt_clust_6="58.22363"></scales>
<clustering>
<clus scale="   32.309">  2  5  1 -1</clus>
<clus scale="   58.224">  1  6  2 -1</clus>
<clus scale="  226.138">  2  3  1 -1</clus>
<clus scale="   32.309">  2  3  1 -1</clus>
</clustering>
</event>
<event>
 6    0  0.5775861E+002  0.1002997E+03  0.7546771E-02  0.1279667E+00
          1   -1    0    0  503    0 -0.00000000000E+00  0.00000000000E+00  0.25435571301E+04  0.25435571301E+04  0.00000000000E+00 0.  1.
         21   -1    0    0  505  502  0.00000000000E+00 -0.00000000000E+00 -0.11007066352E+03  0.11007066352E+03  0.00000000000E+00 0. -1.
         21    1    1    2  503  504  0.68365956655E+02  0.18104623950E+01  0.42946940711E+03  0.43488061976E+03  0.00000000000E+00 0. -1.
         21    1    1    2  504  502  0.45643285216E+01 -0.85633920048E+02 -0.65370264864E+02  0.10782983301E+03  0.00000000000E+00 0. -1.
         21    1    1    2  505  501 -0.11952202413E+03  0.55144655497E+02  0.19231745982E+03  0.23305032211E+03  0.00000000000E+00 0.  1.
          1    1    1    2  501    0  0.46591738956E+02  0.28678802155E+02  0.18770698645E+04  0.18778670187E+04  0.00000000000E+00 0.  1.
<scales pt_clust_3="14000.00000" pt_clust_4="84.93556" pt_clust_5="100.29966" pt_clust_6="54.71073"></scales>
<clustering>
<clus scale="   54.711">  1  6  2 -1</clus>
<clus scale="   84.936">  2  4  1 -1</clus>
<clus scale="  100.300">  2  5  1 -1</clus>
<clus scale="   84.936">  2  3  1 -1</clus>
</clustering>
</event>
<event>
 6    0  0.5775861E+002  0.1173539E+03  0.7546771E-02  0.1247527E+00
          4   -1    0    0  503    0 -0.00000000000E+00  0.00000000000E+00  0.89477971476E+03  0.89477971476E+03  0.00000000000E+00 0.  1.
         21   -1    0    0  505  502  0.00000000000E+00 -0.00000000000E+00 -0.12910876634E+03  0.12910876634E+03  0.00000000000E+00 0. -1.
         21    1    1    2  503  502  0.77768719215E+02  0.70588911601E+02 -0.13959495084E+02  0.10595110019E+03  0.00000000000E+00 0. -1.
         21    1    1    2  504  501  0.10419949936E+00 -0.42350443890E+02 -0.72274207965E+01  0.42962851006E+02  0.00000000000E+00 0.  1.
         21    1    1    2  505  504  0.41921778729E+02 -0.45414306857E+02 -0.15355412710E+02  0.63684248434E+02  0.00000000000E+00 0.  1.
          4    1    1    2  501    0 -0.11979469744E+03  0.17175839145E+02  0.80221327701E+03  0.81129028147E+03  0.00000000000E+00 0.  1.
<scales pt_clust_3="14000.00000" pt_clust_4="30.91508" pt_clust_5="104.22869" pt_clust_6="117.35393"></scales>
<clustering>
<clus scale="   30.915">  4  5 -1 -1</clus>
<clus scale="  104.229">  2  4  1 -1</clus>
<clus scale="  117.354">  1  6  2 -1</clus>
<clus scale="  104.229">  2  3  1 -1</clus>
</clustering>
</event>
<event>
 6    0  0.5775861E+002  0.1836571E+03  0.7546771E-02  0.1164310E+00
          2   -1    0    0  505    0 -0.00000000000E+00  0.00000000000E+00  0.10252751007E+04  0.10252751007E+04  0.00000000000E+00 0. -1.
         21   -1    0    0  503  502  0.00000000000E+00 -0.00000000000E+00 -0.38921791166E+03  0.38921791166E+03  0.00000000000E+00 0. -1.
         21    1    1    2  503  504  0.41104388353E+02  0.20809404673E+02 -0.31510382608E+03  0.31845411487E+03  0.00000000000E+00 0. -1.
         21    1    1    2  504  501  0.10486089587E+03  0.91145177373E+02  0.18244982208E+03  0.22932768786E+03  0.00000000000E+00 0. -1.
         21    1    1    2  505  502 -0.13752328532E+03 -0.20588700764E+03  0.30177746570E+03  0.39034824544E+03  0.00000000000E+00 0. -1.
          2    1    1    2  501    0 -0.84419989112E+01  0.93932425591E+02  0.46693372735E+03  0.47636296420E+03  0.00000000000E+00 0. -1.
<scales pt_clust_3="46.07171" pt_clust_4="183.65711" pt_clust_5="14000.00000" pt_clust_6="95.46113"></scales>
<clustering>
<clus scale="   46.072">  2  3  1 -1</clus>
<clus scale="   95.461">  1  6  2 -1</clus>
<clus scale="  183.657">  2  4  1 -1</clus>
<clus scale="   46.072">  2  3  1 -1</clus>
</clustering>
</event>
<event>
 6    0  0.5775861E+002  0.6490117E+02  0.7546771E-02  0.1378344E+00
         21   -1    0    0  505  502  0.00000000000E+00  0.00000000000E+00  0.12229892872E+03  0.12229892872E+03  0.00000000000E+00 0.  1.
          2   -1    0    0  503    0 -0.00000000000E+00 -0.00000000000E+00 -0.17225023231E+04  0.17225023231E+04  0.00000000000E+00 0.  1.
         21    1    1    2  503  504  0.22739599656E+02 -0.69293335501E+02 -0.97916021399E+02  0.12209096193E+03  0.00000000000E+00 0.  1.
         21    1    1    2  504  502  0.70642465942E+02  0.17315074830E+02 -0.39015367509E+02  0.82537074776E+02  0.00000000000E+00 0.  1.
         21    1    1    2  505  501 -0.63802276029E+02  0.25586804274E+01  0.76317382252E+02  0.99506884716E+02  0.00000000000E+00 0.  1.
          2    1    1    2  501    0 -0.29579789568E+02  0.49419580243E+02 -0.15395893877E+04  0.15406663304E+04  0.00000000000E+00 0.  1.
<scales pt_clust_3="39.78736" pt_clust_4="14000.00000" pt_clust_5="64.90117" pt_clust_6="57.59565"></scales>
<clustering>
<clus scale="   57.596">  2  6  1 -1</clus>
<clus scale="   39.787">  2  3  1 -1</clus>
<clus scale="   64.901">  1  5  2 -1</clus>
<clus scale="   64.901">  1  3  2 -1</clus>
</clustering>
</event>
<event>
 6    0  0.5775861E+002  0.1644798E+03  0.7546771E-02  0.1183730E+00
         21   -1    0    0  503  502  0.00000000000E+00  0.00000000000E+00  0.24602208481E+03  0.24602208481E+03  0.00000000000E+00 0. -1.
          1   -1    0    0  504    0 -0.00000000000E+00 -0.00000000000E+00 -0.10784363182E+04  0.10784363182E+04  0.00000000000E+00 0.  1.
         21    1    1    2  503  501 -0.20378334981E+03  0.10525410934E+03 -0.44538819166E+03  0.50097577034E+03  0.00000000000E+00 0.  1.
         21    1    1    2  504  505 -0.27932958793E+02 -0.62942430565E+02 -0.93869283437E+02  0.11641925152E+03  0.00000000000E+00 0. -1.
         21    1    1    2  505  502  0.90825287291E+02 -0.46552900257E+02  0.18351587495E+03  0.20998686076E+03  0.00000000000E+00 0. -1.
          1    1    1    2  501    0  0.14089102131E+03  0.42412214831E+01 -0.47667263323E+03  0.49707652038E+03  0.00000000000E+00 0.  1.
<scales pt_clust_3="164.47975" pt_clust_4="68.86218" pt_clust_5="102.11745" pt_clust_6="14000.00000"></scales>
<clustering>
<clus scale="   68.862">  2  4  1 -1</clus>
<clus scale="  102.117">  1  5  2 -1</clus>
<clus scale="  164.480">  1  3  2 -1</clus>
<clus scale="  102.117">  1  3  2 -1</clus>
</clustering>
</event>
<event>
 6    0  0.5775861E+002  0.1345718E+03  0.7546771E-02  0.1220825E+00
         21   -1    0    0  505  502  0.00000000000E+00  0.00000000000E+00  0.57162756007E+03  0.57162756007E+03  0.00000000000E+00 0.  1.
          2   -1    0    0  503    0 -0.00000000000E+00 -0.00000000000E+00 -0.71564457149E+03  0.71564457149E+03  0.00000000000E+00 0. -1.
         21    1    1    2  503  504  0.71793215510E+02  0.16037967660E+02  0.20159701193E+03  0.21459924842E+03  0.00000000000E+00 0.  1.
         21    1    1    2  504  502 -0.35281660020E+02  0.10301765780E+02  0.29207891968E+03  0.29438243364E+03  0.00000000000E+00 0.  1.
         21    1    1    2  505  501  0.33164448860E+02  0.93667552373E+02  0.23983840355E+02  0.10221895927E+03  0.00000000000E+00 0.  1.
          2    1    1    2  501    0 -0.69676004350E+02 -0.12000728581E+03 -0.66167678339E+03  0.67607149023E+03  0.00000000000E+00 0. -1.
<scales pt_clust_3="51.24983" pt_clust_4="36.75489" pt_clust_5="14000.00000" pt_clust_6="134.57180"></scales>
<clustering>
<clus scale="   36.755">  1  4  2 -1</clus>
<clus scale="   51.250">  1  3  2 -1</clus>
<clus scale="  134.572">  2  6  1 -1</clus>
<clus scale="   36.755">  1  3  2 -1</clus>
</clustering>
</event>
<event>
 6    0  0.5775861E+002  0.9535365E+02  0.7546771E-02  0.1290382E+00
          2   -1    0    0  505    0 -0.00000000000E+00  0.00000000000E+00  0.28443650679E+04  0.28443650679E+04  0.00000000000E+00 0.  1.
         21   -1    0    0  504  502  0.00000000000E+00 -0.00000000000E+00 -0.22989577703E+03  0.22989577703E+03  0.00000000000E+00 0.  1.
         21    1    1    2  503  501  0.19014202076E+02  0.31234429847E+02  0.32737126919E+02  0.49080026155E+02  0.00000000000E+00 0.  1.
         21    1    1    2  504  503 -0.26020082186E+02  0.21822314797E+02 -0.21567295309E+03  0.21833021045E+03  0.00000000000E+00 0.  1.
         21    1    1    2  505  502 -0.81448283705E+02 -0.89718327901E+00  0.45757313249E+03  0.46476639233E+03  0.00000000000E+00 0.  1.
          2    1    1    2  501    0  0.88454163815E+02 -0.52159561365E+02  0.23398319845E+04  0.23420842160E+04  0.00000000000E+00 0.  1.
<scales pt_clust_3="45.13456" pt_clust_4="33.95965" pt_clust_5="14000.00000" pt_clust_6="95.35365"></scales>
<clustering>
<clus scale="   33.960">  2  4  1 -1</clus>
<clus scale="   45.135">  2  3  1 -1</clus>
<clus scale="   95.354">  1  6  2 -1</clus>
<clus scale="   33.960">  2  3  1 -1</clus>
</clustering>
</event>
<event>
 6    0  0.5775861E+002  0.9430333E+02  0.7546771E-02  0.1292753E+00
         21   -1    0    0  503  502  0.00000000000E+00  0.00000000000E+00  0.11846496334E+03  0.11846496334E+03  0.00000000000E+00 0.  1.
          2   -1    0    0  502    0 -0.00000000000E+00 -0.00000000000E+00 -0.14524154596E+04  0.14524154596E+04  0.00000000000E+00 0. -1.
         21    1    1    2  503  505  0.15456129148E+01  0.39414458703E+02  0.80126692061E+02  0.89309435419E+02  0.00000000000E+00 0.  1.
         21    1    1    2  504  501  0.92175371626E+02 -0.59047556391E+02 -0.69716600458E+03  0.70570769514E+03  0.00000000000E+00 0.  1.
         21    1    1    2  505  504 -0.92254741397E+02 -0.13472644939E+02 -0.45694138165E+02  0.10382872307E+03  0.00000000000E+00 0.  1.
          2    1    1    2  501    0 -0.14662431437E+01  0.33105742627E+02 -0.67121704560E+03  0.67203456932E+03  0.00000000000E+00 0. -1.
<scales pt_clust_3="39.63894" pt_clust_4="14000.00000" pt_clust_5="94.30333" pt_clust_6="33.13820"></scales>
<clustering>
<clus scale="   33.138">  2  6  1 -1</clus>
<clus scale="   39.639">  1  3  2 -1</clus>
<clus scale="   94.303">  1  5  2 -1</clus>
<clus scale="   39.639">  1  3  2 -1</clus>
</clustering>
</event>
<event>
 6    0  0.5775861E+002  0.1617523E+03  0.7546771E-02  0.1186733E+00
          2   -1    0    0  505    0 -0.00000000000E+00  0.00000000000E+00  0.86196624756E+03  0.86196624756E+03  0.00000000000E+00 0. -1.
         21   -1    0    0  503  502  0.00000000000E+00 -0.00000000000E+00 -0.77054098359E+03  0.77054098359E+03  0.00000000000E+00 0.  1.
         21    1    1    2  503  501  0.11038995681E+03  0.48365961251E+02 -0.21555741781E+03  0.24696195890E+03  0.00000000000E+00 0.  1.
         21    1    1    2  504  502 -0.20131746377E+03 -0.97745065040E+02 -0.50699760491E+03  0.55419255709E+03  0.00000000000E+00 0.  1.
         21    1    1    2  505  504 -0.15935188435E+02  0.58027589250E+02  0.35100483252E+03  0.35612571347E+03  0.00000000000E+00 0. -1.
          2    1    1    2  501    0  0.10686269539E+03 -0.86484854612E+01  0.46297545417E+03  0.47522700168E+03  0.00000000000E+00 0. -1.
<scales pt_clust_3="14000.00000" pt_clust_4="161.75228" pt_clust_5="60.17584" pt_clust_6="102.51228"></scales>
<clustering>
<clus scale="   60.176">  1  5  2 -1</clus>
<clus scale="  102.512">  1  6  2 -1</clus>
<clus scale="  161.752">  1  4  2 -1</clus>
<clus scale="  161.752">  2  3  1 -1</clus>
</clustering>
</event>
<event>
 6    0  0.5775861E+002  0.9814139E+02  0.7546771E-02  0.1284254E+00
          2   -1    0    0  503    0 -0.00000000000E+00  0.00000000000E+00  0.29278620127E+04  0.29278620127E+04  0.00000000000E+00 0.  1.
         21   -1    0    0  505  502  0.00000000000E+00 -0.00000000000E+00 -0.73201944378E+02  0.73201944378E+02  0.00000000000E+00 0.  1.
         21    1    1    2  503  502  0.13173215627E+03 -0.73928811877E+02  0.15563146238E+03  0.21688702659E+03  0.00000000000E+00 0.  1.
         21    1    1    2  504  501 -0.67643918676E+02  0.15830254761E+02  0.34298314160E+02  0.77476906584E+02  0.00000000000E+00 0.  1.
         21    1    1    2  505  504  0.25006177733E+02  0.20616175297E+02 -0.70541830506E+01  0.33167711817E+02  0.00000000000E+00 0.  1.
          2    1    1    2  501    0 -0.89094415330E+02  0.37482381818E+02  0.26717844748E+04  0.26735323121E+04  0.00000000000E+00 0.  1.
<scales pt_clust_3="98.14139" pt_clust_4="62.36753" pt_clust_5="32.40888" pt_clust_6="14000.00000"></scales>
<clustering>
<clus scale="   32.409">  2  5  1 -1</clus>
<clus scale="   62.368">  2  4  1 -1</clus>
<clus scale="   98.141">  2  3  1 -1</clus>
<clus scale="   32.409">  2  3  1 -1</clus>
</clustering>
</event>
<event>
 6    0  0.5775861E+002  0.1116279E+03  0.7546771E-02  0.1257585E+00
         21   -1    0    0  505  502  0.00000000000E+00  0.00000000000E+00  0.33369544857E+04  0.33369544857E+04  0.00000000000E+00 0.  1.
          1   -1    0    0  503    0 -0.00000000000E+00 -0.00000000000E+00 -0.31937193028E+03  0.31937193028E+03  0.00000000000E+00 0. -1.
         21    1    1    2  503  502  0.27472651658E+02  0.63220252868E+02  0.28122552594E+04  0.28130999255E+04  0.00000000000E+00 0.  1.
         21    1    1    2  504  501  0.14050301967E+03 -0.56757100872E+02  0.14913493002E+03  0.21261160455E+03  0.00000000000E+00 0. -1.
         21    1    1    2  505  504 -0.91034567994E+02 -0.84963239944E+02  0.32078103270E+03  0.34410247841E+03  0.00000000000E+00 0. -1.
          1    1    1    2  501    0 -0.76941103337E+02  0.78500087947E+02 -0.26458866662E+03  0.28651240757E+03  0.00000000000E+00 0. -1.
<scales pt_clust_3="68.93147" pt_clust_4="111.62786" pt_clust_5="86.21413" pt_clust_6="14000.00000"></scales>
<clustering>
<clus scale="   68.931">  1  3  2 -1</clus>
<clus scale="   86.214">  1  5  2 -1</clus>
<clus scale="  111.628">  1  4  2 -1</clus>
<clus scale="   68.931">  1  3  2 -1</clus>
</clustering>
</event>
<event>
 6    0  0.9887149E+002  0.6525158E+02  0.7546771E-02  0.1377028E+00
         21   -1    0    0  504  502  0.00000000000E+00  0.00000000000E+00  0.61415789019E+03  0.61415789019E+03  0.00000000000E+00 0. -1.
          1   -1    0    0  505    0 -0.00000000000E+00 -0.00000000000E+00 -0.51230217259E+03  0.51230217259E+03  0.00000000000E+00 0.  1.
         21    1    1    2  503  502 -0.16439455441E+02 -0.90046926364E+02  0.55893069783E+03  0.56637640277E+03  0.00000000000E+00 0. -1.
         21    1    1    2  504  501 -0.49083759762E+01  0.29678085073E+02  0.78048723405E+01  0.31077273377E+02  0.00000000000E+00 0. -1.
         21    1    1    2  505  503  0.61898977533E+02 -0.13706197982E+02 -0.74359997168E+01  0.63832886309E+02  0.00000000000E+00 0. -1.
          1    1    1    2  501    0 -0.40551146115E+02  0.74075039274E+02 -0.45744385285E+03  0.46517350032E+03  0.00000000000E+00 0.  1.
<scales pt_clust_3="14000.00000" pt_clust_4="30.08124" pt_clust_5="62.88077" pt_clust_6="65.25158"></scales>
<clustering>
<clus scale="   30.081">  1  4  2 -1</clus>
<clus scale="   62.881">  2  5  1 -1</clus>
<clus scale="   65.252">  2  6  1 -1</clus>
<clus scale="   30.081">  1  3  2 -1</clus>
</clustering>
</event>
<event>
 6    0  0.5775861E+002  0.8590266E+02  0.7546771E-02  0.1313089E+00
          2   -1    0    0  504    0 -0.00000000000E+00  0.00000000000E+00  0.93099704221E+03  0.93099704221E+03  0.00000000000E+00 0. -1.
         21   -1    0    0  503  502  0.00000000000E+00 -0.00000000000E+00 -0.49332141869E+03  0.49332141869E+03  0.00000000000E+00 0. -1.
         21    1    1    2  503  501  0.24880719049E+02  0.36398266027E+02 -0.11527786520E+02  0.45571633855E+02  0.00000000000E+00 0. -1.
         21    1    1    2  504  505  0.50145804383E+02  0.14630486365E+02  0.89553775313E+02  0.10367512480E+03  0.00000000000E+00 0. -1.
         21    1    1    2  505  502 -0.83089732130E+02  0.27847296495E+02 -0.45156605304E+03  0.45999051703E+03  0.00000000000E+00 0. -1.
          2    1    1    2  501    0  0.80632086977E+01 -0.78876048887E+02  0.81121568776E+03  0.81508118522E+03  0.00000000000E+00 0. -1.
<scales pt_clust_3="44.08950" pt_clust_4="52.75594" pt_clust_5="14000.00000" pt_clust_6="85.90266"></scales>
<clustering>
<clus scale="   44.089">  2  3  1 -1</clus>
<clus scale="   52.756">  1  4  2 -1</clus>
<clus scale="   85.903">  1  6  2 -1</clus>
<clus scale="   44.089">  2  3  1 -1</clus>
</clustering>
</event>
<event>
 6    0  0.5775861E+002  0.1256803E+03  0.7546771E-02  0.1234010E+00
          2   -1    0    0  505    0 -0.00000000000E+00  0.00000000000E+00  0.17339792985E+04  0.17339792985E+04  0.00000000000E+00 0.  1.
         21   -1    0    0  503  502  0.00000000000E+00 -0.00000000000E+00 -0.18878120081E+03  0.18878120081E+03  0.00000000000E+00 0.  1.
         21    1    1    2  503  501  0.49042261189E+02 -0.95590651994E+02  0.27324535608E+03  0.29360814149E+03  0.00000000000E+00 0. -1.
         21    1    1    2  504  502 -0.24829754661E+02  0.21927697375E+02 -0.12814652185E+03  0.13235887462E+03  0.00000000000E+00 0.  1.
         21    1    1    2  505  504  0.50850440416E+02  0.12284541316E+03  0.47445320911E+02  0.14116593534E+03  0.00000000000E+00 0.  1.
          2    1    1    2  501    0 -0.75062946944E+02 -0.49182458537E+02  0.13526539425E+04  0.13556275478E+04  0.00000000000E+00 0.  1.
<scales pt_clust_3="14000.00000" pt_clust_4="33.12613" pt_clust_5="125.68027" pt_clust_6="89.96648"></scales>
<clustering>
<clus scale="   33.126">  2  4  1 -1</clus>
<clus scale="   89.966">  1  6  2 -1</clus>
<clus scale="  125.680">  2  5  1 -1</clus>
<clus scale="   33.126">  2  3  1 -1</clus>
</clustering>
</event>
<event>
 6    0  0.5775861E+002  0.1677374E+03  0.7546771E-02  0.1180228E+00
         21   -1    0    0  503  502  0.00000000000E+00  0.00000000000E+00  0.17411646583E+03  0.17411646583E+03  0.00000000000E+00 0.  1.
          2   -1    0    0  505    0 -0.00000000000E+00 -0.00000000000E+00 -0.77451591423E+03  0.77451591423E+03  0.00000000000E+00 0.  1.
         21    1    1    2  503  504  0.32750889095E+01 -0.45161921536E+02 -0.20145906973E+01  0.45325312352E+02  0.00000000000E+00 0. -1.
         21    1    1    2  504  501 -0.11237917931E+03  0.15340717180E+02  0.99430408579E+02  0.15083376179E+03  0.00000000000E+00 0.  1.
         21    1    1    2  505  502 -0.63674648216E+02  0.25027304110E+02 -0.57908394768E+02  0.89633749007E+02  0.00000000000E+00 0. -1.
          2    1    1    2  501    0  0.17277873862E+03  0.47939002459E+01 -0.63990687151E+03  0.66283955691E+03  0.00000000000E+00 0.  1.
<scales pt_clust_3="45.28052" pt_clust_4="167.73740" pt_clust_5="66.51638" pt_clust_6="14000.00000"></scales>
<clustering>
<clus scale="   45.281">  1  3  2 -1</clus>
<clus scale="   66.516">  1  5  2 -1</clus>
<clus scale="  167.737">  1  4  2 -1</clus>
<clus scale="   45.281">  1  3  2 -1</clus>
</clustering>
</event>
<event>
 6    0  0.5775861E+002  0.1404772E+03  0.7546771E-02  0.1212688E+00
         21   -1    0    0  504  502  0.00000000000E+00  0.00000000000E+00  0.73295441999E+02  0.73295441999E+02  0.00000000000E+00 0. -1.
          2   -1    0    0  503    0 -0.00000000000E+00 -0.00000000000E+00 -0.14778015858E+04  0.14778015858E+04  0.00000000000E+00 0.  1.
         21    1    1    2  503  502  0.15026791840E+03  0.73874603624E+01 -0.64459644079E+02  0.16367671668E+03  0.00000000000E+00 0. -1.
         21    1    1    2  504  505 -0.10576938583E+03 -0.85575088232E+02 -0.25541582410E+03  0.28939160649E+03  0.00000000000E+00 0. -1.
         21    1    1    2  505  501 -0.38524095502E+02  0.36722929771E+02 -0.10704943903E+03  0.11955024844E+03  0.00000000000E+00 0. -1.
          2    1    1    2  501    0 -0.59744370605E+01  0.41464698099E+02 -0.97758123657E+03  0.97847845616E+03  0.00000000000E+00 0.  1.
<scales pt_clust_3="140.47723" pt_clust_4="14000.00000" pt_clust_5="60.97243" pt_clust_6="41.89290"></scales>
<clustering>
<clus scale="   41.893">  2  6  1 -1</clus>
<clus scale="   60.972">  2  5  1 -1</clus>
<clus scale="  140.477">  1  3  2 -1</clus>
<clus scale="  140.477">  1  3  2 -1</clus>
</clustering>
</event>
<event>
 6    0  0.5775861E+002  0.6507115E+02  0.7546771E-02  0.1377704E+00
         -1   -1    0    0    0  501 -0.00000000000E+00  0.00000000000E+00  0.72806704174E+03  0.72806704174E+03  0.00000000000E+00 0. -1.
         21   -1    0    0  505  502  0.00000000000E+00 -0.00000000000E+00 -0.44048301552E+02  0.44048301552E+02  0.00000000000E+00 0. -1.
         21    1    1    2  503  504 -0.42459982169E+02 -0.45916912325E+02  0.10924557483E+03  0.12588013561E+03  0.00000000000E+00 0. -1.
         21    1    1    2  504  502 -0.29362292339E+02  0.21178276836E+02 -0.64818522504E+01  0.36778771455E+02  0.00000000000E+00 0. -1.
         21    1    1    2  505  501  0.91242843968E+02 -0.32143038626E+02  0.18595713853E+03  0.20961509697E+03  0.00000000000E+00 0. -1.
         -1    1    1    2    0  503 -0.19420569459E+02  0.56881674116E+02  0.39529787908E+03  0.39984133925E+03  0.00000000000E+00 0. -1.
<scales pt_clust_3="65.07115" pt_clust_4="36.20309" pt_clust_5="14000.00000" pt_clust_6="63.13366"></scales>
<clustering>
<clus scale="   36.203">  2  4  1 -1</clus>
<clus scale="   63.134">  1  6  2 -1</clus>
<clus scale="   65.071">  1  3  2 -1</clus>
<clus scale="   36.203">  2  3  1 -1</clus>
</clustering>
</event>
<event>
 6    0  0.5775861E+002  0.8935706E+02  0.7546771E-02  0.1304416E+00
          2   -1    0    0  505    0 -0.00000000000E+00  0.00000000000E+00  0.11512429323E+04  0.11512429323E+04  0.00000000000E+00 0. -1.
         21   -1    0    0  503  502  0.00000000000E+00 -0.00000000000E+00 -0.53069092199E+02  0.53069092199E+02  0.00000000000E+00 0. -1.
         21    1    1    2  503  504 -0.10816159754E+02  0.30077949025E+02  0.48853689945E+02  0.58381121526E+02  0.00000000000E+00 0. -1.
         21    1    1    2  504  501 -0.45808230041E+02 -0.87759053386E+02  0.36795026352E+02  0.10561211746E+03  0.00000000000E+00 0. -1.
         21    1    1    2  505  502  0.33089780628E+02 -0.28066463728E+02  0.27678234855E+02  0.51465956251E+02  0.00000000000E+00 0. -1.
          2    1    1    2  501    0  0.23534609167E+02  0.85747568089E+02  0.98484688894E+03  0.98885282925E+03  0.00000000000E+00 0. -1.
<scales pt_clust_3="31.96361" pt_clust_4="89.35706" pt_clust_5="36.77823" pt_clust_6="14000.00000"></scales>
<clustering>
<clus scale="   31.964">  2  3  1 -1</clus>
<clus scale="   36.778">  2  5  1 -1</clus>
<clus scale="   89.357">  2  4  1 -1</clus>
<clus scale="   31.964">  2  3  1 -1</clus>
</clustering>
</event>
<event>
 6    0  0.5775861E+002  0.9919782E+02  0.7546771E-02  0.1281992E+00
          3   -1    0    0  505    0 -0.00000000000E+00  0.00000000000E+00  0.73381424010E+02  0.73381424010E+02  0.00000000000E+00 0.  1.
         21   -1    0    0  501  502  0.00000000000E+00 -0.00000000000E+00 -0.57279285609E+03  0.57279285609E+03  0.00000000000E+00 0.  1.
         21    1    1    2  503  502  0.66073293398E+02  0.19980190596E+02 -0.25000970630E+03  0.25936410962E+03  0.00000000000E+00 0.  1.
         21    1    1    2  504  503 -0.77596818482E+02 -0.10871009388E+03 -0.21634347637E+03  0.25425115637E+03  0.00000000000E+00 0.  1.
         21    1    1    2  505  504  0.41693831860E+02  0.83347535858E+02 -0.39538414862E+02  0.10123474502E+03  0.00000000000E+00 0.  1.
          3    1    1    2  501    0 -0.30170306776E+02  0.53823674203E+01  0.64801654449E+01  0.31324269093E+02  0.00000000000E+00 0.  1.
<scales pt_clust_3="66.69324" pt_clust_4="14000.00000" pt_clust_5="99.19782" pt_clust_6="30.64665"></scales>
<clustering>
<clus scale="   30.647">  1  6  2 -1</clus>
<clus scale="   66.693">  2  3  1 -1</clus>
<clus scale="   99.198">  1  5  2 -1</clus>
<clus scale="   66.693">  2  3  1 -1</clus>
</clustering>
</event>
<event>
 6    0  0.5775861E+002  0.6258623E+02  0.7546771E-02  0.1387288E+00
          1   -1    0    0  503    0 -0.00000000000E+00  0.00000000000E+00  0.10403066640E+03  0.10403066640E+03  0.00000000000E+00 0.  1.
         21   -1    0    0  504  502  0.00000000000E+00 -0.00000000000E+00 -0.60686080391E+03  0.60686080391E+03  0.00000000000E+00 0.  1.
         21    1    1    2  503  505 -0.62191679210E+02  0.49957483779E+02 -0.15102716214E+03  0.17080034793E+03  0.00000000000E+00 0.  1.
         21    1    1    2  504  501 -0.44053754744E+02 -0.33536971835E+02 -0.56945898667E+02  0.79424789341E+02  0.00000000000E+00 0.  1.
         21    1    1    2  505  502  0.62088966124E+02  0.26169306188E+02 -0.36286995734E+03  0.36907245663E+03  0.00000000000E+00 0.  1.
          1    1    1    2  501    0  0.44156467829E+02 -0.42589818133E+02  0.68012880649E+02  0.91593876400E+02  0.00000000000E+00 0.  1.
<scales pt_clust_3="62.58623" pt_clust_4="55.36661" pt_clust_5="32.33686" pt_clust_6="14000.00000"></scales>
<clustering>
<clus scale="   55.367">  2  4  1 -1</clus>
<clus scale="   32.337">  2  5  1 -1</clus>
<clus scale="   62.586">  2  3  1 -1</clus>
<clus scale="   55.367">  2  3  1 -1</clus>
</clustering>
</event>
<event>
 6    0  0.5775861E+002  0.1224283E+03  0.7546771E-02  0.1239144E+00
         21   -1    0    0  505  502  0.00000000000E+00  0.00000000000E+00  0.39256211204E+02  0.39256211204E+02  0.00000000000E+00 0. -1.
          3   -1    0    0  503    0 -0.00000000000E+00 -0.00000000000E+00 -0.75151694970E+03  0.75151694970E+03  0.00000000000E+00 0.  1.
         21    1    1    2  503  504  0.86696703776E+02  0.30300042756E+02 -0.10939545712E+03  0.14283478944E+03  0.00000000000E+00 0. -1.
         21    1    1    2  504  502  0.25532957446E+02  0.43040764458E+02 -0.58379638418E+02  0.76893572572E+02  0.00000000000E+00 0. -1.
         21    1    1    2  505  501 -0.87339977647E+02 -0.35429238013E+02 -0.17483251264E+03  0.19862001429E+03  0.00000000000E+00 0.  1.
          3    1    1    2  501    0 -0.24889683575E+02 -0.37911569201E+02 -0.36965313033E+03  0.37242478461E+03  0.00000000000E+00 0.  1.
<scales pt_clust_3="34.28936" pt_clust_4="34.28936" pt_clust_5="113.27394" pt_clust_6="45.35177"></scales>
<clustering>
<clus scale="   34.289">  3  4 -1 -1</clus>
<clus scale="   45.352">  2  6  1 -1</clus>
<clus scale="  113.274">  2  5  1 -1</clus>
<clus scale="  122.428">  1  3  2 -1</clus>
</clustering>
</event>
<event>
 6    0  0.5775861E+002  0.1606506E+03  0.7546771E-02  0.1187964E+00
          2   -1    0    0  502    0 -0.00000000000E+00  0.00000000000E+00  0.14103605837E+04  0.14103605837E+04  0.00000000000E+00 0. -1.
         21   -1    0    0  505  502  0.00000000000E+00 -0.00000000000E+00 -0.12234227137E+04  0.12234227137E+04  0.00000000000E+00 0.  1.
         21    1    1    2  503  501  0.12343276822E+03 -0.11364385578E+02  0.81998341278E+03  0.82929946024E+03  0.00000000000E+00 0.  1.
         21    1    1    2  504  503 -0.11611425202E+03  0.39548811671E+02 -0.11723112395E+03  0.16967546802E+03  0.00000000000E+00 0.  1.
         21    1    1    2  505  504 -0.31931611977E+02  0.34339916465E+02 -0.10727798886E+04  0.10738042406E+04  0.00000000000E+00 0.  1.
          2    1    1    2  501    0  0.24613095783E+02 -0.62524342558E+02  0.55696546970E+03  0.56100412863E+03  0.00000000000E+00 0. -1.
<scales pt_clust_3="160.65056" pt_clust_4="14000.00000" pt_clust_5="46.89198" pt_clust_6="66.60777"></scales>
<clustering>
<clus scale="   46.892">  2  5  1 -1</clus>
<clus scale="   66.608">  1  6  2 -1</clus>
<clus scale="  160.651">  1  3  2 -1</clus>
<clus scale="   46.892">  2  3  1 -1</clus>
</clustering>
</event>
<event>
 6    0  0.5775861E+002  0.1358675E+03  0.7546771E-02  0.1219000E+00
         -3   -1    0    0    0  501 -0.00000000000E+00  0.00000000000E+00  0.10646951287E+04  0.10646951287E+04  0.00000000000E+00 0.  1.
         21   -1    0    0  505  502  0.00000000000E+00 -0.00000000000E+00 -0.11059923181E+04  0.11059923181E+04  0.00000000000E+00 0.  1.
         21    1    1    2  503  504 -0.11184288616E+03  0.65977890990E+02 -0.12641877227E+03  0.18122808631E+03  0.00000000000E+00 0.  1.
         21    1    1    2  504  502 -0.25995188812E+02 -0.52575155830E+02 -0.93705833618E+03  0.93889201842E+03  0.00000000000E+00 0.  1.
         21    1    1    2  505  501  0.30235524477E+02  0.93570215922E+01  0.11125874133E+02  0.33548857934E+02  0.00000000000E+00 0. -1.
         -3    1    1    2    0  503  0.10760255050E+03 -0.22759756752E+02  0.10110540449E+04  0.10170184842E+04  0.00000000000E+00 0.  1.
<scales pt_clust_3="135.86747" pt_clust_4="58.63147" pt_clust_5="31.65029" pt_clust_6="14000.00000"></scales>
<clustering>
<clus scale="   31.650">  1  5  2 -1</clus>
<clus scale="   58.631">  2  4  1 -1</clus>
<clus scale="  135.867">  2  3  1 -1</clus>
<clus scale="   58.631">  2  3  1 -1</clus>
</clustering>
</event>
<event>
 6    0  0.5775861E+002  0.1216874E+03  0.7546771E-02  0.1240339E+00
          1   -1    0    0  504    0 -0.00000000000E+00  0.00000000000E+00  0.64616366552E+03  0.64616366552E+03  0.00000000000E+00 0.  1.
         21   -1    0    0  505  502  0.00000000000E+00 -0.00000000000E+00 -0.24683770132E+03  0.24683770132E+03  0.00000000000E+00 0.  1.
         21    1    1    2  503  501 -0.40428524943E+02  0.76179571142E+02  0.26361567104E+03  0.27736440779E+03  0.00000000000E+00 0.  1.
         21    1    1    2  504  502  0.83585454849E+02 -0.13137707594E+03 -0.20198287989E+03  0.25503636626E+03  0.00000000000E+00 0.  1.
         21    1    1    2  505  503 -0.14181644351E+02  0.26683902481E+02  0.12215441492E+02  0.32593967217E+02  0.00000000000E+00 0.  1.
          1    1    1    2  501    0 -0.28975285555E+02  0.28513602319E+02  0.32547773155E+03  0.32800662558E+03  0.00000000000E+00 0.  1.
<scales pt_clust_3="14000.00000" pt_clust_4="121.68738" pt_clust_5="30.21837" pt_clust_6="40.80613"></scales>
<clustering>
<clus scale="   30.218">  2  5  1 -1</clus>
<clus scale="   40.806">  1  6  2 -1</clus>
<clus scale="  121.687">  2  4  1 -1</clus>
<clus scale="   30.218">  2  3  1 -1</clus>
</clustering>
</event>
<event>
 6    0  0.5775861E+002  0.1405330E+03  0.7546771E-02  0.1212614E+00
         21   -1    0    0  503  502  0.00000000000E+00  0.00000000000E+00  0.30187063258E+03  0.30187063258E+03  0.00000000000E+00 0.  1.
          1   -1    0    0  505    0 -0.00000000000E+00 -0.00000000000E+00 -0.95745429040E+03  0.95745429040E+03  0.00000000000E+00 0.  1.
         21    1    1    2  503  501  0.52132594635E+02 -0.47453663608E+01  0.36064676301E+02  0.63568756492E+02  0.00000000000E+00 0.  1.
         21    1    1    2  504  502 -0.99019631522E+02 -0.12609814742E+03  0.20530959728E+03  0.26049503055E+03  0.00000000000E+00 0.  1.
         21    1    1    2  505  504 -0.12310568083E+02  0.15838236113E+03 -0.34933197668E+03  0.38375689223E+03  0.00000000000E+00 0.  1.
          1    1    1    2  501    0  0.59197604969E+02 -0.27538847352E+02 -0.54762595471E+03  0.55150424370E+03  0.00000000000E+00 0.  1.
<scales pt_clust_3="52.34812" pt_clust_4="14000.00000" pt_clust_5="140.53297" pt_clust_6="65.66889"></scales>
<clustering>
<clus scale="   52.348">  1  3  2 -1</clus>
<clus scale="   65.669">  2  6  1 -1</clus>
<clus scale="  140.533">  2  5  1 -1</clus>
<clus scale="   52.348">  1  3  2 -1</clus>
</clustering>
</event>
<event>
 6    0  0.5775861E+002  0.1163516E+03  0.7546771E-02  0.1249240E+00
         -2   -1    0    0    0  501 -0.00000000000E+00  0.00000000000E+00  0.25947072735E+04  0.25947072735E+04  0.00000000000E+00 0.  1.
         21   -1    0    0  505  502  0.00000000000E+00 -0.00000000000E+00 -0.19703066934E+03  0.19703066934E+03  0.00000000000E+00 0.  1.
         21    1    1    2  503  504  0.38154203493E+02  0.44384203507E+02 -0.59277832790E+02  0.83304034869E+02  0.00000000000E+00 0.  1.
         21    1    1    2  504  502  0.42635413328E+01  0.51998725043E+02 -0.11684707893E+03  0.12796595268E+03  0.00000000000E+00 0.  1.
         21    1    1    2  505  501  0.34957377536E+02 -0.99980703373E+02  0.12959489244E+04  0.13002698851E+04  0.00000000000E+00 0.  1.
         -2    1    1    2    0  503 -0.77375122362E+02  0.35977748226E+01  0.12778525914E+04  0.12801980702E+04  0.00000000000E+00 0.  1.
<scales pt_clust_3="47.45269" pt_clust_4="47.45269" pt_clust_5="104.93615" pt_clust_6="77.45872"></scales>
<clustering>
<clus scale="   47.453">  3  4 -1 -1</clus>
<clus scale="   77.459">  1  6  2 -1</clus>
<clus scale="  104.936">  1  5  2 -1</clus>
<clus scale="  116.352">  2  3  1 -1</clus>
</clustering>
</event>
<event>
 6    0  0.5775861E+002  0.1510388E+03  0.7546771E-02  0.1199202E+00
          1   -1    0    0  503    0 -0.00000000000E+00  0.00000000000E+00  0.55529694571E+03  0.55529694571E+03  0.00000000000E+00 0.  1.
         21   -1    0    0  504  502  0.00000000000E+00 -0.00000000000E+00 -0.79897467575E+03  0.79897467575E+03  0.00000000000E+00 0.  1.
         21    1    1    2  503  505 -0.89699838604E+02 -0.10780969238E+03  0.33886755935E+03  0.36674270763E+03  0.00000000000E+00 0.  1.
         21    1    1    2  504  501  0.47384144200E+02  0.18959642430E+02 -0.65005745925E+03  0.65205783907E+03  0.00000000000E+00 0.  1.
         21    1    1    2  505  502 -0.37312662393E+01  0.13421318846E+03 -0.92401185673E+02  0.16298797937E+03  0.00000000000E+00 0.  1.
          1    1    1    2  501    0  0.46046960643E+02 -0.45363138509E+02  0.15991335553E+03  0.17248309539E+03  0.00000000000E+00 0.  1.
<scales pt_clust_3="14000.00000" pt_clust_4="51.03651" pt_clust_5="151.03883" pt_clust_6="65.53752"></scales>
<clustering>
<clus scale="   51.037">  2  4  1 -1</clus>
<clus scale="   65.538">  1  6  2 -1</clus>
<clus scale="  151.039">  2  5  1 -1</clus>
<clus scale="   51.037">  2  3  1 -1</clus>
</clustering>
</event>
<event>
 6    0  0.5775861E+002  0.1427573E+03  0.7546771E-02  0.1209666E+00
         21   -1    0    0  504  502  0.00000000000E+00  0.00000000000E+00  0.91344086751E+03  0.91344086751E+03  0.00000000000E+00 0. -1.
         -3   -1    0    0    0  501 -0.00000000000E+00 -0.00000000000E+00 -0.30027935920E+03  0.30027935920E+03  0.00000000000E+00 0. -1.
         21    1    1    2  503  502  0.66398122068E+02 -0.38820919868E+02  0.10051989600E+03  0.12657023317E+03  0.00000000000E+00 0. -1.
         21    1    1    2  504  501  0.22940192965E+02  0.97841024098E+02  0.65093186144E+03  0.65864361129E+03  0.00000000000E+00 0. -1.
         21    1    1    2  505  503 -0.28654620697E+02  0.71624096365E+02  0.11420023632E+03  0.13781434048E+03  0.00000000000E+00 0. -1.
         -3    1    1    2    0  505 -0.60683694336E+02 -0.13064420060E+03 -0.25249048544E+03  0.29069204177E+03  0.00000000000E+00 0. -1.
<scales pt_clust_3="76.91407" pt_clust_4="142.75730" pt_clust_5="67.98853" pt_clust_6="14000.00000"></scales>
<clustering>
<clus scale="   76.914">  1  3  2 -1</clus>
<clus scale="   67.989">  1  5  2 -1</clus>
<clus scale="  142.757">  1  4  2 -1</clus>
<clus scale="   76.914">  1  3  2 -1</clus>
</clustering>
</event>
<event>
 6    0  0.5775861E+002  0.9746125E+02  0.7546771E-02  0.1285727E+00
          4   -1    0    0  503    0 -0.00000000000E+00  0.00000000000E+00  0.50216844973E+03  0.50216844973E+03  0.00000000000E+00 0.  1.
         21   -1    0    0  504  502  0.00000000000E+00 -0.00000000000E+00 -0.11995657549E+03  0.11995657549E+03  0.00000000000E+00 0.  1.
         21    1    1    2  503  505  0.80543343381E+02  0.20828861718E+02  0.77192180027E+02  0.11348878491E+03  0.00000000000E+00 0. -1.
         21    1    1    2  504  501 -0.12775244251E+03 -0.60359793325E+02  0.17440772772E+03  0.22445945448E+03  0.00000000000E+00 0.  1.
         21    1    1    2  505  502  0.77420861656E+02  0.48729011937E+02 -0.47645382514E+02  0.10314353542E+03  0.00000000000E+00 0.  1.
          4    1    1    2  501    0 -0.30211762531E+02 -0.91980803309E+01  0.17825734900E+03  0.18103325040E+03  0.00000000000E+00 0.  1.
<scales pt_clust_3="73.86688" pt_clust_4="14000.00000" pt_clust_5="97.46125" pt_clust_6="31.58093"></scales>
<clustering>
<clus scale="   31.581">  1  6  2 -1</clus>
<clus scale="   73.867">  1  3  2 -1</clus>
<clus scale="   97.461">  2  5  1 -1</clus>
<clus scale="   97.461">  2  3  1 -1</clus>
</clustering>
</event>
<event>
 6    0  0.5775861E+002  0.1925970E+03  0.7546771E-02  0.1156140E+00
         21   -1    0    0  503  502  0.00000000000E+00  0.00000000000E+00  0.57811390332E+03  0.57811390332E+03  0.00000000000E+00 0.  1.
         -2   -1    0    0    0  501 -0.00000000000E+00 -0.00000000000E+00 -0.18433270559E+04  0.18433270559E+04  0.00000000000E+00 0. -1.
         21    1    1    2  503  501  0.75525295684E+02 -0.21633174137E+02  0.26086685845E+03  0.27244005277E+03  0.00000000000E+00 0.  1.
         21    1    1    2  504  505 -0.19708341876E+03 -0.19836409369E+03 -0.42742690448E+03  0.51076799654E+03  0.00000000000E+00 0.  1.
         21    1    1    2  505  502  0.46400657535E+02  0.54223179272E+02  0.25888775312E+03  0.26854430343E+03  0.00000000000E+00 0. -1.
         -2    1    1    2    0  504  0.75157465537E+02  0.16577408855E+03 -0.13575408597E+04  0.13696886065E+04  0.00000000000E+00 0. -1.
<scales pt_clust_3="117.43301" pt_clust_4="14000.00000" pt_clust_5="71.36648" pt_clust_6="192.59698"></scales>
<clustering>
<clus scale="   71.366">  1  5  2 -1</clus>
<clus scale="  117.433">  1  3  2 -1</clus>
<clus scale="  192.597">  2  6  1 -1</clus>
<clus scale="   71.366">  1  3  2 -1</clus>
</clustering>
</event>
<event>
 6    0  0.5775861E+002  0.1967739E+03  0.7546771E-02  0.1152490E+00
         21   -1    0    0  501  502  0.00000000000E+00  0.00000000000E+00  0.14671192204E+03  0.14671192204E+03  0.00000000000E+00 0.  1.
          2   -1    0    0  504    0 -0.00000000000E+00 -0.00000000000E+00 -0.17806210689E+04  0.17806210689E+04  0.00000000000E+00 0.  1.
         21    1    1    2  503  505  0.74562134398E+01 -0.53783601007E+02 -0.19908943170E+02  0.57832835607E+02  0.00000000000E+00 0.  1.
         21    1    1    2  504  503 -0.19407633918E+03  0.15495213625E+03 -0.30709564982E+03  0.39494750043E+03  0.00000000000E+00 0.  1.
         21    1    1    2  505  502 -0.86770623957E+01 -0.96468403202E+02  0.46275110397E+02  0.10734444592E+03  0.00000000000E+00 0.  1.
          2    1    1    2  501    0  0.19529718813E+03 -0.47001320374E+01 -0.13531796643E+04  0.13672082090E+04  0.00000000000E+00 0.  1.
<scales pt_clust_3="47.42003" pt_clust_4="196.77391" pt_clust_5="163.05937" pt_clust_6="14000.00000"></scales>
<clustering>
<clus scale="   47.420">  3  5 -1 -1</clus>
<clus scale="  163.059">  1  3  2 -1</clus>
<clus scale="  196.774">  1  4  2 -1</clus>
<clus scale="  163.059">  1  3  2 -1</clus>
</clustering>
</event>
<event>
 6    0  0.5775861E+002  0.6893495E+02  0.7546771E-02  0.1363753E+00
         21   -1    0    0  504  502  0.00000000000E+00  0.00000000000E+00  0.25348789915E+02  0.25348789915E+02  0.00000000000E+00 0. -1.
          2   -1    0    0  503    0 -0.00000000000E+00 -0.00000000000E+00 -0.30786247913E+04  0.30786247913E+04  0.00000000000E+00 0.  1.
         21    1    1    2  503  502 -0.61331322329E+02  0.58139068080E+02 -0.12963969441E+03  0.15475184232E+03  0.00000000000E+00 0. -1.
         21    1    1    2  504  505  0.99035852023E+01  0.36834424473E+02 -0.40190835460E+02  0.55409016243E+02  0.00000000000E+00 0. -1.
         21    1    1    2  505  501  0.52105771367E+02 -0.25673134114E+02 -0.17319462734E+03  0.18267594303E+03  0.00000000000E+00 0. -1.
          2    1    1    2  501    0 -0.67803423995E+00 -0.69300358438E+02 -0.27102508442E+04  0.27111367796E+04  0.00000000000E+00 0.  1.
<scales pt_clust_3="68.93495" pt_clust_4="38.14257" pt_clust_5="56.99473" pt_clust_6="14000.00000"></scales>
<clustering>
<clus scale="   38.143">  1  4  2 -1</clus>
<clus scale="   56.995">  1  5  2 -1</clus>
<clus scale="   68.935">  1  3  2 -1</clus>
<clus scale="   38.143">  1  3  2 -1</clus>
</clustering>
</event>
<event>
 6    0  0.5775861E+002  0.1224467E+03  0.7546771E-02  0.1239115E+00
          3   -1    0    0  504    0 -0.00000000000E+00  0.00000000000E+00  0.13354962821E+04  0.13354962821E+04  0.00000000000E+00 0.  1.
         21   -1    0    0  501  502  0.00000000000E+00 -0.00000000000E+00 -0.11243666605E+03  0.11243666605E+03  0.00000000000E+00 0. -1.
         21    1    1    2  503  502  0.41068812974E+02 -0.30631371038E+02 -0.74719629434E+02  0.90597744528E+02  0.00000000000E+00 0. -1.
         21    1    1    2  504  505 -0.29803455666E+02 -0.41351683333E+02  0.21438047858E+03  0.22035697693E+03  0.00000000000E+00 0.  1.
         21    1    1    2  505  503  0.93710928069E+02  0.41805705799E+02  0.86770207343E+02  0.13438200757E+03  0.00000000000E+00 0. -1.
          3    1    1    2  501    0 -0.10497628538E+03  0.30177348572E+02  0.99662855955E+03  0.10025962191E+04  0.00000000000E+00 0.  1.
<scales pt_clust_3="51.24124" pt_clust_4="50.97262" pt_clust_5="14000.00000" pt_clust_6="122.44668"></scales>
<clustering>
<clus scale="   50.973">  1  4  2 -1</clus>
<clus scale="   51.241">  2  3  1 -1</clus>
<clus scale="  122.447">  1  6  2 -1</clus>
<clus scale="   51.241">  2  3  1 -1</clus>
</clustering>
</event>
<event>
 6    0  0.5788088E+002  0.6118121E+02  0.7546771E-02  0.1392941E+00
          2   -1    0    0  504    0 -0.00000000000E+00  0.00000000000E+00  0.31716627601E+04  0.31716627601E+04  0.00000000000E+00 0. -1.
         21   -1    0    0  503  502  0.00000000000E+00 -0.00000000000E+00 -0.29250187375E+03  0.29250187375E+03  0.00000000000E+00 0. -1.
         21    1    1    2  503  505  0.30765165915E+02 -0.11567187118E+02 -0.22106605308E+03  0.22349607396E+03  0.00000000000E+00 0. -1.
         21    1    1    2  504  502 -0.97966096243E+02  0.78235010501E+02 -0.51695988309E+01  0.12547827554E+03  0.00000000000E+00 0. -1.
         21    1    1    2  505  501  0.20191558486E+02 -0.27979710232E+02  0.60216199877E+02  0.69401397294E+02  0.00000000000E+00 0. -1.
          2    1    1    2  501    0  0.47009371842E+02 -0.38688113150E+02  0.30451803384E+04  0.30457888870E+04  0.00000000000E+00 0. -1.
<scales pt_clust_3="32.86785" pt_clust_4="61.18121" pt_clust_5="36.31493" pt_clust_6="14000.00000"></scales>
<clustering>
<clus scale="   32.868">  2  3  1 -1</clus>
<clus scale="   36.315">  2  5  1 -1</clus>
<clus scale="   61.181">  2  4  1 -1</clus>
<clus scale="   32.868">  2  3  1 -1</clus>
</clustering>
</event>
<event>
 6    0  0.5775861E+002  0.1564351E+03  0.7546771E-02  0.1192781E+00
          2   -1    0    0  503    0 -0.00000000000E+00  0.00000000000E+00  0.41619277221E+03  0.41619277221E+03  0.00000000000E+00 0.  1.
         21   -1    0    0  505  502  0.00000000000E+00 -0.00000000000E+00 -0.38580078125E+03  0.38580078125E+03  0.00000000000E+00 0.  1.
         21    1    1    2  503  504  0.17616102087E+02 -0.90465276389E+02  0.21945376690E+03  0.23802153073E+03  0.00000000000E+00 0.  1.
         21    1    1    2  504  502 -0.12272555545E+02  0.16171802887E+03 -0.30416329395E+03  0.34470080630E+03  0.00000000000E+00 0.  1.
         21    1    1    2  505  501 -0.43032583759E+02 -0.80564549892E+02 -0.65535733686E+01  0.91571825843E+02  0.00000000000E+00 0.  1.
          2    1    1    2  501    0  0.37689037217E+02  0.93117974074E+01  0.12165509137E+03  0.12769939058E+03  0.00000000000E+00 0.  1.
<scales pt_clust_3="156.43514" pt_clust_4="14000.00000" pt_clust_5="87.65105" pt_clust_6="38.82233"></scales>
<clustering>
<clus scale="   38.822">  1  6  2 -1</clus>
<clus scale="   87.651">  1  5  2 -1</clus>
<clus scale="  156.435">  1  3  2 -1</clus>
<clus scale="  156.435">  2  3  1 -1</clus>
</clustering>
</event>
<event>
 6    0  0.5775861E+002  0.1666545E+03  0.7546771E-02  0.1181382E+00
         21   -1    0    0  503  502  0.00000000000E+00  0.00000000000E+00  0.26649941949E+03  0.26649941949E+03  0.00000000000E+00 0.  1.
          2   -1    0    0  505    0 -0.00000000000E+00 -0.00000000000E+00 -0.92023965562E+03  0.92023965562E+03  0.00000000000E+00 0.  1.
         21    1    1    2  503  501  0.54627924883E+02 -0.27736573797E+02  0.13639275448E+03  0.14952093893E+03  0.00000000000E+00 0.  1.
         21    1    1    2  504  502  0.80276175679E+02  0.13180836031E+03  0.46874219186E+02  0.16129135331E+03  0.00000000000E+00 0.  1.
         21    1    1    2  505  504 -0.84810551581E+02 -0.16051871552E+03 -0.62783343083E+03  0.65355482139E+03  0.00000000000E+00 0.  1.
          2    1    1    2  501    0 -0.50093548981E+02  0.56446929015E+02 -0.20917377897E+03  0.22237196148E+03  0.00000000000E+00 0.  1.
<scales pt_clust_3="61.26604" pt_clust_4="166.65447" pt_clust_5="14000.00000" pt_clust_6="72.43429"></scales>
<clustering>
<clus scale="   61.266">  1  3  2 -1</clus>
<clus scale="   72.434">  2  6  1 -1</clus>
<clus scale="  166.654">  1  4  2 -1</clus>
<clus scale="   61.266">  1  3  2 -1</clus>
</clustering>
</event>
<event>
 6    0  0.5775861E+002  0.1268011E+03  0.7546771E-02  0.1232281E+00
         21   -1    0    0  503  502  0.00000000000E+00  0.00000000000E+00  0.77218862241E+03  0.77218862241E+03  0.00000000000E+00 0. -1.
          1   -1    0    0  504    0 -0.00000000000E+00 -0.00000000000E+00 -0.60954000717E+03  0.60954000717E+03  0.00000000000E+00 0. -1.
         21    1    1    2  503  501 -0.51902798627E+02  0.12797355991E+02  0.26563896266E+02  0.59693495546E+02  0.00000000000E+00 0.  1.
         21    1    1    2  504  505  0.53582104931E+02 -0.13562937240E+02 -0.17985438044E+02  0.58124617995E+02  0.00000000000E+00 0. -1.
         21    1    1    2  505  502 -0.36711037567E+02  0.82357805535E+02  0.70253825885E+03  0.70830114609E+03  0.00000000000E+00 0. -1.
          1    1    1    2  501    0  0.35031731263E+02 -0.81592224285E+02 -0.54846810183E+03  0.55560936996E+03  0.00000000000E+00 0. -1.
<scales pt_clust_3="53.45721" pt_clust_4="53.80047" pt_clust_5="14000.00000" pt_clust_6="126.80113"></scales>
<clustering>
<clus scale="   53.457">  1  3  2 -1</clus>
<clus scale="   53.800">  2  4  1 -1</clus>
<clus scale="  126.801">  2  6  1 -1</clus>
<clus scale="   53.457">  1  3  2 -1</clus>
</clustering>
</event>
<event>
 6    0  0.5775861E+002  0.7677850E+02  0.7546771E-02  0.1338450E+00
         21   -1    0    0  505  502  0.00000000000E+00  0.00000000000E+00  0.19897013440E+03  0.19897013440E+03  0.00000000000E+00 0.  1.
          2   -1    0    0  502    0 -0.00000000000E+00 -0.00000000000E+00 -0.20921227217E+04  0.20921227217E+04  0.00000000000E+00 0.  1.
         21    1    1    2  503  501 -0.21957917724E+02  0.58539776071E+02 -0.51697507792E+03  0.52074205392E+03  0.00000000000E+00 0.  1.
         21    1    1    2  504  503  0.44850992498E+02 -0.93547586483E+02 -0.12748155894E+03  0.16436030644E+03  0.00000000000E+00 0.  1.
         21    1    1    2  505  504 -0.31020298186E+02  0.68626116839E+02  0.17049005220E+03  0.18638310200E+03  0.00000000000E+00 0.  1.
          2    1    1    2  501    0  0.81272234122E+01 -0.33618306427E+02 -0.14191860027E+04  0.14196073938E+04  0.00000000000E+00 0.  1.
<scales pt_clust_3="36.18870" pt_clust_4="14000.00000" pt_clust_5="76.77850" pt_clust_6="34.58674"></scales>
<clustering>
<clus scale="   34.587">  2  6  1 -1</clus>
<clus scale="   36.189">  2  3  1 -1</clus>
<clus scale="   76.779">  1  5  2 -1</clus>
<clus scale="   76.779">  1  3  2 -1</clus>
</clustering>
</event>
<event>
 6    0  0.5775861E+002  0.8864467E+02  0.7546771E-02  0.1306167E+00
         21   -1    0    0  504  502  0.00000000000E+00  0.00000000000E+00  0.29135737590E+04  0.29135737590E+04  0.00000000000E+00 0. -1.
          1   -1    0    0  505    0 -0.00000000000E+00 -0.00000000000E+00 -0.30105178832E+03  0.30105178832E+03  0.00000000000E+00 0. -1.
         21    1    1    2  503  502 -0.11403625531E+03  0.64089328230E+02  0.96561950579E+03  0.97443970541E+03  0.00000000000E+00 0. -1.
         21    1    1    2  504  501  0.33678909318E+02 -0.76972942364E+02  0.18951540846E+04  0.18970155790E+04  0.00000000000E+00 0. -1.
         21    1    1    2  505  503  0.41957077617E+02  0.10893654324E+02  0.35988913388E+02  0.56340659861E+02  0.00000000000E+00 0.  1.
          1    1    1    2  501    0  0.38400268379E+02  0.19899598101E+01 -0.28424053305E+03  0.28682960304E+03  0.00000000000E+00 0. -1.
<scales pt_clust_3="88.64467" pt_clust_4="14000.00000" pt_clust_5="68.23918" pt_clust_6="38.45180"></scales>
<clustering>
<clus scale="   38.452">  2  6  1 -1</clus>
<clus scale="   68.239">  2  5  1 -1</clus>
<clus scale="   88.645">  2  3  1 -1</clus>
<clus scale="   88.645">  1  3  2 -1</clus>
</clustering>
</event>
<event>
 6    0  0.5775861E+002  0.1109284E+03  0.7546771E-02  0.1258860E+00
          1   -1    0    0  503    0 -0.00000000000E+00  0.00000000000E+00  0.21438848828E+04  0.21438848828E+04  0.00000000000E+00 0. -1.
         21   -1    0    0  505  502  0.00000000000E+00 -0.00000000000E+00 -0.22596605988E+03  0.22596605988E+03  0.00000000000E+00 0.  1.
         21    1    1    2  503  502 -0.39096347587E+02  0.44889083280E+02  0.67883950816E+02  0.90287235924E+02  0.00000000000E+00 0.  1.
         21    1    1    2  504  501  0.89474121554E+02  0.11296421285E+03  0.79726867851E+02  0.16469033144E+03  0.00000000000E+00 0.  1.
         21    1    1    2  505  504 -0.28065735121E+02 -0.10400016941E+03 -0.15496012658E+03  0.18872297569E+03  0.00000000000E+00 0.  1.
          1    1    1    2  501    0 -0.22312038846E+02 -0.53853126720E+02  0.19252681308E+04  0.19261503996E+04  0.00000000000E+00 0. -1.
<scales pt_clust_3="53.57129" pt_clust_4="14000.00000" pt_clust_5="110.92840" pt_clust_6="58.29225"></scales>
<clustering>
<clus scale="   58.292">  1  6  2 -1</clus>
<clus scale="   53.571">  1  3  2 -1</clus>
<clus scale="  110.928">  2  5  1 -1</clus>
<clus scale="  110.928">  2  3  1 -1</clus>
</clustering>
</event>
<event>
 6    0  0.5775861E+002  0.1110362E+03  0.7546771E-02  0.1258663E+00
         21   -1    0    0  503  502  0.00000000000E+00  0.00000000000E+00  0.23246182828E+02  0.23246182828E+02  0.00000000000E+00 0.  1.
          2   -1    0    0  504    0 -0.00000000000E+00 -0.00000000000E+00 -0.30730866029E+04  0.30730866029E+04  0.00000000000E+00 0. -1.
         21    1    1    2  503  505 -0.61432433054E+02  0.38328140694E+02 -0.68108318925E+02  0.99406907742E+02  0.00000000000E+00 0. -1.
         21    1    1    2  504  502  0.16338319971E+03  0.25491165114E+01 -0.15616151727E+04  0.15701409222E+04  0.00000000000E+00 0.  1.
         21    1    1    2  505  501 -0.63045441633E+02 -0.58036818418E+02 -0.66904845249E+03  0.67451377435E+03  0.00000000000E+00 0. -1.
          2    1    1    2  501    0 -0.38905325026E+02  0.17159561213E+02 -0.75106847592E+03  0.75227118141E+03  0.00000000000E+00 0. -1.
<scales pt_clust_3="73.92747" pt_clust_4="111.03622" pt_clust_5="14000.00000" pt_clust_6="42.52146"></scales>
<clustering>
<clus scale="   42.521">  2  6  1 -1</clus>
<clus scale="   73.927">  1  3  2 -1</clus>
<clus scale="  111.036">  2  4  1 -1</clus>
<clus scale="   73.927">  1  3  2 -1</clus>
</clustering>
</event>
<event>
 6    0  0.5775861E+002  0.1781664E+03  0.7546771E-02  0.1169590E+00
         21   -1    0    0  505  502  0.00000000000E+00  0.00000000000E+00  0.17402925221E+03  0.17402925221E+03  0.00000000000E+00 0.  1.
          2   -1    0    0  502    0 -0.00000000000E+00 -0.00000000000E+00 -0.11538136867E+04  0.11538136867E+04  0.00000000000E+00 0. -1.
         21    1    1    2  503  501 -0.12275303942E+03  0.13161694224E+03 -0.34092372905E+03  0.38551305710E+03  0.00000000000E+00 0.  1.
         21    1    1    2  504  503  0.67563767765E+02 -0.16759838147E+03 -0.23770325978E+01  0.18072003340E+03  0.00000000000E+00 0. -1.
         21    1    1    2  505  504  0.27519730292E+02  0.16210351305E+02  0.58043428414E+02  0.66250665105E+02  0.00000000000E+00 0.  1.
          2    1    1    2  501    0  0.27669541359E+02  0.19771087926E+02 -0.69452710121E+03  0.69535918327E+03  0.00000000000E+00 0. -1.
<scales pt_clust_3="14000.00000" pt_clust_4="178.16636" pt_clust_5="31.93918" pt_clust_6="34.12565"></scales>
<clustering>
<clus scale="   31.939">  1  5  2 -1</clus>
<clus scale="   34.126">  2  6  1 -1</clus>
<clus scale="  178.166">  1  4  2 -1</clus>
<clus scale="   31.939">  1  3  2 -1</clus>
</clustering>
</event>
<event>
 6    0  0.5775861E+002  0.7304928E+02  0.7546771E-02  0.1350020E+00
          2   -1    0    0  505    0 -0.00000000000E+00  0.00000000000E+00  0.11728323133E+04  0.11728323133E+04  0.00000000000E+00 0.  1.
         21   -1    0    0  504  502  0.00000000000E+00 -0.00000000000E+00 -0.62670240550E+02  0.62670240550E+02  0.00000000000E+00 0. -1.
         21    1    1    2  503  502  0.29116268904E+02 -0.46928397007E+02  0.40972056108E+02  0.68765841391E+02  0.00000000000E+00 0. -1.
         21    1    1    2  504  501 -0.52124420186E+02  0.14392976005E+02  0.78061930069E+02  0.94961981151E+02  0.00000000000E+00 0.  1.
         21    1    1    2  505  503  0.94846172131E+02  0.23436686459E+02  0.22257780044E+02  0.10020221261E+03  0.00000000000E+00 0. -1.
          2    1    1    2  501    0 -0.71838020849E+02  0.90987345424E+01  0.96887030651E+03  0.97157251868E+03  0.00000000000E+00 0.  1.
<scales pt_clust_3="46.02081" pt_clust_4="54.07507" pt_clust_5="73.04928" pt_clust_6="14000.00000"></scales>
<clustering>
<clus scale="   54.075">  2  4  1 -1</clus>
<clus scale="   46.021">  2  3  1 -1</clus>
<clus scale="   73.049">  2  5  1 -1</clus>
<clus scale="   54.075">  2  3  1 -1</clus>
</clustering>
</event>
<event>
 6    0  0.5775861E+002  0.1314753E+03  0.7546771E-02  0.1225283E+00
         -1   -1    0    0    0  501 -0.00000000000E+00  0.00000000000E+00  0.76779006170E+03  0.76779006170E+03  0.00000000000E+00 0.  1.
         21   -1    0    0  504  502  0.00000000000E+00 -0.00000000000E+00 -0.79181029956E+02  0.79181029956E+02  0.00000000000E+00 0. -1.
         21    1    1    2  503  502 -0.30882907068E+02  0.10526617907E+02 -0.95946955697E+01  0.34009143133E+02  0.00000000000E+00 0. -1.
         21    1    1    2  504  501  0.13026739216E+03 -0.70507792414E+02  0.91548244010E+02  0.17413220045E+03  0.00000000000E+00 0. -1.
         21    1    1    2  505  503 -0.13265365525E+03  0.65382854509E+02  0.34989237915E+03  0.37986390576E+03  0.00000000000E+00 0.  1.
         -1    1    1    2    0  505  0.33269170150E+02 -0.54016800020E+01  0.25676310415E+03  0.25896584231E+03  0.00000000000E+00 0.  1.
<scales pt_clust_3="32.62765" pt_clust_4="131.47532" pt_clust_5="14000.00000" pt_clust_6="33.08749"></scales>
<clustering>
<clus scale="   32.628">  2  3  1 -1</clus>
<clus scale="   33.087">  1  6  2 -1</clus>
<clus scale="  131.475">  2  4  1 -1</clus>
<clus scale="   32.628">  2  3  1 -1</clus>
</clustering>
</event>
<event>
 6    0  0.5775861E+002  0.1022262E+03  0.7546771E-02  0.1275683E+00
          2   -1    0    0  504    0 -0.00000000000E+00  0.00000000000E+00  0.24007082964E+04  0.24007082964E+04  0.00000000000E+00 0. -1.
         21   -1    0    0  503  502  0.00000000000E+00 -0.00000000000E+00 -0.92997349094E+02  0.92997349094E+02  0.00000000000E+00 0. -1.
         21    1    1    2  503  501 -0.82112687590E+02  0.53868088273E+02  0.15962937278E+03  0.18741878522E+03  0.00000000000E+00 0.  1.
         21    1    1    2  504  505  0.68845193460E+02  0.49819186233E+02  0.77422661375E+03  0.77887640960E+03  0.00000000000E+00 0.  1.
         21    1    1    2  505  502 -0.19845930840E+02 -0.10211082448E+03 -0.41261180533E+02  0.11190606090E+03  0.00000000000E+00 0. -1.
          2    1    1    2  501    0  0.33113424970E+02 -0.15764500227E+01  0.14151161413E+04  0.14155043898E+04  0.00000000000E+00 0. -1.
<scales pt_clust_3="93.22455" pt_clust_4="102.22622" pt_clust_5="14000.00000" pt_clust_6="33.15093"></scales>
<clustering>
<clus scale="   33.151">  1  6  2 -1</clus>
<clus scale="   93.225">  1  3  2 -1</clus>
<clus scale="  102.226">  1  4  2 -1</clus>
<clus scale="  102.226">  2  3  1 -1</clus>
</clustering>
</event>
<event>
 6    0  0.5775861E+002  0.1110216E+03  0.7546771E-02  0.1258690E+00
          1   -1    0    0  504    0 -0.00000000000E+00  0.00000000000E+00  0.41364807808E+03  0.41364807808E+03  0.00000000000E+00 0. -1.
         21   -1    0    0  505  502  0.00000000000E+00 -0.00000000000E+00 -0.12545065207E+04  0.12545065207E+04  0.00000000000E+00 0.  1.
         21    1    1    2  503  501  0.12445751225E+03 -0.54919281474E+02 -0.29096836497E+03  0.32119836433E+03  0.00000000000E+00 0.  1.
         21    1    1    2  504  502 -0.37903689919E+02  0.81125467849E+02 -0.43688885583E+03  0.44597074298E+03  0.00000000000E+00 0.  1.
         21    1    1    2  505  503 -0.56896639355E+02  0.16024157613E+02 -0.50356749733E+03  0.50702487667E+03  0.00000000000E+00 0.  1.
          1    1    1    2  501    0 -0.29657182979E+02 -0.42230343988E+02  0.39056627550E+03  0.39396061480E+03  0.00000000000E+00 0. -1.
<scales pt_clust_3="111.02164" pt_clust_4="14000.00000" pt_clust_5="60.62019" pt_clust_6="51.60378"></scales>
<clustering>
<clus scale="   51.604">  1  6  2 -1</clus>
<clus scale="   60.620">  2  5  1 -1</clus>
<clus scale="  111.022">  1  3  2 -1</clus>
<clus scale="   60.620">  2  3  1 -1</clus>
</clustering>
</event>
<event>
 6    0  0.5775861E+002  0.9485441E+02  0.7546771E-02  0.1291504E+00
          1   -1    0    0  503    0 -0.00000000000E+00  0.00000000000E+00  0.50776353203E+03  0.50776353203E+03  0.00000000000E+00 0. -1.
         21   -1    0    0  504  502  0.00000000000E+00 -0.00000000000E+00 -0.24436419023E+03  0.24436419023E+03  0.00000000000E+00 0.  1.
         21    1    1    2  503  502  0.57942737304E+02  0.33637603069E+02  0.88596429565E+02  0.11107734458E+03  0.00000000000E+00 0. -1.
         21    1    1    2  504  505 -0.91821744937E+02  0.61375306752E+02 -0.18650220616E+03  0.21675154907E+03  0.00000000000E+00 0.  1.
         21    1    1    2  505  501  0.22334472604E+02 -0.63783447635E+02  0.64529918563E+01  0.67888128289E+02  0.00000000000E+00 0.  1.
          1    1    1    2  501    0  0.11544535029E+02 -0.31229462187E+02  0.35485212654E+03  0.35641070033E+03  0.00000000000E+00 0. -1.
<scales pt_clust_3="66.82413" pt_clust_4="94.85441" pt_clust_5="14000.00000" pt_clust_6="33.29498"></scales>
<clustering>
<clus scale="   33.295">  1  6  2 -1</clus>
<clus scale="   66.824">  1  3  2 -1</clus>
<clus scale="   94.854">  2  4  1 -1</clus>
<clus scale="   94.854">  2  3  1 -1</clus>
</clustering>
</event>
<event>
 6    0  0.5775861E+002  0.8831452E+02  0.7546771E-02  0.1306985E+00
          2   -1    0    0  505    0 -0.00000000000E+00  0.00000000000E+00  0.12811342772E+03  0.12811342772E+03  0.00000000000E+00 0. -1.
         21   -1    0    0  504  502  0.00000000000E+00 -0.00000000000E+00 -0.36417185694E+03  0.36417185694E+03  0.00000000000E+00 0. -1.
         21    1    1    2  503  502 -0.15839256803E+02  0.38843702604E+02 -0.51618020040E+02  0.66514173534E+02  0.00000000000E+00 0. -1.
         21    1    1    2  504  501  0.34572457318E+02  0.40512611941E+02 -0.20572606953E+03  0.21250821682E+03  0.00000000000E+00 0. -1.
         21    1    1    2  505  503 -0.95244423185E+02 -0.90067989608E+02 -0.62745225842E+01  0.13123685661E+03  0.00000000000E+00 0. -1.
          2    1    1    2  501    0  0.76511222670E+02  0.10711675063E+02  0.27560182936E+02  0.82026037699E+02  0.00000000000E+00 0. -1.
<scales pt_clust_3="41.94896" pt_clust_4="71.20168" pt_clust_5="88.31452" pt_clust_6="14000.00000"></scales>
<clustering>
<clus scale="   41.949">  2  3  1 -1</clus>
<clus scale="   71.202">  2  4  1 -1</clus>
<clus scale="   88.315">  2  5  1 -1</clus>
<clus scale="   41.949">  2  3  1 -1</clus>
</clustering>
</event>
<event>
 6    0  0.5775861E+002  0.1231862E+03  0.7546771E-02  0.1237932E+00
         21   -1    0    0  505  502  0.00000000000E+00  0.00000000000E+00  0.56558630946E+03  0.56558630946E+03  0.00000000000E+00 0.  1.
          2   -1    0    0  503    0 -0.00000000000E+00 -0.00000000000E+00 -0.88221513582E+03  0.88221513582E+03  0.00000000000E+00 0. -1.
         21    1    1    2  503  502 -0.43422747124E+01  0.87209268808E+02  0.46970306276E+03  0.47775022667E+03  0.00000000000E+00 0.  1.
         21    1    1    2  504  501 -0.96068981144E+02  0.51888410014E+02 -0.22651158692E+01  0.10920983006E+03  0.00000000000E+00 0.  1.
         21    1    1    2  505  504  0.90418659443E+02 -0.97551930159E+02 -0.79455777759E+02  0.15493590182E+03  0.00000000000E+00 0.  1.
          2    1    1    2  501    0  0.99925964133E+01 -0.41545748663E+02 -0.70461099550E+03  0.70590548673E+03  0.00000000000E+00 0. -1.
<scales pt_clust_3="86.36271" pt_clust_4="14000.00000" pt_clust_5="123.18617" pt_clust_6="42.73057"></scales>
<clustering>
<clus scale="   42.731">  2  6  1 -1</clus>
<clus scale="   86.363">  1  3  2 -1</clus>
<clus scale="  123.186">  1  5  2 -1</clus>
<clus scale="   86.363">  1  3  2 -1</clus>
</clustering>
</event>
<event>
 6    0  0.5775861E+002  0.1315472E+03  0.7546771E-02  0.1225178E+00
         21   -1    0    0  504  502  0.00000000000E+00  0.00000000000E+00  0.23640814683E+03  0.23640814683E+03  0.00000000000E+00 0.  1.
         -2   -1    0    0    0  501 -0.00000000000E+00 -0.00000000000E+00 -0.86718004815E+03  0.86718004815E+03  0.00000000000E+00 0.  1.
         21    1    1    2  503  502 -0.11971487640E+03 -0.11631375459E+03 -0.13366949914E+03  0.21384124050E+03  0.00000000000E+00 0.  1.
         21    1    1    2  504  505  0.12180290874E+02  0.28329434131E+02  0.13960734130E+03  0.14297246612E+03  0.00000000000E+00 0.  1.
         21    1    1    2  505  501  0.10074581427E+03  0.41028572032E+02 -0.48272358640E+00  0.10878095347E+03  0.00000000000E+00 0.  1.
         -2    1    1    2    0  503  0.67887712589E+01  0.46955748422E+02 -0.63622701989E+03  0.63799353489E+03  0.00000000000E+00 0.  1.
<scales pt_clust_3="14000.00000" pt_clust_4="30.83693" pt_clust_5="131.54724" pt_clust_6="47.72056"></scales>
<clustering>
<clus scale="   30.837">  1  4  2 -1</clus>
<clus scale="   47.721">  2  6  1 -1</clus>
<clus scale="  131.547">  1  5  2 -1</clus>
<clus scale="   30.837">  1  3  2 -1</clus>
</clustering>
</event>
<event>
 6    0  0.5775861E+002  0.1197903E+03  0.7546771E-02  0.1243443E+00
         21   -1    0    0  501  502  0.00000000000E+00  0.00000000000E+00  0.40883381649E+03  0.40883381649E+03  0.00000000000E+00 0.  1.
          2   -1    0    0  504    0 -0.00000000000E+00 -0.00000000000E+00 -0.84263800776E+03  0.84263800776E+03  0.00000000000E+00 0.  1.
         21    1    1    2  503  505 -0.78795342148E+02  0.82530691036E+02 -0.32183120328E+00  0.11410576008E+03  0.00000000000E+00 0.  1.
         21    1    1    2  504  503 -0.33493602698E+02 -0.53809735949E+02 -0.23727287307E+03  0.24559260046E+03  0.00000000000E+00 0.  1.
         21    1    1    2  505  502  0.82724935315E+02  0.51297412341E+02  0.33751702768E+03  0.35127280482E+03  0.00000000000E+00 0.  1.
          2    1    1    2  501    0  0.29564009530E+02 -0.80018367428E+02 -0.53372651468E+03  0.54050065888E+03  0.00000000000E+00 0.  1.
<scales pt_clust_3="14000.00000" pt_clust_4="63.38225" pt_clust_5="96.68926" pt_clust_6="119.79030"></scales>
<clustering>
<clus scale="   63.382">  2  4  1 -1</clus>
<clus scale="   96.689">  1  5  2 -1</clus>
<clus scale="  119.790">  2  6  1 -1</clus>
<clus scale="   96.689">  1  3  2 -1</clus>
</clustering>
</event>
<event>
 6    0  0.5775861E+002  0.2584774E+03  0.7546771E-02  0.1108061E+00
          2   -1    0    0  505    0 -0.00000000000E+00  0.00000000000E+00  0.11968506113E+04  0.11968506113E+04  0.00000000000E+00 0.  1.
         21   -1    0    0  503  502  0.00000000000E+00 -0.00000000000E+00 -0.10202499100E+04  0.10202499100E+04  0.00000000000E+00 0.  1.
         21    1    1    2  503  504  0.17925174871E+03  0.20097764120E+03 -0.89319270200E+03  0.93290750055E+03  0.00000000000E+00 0.  1.
         21    1    1    2  504  501 -0.23001936118E+03 -0.70918452354E+00  0.10947322322E+03  0.25474260748E+03  0.00000000000E+00 0.  1.
         21    1    1    2  505  502  0.78045348681E+02 -0.61440929139E+02  0.55792928425E+02  0.11392504153E+03  0.00000000000E+00 0.  1.
          2    1    1    2  501    0 -0.27277736211E+02 -0.13882752754E+03  0.90452725164E+03  0.91552537172E+03  0.00000000000E+00 0.  1.
<scales pt_clust_3="14000.00000" pt_clust_4="258.47744" pt_clust_5="99.32806" pt_clust_6="192.61706"></scales>
<clustering>
<clus scale="   99.328">  1  5  2 -1</clus>
<clus scale="  192.617">  1  6  2 -1</clus>
<clus scale="  258.477">  1  4  2 -1</clus>
<clus scale="  258.477">  2  3  1 -1</clus>
</clustering>
</event>
<event>
 6    0  0.5775861E+002  0.9489338E+02  0.7546771E-02  0.1291416E+00
         -4   -1    0    0    0  501 -0.00000000000E+00  0.00000000000E+00  0.71477664651E+03  0.71477664651E+03  0.00000000000E+00 0. -1.
         21   -1    0    0  505  502  0.00000000000E+00 -0.00000000000E+00 -0.34582301527E+03  0.34582301527E+03  0.00000000000E+00 0.  1.
         21    1    1    2  503  504  0.13677528737E+03  0.71615383095E+02 -0.19160872647E+03  0.24606939344E+03  0.00000000000E+00 0.  1.
         21    1    1    2  504  502 -0.33929663496E+02 -0.52486825647E+02 -0.84097186323E+02  0.10477798280E+03  0.00000000000E+00 0.  1.
         21    1    1    2  505  501 -0.21115903894E+02  0.27295669580E+02 -0.19050881086E+02  0.39419171036E+02  0.00000000000E+00 0.  1.
         -4    1    1    2    0  503 -0.81729719975E+02 -0.46424227028E+02  0.66371042512E+03  0.67033311450E+03  0.00000000000E+00 0. -1.
<scales pt_clust_3="14000.00000" pt_clust_4="59.87298" pt_clust_5="34.50993" pt_clust_6="94.89338"></scales>
<clustering>
<clus scale="   34.510">  2  5  1 -1</clus>
<clus scale="   59.873">  2  4  1 -1</clus>
<clus scale="   94.893">  1  6  2 -1</clus>
<clus scale="   34.510">  2  3  1 -1</clus>
</clustering>
</event>
<event>
 6    0  0.5775861E+002  0.1078549E+03  0.7546771E-02  0.1264595E+00
         -3   -1    0    0    0  501 -0.00000000000E+00  0.00000000000E+00  0.25728461197E+03  0.25728461197E+03  0.00000000000E+00 0. -1.
         21   -1    0    0  501  502  0.00000000000E+00 -0.00000000000E+00 -0.23587948023E+03  0.23587948023E+03  0.00000000000E+00 0. -1.
         21    1    1    2  503  504  0.15458206122E+02  0.74248268140E+02 -0.83102968701E+00  0.75844921179E+02  0.00000000000E+00 0. -1.
         21    1    1    2  504  505 -0.10126417973E+03 -0.12693429669E+03 -0.16427023733E+02  0.16320722068E+03  0.00000000000E+00 0. -1.
         21    1    1    2  505  502  0.86019738841E+02 -0.11900661498E+01 -0.83939175770E+02  0.12019399717E+03  0.00000000000E+00 0. -1.
         -3    1    1    2    0  503 -0.21376523242E+00  0.53876094701E+02  0.12260236093E+03  0.13391795317E+03  0.00000000000E+00 0. -1.
<scales pt_clust_3="14000.00000" pt_clust_4="107.85494" pt_clust_5="86.22601" pt_clust_6="53.87652"></scales>
<clustering>
<clus scale="   53.877">  1  6  2 -1</clus>
<clus scale="   86.226">  2  5  1 -1</clus>
<clus scale="  107.855">  2  4  1 -1</clus>
<clus scale="   86.226">  2  3  1 -1</clus>
</clustering>
</event>
<event>
 6    0  0.5775861E+002  0.9760454E+02  0.7546771E-02  0.1285415E+00
         21   -1    0    0  505  502  0.00000000000E+00  0.00000000000E+00  0.79668715215E+03  0.79668715215E+03  0.00000000000E+00 0. -1.
          2   -1    0    0  502    0 -0.00000000000E+00 -0.00000000000E+00 -0.76713456500E+03  0.76713456500E+03  0.00000000000E+00 0. -1.
         21    1    1    2  503  501 -0.33917900737E+01 -0.88387311445E+02  0.11604479970E+03  0.14591167397E+03  0.00000000000E+00 0. -1.
         21    1    1    2  504  503  0.36501233387E+02  0.36345684887E+02  0.13933991647E+03  0.14855625591E+03  0.00000000000E+00 0.  1.
         21    1    1    2  505  504  0.35921694700E+02 -0.18232522590E+02  0.51773000297E+03  0.51929485748E+03  0.00000000000E+00 0. -1.
          2    1    1    2  501    0 -0.69031138013E+02  0.70274149148E+02 -0.74356213197E+03  0.75005892979E+03  0.00000000000E+00 0. -1.
<scales pt_clust_3="14000.00000" pt_clust_4="61.31130" pt_clust_5="40.28391" pt_clust_6="97.60454"></scales>
<clustering>
<clus scale="   40.284">  1  5  2 -1</clus>
<clus scale="   61.311">  1  4  2 -1</clus>
<clus scale="   97.605">  2  6  1 -1</clus>
<clus scale="   40.284">  1  3  2 -1</clus>
</clustering>
</event>
<event>
 6    0  0.5775861E+002  0.1767168E+03  0.7546771E-02  0.1171019E+00
          1   -1    0    0  504    0 -0.00000000000E+00  0.00000000000E+00  0.96915095557E+02  0.96915095557E+02  0.00000000000E+00 0.  1.
         21   -1    0    0  503  502  0.00000000000E+00 -0.00000000000E+00 -0.16478310572E+04  0.16478310572E+04  0.00000000000E+00 0.  1.
         21    1    1    2  503  501 -0.14455168682E+03 -0.76889211697E+02 -0.94175167917E+03  0.95587832189E+03  0.00000000000E+00 0.  1.
         21    1    1    2  504  505 -0.17755472782E+02 -0.28815315730E+02  0.32117430504E+02  0.46659496103E+02  0.00000000000E+00 0.  1.
         21    1    1    2  505  502  0.18786607945E+03  0.83152675627E+02 -0.66801254272E+03  0.69889111349E+03  0.00000000000E+00 0.  1.
          1    1    1    2  501    0 -0.25558919849E+02  0.22551851800E+02  0.26730829727E+02  0.43317221302E+02  0.00000000000E+00 0.  1.
<scales pt_clust_3="176.71676" pt_clust_4="33.84641" pt_clust_5="14000.00000" pt_clust_6="36.71222"></scales>
<clustering>
<clus scale="   33.846">  1  4  2 -1</clus>
<clus scale="   36.712">  1  6  2 -1</clus>
<clus scale="  176.717">  2  3  1 -1</clus>
<clus scale="  176.717">  2  3  1 -1</clus>
</clustering>
</event>
<event>
 6    0  0.5775861E+002  0.1245216E+03  0.7546771E-02  0.1235819E+00
         21   -1    0    0  504  502  0.00000000000E+00  0.00000000000E+00  0.92081760042E+03  0.92081760042E+03  0.00000000000E+00 0. -1.
          2   -1    0    0  505    0 -0.00000000000E+00 -0.00000000000E+00 -0.16939233674E+04  0.16939233674E+04  0.00000000000E+00 0. -1.
         21    1    1    2  503  501  0.26319898113E+02 -0.13985400791E+03 -0.14012140285E+02  0.14299727494E+03  0.00000000000E+00 0. -1.
         21    1    1    2  504  503 -0.84007223618E+01 -0.51609583016E+02  0.60454360795E+03  0.60680070461E+03  0.00000000000E+00 0. -1.
         21    1    1    2  505  502 -0.66191736665E+01  0.15957986576E+03  0.22501143727E+03  0.27593422027E+03  0.00000000000E+00 0. -1.
          2    1    1    2  501    0 -0.11300002084E+02  0.31883725164E+02 -0.15886486719E+04  0.15890087680E+04  0.00000000000E+00 0. -1.
<scales pt_clust_3="124.52164" pt_clust_4="51.97068" pt_clust_5="14000.00000" pt_clust_6="33.82694"></scales>
<clustering>
<clus scale="   33.827">  2  6  1 -1</clus>
<clus scale="   51.971">  1  4  2 -1</clus>
<clus scale="  124.522">  2  3  1 -1</clus>
<clus scale="   51.971">  1  3  2 -1</clus>
</clustering>
</event>
<event>
 6    0  0.5775861E+002  0.1835353E+03  0.7546771E-02  0.1164425E+00
         -1   -1    0    0    0  501 -0.00000000000E+00  0.00000000000E+00  0.43371168019E+03  0.43371168019E+03  0.00000000000E+00 0. -1.
         21   -1    0    0  503  502  0.00000000000E+00 -0.00000000000E+00 -0.30799643454E+03  0.30799643454E+03  0.00000000000E+00 0. -1.
         21    1    1    2  503  505 -0.16786989851E+03 -0.49581609641E+02 -0.15542348731E+03  0.23408353049E+03  0.00000000000E+00 0. -1.
         21    1    1    2  504  502  0.16779073276E+03  0.16649453570E+03  0.52304898960E+02  0.24209494599E+03  0.00000000000E+00 0. -1.
         21    1    1    2  505  501 -0.23097633981E+02 -0.61819127098E+02  0.71878296845E+02  0.97578659183E+02  0.00000000000E+00 0. -1.
         -1    1    1    2    0  504  0.23176799726E+02 -0.55093798962E+02  0.15695553715E+03  0.16795097907E+03  0.00000000000E+00 0. -1.
<scales pt_clust_3="14000.00000" pt_clust_4="183.53531" pt_clust_5="80.60327" pt_clust_6="59.77032"></scales>
<clustering>
<clus scale="   59.770">  1  6  2 -1</clus>
<clus scale="   80.603">  1  5  2 -1</clus>
<clus scale="  183.535">  1  4  2 -1</clus>
<clus scale="  183.535">  2  3  1 -1</clus>
</clustering>
</event>
<event>
 6    0  0.5775861E+002  0.7540836E+02  0.7546771E-02  0.1342611E+00
          4   -1    0    0  503    0 -0.00000000000E+00  0.00000000000E+00  0.22132407149E+03  0.22132407149E+03  0.00000000000E+00 0. -1.
         21   -1    0    0  505  502  0.00000000000E+00 -0.00000000000E+00 -0.24727809247E+03  0.24727809247E+03  0.00000000000E+00 0.  1.
         21    1    1    2  503  504 -0.10713572218E+03 -0.95591896561E+02  0.59209128299E+02  0.15531128269E+03  0.00000000000E+00 0. -1.
         21    1    1    2  504  502  0.50510799966E+02  0.49599971369E+02 -0.16485398240E+03  0.17941107432E+03  0.00000000000E+00 0.  1.
         21    1    1    2  505  501  0.14181642402E+02  0.45846175360E+02  0.53642410695E+01  0.48288361523E+02  0.00000000000E+00 0.  1.
          4    1    1    2  501    0  0.42443279813E+02  0.14574983218E+00  0.74326592058E+02  0.85591445433E+02  0.00000000000E+00 0. -1.
<scales pt_clust_3="75.40836" pt_clust_4="14000.00000" pt_clust_5="50.97887" pt_clust_6="42.44353"></scales>
<clustering>
<clus scale="   42.444">  1  6  2 -1</clus>
<clus scale="   50.979">  1  5  2 -1</clus>
<clus scale="   75.408">  1  3  2 -1</clus>
<clus scale="   75.408">  2  3  1 -1</clus>
</clustering>
</event>
<event>
 6    0  0.5775861E+002  0.1889276E+03  0.7546771E-02  0.1159432E+00
          2   -1    0    0  505    0 -0.00000000000E+00  0.00000000000E+00  0.48172789674E+03  0.48172789674E+03  0.00000000000E+00 0.  1.
         21   -1    0    0  503  502  0.00000000000E+00 -0.00000000000E+00 -0.11411886772E+04  0.11411886772E+04  0.00000000000E+00 0. -1.
         21    1    1    2  503  501  0.16269900620E+03 -0.59410753821E+02 -0.72203773677E+03  0.74252211927E+03  0.00000000000E+00 0. -1.
         21    1    1    2  504  502 -0.32214057302E+03  0.11829668335E+03 -0.19248731907E+03  0.39347175512E+03  0.00000000000E+00 0.  1.
         21    1    1    2  505  504  0.12849854699E+03  0.24818144897E+02 -0.70982579243E+02  0.14888365743E+03  0.00000000000E+00 0. -1.
          2    1    1    2  501    0  0.30943019831E+02 -0.83704074427E+02  0.32604685465E+03  0.33803904209E+03  0.00000000000E+00 0.  1.
<scales pt_clust_3="14000.00000" pt_clust_4="188.92764" pt_clust_5="136.58421" pt_clust_6="89.24036"></scales>
<clustering>
<clus scale="   89.240">  1  6  2 -1</clus>
<clus scale="  136.584">  1  5  2 -1</clus>
<clus scale="  188.928">  1  4  2 -1</clus>
<clus scale="  188.928">  2  3  1 -1</clus>
</clustering>
</event>
<event>
 6    0  0.5775861E+002  0.1230313E+03  0.7546771E-02  0.1238178E+00
          2   -1    0    0  505    0 -0.00000000000E+00  0.00000000000E+00  0.13406052938E+04  0.13406052938E+04  0.00000000000E+00 0. -1.
         21   -1    0    0  503  502  0.00000000000E+00 -0.00000000000E+00 -0.24152251502E+02  0.24152251502E+02  0.00000000000E+00 0.  1.
         21    1    1    2  503  504 -0.74708221759E+01 -0.48943468296E+02  0.86978430282E+02  0.10008258394E+03  0.00000000000E+00 0.  1.
         21    1    1    2  504  501 -0.46008068820E+02 -0.28373367798E+02  0.19380175939E+03  0.20119868871E+03  0.00000000000E+00 0.  1.
         21    1    1    2  505  502  0.60998557940E+02  0.11001885788E+03  0.27887661210E+03  0.30593649331E+03  0.00000000000E+00 0.  1.
          2    1    1    2  501    0 -0.75196669449E+01 -0.32702021791E+02  0.75679624054E+03  0.75753977936E+03  0.00000000000E+00 0. -1.
<scales pt_clust_3="52.10612" pt_clust_4="52.10612" pt_clust_5="109.73468" pt_clust_6="33.55544"></scales>
<clustering>
<clus scale="   33.555">  1  6  2 -1</clus>
<clus scale="   52.106">  3  4 -1 -1</clus>
<clus scale="  109.735">  1  5  2 -1</clus>
<clus scale="  123.031">  2  3  1 -1</clus>
</clustering>
</event>
<event>
 6    0  0.5775861E+002  0.1053408E+03  0.7546771E-02  0.1269450E+00
          2   -1    0    0  503    0 -0.00000000000E+00  0.00000000000E+00  0.30742012475E+04  0.30742012475E+04  0.00000000000E+00 0.  1.
         21   -1    0    0  504  502  0.00000000000E+00 -0.00000000000E+00 -0.78268595124E+02  0.78268595124E+02  0.00000000000E+00 0.  1.
         21    1    1    2  503  502 -0.84797775731E+02  0.22085341472E+02  0.19558366951E+03  0.21431611432E+03  0.00000000000E+00 0.  1.
         21    1    1    2  504  505 -0.15477298911E+02 -0.27711473213E+02 -0.48464350532E+02  0.57933287510E+02  0.00000000000E+00 0.  1.
         21    1    1    2  505  501  0.28926299093E+02  0.88126690413E+02  0.13261273983E+03  0.16183072362E+03  0.00000000000E+00 0.  1.
          2    1    1    2  501    0  0.71348775549E+02 -0.82500558672E+02  0.27162005936E+04  0.27183897172E+04  0.00000000000E+00 0.  1.
<scales pt_clust_3="105.34078" pt_clust_4="31.74071" pt_clust_5="74.68045" pt_clust_6="14000.00000"></scales>
<clustering>
<clus scale="   31.741">  2  4  1 -1</clus>
<clus scale="   74.680">  2  5  1 -1</clus>
<clus scale="  105.341">  2  3  1 -1</clus>
<clus scale="   31.741">  2  3  1 -1</clus>
</clustering>
</event>
<event>
 6    0  0.5775861E+002  0.1814565E+03  0.7546771E-02  0.1166401E+00
          1   -1    0    0  504    0 -0.00000000000E+00  0.00000000000E+00  0.16235328992E+04  0.16235328992E+04  0.00000000000E+00 0.  1.
         21   -1    0    0  505  502  0.00000000000E+00 -0.00000000000E+00 -0.39037344104E+03  0.39037344104E+03  0.00000000000E+00 0.  1.
         21    1    1    2  503  501  0.65562059033E+02  0.53276222428E+02  0.50137058543E+03  0.50843800350E+03  0.00000000000E+00 0.  1.
         21    1    1    2  504  502 -0.17242044262E+03 -0.10510885809E+03  0.27489034164E+03  0.34108852371E+03  0.00000000000E+00 0.  1.
         21    1    1    2  505  503  0.31502557262E+02  0.47637710108E+01 -0.35058159412E+03  0.35202636089E+03  0.00000000000E+00 0.  1.
          1    1    1    2  501    0  0.75355826322E+02  0.47068864653E+02  0.80748012522E+03  0.81235345214E+03  0.00000000000E+00 0.  1.
<scales pt_clust_3="37.58704" pt_clust_4="177.35151" pt_clust_5="31.86071" pt_clust_6="37.58704"></scales>
<clustering>
<clus scale="   31.861">  2  5  1 -1</clus>
<clus scale="   37.587">  3  6 -1 -1</clus>
<clus scale="  177.352">  2  4  1 -1</clus>
<clus scale="   31.861">  2  3  1 -1</clus>
</clustering>
</event>
<event>
 6    0  0.5775861E+002  0.8402756E+02  0.7546771E-02  0.1317995E+00
          2   -1    0    0  504    0 -0.00000000000E+00  0.00000000000E+00  0.25193715383E+04  0.25193715383E+04  0.00000000000E+00 0.  1.
         21   -1    0    0  505  502  0.00000000000E+00 -0.00000000000E+00 -0.41354886312E+02  0.41354886312E+02  0.00000000000E+00 0.  1.
         21    1    1    2  503  502 -0.19444922602E+02  0.51570284973E+02  0.60004775047E+02  0.81474979813E+02  0.00000000000E+00 0.  1.
         21    1    1    2  504  503  0.69203339060E+02 -0.51740686310E+01  0.76301883552E+02  0.10313995616E+03  0.00000000000E+00 0.  1.
         21    1    1    2  505  501 -0.42517286186E+02 -0.12810051679E+03  0.26143959711E+03  0.29422461652E+03  0.00000000000E+00 0.  1.
          2    1    1    2  501    0 -0.72411302719E+01  0.81704300449E+02  0.20802703963E+04  0.20818868721E+04  0.00000000000E+00 0.  1.
<scales pt_clust_3="55.11442" pt_clust_4="63.13434" pt_clust_5="84.02756" pt_clust_6="14000.00000"></scales>
<clustering>
<clus scale="   55.114">  2  3  1 -1</clus>
<clus scale="   63.134">  2  4  1 -1</clus>
<clus scale="   84.028">  2  5  1 -1</clus>
<clus scale="   55.114">  2  3  1 -1</clus>
</clustering>
</event>
<event>
 6    0  0.5775861E+002  0.7579154E+02  0.7546771E-02  0.1341437E+00
         21   -1    0    0  504  502  0.00000000000E+00  0.00000000000E+00  0.10353388969E+04  0.10353388969E+04  0.00000000000E+00 0.  1.
         -4   -1    0    0    0  501 -0.00000000000E+00 -0.00000000000E+00 -0.82435001035E+03  0.82435001035E+03  0.00000000000E+00 0. -1.
         21    1    1    2  503  505 -0.15917570472E+02  0.96701604684E+02  0.58802154906E+03  0.59613246142E+03  0.00000000000E+00 0.  1.
         21    1    1    2  504  503  0.35749752382E+02 -0.28033554629E+02  0.37387554155E+03  0.37662560394E+03  0.00000000000E+00 0.  1.
         21    1    1    2  505  501 -0.67978994029E+02 -0.85048855556E+02  0.23060136193E+02  0.11129340206E+03  0.00000000000E+00 0. -1.
         -4    1    1    2    0  502  0.48146812119E+02  0.16380805501E+02 -0.77396834026E+03  0.77563743981E+03  0.00000000000E+00 0. -1.
<scales pt_clust_3="75.79154" pt_clust_4="45.43044" pt_clust_5="14000.00000" pt_clust_6="50.88851"></scales>
<clustering>
<clus scale="   45.430">  1  4  2 -1</clus>
<clus scale="   50.889">  2  6  1 -1</clus>
<clus scale="   75.792">  1  3  2 -1</clus>
<clus scale="   45.430">  1  3  2 -1</clus>
</clustering>
</event>
<event>
 6    0  0.5775861E+002  0.1189144E+03  0.7546771E-02  0.1244899E+00
          4   -1    0    0  503    0 -0.00000000000E+00  0.00000000000E+00  0.18576019680E+03  0.18576019680E+03  0.00000000000E+00 0.  1.
         21   -1    0    0  505  502  0.00000000000E+00 -0.00000000000E+00 -0.82714812178E+03  0.82714812178E+03  0.00000000000E+00 0.  1.
         21    1    1    2  503  502  0.21914936057E+02  0.89712004993E+02 -0.22506430921E+03  0.24327443668E+03  0.00000000000E+00 0.  1.
         21    1    1    2  504  501  0.19184799804E+02 -0.17882029038E+03 -0.11639728117E+03  0.21422670202E+03  0.00000000000E+00 0.  1.
         21    1    1    2  505  504 -0.42234623929E+02 -0.21088861350E+02 -0.40225855614E+03  0.40501907303E+03  0.00000000000E+00 0.  1.
          4    1    1    2  501    0  0.11348880681E+01  0.11019714673E+03  0.10233222153E+03  0.15038810685E+03  0.00000000000E+00 0.  1.
<scales pt_clust_3="78.06466" pt_clust_4="14000.00000" pt_clust_5="47.20703" pt_clust_6="118.91444"></scales>
<clustering>
<clus scale="   47.207">  2  5  1 -1</clus>
<clus scale="   78.065">  2  3  1 -1</clus>
<clus scale="  118.914">  1  6  2 -1</clus>
<clus scale="   47.207">  2  3  1 -1</clus>
</clustering>
</event>
<event>
 6    0  0.5775861E+002  0.1460345E+03  0.7546771E-02  0.1205432E+00
         21   -1    0    0  504  502  0.00000000000E+00  0.00000000000E+00  0.62880764624E+03  0.62880764624E+03  0.00000000000E+00 0. -1.
          2   -1    0    0  505    0 -0.00000000000E+00 -0.00000000000E+00 -0.54731631618E+03  0.54731631618E+03  0.00000000000E+00 0. -1.
         21    1    1    2  503  501  0.13562841560E+03  0.80960475305E+02  0.12419136161E+03  0.20093073428E+03  0.00000000000E+00 0. -1.
         21    1    1    2  504  503  0.51087174029E+02  0.14336346025E+02  0.12178704394E+03  0.13284394694E+03  0.00000000000E+00 0. -1.
         21    1    1    2  505  502 -0.86448598534E+02 -0.33593684184E+02  0.32547990524E+03  0.33843620451E+03  0.00000000000E+00 0. -1.
          2    1    1    2  501    0 -0.10026699109E+03 -0.61703137146E+02 -0.48996698074E+03  0.50391307668E+03  0.00000000000E+00 0. -1.
<scales pt_clust_3="48.33912" pt_clust_4="48.33912" pt_clust_5="92.74641" pt_clust_6="119.87535"></scales>
<clustering>
<clus scale="   48.339">  3  4 -1 -1</clus>
<clus scale="   92.746">  1  5  2 -1</clus>
<clus scale="  119.875">  2  6  1 -1</clus>
<clus scale="   92.746">  1  3  2 -1</clus>
</clustering>
</event>
<event>
 6    0  0.5775861E+002  0.1407354E+03  0.7546771E-02  0.1212343E+00
          1   -1    0    0  505    0 -0.00000000000E+00  0.00000000000E+00  0.30310529158E+03  0.30310529158E+03  0.00000000000E+00 0.  1.
         21   -1    0    0  503  502  0.00000000000E+00 -0.00000000000E+00 -0.78845853318E+03  0.78845853318E+03  0.00000000000E+00 0.  1.
         21    1    1    2  503  501  0.42580783842E+01  0.13414970299E+03 -0.23349749230E+03  0.26932388114E+03  0.00000000000E+00 0.  1.
         21    1    1    2  504  502  0.30526210784E+02  0.45743772931E+01 -0.50148093933E+03  0.50243000207E+03  0.00000000000E+00 0.  1.
         21    1    1    2  505  504  0.41332912223E+01 -0.13944093189E+03  0.11852926728E+03  0.18305749038E+03  0.00000000000E+00 0.  1.
          1    1    1    2  501    0 -0.38917580390E+02  0.71685160759E+00  0.13109592274E+03  0.13675245116E+03  0.00000000000E+00 0.  1.
<scales pt_clust_3="140.73539" pt_clust_4="30.86705" pt_clust_5="14000.00000" pt_clust_6="38.62375"></scales>
<clustering>
<clus scale="   30.867">  2  4  1 -1</clus>
<clus scale="   38.624">  1  6  2 -1</clus>
<clus scale="  140.735">  2  3  1 -1</clus>
<clus scale="   30.867">  2  3  1 -1</clus>
</clustering>
</event>
<event>
 6    0  0.5775861E+002  0.7075822E+02  0.7546771E-02  0.1357533E+00
         21   -1    0    0  504  502  0.00000000000E+00  0.00000000000E+00  0.81676160752E+02  0.81676160752E+02  0.00000000000E+00 0. -1.
          2   -1    0    0  503    0 -0.00000000000E+00 -0.00000000000E+00 -0.17998774365E+04  0.17998774365E+04  0.00000000000E+00 0.  1.
         21    1    1    2  503  505 -0.94761703327E+02  0.57648563237E+02 -0.41373675563E+02  0.11838462016E+03  0.00000000000E+00 0. -1.
         21    1    1    2  504  501  0.57021232922E+02 -0.23848660329E+02 -0.56785825864E+02  0.83933364179E+02  0.00000000000E+00 0.  1.
         21    1    1    2  505  502 -0.28290585472E+02 -0.10491677190E+02  0.20960955474E+02  0.36739545057E+02  0.00000000000E+00 0.  1.
          2    1    1    2  501    0  0.66031055877E+02 -0.23308225718E+02 -0.16410027297E+04  0.16424960678E+04  0.00000000000E+00 0.  1.
<scales pt_clust_3="14000.00000" pt_clust_4="56.39027" pt_clust_5="30.17337" pt_clust_6="70.75822"></scales>
<clustering>
<clus scale="   30.173">  1  5  2 -1</clus>
<clus scale="   56.390">  1  4  2 -1</clus>
<clus scale="   70.758">  2  6  1 -1</clus>
<clus scale="   30.173">  1  3  2 -1</clus>
</clustering>
</event>
<event>
 6    0  0.5775861E+002  0.1373621E+03  0.7546771E-02  0.1216923E+00
          3   -1    0    0  503    0 -0.00000000000E+00  0.00000000000E+00  0.40732602464E+03  0.40732602464E+03  0.00000000000E+00 0.  1.
         21   -1    0    0  504  502  0.00000000000E+00 -0.00000000000E+00 -0.10161025794E+03  0.10161025794E+03  0.00000000000E+00 0.  1.
         21    1    1    2  503  505  0.55347868157E+02 -0.61961729686E+02 -0.14132859829E+01  0.83094162445E+02  0.00000000000E+00 0.  1.
         21    1    1    2  504  501 -0.78280170344E+02  0.70087931550E+02  0.16211953375E+03  0.19319121730E+03  0.00000000000E+00 0.  1.
         21    1    1    2  505  502  0.57832676150E+02 -0.23720490806E+02 -0.18136714335E+02  0.65086254475E+02  0.00000000000E+00 0.  1.
          3    1    1    2  501    0 -0.34900373963E+02  0.15594288941E+02  0.16314623327E+03  0.16756464836E+03  0.00000000000E+00 0.  1.
<scales pt_clust_3="32.73127" pt_clust_4="132.07723" pt_clust_5="32.73127" pt_clust_6="38.22588"></scales>
<clustering>
<clus scale="   32.731">  3  5 -1 -1</clus>
<clus scale="   38.226">  1  6  2 -1</clus>
<clus scale="  132.077">  1  4  2 -1</clus>
<clus scale="  137.362">  2  3  1 -1</clus>
</clustering>
</event>
<event>
 6    0  0.5775861E+002  0.7617390E+02  0.7546771E-02  0.1340274E+00
          2   -1    0    0  502    0 -0.00000000000E+00  0.00000000000E+00  0.17936839133E+03  0.17936839133E+03  0.00000000000E+00 0. -1.
         21   -1    0    0  503  502  0.00000000000E+00 -0.00000000000E+00 -0.44700437617E+03  0.44700437617E+03  0.00000000000E+00 0. -1.
         21    1    1    2  503  505  0.19854590795E+02  0.29352936001E+02 -0.99876700150E+02  0.10597714310E+03  0.00000000000E+00 0.  1.
         21    1    1    2  504  501 -0.55383940586E+02  0.65764590299E+02 -0.21858489719E+02  0.88713898487E+02  0.00000000000E+00 0.  1.
         21    1    1    2  505  504  0.63607923851E+02 -0.27568498158E+02 -0.27483360442E+03  0.28344223430E+03  0.00000000000E+00 0. -1.
          2    1    1    2  501    0 -0.28078574060E+02 -0.67549028142E+02  0.12893280944E+03  0.14823949161E+03  0.00000000000E+00 0. -1.
<scales pt_clust_3="35.43726" pt_clust_4="14000.00000" pt_clust_5="76.17390" pt_clust_6="72.17845"></scales>
<clustering>
<clus scale="   35.437">  2  3  1 -1</clus>
<clus scale="   72.178">  1  6  2 -1</clus>
<clus scale="   76.174">  2  5  1 -1</clus>
<clus scale="   35.437">  2  3  1 -1</clus>
</clustering>
</event>
<event>
 6    0  0.5775861E+002  0.7198091E+02  0.7546771E-02  0.1353484E+00
         21   -1    0    0  501  502  0.00000000000E+00  0.00000000000E+00  0.15747620085E+04  0.15747620085E+04  0.00000000000E+00 0.  1.
          2   -1    0    0  505    0 -0.00000000000E+00 -0.00000000000E+00 -0.13307664261E+04  0.13307664261E+04  0.00000000000E+00 0.  1.
         21    1    1    2  503  502  0.37049321020E+02 -0.22548687845E+02  0.12863071194E+04  0.12870381117E+04  0.00000000000E+00 0.  1.
         21    1    1    2  504  503 -0.31626036803E+01  0.85739839904E+02  0.26624845190E+03  0.27973122877E+03  0.00000000000E+00 0.  1.
         21    1    1    2  505  504  0.69397798468E+02 -0.10195996642E+02 -0.87271166458E+02  0.11196548251E+03  0.00000000000E+00 0.  1.
          2    1    1    2  501    0 -0.10328451581E+03 -0.52995155417E+02 -0.12212888224E+04  0.12267936116E+04  0.00000000000E+00 0.  1.
<scales pt_clust_3="43.37160" pt_clust_4="71.98091" pt_clust_5="71.85796" pt_clust_6="14000.00000"></scales>
<clustering>
<clus scale="   43.372">  1  3  2 -1</clus>
<clus scale="   71.858">  2  5  1 -1</clus>
<clus scale="   71.981">  1  4  2 -1</clus>
<clus scale="   43.372">  1  3  2 -1</clus>
</clustering>
</event>
<event>
 6    0  0.5775861E+002  0.1003360E+03  0.7546771E-02  0.1279591E+00
         21   -1    0    0  505  502  0.00000000000E+00  0.00000000000E+00  0.22464323068E+03  0.22464323068E+03  0.00000000000E+00 0.  1.
          1   -1    0    0  503    0 -0.00000000000E+00 -0.00000000000E+00 -0.23890938713E+04  0.23890938713E+04  0.00000000000E+00 0. -1.
         21    1    1    2  503  502 -0.28509629934E+02 -0.63348242111E+02 -0.27968904695E+02  0.74886970878E+02  0.00000000000E+00 0.  1.
         21    1    1    2  504  501  0.18462478607E+03  0.72318675916E+02 -0.23940232247E+02  0.19972340183E+03  0.00000000000E+00 0.  1.
         21    1    1    2  505  504 -0.58305879022E+02 -0.27032270561E+02  0.10297192777E+03  0.12138178236E+03  0.00000000000E+00 0.  1.
          1    1    1    2  501    0 -0.97809277114E+02  0.18061836756E+02 -0.22155134315E+04  0.22177449470E+04  0.00000000000E+00 0. -1.
<scales pt_clust_3="80.08340" pt_clust_4="14000.00000" pt_clust_5="64.26756" pt_clust_6="100.33600"></scales>
<clustering>
<clus scale="   64.268">  1  5  2 -1</clus>
<clus scale="   80.083">  1  3  2 -1</clus>
<clus scale="  100.336">  2  6  1 -1</clus>
<clus scale="   64.268">  1  3  2 -1</clus>
</clustering>
</event>
<event>
 6    0  0.5775861E+002  0.8806361E+02  0.7546771E-02  0.1307610E+00
         21   -1    0    0  504  502  0.00000000000E+00  0.00000000000E+00  0.36289050267E+03  0.36289050267E+03  0.00000000000E+00 0. -1.
         -1   -1    0    0    0  501 -0.00000000000E+00 -0.00000000000E+00 -0.17500628549E+03  0.17500628549E+03  0.00000000000E+00 0. -1.
         21    1    1    2  503  502 -0.39093616380E+02  0.58102739766E+02  0.14186708732E+02  0.71452795009E+02  0.00000000000E+00 0.  1.
         21    1    1    2  504  505  0.10182404587E+02  0.42848640308E+02  0.27567582756E+03  0.27917171998E+03  0.00000000000E+00 0. -1.
         21    1    1    2  505  501  0.58143838709E+02 -0.87930992276E+02 -0.31745468427E+02  0.11009241640E+03  0.00000000000E+00 0.  1.
         -1    1    1    2    0  503 -0.29232626916E+02 -0.13020387797E+02 -0.70232850682E+02  0.77179856761E+02  0.00000000000E+00 0. -1.
<scales pt_clust_3="88.06361" pt_clust_4="43.70888" pt_clust_5="14000.00000" pt_clust_6="32.00120"></scales>
<clustering>
<clus scale="   32.001">  2  6  1 -1</clus>
<clus scale="   43.709">  1  4  2 -1</clus>
<clus scale="   88.064">  1  3  2 -1</clus>
<clus scale="   43.709">  1  3  2 -1</clus>
</clustering>
</event>
<event>
 6    0  0.5775861E+002  0.1236753E+03  0.7546771E-02  0.1237154E+00
          2   -1    0    0  504    0 -0.00000000000E+00  0.00000000000E+00  0.18974316632E+04  0.18974316632E+04  0.00000000000E+00 0.  1.
         21   -1    0    0  503  502  0.00000000000E+00 -0.00000000000E+00 -0.21623067983E+04  0.21623067983E+04  0.00000000000E+00 0. -1.
         21    1    1    2  503  505  0.46008566803E+02 -0.84442550417E+02 -0.61285124152E+03  0.62034988255E+03  0.00000000000E+00 0. -1.
         21    1    1    2  504  502 -0.11800250510E+02  0.15929315678E+03 -0.15392372769E+04  0.15475028111E+04  0.00000000000E+00 0. -1.
         21    1    1    2  505  501 -0.61692394492E+02 -0.17915240464E+02  0.68319116697E+03  0.68620483677E+03  0.00000000000E+00 0.  1.
          2    1    1    2  501    0  0.27484078199E+02 -0.56935365897E+02  0.12040222163E+04  0.12056809312E+04  0.00000000000E+00 0.  1.
<scales pt_clust_3="123.67533" pt_clust_4="14000.00000" pt_clust_5="81.83971" pt_clust_6="63.22191"></scales>
<clustering>
<clus scale="   63.222">  1  6  2 -1</clus>
<clus scale="   81.840">  1  5  2 -1</clus>
<clus scale="  123.675">  2  3  1 -1</clus>
<clus scale="  123.675">  2  3  1 -1</clus>
</clustering>
</event>
<event>
 6    0  0.5775861E+002  0.8692077E+02  0.7546771E-02  0.1310485E+00
         21   -1    0    0  505  502  0.00000000000E+00  0.00000000000E+00  0.32418703440E+03  0.32418703440E+03  0.00000000000E+00 0. -1.
         -1   -1    0    0    0  501 -0.00000000000E+00 -0.00000000000E+00 -0.55555277443E+03  0.55555277443E+03  0.00000000000E+00 0. -1.
         21    1    1    2  503  502  0.20442528657E+02  0.48747257471E+02  0.21534298434E+03  0.22173586312E+03  0.00000000000E+00 0. -1.
         21    1    1    2  504  503  0.57250730882E+02  0.48061150490E+02  0.59748585749E+02  0.95694377431E+02  0.00000000000E+00 0. -1.
         21    1    1    2  505  501 -0.51930115047E+02 -0.12563357702E+02 -0.55515466892E+01  0.53715868011E+02  0.00000000000E+00 0.  1.
         -1    1    1    2    0  504 -0.25763144492E+02 -0.84245050259E+02 -0.50090576344E+03  0.50859370027E+03  0.00000000000E+00 0. -1.
<scales pt_clust_3="52.86012" pt_clust_4="86.92077" pt_clust_5="47.29256" pt_clust_6="14000.00000"></scales>
<clustering>
<clus scale="   52.860">  1  3  2 -1</clus>
<clus scale="   47.293">  1  5  2 -1</clus>
<clus scale="   86.921">  1  4  2 -1</clus>
<clus scale="   52.860">  1  3  2 -1</clus>
</clustering>
</event>
<event>
 6    0  0.5775861E+002  0.7255228E+02  0.7546771E-02  0.1351623E+00
          2   -1    0    0  503    0 -0.00000000000E+00  0.00000000000E+00  0.28472028701E+04  0.28472028701E+04  0.00000000000E+00 0.  1.
         21   -1    0    0  501  502  0.00000000000E+00 -0.00000000000E+00 -0.35619738516E+02  0.35619738516E+02  0.00000000000E+00 0. -1.
         21    1    1    2  503  504 -0.44120994946E+02  0.30890071807E+02  0.27675226144E+03  0.28194445011E+03  0.00000000000E+00 0.  1.
         21    1    1    2  504  505  0.38882356487E+02 -0.40016204220E+02  0.25452548953E+03  0.26056929802E+03  0.00000000000E+00 0.  1.
         21    1    1    2  505  502  0.37413578824E+02 -0.62045742986E+02  0.15418393216E+02  0.74075481452E+02  0.00000000000E+00 0. -1.
          2    1    1    2  501    0 -0.32174940365E+02  0.71171875399E+02  0.22648869874E+04  0.22662333791E+04  0.00000000000E+00 0.  1.
<scales pt_clust_3="53.85962" pt_clust_4="50.49987" pt_clust_5="72.55228" pt_clust_6="14000.00000"></scales>
<clustering>
<clus scale="   53.860">  1  3  2 -1</clus>
<clus scale="   50.500">  1  4  2 -1</clus>
<clus scale="   72.552">  2  5  1 -1</clus>
<clus scale="   72.552">  2  3  1 -1</clus>
</clustering>
</event>
<event>
 6    0  0.5775861E+002  0.1147404E+03  0.7546771E-02  0.1252035E+00
          1   -1    0    0  503    0 -0.00000000000E+00  0.00000000000E+00  0.18247468660E+04  0.18247468660E+04  0.00000000000E+00 0.  1.
         21   -1    0    0  504  502  0.00000000000E+00 -0.00000000000E+00 -0.71804075390E+03  0.71804075390E+03  0.00000000000E+00 0.  1.
         21    1    1    2  503  505 -0.15923960712E+03  0.35294215572E+01 -0.44480371797E+02  0.16537295053E+03  0.00000000000E+00 0.  1.
         21    1    1    2  504  501  0.78079542223E+02 -0.47235548676E+02 -0.48424405658E+02  0.10330796211E+03  0.00000000000E+00 0.  1.
         21    1    1    2  505  502  0.31558011174E+02  0.38013403808E+02 -0.53575226225E+03  0.53802547658E+03  0.00000000000E+00 0.  1.
          1    1    1    2  501    0  0.49602053725E+02  0.56927233104E+01  0.17353631518E+04  0.17360812307E+04  0.00000000000E+00 0.  1.
<scales pt_clust_3="14000.00000" pt_clust_4="114.74044" pt_clust_5="49.40574" pt_clust_6="49.99843"></scales>
<clustering>
<clus scale="   49.406">  2  5  1 -1</clus>
<clus scale="   49.998">  1  6  2 -1</clus>
<clus scale="  114.740">  2  4  1 -1</clus>
<clus scale="   49.406">  2  3  1 -1</clus>
</clustering>
</event>
<event>
 6    0  0.5775861E+002  0.9259516E+02  0.7546771E-02  0.1296686E+00
         21   -1    0    0  503  502  0.00000000000E+00  0.00000000000E+00  0.24621502505E+03  0.24621502505E+03  0.00000000000E+00 0. -1.
          1   -1    0    0  505    0 -0.00000000000E+00 -0.00000000000E+00 -0.10034504680E+04  0.10034504680E+04  0.00000000000E+00 0. -1.
         21    1    1    2  503  504 -0.13476258819E+02  0.85804573773E+02  0.18460196768E+03  0.20401451150E+03  0.00000000000E+00 0. -1.
         21    1    1    2  504  501 -0.49759541159E+02 -0.92942038227E+02 -0.13580338058E+03  0.17192089048E+03  0.00000000000E+00 0. -1.
         21    1    1    2  505  502  0.10509863026E+03 -0.11845450712E+02 -0.51213173767E+02  0.11751096099E+03  0.00000000000E+00 0. -1.
          1    1    1    2  501    0 -0.41862830279E+02  0.18982915166E+02 -0.75482085632E+03  0.75621913013E+03  0.00000000000E+00 0. -1.
<scales pt_clust_3="87.85772" pt_clust_4="92.59516" pt_clust_5="14000.00000" pt_clust_6="45.96572"></scales>
<clustering>
<clus scale="   45.966">  2  6  1 -1</clus>
<clus scale="   87.858">  1  3  2 -1</clus>
<clus scale="   92.595">  2  4  1 -1</clus>
<clus scale="   87.858">  1  3  2 -1</clus>
</clustering>
</event>
<event>
 6    0  0.5775861E+002  0.1005851E+03  0.7546771E-02  0.1279070E+00
          2   -1    0    0  503    0 -0.00000000000E+00  0.00000000000E+00  0.16374885090E+04  0.16374885090E+04  0.00000000000E+00 0. -1.
         21   -1    0    0  504  502  0.00000000000E+00 -0.00000000000E+00 -0.49959775234E+02  0.49959775234E+02  0.00000000000E+00 0.  1.
         21    1    1    2  503  505 -0.98512609372E+02 -0.94922272020E+00  0.75205132435E+03  0.75847665072E+03  0.00000000000E+00 0.  1.
         21    1    1    2  504  501  0.57553861861E+02  0.41400656548E+02 -0.10037569877E+02  0.71604568197E+02  0.00000000000E+00 0.  1.
         21    1    1    2  505  502  0.31063934845E+02  0.19995305984E+02  0.67529273185E+02  0.76973911466E+02  0.00000000000E+00 0.  1.
          2    1    1    2  501    0  0.98948126663E+01 -0.60446739812E+02  0.77798570608E+03  0.78039315383E+03  0.00000000000E+00 0. -1.
<scales pt_clust_3="100.58511" pt_clust_4="14000.00000" pt_clust_5="36.94293" pt_clust_6="60.86639"></scales>
<clustering>
<clus scale="   36.943">  2  5  1 -1</clus>
<clus scale="   60.866">  1  6  2 -1</clus>
<clus scale="  100.585">  1  3  2 -1</clus>
<clus scale="   36.943">  2  3  1 -1</clus>
</clustering>
</event>
<event>
 6    0  0.5775861E+002  0.8343231E+02  0.7546771E-02  0.1319584E+00
         21   -1    0    0  504  502  0.00000000000E+00  0.00000000000E+00  0.96002263660E+03  0.96002263660E+03  0.00000000000E+00 0. -1.
          4   -1    0    0  505    0 -0.00000000000E+00 -0.00000000000E+00 -0.17961701112E+03  0.17961701112E+03  0.00000000000E+00 0.  1.
         21    1    1    2  503  501  0.34635572117E+02 -0.10754363714E+03 -0.45848428989E+02  0.12193168246E+03  0.00000000000E+00 0.  1.
         21    1    1    2  504  503  0.41798099852E+02  0.59350906152E+02  0.82140662015E+02  0.10962070775E+03  0.00000000000E+00 0.  1.
         21    1    1    2  505  502 -0.48200964458E+02  0.27372071585E+02  0.82137056379E+03  0.82323882703E+03  0.00000000000E+00 0. -1.
          4    1    1    2  501    0 -0.28232707511E+02  0.20820659405E+02 -0.77257171336E+02  0.84848430476E+02  0.00000000000E+00 0.  1.
<scales pt_clust_3="83.43231" pt_clust_4="14000.00000" pt_clust_5="55.76084" pt_clust_6="35.07970"></scales>
<clustering>
<clus scale="   35.080">  2  6  1 -1</clus>
<clus scale="   55.761">  1  5  2 -1</clus>
<clus scale="   83.432">  2  3  1 -1</clus>
<clus scale="   55.761">  1  3  2 -1</clus>
</clustering>
</event>
<event>
 6    0  0.5775861E+002  0.1050786E+03  0.7546771E-02  0.1269965E+00
          1   -1    0    0  503    0 -0.00000000000E+00  0.00000000000E+00  0.47325768650E+03  0.47325768650E+03  0.00000000000E+00 0.  1.
         21   -1    0    0  505  502  0.00000000000E+00 -0.00000000000E+00 -0.16775056674E+03  0.16775056674E+03  0.00000000000E+00 0. -1.
         21    1    1    2  503  502  0.86225577212E+02 -0.21847925712E+02 -0.65269388013E+02  0.11032803377E+03  0.00000000000E+00 0. -1.
         21    1    1    2  504  501 -0.95470924995E+02 -0.38510688083E+02  0.14080153509E+03  0.17442145195E+03  0.00000000000E+00 0. -1.
         21    1    1    2  505  504  0.27118346144E+02  0.26100830424E+02 -0.56116282332E+02  0.67569928142E+02  0.00000000000E+00 0. -1.
          1    1    1    2  501    0 -0.17872998360E+02  0.34257783371E+02  0.28609125501E+03  0.28868883938E+03  0.00000000000E+00 0.  1.
<scales pt_clust_3="14000.00000" pt_clust_4="105.07863" pt_clust_5="37.63852" pt_clust_6="38.77236"></scales>
<clustering>
<clus scale="   37.639">  2  5  1 -1</clus>
<clus scale="   38.772">  1  6  2 -1</clus>
<clus scale="  105.079">  1  4  2 -1</clus>
<clus scale="   37.639">  2  3  1 -1</clus>
</clustering>
</event>
<event>
 6    0  0.5775861E+002  0.2150132E+03  0.7546771E-02  0.1137656E+00
         -2   -1    0    0    0  501 -0.00000000000E+00  0.00000000000E+00  0.26240871671E+03  0.26240871671E+03  0.00000000000E+00 0. -1.
         21   -1    0    0  503  502  0.00000000000E+00 -0.00000000000E+00 -0.46507791956E+03  0.46507791956E+03  0.00000000000E+00 0.  1.
         21    1    1    2  503  504 -0.65110561470E+02  0.63521192417E+02 -0.26234664686E+03  0.27766903000E+03  0.00000000000E+00 0.  1.
         21    1    1    2  504  501 -0.25751778437E+02  0.10594896214E+03 -0.12946551619E+03  0.16926209426E+03  0.00000000000E+00 0. -1.
         21    1    1    2  505  502 -0.15301296810E+01 -0.73874925114E+02  0.59598179470E+02  0.94930442186E+02  0.00000000000E+00 0. -1.
         -2    1    1    2    0  505  0.92392469587E+02 -0.95595229444E+02  0.12954478073E+03  0.18562506982E+03  0.00000000000E+00 0. -1.
<scales pt_clust_3="87.86801" pt_clust_4="87.86801" pt_clust_5="57.55568" pt_clust_6="207.21085"></scales>
<clustering>
<clus scale="   57.556">  5  6 -1 -1</clus>
<clus scale="   87.868">  3  4 -1 -1</clus>
<clus scale="  207.211">  1  5  2 -1</clus>
<clus scale="  215.013">  2  3  1 -1</clus>
</clustering>
</event>
<event>
 6    0  0.5775861E+002  0.1094766E+03  0.7546771E-02  0.1261542E+00
         21   -1    0    0  504  502  0.00000000000E+00  0.00000000000E+00  0.10527867385E+03  0.10527867385E+03  0.00000000000E+00 0. -1.
          2   -1    0    0  505    0 -0.00000000000E+00 -0.00000000000E+00 -0.19476028650E+04  0.19476028650E+04  0.00000000000E+00 0.  1.
         21    1    1    2  503  502  0.12173632843E+03  0.46905276989E+02 -0.24116761396E+03  0.27419273639E+03  0.00000000000E+00 0. -1.
         21    1    1    2  504  501 -0.35045810301E+02  0.27504747958E+02  0.77183258380E+02  0.89117761160E+02  0.00000000000E+00 0. -1.
         21    1    1    2  505  503 -0.48594496044E+02 -0.99443409017E+02 -0.15387727237E+04  0.15427481687E+04  0.00000000000E+00 0.  1.
          2    1    1    2  501    0 -0.38096022081E+02  0.25033384070E+02 -0.13956711181E+03  0.14682287259E+03  0.00000000000E+00 0.  1.
<scales pt_clust_3="109.47657" pt_clust_4="44.55020" pt_clust_5="14000.00000" pt_clust_6="52.86654"></scales>
<clustering>
<clus scale="   44.550">  1  4  2 -1</clus>
<clus scale="   52.867">  1  6  2 -1</clus>
<clus scale="  109.477">  1  3  2 -1</clus>
<clus scale="   44.550">  1  3  2 -1</clus>
</clustering>
</event>
<event>
 6    0  0.5775861E+002  0.1616092E+03  0.7546771E-02  0.1186892E+00
          2   -1    0    0  504    0 -0.00000000000E+00  0.00000000000E+00  0.12848108973E+04  0.12848108973E+04  0.00000000000E+00 0. -1.
         21   -1    0    0  503  502  0.00000000000E+00 -0.00000000000E+00 -0.71428821454E+02  0.71428821454E+02  0.00000000000E+00 0. -1.
         21    1    1    2  503  505  0.41324000200E+02 -0.14088612600E+03  0.21458837041E+02  0.14838145160E+03  0.00000000000E+00 0. -1.
         21    1    1    2  504  502 -0.10603856309E+02  0.34336193734E+02  0.75873897161E+02  0.83953941178E+02  0.00000000000E+00 0. -1.
         21    1    1    2  505  501 -0.46248298378E+02  0.31396388842E+02  0.47560142225E+03  0.47887508933E+03  0.00000000000E+00 0. -1.
          2    1    1    2  501    0  0.15528154488E+02  0.75153543424E+02  0.64044791938E+03  0.64502923663E+03  0.00000000000E+00 0. -1.
<scales pt_clust_3="144.28907" pt_clust_4="35.93628" pt_clust_5="61.72990" pt_clust_6="61.72990"></scales>
<clustering>
<clus scale="   35.936">  1  4  2 -1</clus>
<clus scale="   61.730">  5  6 -1 -1</clus>
<clus scale="  144.289">  2  3  1 -1</clus>
<clus scale="  144.289">  2  3  1 -1</clus>
</clustering>
</event>
<event>
 6    0  0.5775861E+002  0.7455484E+02  0.7546771E-02  0.1345255E+00
          1   -1    0    0  503    0 -0.00000000000E+00  0.00000000000E+00  0.27484088823E+04  0.27484088823E+04  0.00000000000E+00 0. -1.
         21   -1    0    0  504  502  0.00000000000E+00 -0.00000000000E+00 -0.52488293930E+02  0.52488293930E+02  0.00000000000E+00 0.  1.
         21    1    1    2  503  502 -0.90227920863E+02  0.16472478138E+02  0.22618223436E+04  0.22636812351E+04  0.00000000000E+00 0. -1.
         21    1    1    2  504  505 -0.39533663224E+02 -0.17067812498E+02  0.30767864160E+01  0.43170445516E+02  0.00000000000E+00 0.  1.
         21    1    1    2  505  501  0.95820140293E+02  0.57908549445E+02  0.82132065565E+02  0.13885451227E+03  0.00000000000E+00 0.  1.
          1    1    1    2  501    0  0.33941443794E+02 -0.57313215084E+02  0.34888939280E+03  0.35519098333E+03  0.00000000000E+00 0. -1.
<scales pt_clust_3="74.55484" pt_clust_4="43.06066" pt_clust_5="14000.00000" pt_clust_6="66.20941"></scales>
<clustering>
<clus scale="   43.061">  2  4  1 -1</clus>
<clus scale="   66.209">  1  6  2 -1</clus>
<clus scale="   74.555">  1  3  2 -1</clus>
<clus scale="   43.061">  2  3  1 -1</clus>
</clustering>
</event>
<event>
 6    0  0.5775861E+002  0.8554875E+02  0.7546771E-02  0.1314004E+00
         21   -1    0    0  504  502  0.00000000000E+00  0.00000000000E+00  0.23452357284E+03  0.23452357284E+03  0.00000000000E+00 0.  1.
         -2   -1    0    0    0  501 -0.00000000000E+00 -0.00000000000E+00 -0.19090411695E+04  0.19090411695E+04  0.00000000000E+00 0.  1.
         21    1    1    2  503  502  0.37185118398E+02 -0.76028743368E+02  0.18490986548E+03  0.20335870082E+03  0.00000000000E+00 0.  1.
         21    1    1    2  504  501 -0.12320927645E+03  0.45063998645E+02 -0.90650547844E+02  0.15946413892E+03  0.00000000000E+00 0. -1.
         21    1    1    2  505  503  0.49000031795E+02  0.66051977801E+02 -0.29969704236E+03  0.31077674315E+03  0.00000000000E+00 0. -1.
         -2    1    1    2    0  505  0.37024126254E+02 -0.35087233078E+02 -0.14690798719E+04  0.14699651594E+04  0.00000000000E+00 0.  1.
<scales pt_clust_3="14000.00000" pt_clust_4="85.54875" pt_clust_5="85.55449" pt_clust_6="51.00882"></scales>
<clustering>
<clus scale="   51.009">  2  6  1 -1</clus>
<clus scale="   85.554">  2  5  1 -1</clus>
<clus scale="   85.549">  2  4  1 -1</clus>
<clus scale="   85.549">  1  3  2 -1</clus>
</clustering>
</event>
<event>
 6    0  0.5775861E+002  0.8601280E+02  0.7546771E-02  0.1312805E+00
         21   -1    0    0  503  502  0.00000000000E+00  0.00000000000E+00  0.19425610635E+03  0.19425610635E+03  0.00000000000E+00 0. -1.
          2   -1    0    0  505    0 -0.00000000000E+00 -0.00000000000E+00 -0.13872378057E+04  0.13872378057E+04  0.00000000000E+00 0. -1.
         21    1    1    2  503  504  0.13764655202E+02 -0.27721014676E+02  0.14988542601E+03  0.15304757861E+03  0.00000000000E+00 0. -1.
         21    1    1    2  504  501  0.32856989269E+02  0.49286871593E+02 -0.21769161094E+02  0.63108429152E+02  0.00000000000E+00 0. -1.
         21    1    1    2  505  502 -0.74772466662E+02 -0.10019352652E+03 -0.16899401133E+03  0.21021094261E+03  0.00000000000E+00 0. -1.
          2    1    1    2  501    0  0.28150822191E+02  0.78627669605E+02 -0.11521039530E+04  0.11551269617E+04  0.00000000000E+00 0. -1.
<scales pt_clust_3="30.95029" pt_clust_4="53.37848" pt_clust_5="86.01280" pt_clust_6="14000.00000"></scales>
<clustering>
<clus scale="   30.950">  1  3  2 -1</clus>
<clus scale="   53.378">  1  4  2 -1</clus>
<clus scale="   86.013">  1  5  2 -1</clus>
<clus scale="   30.950">  1  3  2 -1</clus>
</clustering>
</event>
<event>
 6    0  0.5775861E+002  0.1227839E+03  0.7546771E-02  0.1238574E+00
         21   -1    0    0  503  502  0.00000000000E+00  0.00000000000E+00  0.65790041071E+02  0.65790041071E+02  0.00000000000E+00 0. -1.
          2   -1    0    0  504    0 -0.00000000000E+00 -0.00000000000E+00 -0.21127456041E+04  0.21127456041E+04  0.00000000000E+00 0.  1.
         21    1    1    2  503  501 -0.17772552044E+02 -0.35930061036E+02  0.42349485134E+02  0.58312192407E+02  0.00000000000E+00 0. -1.
         21    1    1    2  504  505  0.35720614295E+01 -0.98978853871E+02 -0.59399252030E+03  0.60219323087E+03  0.00000000000E+00 0.  1.
         21    1    1    2  505  502  0.66287225301E+02 -0.55961734246E+01 -0.14622200785E+03  0.16064304833E+03  0.00000000000E+00 0. -1.
          2    1    1    2  501    0 -0.52086734687E+02  0.14050508833E+03 -0.13490905200E+04  0.13573871736E+04  0.00000000000E+00 0.  1.
<scales pt_clust_3="40.08532" pt_clust_4="14000.00000" pt_clust_5="62.15681" pt_clust_6="122.78387"></scales>
<clustering>
<clus scale="   40.085">  1  3  2 -1</clus>
<clus scale="   62.157">  1  5  2 -1</clus>
<clus scale="  122.784">  1  6  2 -1</clus>
<clus scale="   40.085">  1  3  2 -1</clus>
</clustering>
</event>
<event>
 6    0  0.5775861E+002  0.1099351E+03  0.7546771E-02  0.1260690E+00
          1   -1    0    0  505    0 -0.00000000000E+00  0.00000000000E+00  0.16013865437E+04  0.16013865437E+04  0.00000000000E+00 0. -1.
         21   -1    0    0  503  502  0.00000000000E+00 -0.00000000000E+00 -0.14625758774E+03  0.14625758774E+03  0.00000000000E+00 0. -1.
         21    1    1    2  503  501  0.10634003791E+03 -0.37173019057E+01  0.21469298204E+03  0.23961447897E+03  0.00000000000E+00 0. -1.
         21    1    1    2  504  502  0.43353176219E+02 -0.37139166349E+01 -0.11267499398E+03  0.12078470653E+03  0.00000000000E+00 0. -1.
         21    1    1    2  505  504 -0.12643020382E+03 -0.12779027723E+02  0.22262621994E+03  0.25634026955E+03  0.00000000000E+00 0. -1.
          1    1    1    2  501    0 -0.23263010309E+02  0.20210246263E+02  0.11304847480E+04  0.11309046764E+04  0.00000000000E+00 0. -1.
<scales pt_clust_3="14000.00000" pt_clust_4="43.29771" pt_clust_5="109.93506" pt_clust_6="30.81593"></scales>
<clustering>
<clus scale="   30.816">  1  6  2 -1</clus>
<clus scale="   43.298">  2  4  1 -1</clus>
<clus scale="  109.935">  2  5  1 -1</clus>
<clus scale="   43.298">  2  3  1 -1</clus>
</clustering>
</event>
<event>
 6    0  0.5775861E+002  0.8900823E+02  0.7546771E-02  0.1305271E+00
         -4   -1    0    0    0  501 -0.00000000000E+00  0.00000000000E+00  0.78064851237E+02  0.78064851237E+02  0.00000000000E+00 0. -1.
         21   -1    0    0  504  502  0.00000000000E+00 -0.00000000000E+00 -0.12425745086E+04  0.12425745086E+04  0.00000000000E+00 0.  1.
         21    1    1    2  503  502  0.83215829582E+02  0.38247773541E+02 -0.18915963873E+03  0.21016454363E+03  0.00000000000E+00 0.  1.
         21    1    1    2  504  505  0.50904225914E+02 -0.26773556767E+02 -0.94970323593E+03  0.95144327203E+03  0.00000000000E+00 0.  1.
         21    1    1    2  505  501 -0.67205001325E+02 -0.27242236873E+02 -0.47740832899E+02  0.86820727934E+02  0.00000000000E+00 0. -1.
         -4    1    1    2    0  503 -0.66915054171E+02  0.15768020099E+02  0.22094050176E+02  0.72210816265E+02  0.00000000000E+00 0. -1.
<scales pt_clust_3="89.00823" pt_clust_4="57.51577" pt_clust_5="14000.00000" pt_clust_6="63.98075"></scales>
<clustering>
<clus scale="   57.516">  2  4  1 -1</clus>
<clus scale="   63.981">  1  6  2 -1</clus>
<clus scale="   89.008">  1  3  2 -1</clus>
<clus scale="   57.516">  2  3  1 -1</clus>
</clustering>
</event>
<event>
 6    0  0.5775861E+002  0.1192908E+03  0.7546771E-02  0.1244272E+00
         21   -1    0    0  504  502  0.00000000000E+00  0.00000000000E+00  0.81003678337E+02  0.81003678337E+02  0.00000000000E+00 0. -1.
          1   -1    0    0  505    0 -0.00000000000E+00 -0.00000000000E+00 -0.25109489842E+04  0.25109489842E+04  0.00000000000E+00 0. -1.
         21    1    1    2  503  502 -0.12078324073E+03  0.28643609891E+01  0.17512065133E+02  0.12207976175E+03  0.00000000000E+00 0. -1.
         21    1    1    2  504  501 -0.22951213667E+02 -0.57955350919E+02 -0.20280561428E+03  0.21216903189E+03  0.00000000000E+00 0. -1.
         21    1    1    2  505  503  0.10407343528E+03  0.49472818189E+02 -0.52120295363E+03  0.53378962011E+03  0.00000000000E+00 0.  1.
          1    1    1    2  501    0  0.39661019117E+02  0.56181717408E+01 -0.17234488031E+04  0.17239142488E+04  0.00000000000E+00 0. -1.
<scales pt_clust_3="119.29080" pt_clust_4="57.84114" pt_clust_5="14000.00000" pt_clust_6="40.05696"></scales>
<clustering>
<clus scale="   40.057">  2  6  1 -1</clus>
<clus scale="   57.841">  2  4  1 -1</clus>
<clus scale="  119.291">  1  3  2 -1</clus>
<clus scale="  119.291">  1  3  2 -1</clus>
</clustering>
</event>
<event>
 6    0  0.5775861E+002  0.7961562E+02  0.7546771E-02  0.1330146E+00
          1   -1    0    0  502    0 -0.00000000000E+00  0.00000000000E+00  0.60414903382E+03  0.60414903382E+03  0.00000000000E+00 0. -1.
         21   -1    0    0  505  502  0.00000000000E+00 -0.00000000000E+00 -0.10243718639E+04  0.10243718639E+04  0.00000000000E+00 0. -1.
         21    1    1    2  503  504  0.87263774409E-01  0.54968528051E+02 -0.14085777700E+02  0.56744654589E+02  0.00000000000E+00 0. -1.
         21    1    1    2  504  501 -0.54096982689E+02 -0.77315225588E+02  0.18760688196E+03  0.21000111858E+03  0.00000000000E+00 0. -1.
         21    1    1    2  505  503 -0.12190460919E+02  0.38753763161E+02 -0.97430457557E+03  0.97515120236E+03  0.00000000000E+00 0. -1.
          1    1    1    2  501    0  0.66200179833E+02 -0.16407065624E+02  0.38056064119E+03  0.38662392222E+03  0.00000000000E+00 0. -1.
<scales pt_clust_3="79.61562" pt_clust_4="14000.00000" pt_clust_5="40.62587" pt_clust_6="66.94466"></scales>
<clustering>
<clus scale="   40.626">  2  5  1 -1</clus>
<clus scale="   66.945">  1  6  2 -1</clus>
<clus scale="   79.616">  2  3  1 -1</clus>
<clus scale="   40.626">  2  3  1 -1</clus>
</clustering>
</event>
<event>
 6    0  0.5775861E+002  0.1344235E+03  0.7546771E-02  0.1221036E+00
         21   -1    0    0  504  502  0.00000000000E+00  0.00000000000E+00  0.29811457494E+03  0.29811457494E+03  0.00000000000E+00 0. -1.
          2   -1    0    0  505    0 -0.00000000000E+00 -0.00000000000E+00 -0.18355669378E+04  0.18355669378E+04  0.00000000000E+00 0.  1.
         21    1    1    2  503  502  0.96918323285E+01  0.30900750670E+02  0.19454330411E+03  0.19722039748E+03  0.00000000000E+00 0. -1.
         21    1    1    2  504  501  0.13980738086E+03  0.73340756013E+02  0.16455065572E+02  0.15873165853E+03  0.00000000000E+00 0.  1.
         21    1    1    2  505  503 -0.36068283507E+02 -0.33395730450E+02 -0.38187677550E+02  0.62245438420E+02  0.00000000000E+00 0. -1.
          2    1    1    2  501    0 -0.11343092968E+03 -0.70845776232E+02 -0.17102630550E+04  0.17154840184E+04  0.00000000000E+00 0.  1.
<scales pt_clust_3="32.38500" pt_clust_4="134.42354" pt_clust_5="45.88694" pt_clust_6="14000.00000"></scales>
<clustering>
<clus scale="   32.385">  1  3  2 -1</clus>
<clus scale="   45.887">  1  5  2 -1</clus>
<clus scale="  134.424">  1  4  2 -1</clus>
<clus scale="   32.385">  1  3  2 -1</clus>
</clustering>
</event>
<event>
 6    0  0.5775861E+002  0.7819183E+02  0.7546771E-02  0.1334262E+00
          2   -1    0    0  505    0 -0.00000000000E+00  0.00000000000E+00  0.27033153109E+04  0.27033153109E+04  0.00000000000E+00 0.  1.
         21   -1    0    0  503  502  0.00000000000E+00 -0.00000000000E+00 -0.22461945455E+02  0.22461945455E+02  0.00000000000E+00 0.  1.
         21    1    1    2  503  501  0.32734589489E+02  0.36367422016E+02  0.12821709505E+03  0.13723616941E+03  0.00000000000E+00 0.  1.
         21    1    1    2  504  502  0.32314982930E+02  0.21881067000E+02  0.23311629255E+02  0.45458456565E+02  0.00000000000E+00 0.  1.
         21    1    1    2  505  504 -0.61374321419E+02 -0.10963193806E+03  0.59730395760E+03  0.61037528369E+03  0.00000000000E+00 0.  1.
          2    1    1    2  501    0 -0.36752509997E+01  0.51383449041E+02  0.19320206836E+04  0.19327073467E+04  0.00000000000E+00 0.  1.
<scales pt_clust_3="78.19183" pt_clust_4="39.02614" pt_clust_5="14000.00000" pt_clust_6="52.11315"></scales>
<clustering>
<clus scale="   39.026">  2  4  1 -1</clus>
<clus scale="   52.113">  1  6  2 -1</clus>
<clus scale="   78.192">  2  3  1 -1</clus>
<clus scale="   39.026">  2  3  1 -1</clus>
</clustering>
</event>
<event>
 6    0  0.5775861E+002  0.9906950E+02  0.7546771E-02  0.1282265E+00
         21   -1    0    0  503  502  0.00000000000E+00  0.00000000000E+00  0.11984410260E+03  0.11984410260E+03  0.00000000000E+00 0.  1.
          2   -1    0    0  505    0 -0.00000000000E+00 -0.00000000000E+00 -0.20174934679E+04  0.20174934679E+04  0.00000000000E+00 0. -1.
         21    1    1    2  503  504 -0.29733612004E+02 -0.78749521830E+02 -0.26155929361E+02  0.88145944387E+02  0.00000000000E+00 0.  1.
         21    1    1    2  504  501  0.60508774420E+01  0.11951603998E+03 -0.88533451438E+02  0.14885855352E+03  0.00000000000E+00 0.  1.
         21    1    1    2  505  502 -0.29174262726E+02 -0.10296282580E+02  0.54067239752E+02  0.62292996837E+02  0.00000000000E+00 0.  1.
          2    1    1    2  501    0  0.52856997288E+02 -0.30470235574E+02 -0.18370272242E+04  0.18380400757E+04  0.00000000000E+00 0. -1.
<scales pt_clust_3="99.06950" pt_clust_4="14000.00000" pt_clust_5="30.93786" pt_clust_6="60.84559"></scales>
<clustering>
<clus scale="   30.938">  1  5  2 -1</clus>
<clus scale="   60.846">  2  6  1 -1</clus>
<clus scale="   99.069">  1  3  2 -1</clus>
<clus scale="   30.938">  1  3  2 -1</clus>
</clustering>
</event>
<event>
 6    0  0.5775861E+002  0.7139977E+02  0.7546771E-02  0.1355397E+00
         21   -1    0    0  505  502  0.00000000000E+00  0.00000000000E+00  0.42312442504E+02  0.42312442504E+02  0.00000000000E+00 0. -1.
          1   -1    0    0  504    0 -0.00000000000E+00 -0.00000000000E+00 -0.16184978745E+04  0.16184978745E+04  0.00000000000E+00 0.  1.
         21    1    1    2  503  502 -0.13107032367E+02 -0.44437847214E+02 -0.15973742869E+02  0.49006907919E+02  0.00000000000E+00 0. -1.
         21    1    1    2  504  503  0.87022369626E+02  0.32071624645E+02 -0.76241756759E+03  0.76803777856E+03  0.00000000000E+00 0.  1.
         21    1    1    2  505  501 -0.55870782566E+02  0.61095562260E+02 -0.55538198219E+02  0.99693046567E+02  0.00000000000E+00 0. -1.
          1    1    1    2  501    0 -0.18044554693E+02 -0.48729339691E+02 -0.74225592329E+03  0.74407258393E+03  0.00000000000E+00 0.  1.
<scales pt_clust_3="46.33051" pt_clust_4="14000.00000" pt_clust_5="71.39977" pt_clust_6="53.59078"></scales>
<clustering>
<clus scale="   46.331">  1  3  2 -1</clus>
<clus scale="   53.591">  2  6  1 -1</clus>
<clus scale="   71.400">  1  5  2 -1</clus>
<clus scale="   46.331">  1  3  2 -1</clus>
</clustering>
</event>
<event>
 6    0  0.5775861E+002  0.1481470E+03  0.7546771E-02  0.1202769E+00
         21   -1    0    0  504  502  0.00000000000E+00  0.00000000000E+00  0.51605658340E+03  0.51605658340E+03  0.00000000000E+00 0.  1.
          2   -1    0    0  503    0 -0.00000000000E+00 -0.00000000000E+00 -0.93960749508E+03  0.93960749508E+03  0.00000000000E+00 0. -1.
         21    1    1    2  503  502 -0.40937109057E+02  0.49645763029E+02  0.10031576089E+03  0.11917969864E+03  0.00000000000E+00 0.  1.
         21    1    1    2  504  505  0.53465771328E+01  0.98583848181E+02  0.34119237845E+03  0.35518952704E+03  0.00000000000E+00 0.  1.
         21    1    1    2  505  501  0.80773500727E+02 -0.16212823164E+03 -0.85493663814E+02  0.20029749990E+03  0.00000000000E+00 0.  1.
          2    1    1    2  501    0 -0.45182968803E+02  0.13898620428E+02 -0.77956538720E+03  0.78099735291E+03  0.00000000000E+00 0. -1.
<scales pt_clust_3="66.70137" pt_clust_4="148.14700" pt_clust_5="14000.00000" pt_clust_6="47.27232"></scales>
<clustering>
<clus scale="   47.272">  2  6  1 -1</clus>
<clus scale="   66.701">  1  3  2 -1</clus>
<clus scale="  148.147">  1  4  2 -1</clus>
<clus scale="   66.701">  1  3  2 -1</clus>
</clustering>
</event>
<event>
 6    0  0.5775861E+002  0.1473954E+03  0.7546771E-02  0.1203710E+00
          2   -1    0    0  505    0 -0.00000000000E+00  0.00000000000E+00  0.42111636458E+03  0.42111636458E+03  0.00000000000E+00 0.  1.
         21   -1    0    0  503  502  0.00000000000E+00 -0.00000000000E+00 -0.12174178801E+03  0.12174178801E+03  0.00000000000E+00 0. -1.
         21    1    1    2  503  504  0.56673175318E+02  0.39582125243E+02  0.13728104492E+02  0.70477331762E+02  0.00000000000E+00 0. -1.
         21    1    1    2  504  501  0.81433006098E+02  0.14372169808E+02 -0.34072575808E+02  0.89436201671E+02  0.00000000000E+00 0. -1.
         21    1    1    2  505  502 -0.11388278088E+03 -0.27939784670E+02  0.83221369619E+02  0.14379052719E+03  0.00000000000E+00 0.  1.
          2    1    1    2  501    0 -0.24223400537E+02 -0.26014510380E+02  0.23649767826E+03  0.23915409197E+03  0.00000000000E+00 0.  1.
<scales pt_clust_3="49.74051" pt_clust_4="49.74051" pt_clust_5="136.20335" pt_clust_6="35.54614"></scales>
<clustering>
<clus scale="   35.546">  1  6  2 -1</clus>
<clus scale="   49.741">  3  4 -1 -1</clus>
<clus scale="  136.203">  1  5  2 -1</clus>
<clus scale="  147.395">  2  3  1 -1</clus>
</clustering>
</event>
<event>
 6    0  0.5775861E+002  0.1046364E+03  0.7546771E-02  0.1270838E+00
          1   -1    0    0  503    0 -0.00000000000E+00  0.00000000000E+00  0.28603167877E+03  0.28603167877E+03  0.00000000000E+00 0. -1.
         21   -1    0    0  505  502  0.00000000000E+00 -0.00000000000E+00 -0.89008323727E+03  0.89008323727E+03  0.00000000000E+00 0.  1.
         21    1    1    2  503  502  0.63362674297E+02 -0.16712596119E+02 -0.34477591944E+01  0.65620320073E+02  0.00000000000E+00 0. -1.
         21    1    1    2  504  501 -0.92768213209E+02 -0.65633135683E+02  0.50787219213E+02  0.12447084605E+03  0.00000000000E+00 0. -1.
         21    1    1    2  505  504 -0.25419572560E+02  0.10402236359E+03 -0.80987804666E+03  0.81692671474E+03  0.00000000000E+00 0.  1.
          1    1    1    2  501    0  0.54825111472E+02 -0.21676631785E+02  0.15848702814E+03  0.16909703517E+03  0.00000000000E+00 0. -1.
<scales pt_clust_3="80.43645" pt_clust_4="14000.00000" pt_clust_5="104.63643" pt_clust_6="58.95481"></scales>
<clustering>
<clus scale="   58.955">  1  6  2 -1</clus>
<clus scale="   80.436">  1  3  2 -1</clus>
<clus scale="  104.636">  2  5  1 -1</clus>
<clus scale="  104.636">  2  3  1 -1</clus>
</clustering>
</event>
<event>
 6    0  0.7469408E+002  0.1179161E+03  0.7546771E-02  0.1246575E+00
         21   -1    0    0  503  502  0.00000000000E+00  0.00000000000E+00  0.11713063080E+04  0.11713063080E+04  0.00000000000E+00 0.  1.
          2   -1    0    0  504    0 -0.00000000000E+00 -0.00000000000E+00 -0.15973404579E+04  0.15973404579E+04  0.00000000000E+00 0.  1.
         21    1    1    2  503  501 -0.57162624754E+02 -0.13547863714E+03  0.51429233093E+03  0.53490057810E+03  0.00000000000E+00 0. -1.
         21    1    1    2  504  505  0.20258114308E+02  0.86392425408E+02 -0.14663200927E+03  0.17139133148E+03  0.00000000000E+00 0.  1.
         21    1    1    2  505  502 -0.22668471752E+02  0.46420080354E+02  0.63265438013E+03  0.63475999258E+03  0.00000000000E+00 0.  1.
          2    1    1    2  501    0  0.59572982198E+02  0.26661313814E+01 -0.14263488517E+04  0.14275948638E+04  0.00000000000E+00 0.  1.
<scales pt_clust_3="14000.00000" pt_clust_4="117.91605" pt_clust_5="51.65930" pt_clust_6="59.60880"></scales>
<clustering>
<clus scale="   51.659">  1  5  2 -1</clus>
<clus scale="   59.609">  2  6  1 -1</clus>
<clus scale="  117.916">  2  4  1 -1</clus>
<clus scale="   51.659">  1  3  2 -1</clus>
</clustering>
</event>
<event>
 6    0  0.5775861E+002  0.9291326E+02  0.7546771E-02  0.1295946E+00
         -3   -1    0    0    0  501 -0.00000000000E+00  0.00000000000E+00  0.17866684254E+03  0.17866684254E+03  0.00000000000E+00 0. -1.
         21   -1    0    0  504  502  0.00000000000E+00 -0.00000000000E+00 -0.11980129844E+04  0.11980129844E+04  0.00000000000E+00 0.  1.
         21    1    1    2  503  501  0.43579825500E+02 -0.56413244387E+02 -0.41883200916E+02  0.82679246802E+02  0.00000000000E+00 0. -1.
         21    1    1    2  504  503 -0.32712449367E+02 -0.36560809575E+02 -0.10550466096E+03  0.11635304304E+03  0.00000000000E+00 0. -1.
         21    1    1    2  505  502 -0.62758741172E+02  0.18858322263E+02 -0.10102585313E+04  0.10123816454E+04  0.00000000000E+00 0.  1.
         -3    1    1    2    0  505  0.51891365039E+02  0.74115731699E+02  0.13830025129E+03  0.16526589170E+03  0.00000000000E+00 0. -1.
<scales pt_clust_3="71.85078" pt_clust_4="49.05912" pt_clust_5="14000.00000" pt_clust_6="92.91326"></scales>
<clustering>
<clus scale="   49.059">  2  4  1 -1</clus>
<clus scale="   71.851">  1  3  2 -1</clus>
<clus scale="   92.913">  1  6  2 -1</clus>
<clus scale="   49.059">  2  3  1 -1</clus>
</clustering>
</event>
<event>
 6    0  0.5775861E+002  0.9147264E+02  0.7546771E-02  0.1299324E+00
         21   -1    0    0  503  502  0.00000000000E+00  0.00000000000E+00  0.97542901651E+03  0.97542901651E+03  0.00000000000E+00 0. -1.
          2   -1    0    0  504    0 -0.00000000000E+00 -0.00000000000E+00 -0.24345021307E+03  0.24345021307E+03  0.00000000000E+00 0.  1.
         21    1    1    2  503  505  0.31436074365E+02  0.19983049112E+02  0.59552601590E+03  0.59668985632E+03  0.00000000000E+00 0. -1.
         21    1    1    2  504  502 -0.10104817318E+03 -0.76469514629E+02  0.29590487172E+03  0.32189751952E+03  0.00000000000E+00 0. -1.
         21    1    1    2  505  501  0.68853168150E+02  0.26147465299E+02  0.49763386390E+02  0.88886688153E+02  0.00000000000E+00 0.  1.
          2    1    1    2  501    0  0.75893066445E+00  0.30339000218E+02 -0.20921547057E+03  0.21140516558E+03  0.00000000000E+00 0.  1.
<scales pt_clust_3="37.54947" pt_clust_4="14000.00000" pt_clust_5="91.47264" pt_clust_6="30.34849"></scales>
<clustering>
<clus scale="   30.348">  2  6  1 -1</clus>
<clus scale="   37.549">  1  3  2 -1</clus>
<clus scale="   91.473">  2  5  1 -1</clus>
<clus scale="   37.549">  1  3  2 -1</clus>
</clustering>
</event>
<event>
 6    0  0.5775861E+002  0.7187081E+02  0.7546771E-02  0.1353844E+00
         21   -1    0    0  505  502  0.00000000000E+00  0.00000000000E+00  0.12277178178E+03  0.12277178178E+03  0.00000000000E+00 0. -1.
          2   -1    0    0  502    0 -0.00000000000E+00 -0.00000000000E+00 -0.81426767323E+03  0.81426767323E+03  0.00000000000E+00 0. -1.
         21    1    1    2  503  501 -0.53346847645E+02  0.88879458793E+02 -0.17939313149E+03  0.20718914058E+03  0.00000000000E+00 0. -1.
         21    1    1    2  504  503 -0.55289663136E+02 -0.50377695408E+02 -0.16204151855E+02  0.76533872120E+02  0.00000000000E+00 0. -1.
         21    1    1    2  505  504  0.39929079052E+02 -0.26071786371E+02  0.69134268695E+02  0.83985811341E+02  0.00000000000E+00 0. -1.
          2    1    1    2  501    0  0.68707431730E+02 -0.12429977014E+02 -0.56503287680E+03  0.56933063098E+03  0.00000000000E+00 0. -1.
<scales pt_clust_3="14000.00000" pt_clust_4="71.81275" pt_clust_5="47.68720" pt_clust_6="71.87081"></scales>
<clustering>
<clus scale="   47.687">  1  5  2 -1</clus>
<clus scale="   71.871">  2  6  1 -1</clus>
<clus scale="   71.813">  1  4  2 -1</clus>
<clus scale="   47.687">  1  3  2 -1</clus>
</clustering>
</event>
<event>
 6    0  0.5775861E+002  0.1474808E+03  0.7546771E-02  0.1203603E+00
         21   -1    0    0  501  502  0.00000000000E+00  0.00000000000E+00  0.26370936243E+03  0.26370936243E+03  0.00000000000E+00 0.  1.
          1   -1    0    0  503    0 -0.00000000000E+00 -0.00000000000E+00 -0.56014539927E+03  0.56014539927E+03  0.00000000000E+00 0. -1.
         21    1    1    2  503  505  0.10569399852E+03 -0.10779954216E+03 -0.19300784889E+02  0.15219882690E+03  0.00000000000E+00 0.  1.
         21    1    1    2  504  502 -0.25462361410E+02  0.30810273312E+02  0.90494221410E+02  0.98928301809E+02  0.00000000000E+00 0.  1.
         21    1    1    2  505  504 -0.89287871489E+02  0.32741655208E+02  0.79114093739E+02  0.12370683008E+03  0.00000000000E+00 0.  1.
          1    1    1    2  501    0  0.90562343796E+01  0.44247613637E+02 -0.44674356710E+03  0.44902080290E+03  0.00000000000E+00 0. -1.
<scales pt_clust_3="134.75021" pt_clust_4="38.85968" pt_clust_5="38.85968" pt_clust_6="45.16488"></scales>
<clustering>
<clus scale="   38.860">  4  5 -1 -1</clus>
<clus scale="   45.165">  2  6  1 -1</clus>
<clus scale="  134.750">  2  3  1 -1</clus>
<clus scale="  147.481">  1  3  2 -1</clus>
</clustering>
</event>
<event>
 6    0  0.5775861E+002  0.2803549E+03  0.7546771E-02  0.1095495E+00
          2   -1    0    0  505    0 -0.00000000000E+00  0.00000000000E+00  0.21485456344E+04  0.21485456344E+04  0.00000000000E+00 0.  1.
         21   -1    0    0  503  502  0.00000000000E+00 -0.00000000000E+00 -0.53887567571E+03  0.53887567571E+03  0.00000000000E+00 0.  1.
         21    1    1    2  503  504  0.76116033820E+02 -0.14168652175E+03 -0.26343847396E+03  0.30865603933E+03  0.00000000000E+00 0.  1.
         21    1    1    2  504  501  0.21007435182E+02 -0.11834209803E+03 -0.86605342727E+02  0.14814401739E+03  0.00000000000E+00 0.  1.
         21    1    1    2  505  502 -0.14700218529E+03  0.58619086589E+00 -0.84397359699E+02  0.16950781818E+03  0.00000000000E+00 0.  1.
          2    1    1    2  501    0  0.49878716284E+02  0.25944242892E+03  0.20441111351E+04  0.20611134352E+04  0.00000000000E+00 0.  1.
<scales pt_clust_3="82.40869" pt_clust_4="82.40869" pt_clust_5="147.00335" pt_clust_6="263.64958"></scales>
<clustering>
<clus scale="   82.409">  3  4 -1 -1</clus>
<clus scale="  147.003">  2  5  1 -1</clus>
<clus scale="  263.650">  1  6  2 -1</clus>
<clus scale="  147.003">  2  3  1 -1</clus>
</clustering>
</event>
<event>
 6    0  0.5775861E+002  0.1034697E+03  0.7546771E-02  0.1273164E+00
         -1   -1    0    0    0  501 -0.00000000000E+00  0.00000000000E+00  0.11086516915E+04  0.11086516915E+04  0.00000000000E+00 0.  1.
         21   -1    0    0  503  502  0.00000000000E+00 -0.00000000000E+00 -0.87087631482E+02  0.87087631482E+02  0.00000000000E+00 0. -1.
         21    1    1    2  503  505  0.42710823081E+02 -0.12460050762E+03 -0.21862498166E+02  0.13351954813E+03  0.00000000000E+00 0. -1.
         21    1    1    2  504  502 -0.28112337627E+02  0.17603840077E+02  0.50435965512E+02  0.60365431577E+02  0.00000000000E+00 0.  1.
         21    1    1    2  505  501  0.48443565653E+01  0.54955530830E+02  0.21790168626E+03  0.22477705184E+03  0.00000000000E+00 0.  1.
         -1    1    1    2    0  504 -0.19442842019E+02  0.52041136712E+02  0.77508890643E+03  0.77707729145E+03  0.00000000000E+00 0.  1.
<scales pt_clust_3="14000.00000" pt_clust_4="33.16924" pt_clust_5="55.81306" pt_clust_6="103.46966"></scales>
<clustering>
<clus scale="   33.169">  2  4  1 -1</clus>
<clus scale="   55.813">  1  5  2 -1</clus>
<clus scale="  103.470">  1  6  2 -1</clus>
<clus scale="   33.169">  2  3  1 -1</clus>
</clustering>
</event>
<event>
 6    0  0.5775861E+002  0.9047118E+02  0.7546771E-02  0.1301715E+00
         -4   -1    0    0    0  501 -0.00000000000E+00  0.00000000000E+00  0.13419001225E+04  0.13419001225E+04  0.00000000000E+00 0.  1.
         21   -1    0    0  505  502  0.00000000000E+00 -0.00000000000E+00 -0.67214672117E+03  0.67214672117E+03  0.00000000000E+00 0.  1.
         21    1    1    2  503  501  0.78488261980E+02 -0.50496844000E+02 -0.94181796464E+02  0.13259166379E+03  0.00000000000E+00 0. -1.
         21    1    1    2  504  502 -0.95712905518E+02  0.46524386875E+02  0.21988099847E+02  0.10866901763E+03  0.00000000000E+00 0.  1.
         21    1    1    2  505  503  0.10528941728E+02  0.54860077231E+02 -0.51338000268E+03  0.51641021857E+03  0.00000000000E+00 0.  1.
         -4    1    1    2    0  504  0.66957018099E+01 -0.50887620106E+02  0.12553271006E+04  0.12563759436E+04  0.00000000000E+00 0.  1.
<scales pt_clust_3="90.47118" pt_clust_4="14000.00000" pt_clust_5="55.00433" pt_clust_6="51.32623"></scales>
<clustering>
<clus scale="   51.326">  1  6  2 -1</clus>
<clus scale="   55.004">  2  5  1 -1</clus>
<clus scale="   90.471">  2  3  1 -1</clus>
<clus scale="   55.004">  2  3  1 -1</clus>
</clustering>
</event>
<event>
 6    0  0.5775861E+002  0.8437272E+02  0.7546771E-02  0.1317081E+00
         21   -1    0    0  501  502  0.00000000000E+00  0.00000000000E+00  0.21953315837E+02  0.21953315837E+02  0.00000000000E+00 0.  1.
          2   -1    0    0  505    0 -0.00000000000E+00 -0.00000000000E+00 -0.28226333862E+04  0.28226333862E+04  0.00000000000E+00 0.  1.
         21    1    1    2  503  504 -0.66877903565E+02  0.85238321665E+02 -0.36448981627E+03  0.38025130063E+03  0.00000000000E+00 0.  1.
         21    1    1    2  504  502 -0.21570736702E+02 -0.51950287463E+02 -0.54572800642E+02  0.78372952090E+02  0.00000000000E+00 0.  1.
         21    1    1    2  505  503  0.70714078248E+02 -0.66707784083E+01 -0.62009577386E+03  0.62415042170E+03  0.00000000000E+00 0.  1.
          2    1    1    2  501    0  0.17734562019E+02 -0.26617255793E+02 -0.17615216796E+04  0.17618120276E+04  0.00000000000E+00 0.  1.
<scales pt_clust_3="84.37272" pt_clust_4="57.38884" pt_clust_5="14000.00000" pt_clust_6="31.98426"></scales>
<clustering>
<clus scale="   31.984">  2  6  1 -1</clus>
<clus scale="   57.389">  1  4  2 -1</clus>
<clus scale="   84.373">  1  3  2 -1</clus>
<clus scale="   57.389">  1  3  2 -1</clus>
</clustering>
</event>
<event>
 6    0  0.5775861E+002  0.1243099E+03  0.7546771E-02  0.1236152E+00
          1   -1    0    0  503    0 -0.00000000000E+00  0.00000000000E+00  0.13713046200E+04  0.13713046200E+04  0.00000000000E+00 0.  1.
         21   -1    0    0  505  502  0.00000000000E+00 -0.00000000000E+00 -0.17303290635E+03  0.17303290635E+03  0.00000000000E+00 0.  1.
         21    1    1    2  503  504  0.42476661993E+02 -0.13169292795E+03 -0.24899551504E+02  0.14059616549E+03  0.00000000000E+00 0.  1.
         21    1    1    2  504  502  0.28142424667E+02  0.26980432587E+02 -0.36085684651E+02  0.53123595938E+02  0.00000000000E+00 0.  1.
         21    1    1    2  505  501 -0.36693153074E+02  0.10690761557E+03  0.24832192032E+02  0.11572494766E+03  0.00000000000E+00 0.  1.
          1    1    1    2  501    0 -0.33925933586E+02 -0.21951202094E+01  0.12344247578E+04  0.12348928173E+04  0.00000000000E+00 0.  1.
<scales pt_clust_3="124.30995" pt_clust_4="37.38986" pt_clust_5="14000.00000" pt_clust_6="33.99688"></scales>
<clustering>
<clus scale="   33.997">  1  6  2 -1</clus>
<clus scale="   37.390">  2  4  1 -1</clus>
<clus scale="  124.310">  2  3  1 -1</clus>
<clus scale="   37.390">  2  3  1 -1</clus>
</clustering>
</event>
<event>
 6    0  0.5775861E+002  0.1708564E+03  0.7546771E-02  0.1176958E+00
         21   -1    0    0  505  502  0.00000000000E+00  0.00000000000E+00  0.20618465339E+04  0.20618465339E+04  0.00000000000E+00 0. -1.
          2   -1    0    0  503    0 -0.00000000000E+00 -0.00000000000E+00 -0.11342642997E+04  0.11342642997E+04  0.00000000000E+00 0.  1.
         21    1    1    2  503  502  0.17667986304E+02 -0.15146522935E+03  0.44618379095E+03  0.47152290373E+03  0.00000000000E+00 0. -1.
         21    1    1    2  504  501  0.11028056312E+03  0.16989031268E+03  0.84224127806E+02  0.21935866668E+03  0.00000000000E+00 0. -1.
         21    1    1    2  505  504 -0.10000974825E+03 -0.45797197488E+01  0.14492438684E+04  0.14526977365E+04  0.00000000000E+00 0. -1.
          2    1    1    2  501    0 -0.27938801172E+02 -0.13845363579E+02 -0.10520695529E+04  0.10525315267E+04  0.00000000000E+00 0.  1.
<scales pt_clust_3="170.85637" pt_clust_4="14000.00000" pt_clust_5="100.71628" pt_clust_6="31.18126"></scales>
<clustering>
<clus scale="   31.181">  2  6  1 -1</clus>
<clus scale="  100.716">  1  5  2 -1</clus>
<clus scale="  170.856">  1  3  2 -1</clus>
<clus scale="  100.716">  1  3  2 -1</clus>
</clustering>
</event>
<event>
 6    0  0.5775861E+002  0.1142378E+03  0.7546771E-02  0.1252917E+00
          3   -1    0    0  503    0 -0.00000000000E+00  0.00000000000E+00  0.20529430321E+04  0.20529430321E+04  0.00000000000E+00 0.  1.
         21   -1    0    0  501  502  0.00000000000E+00 -0.00000000000E+00 -0.18668630391E+03  0.18668630391E+03  0.00000000000E+00 0. -1.
         21    1    1    2  503  505 -0.69638434096E+02  0.88358190917E+02  0.77210894637E+03  0.78026207550E+03  0.00000000000E+00 0.  1.
         21    1    1    2  504  502  0.20467106599E+02 -0.42326258507E+02 -0.11522767375E+03  0.12445011615E+03  0.00000000000E+00 0. -1.
         21    1    1    2  505  504  0.80962399087E+02 -0.17695827056E+02 -0.34893215370E+02  0.89919902358E+02  0.00000000000E+00 0.  1.
          3    1    1    2  501    0 -0.31791071590E+02 -0.28336105354E+02  0.12442686710E+04  0.12449972420E+04  0.00000000000E+00 0.  1.
<scales pt_clust_3="114.23781" pt_clust_4="47.08220" pt_clust_5="14000.00000" pt_clust_6="42.58647"></scales>
<clustering>
<clus scale="   42.586">  1  6  2 -1</clus>
<clus scale="   47.082">  2  4  1 -1</clus>
<clus scale="  114.238">  1  3  2 -1</clus>
<clus scale="   47.082">  2  3  1 -1</clus>
</clustering>
</event>
<event>
 6    0  0.5775861E+002  0.9901528E+02  0.7546771E-02  0.1282380E+00
         21   -1    0    0  504  502  0.00000000000E+00  0.00000000000E+00  0.13782945440E+04  0.13782945440E+04  0.00000000000E+00 0.  1.
          3   -1    0    0  505    0 -0.00000000000E+00 -0.00000000000E+00 -0.37802907092E+02  0.37802907092E+02  0.00000000000E+00 0.  1.
         21    1    1    2  503  501 -0.55218138826E+02 -0.62948176706E+02  0.69328884738E+03  0.69832724543E+03  0.00000000000E+00 0.  1.
         21    1    1    2  504  503 -0.45975571805E+02  0.36693378447E+02  0.48199338032E+03  0.48556953766E+03  0.00000000000E+00 0.  1.
         21    1    1    2  505  502 -0.19386084487E+02  0.37191291962E+02  0.46934915234E+02  0.62943615542E+02  0.00000000000E+00 0.  1.
          3    1    1    2  501    0  0.12057979512E+03 -0.10936493703E+02  0.11827449397E+03  0.16925705247E+03  0.00000000000E+00 0.  1.
<scales pt_clust_3="99.01528" pt_clust_4="61.13290" pt_clust_5="41.94058" pt_clust_6="14000.00000"></scales>
<clustering>
<clus scale="   41.941">  2  5  1 -1</clus>
<clus scale="   61.133">  1  4  2 -1</clus>
<clus scale="   99.015">  1  3  2 -1</clus>
<clus scale="   61.133">  1  3  2 -1</clus>
</clustering>
</event>
<event>
 6    0  0.5775861E+002  0.9636380E+02  0.7546771E-02  0.1288134E+00
         21   -1    0    0  503  502  0.00000000000E+00  0.00000000000E+00  0.39229936338E+03  0.39229936338E+03  0.00000000000E+00 0. -1.
         -2   -1    0    0    0  501 -0.00000000000E+00 -0.00000000000E+00 -0.88815981488E+03  0.88815981488E+03  0.00000000000E+00 0. -1.
         21    1    1    2  503  504 -0.21227052488E+02 -0.35616900127E+02  0.32911005762E+03  0.33171159365E+03  0.00000000000E+00 0. -1.
         21    1    1    2  504  501  0.68800297102E+02 -0.41227278663E+02 -0.47895954026E+02  0.93419440158E+02  0.00000000000E+00 0. -1.
         21    1    1    2  505  502 -0.70252703616E+02  0.97778360365E+02 -0.54611552739E+02  0.13220617162E+03  0.00000000000E+00 0. -1.
         -2    1    1    2    0  505  0.22679459001E+02 -0.20934181574E+02 -0.72246300236E+03  0.72312197284E+03  0.00000000000E+00 0. -1.
<scales pt_clust_3="41.51345" pt_clust_4="14000.00000" pt_clust_5="96.36380" pt_clust_6="30.86418"></scales>
<clustering>
<clus scale="   30.864">  2  6  1 -1</clus>
<clus scale="   41.513">  1  3  2 -1</clus>
<clus scale="   96.364">  2  5  1 -1</clus>
<clus scale="   41.513">  1  3  2 -1</clus>
</clustering>
</event>
<event>
 6    0  0.5775861E+002  0.1543983E+03  0.7546771E-02  0.1195170E+00
         21   -1    0    0  504  502  0.00000000000E+00  0.00000000000E+00  0.58049595050E+03  0.58049595050E+03  0.00000000000E+00 0. -1.
          2   -1    0    0  502    0 -0.00000000000E+00 -0.00000000000E+00 -0.72766307395E+03  0.72766307395E+03  0.00000000000E+00 0. -1.
         21    1    1    2  503  505 -0.12263396989E+03  0.17029038310E+02  0.80753990233E+02  0.14781842123E+03  0.00000000000E+00 0. -1.
         21    1    1    2  504  503 -0.35545428349E+02 -0.30339164180E+02  0.40909709746E+03  0.41175766843E+03  0.00000000000E+00 0. -1.
         21    1    1    2  505  501  0.18877984129E+03 -0.20459486162E+02 -0.10969250347E+03  0.21929173347E+03  0.00000000000E+00 0. -1.
          2    1    1    2  501    0 -0.30600443051E+02  0.33769612032E+02 -0.52732570768E+03  0.52929120132E+03  0.00000000000E+00 0. -1.
<scales pt_clust_3="14000.00000" pt_clust_4="46.74268" pt_clust_5="154.39833" pt_clust_6="45.57163"></scales>
<clustering>
<clus scale="   45.572">  2  6  1 -1</clus>
<clus scale="   46.743">  1  4  2 -1</clus>
<clus scale="  154.398">  2  5  1 -1</clus>
<clus scale="   46.743">  1  3  2 -1</clus>
</clustering>
</event>
<event>
 6    0  0.5775861E+002  0.7286747E+02  0.7546771E-02  0.1350605E+00
         21   -1    0    0  505  502  0.00000000000E+00  0.00000000000E+00  0.83239459525E+02  0.83239459525E+02  0.00000000000E+00 0. -1.
          4   -1    0    0  503    0 -0.00000000000E+00 -0.00000000000E+00 -0.16395004684E+04  0.16395004684E+04  0.00000000000E+00 0. -1.
         21    1    1    2  503  504  0.88007005104E+02 -0.38491024776E+02 -0.18766814192E+02  0.97872290515E+02  0.00000000000E+00 0. -1.
         21    1    1    2  504  502 -0.34169102767E+02  0.60560563272E+02  0.48132764828E+01  0.69701341724E+02  0.00000000000E+00 0. -1.
         21    1    1    2  505  501 -0.11026576688E+02 -0.82986063917E+02 -0.32583811796E+03  0.33642049776E+03  0.00000000000E+00 0. -1.
          4    1    1    2  501    0 -0.42811325649E+02  0.60916525421E+02 -0.12164693532E+04  0.12187457980E+04  0.00000000000E+00 0. -1.
<scales pt_clust_3="60.17301" pt_clust_4="69.53495" pt_clust_5="14000.00000" pt_clust_6="72.86747"></scales>
<clustering>
<clus scale="   69.535">  1  4  2 -1</clus>
<clus scale="   60.173">  1  3  2 -1</clus>
<clus scale="   72.867">  2  6  1 -1</clus>
<clus scale="   69.535">  1  3  2 -1</clus>
</clustering>
</event>
<event>
 6    0  0.5775861E+002  0.1117130E+03  0.7546771E-02  0.1257430E+00
         21   -1    0    0  505  502  0.00000000000E+00  0.00000000000E+00  0.20666650758E+03  0.20666650758E+03  0.00000000000E+00 0.  1.
         -4   -1    0    0    0  501 -0.00000000000E+00 -0.00000000000E+00 -0.71433153140E+03  0.71433153140E+03  0.00000000000E+00 0.  1.
         21    1    1    2  503  502 -0.40816490828E+02  0.10778684980E+02  0.13570786438E+03  0.14212244871E+03  0.00000000000E+00 0.  1.
         21    1    1    2  504  503 -0.42422192714E+02  0.22642950707E+02  0.34645124213E+02  0.59267447078E+02  0.00000000000E+00 0.  1.
         21    1    1    2  505  501  0.40098585648E+02 -0.12746833517E+03 -0.44547201049E+03  0.46508212734E+03  0.00000000000E+00 0.  1.
         -4    1    1    2    0  504  0.43140097894E+02  0.94046699481E+02 -0.23254600194E+03  0.25452601585E+03  0.00000000000E+00 0.  1.
<scales pt_clust_3="42.21571" pt_clust_4="76.85589" pt_clust_5="111.71298" pt_clust_6="14000.00000"></scales>
<clustering>
<clus scale="   42.216">  1  3  2 -1</clus>
<clus scale="   76.856">  1  4  2 -1</clus>
<clus scale="  111.713">  2  5  1 -1</clus>
<clus scale="   42.216">  1  3  2 -1</clus>
</clustering>
</event>
<event>
 6    0  0.5775861E+002  0.7280442E+02  0.7546771E-02  0.1350808E+00
          2   -1    0    0  504    0 -0.00000000000E+00  0.00000000000E+00  0.46756979216E+03  0.46756979216E+03  0.00000000000E+00 0. -1.
         21   -1    0    0  505  502  0.00000000000E+00 -0.00000000000E+00 -0.12041519292E+03  0.12041519292E+03  0.00000000000E+00 0. -1.
         21    1    1    2  503  502  0.19714360781E+02 -0.55306852071E+02 -0.36542845605E+02  0.69158394082E+02  0.00000000000E+00 0. -1.
         21    1    1    2  504  503  0.60914061654E+02  0.37417270353E+02  0.85605818017E+02  0.11152995609E+03  0.00000000000E+00 0. -1.
         21    1    1    2  505  501 -0.89803474758E+02  0.77975500813E+02  0.17518791423E+02  0.12021543519E+03  0.00000000000E+00 0. -1.
          2    1    1    2  501    0  0.91750523231E+01 -0.60085919095E+02  0.28057283540E+03  0.28708119971E+03  0.00000000000E+00 0. -1.
<scales pt_clust_3="58.71545" pt_clust_4="72.80442" pt_clust_5="14000.00000" pt_clust_6="63.56126"></scales>
<clustering>
<clus scale="   58.715">  2  3  1 -1</clus>
<clus scale="   63.561">  1  6  2 -1</clus>
<clus scale="   72.804">  1  4  2 -1</clus>
<clus scale="   58.715">  2  3  1 -1</clus>
</clustering>
</event>
<event>
 6    0  0.5775861E+002  0.1114592E+03  0.7546771E-02  0.1257891E+00
          2   -1    0    0  503    0 -0.00000000000E+00  0.00000000000E+00  0.27809747585E+04  0.27809747585E+04  0.00000000000E+00 0.  1.
         21   -1    0    0  504  502  0.00000000000E+00 -0.00000000000E+00 -0.39313734133E+02  0.39313734133E+02  0.00000000000E+00 0.  1.
         21    1    1    2  503  502  0.88429416973E+02  0.64083887221E+02  0.81030839916E+02  0.13598714426E+03  0.00000000000E+00 0.  1.
         21    1    1    2  504  505 -0.80046745976E+02 -0.10604145076E+03  0.78519618079E+03  0.79635752847E+03  0.00000000000E+00 0. -1.
         21    1    1    2  505  501 -0.33351404257E+02  0.64659762761E+02  0.21142727770E+03  0.22359493474E+03  0.00000000000E+00 0. -1.
          2    1    1    2  501    0  0.24968733260E+02 -0.22702199223E+02  0.16640067260E+04  0.16643488852E+04  0.00000000000E+00 0.  1.
<scales pt_clust_3="111.45915" pt_clust_4="14000.00000" pt_clust_5="66.63506" pt_clust_6="33.74652"></scales>
<clustering>
<clus scale="   33.747">  1  6  2 -1</clus>
<clus scale="   66.635">  1  5  2 -1</clus>
<clus scale="  111.459">  2  3  1 -1</clus>
<clus scale="  111.459">  2  3  1 -1</clus>
</clustering>
</event>
<event>
 6    0  0.5775861E+002  0.1814375E+03  0.7546771E-02  0.1166419E+00
         21   -1    0    0  504  502  0.00000000000E+00  0.00000000000E+00  0.22067697558E+03  0.22067697558E+03  0.00000000000E+00 0. -1.
          2   -1    0    0  505    0 -0.00000000000E+00 -0.00000000000E+00 -0.11723352601E+04  0.11723352601E+04  0.00000000000E+00 0. -1.
         21    1    1    2  503  501 -0.14634325019E+03 -0.50548102501E+02  0.24305183523E+02  0.15672332146E+03  0.00000000000E+00 0. -1.
         21    1    1    2  504  503 -0.45059677420E+02  0.21833305382E+02  0.10972482688E+03  0.12060930888E+03  0.00000000000E+00 0. -1.
         21    1    1    2  505  502  0.16267849501E+03  0.87317702504E+01 -0.44244079198E+03  0.47148106108E+03  0.00000000000E+00 0. -1.
          2    1    1    2  501    0  0.28724432609E+02  0.19983026869E+02 -0.64324750292E+03  0.64419854424E+03  0.00000000000E+00 0. -1.
<scales pt_clust_3="181.43751" pt_clust_4="49.89519" pt_clust_5="14000.00000" pt_clust_6="34.99163"></scales>
<clustering>
<clus scale="   34.992">  2  6  1 -1</clus>
<clus scale="   49.895">  1  4  2 -1</clus>
<clus scale="  181.438">  1  3  2 -1</clus>
<clus scale="   49.895">  1  3  2 -1</clus>
</clustering>
</event>
<event>
 6    0  0.5775861E+002  0.8093608E+02  0.7546771E-02  0.1326416E+00
          2   -1    0    0  505    0 -0.00000000000E+00  0.00000000000E+00  0.15236606248E+04  0.15236606248E+04  0.00000000000E+00 0.  1.
         21   -1    0    0  504  502  0.00000000000E+00 -0.00000000000E+00 -0.12398549491E+03  0.12398549491E+03  0.00000000000E+00 0.  1.
         21    1    1    2  503  502  0.36242917406E+02  0.14893056275E+02 -0.35375321450E+02  0.52789824350E+02  0.00000000000E+00 0. -1.
         21    1    1    2  504  501  0.19076580666E+02  0.51465373416E+02  0.10376307245E+02  0.55859362177E+02  0.00000000000E+00 0.  1.
         21    1    1    2  505  503 -0.93186021567E+02 -0.13594908065E+03  0.65250281998E+02  0.17726642786E+03  0.00000000000E+00 0.  1.
          2    1    1    2  501    0  0.37866523495E+02  0.69590650958E+02  0.13594238621E+04  0.13617305053E+04  0.00000000000E+00 0.  1.
<scales pt_clust_3="39.18357" pt_clust_4="62.98280" pt_clust_5="80.93608" pt_clust_6="14000.00000"></scales>
<clustering>
<clus scale="   39.184">  2  3  1 -1</clus>
<clus scale="   62.983">  2  4  1 -1</clus>
<clus scale="   80.936">  2  5  1 -1</clus>
<clus scale="   39.184">  2  3  1 -1</clus>
</clustering>
</event>
<event>
 6    0  0.5775861E+002  0.1127889E+03  0.7546771E-02  0.1255491E+00
          2   -1    0    0  504    0 -0.00000000000E+00  0.00000000000E+00  0.35023817503E+04  0.35023817503E+04  0.00000000000E+00 0.  1.
         21   -1    0    0  501  502  0.00000000000E+00 -0.00000000000E+00 -0.73735290976E+02  0.73735290976E+02  0.00000000000E+00 0. -1.
         21    1    1    2  503  505 -0.97752732807E+02 -0.46567986075E+02  0.86256673666E+03  0.86933626940E+03  0.00000000000E+00 0. -1.
         21    1    1    2  504  503 -0.67538171890E+02  0.82288263905E+02  0.48490465397E+03  0.49645270317E+03  0.00000000000E+00 0. -1.
         21    1    1    2  505  502  0.62186160447E+02  0.18308828790E+02 -0.46305693843E+02  0.79665231093E+02  0.00000000000E+00 0. -1.
          2    1    1    2  501    0  0.10310474425E+03 -0.54029106620E+02  0.21274807625E+04  0.21306628376E+04  0.00000000000E+00 0.  1.
<scales pt_clust_3="88.18058" pt_clust_4="112.78888" pt_clust_5="64.82539" pt_clust_6="14000.00000"></scales>
<clustering>
<clus scale="   64.825">  2  5  1 -1</clus>
<clus scale="   88.181">  2  3  1 -1</clus>
<clus scale="  112.789">  2  4  1 -1</clus>
<clus scale="   64.825">  2  3  1 -1</clus>
</clustering>
</event>
<event>
 6    0  0.5775861E+002  0.1040760E+03  0.7546771E-02  0.1271951E+00
         21   -1    0    0  501  502  0.00000000000E+00  0.00000000000E+00  0.45857453644E+03  0.45857453644E+03  0.00000000000E+00 0.  1.
         -3   -1    0    0    0  501 -0.00000000000E+00 -0.00000000000E+00 -0.79243437453E+03  0.79243437453E+03  0.00000000000E+00 0.  1.
         21    1    1    2  503  505  0.80882188918E+02  0.15836585329E+02 -0.72003439430E+02  0.10944049163E+03  0.00000000000E+00 0.  1.
         21    1    1    2  504  502  0.24132113751E+02 -0.28296845402E+02  0.28792733876E+03  0.29031917398E+03  0.00000000000E+00 0.  1.
         21    1    1    2  505  504 -0.11098721575E+03 -0.39898525523E+02  0.12647897183E+03  0.17293636030E+03  0.00000000000E+00 0.  1.
         -3    1    1    2    0  503  0.59729130806E+01  0.52358785595E+02 -0.67626270925E+03  0.67831288506E+03  0.00000000000E+00 0.  1.
<scales pt_clust_3="14000.00000" pt_clust_4="37.18965" pt_clust_5="104.07602" pt_clust_6="52.54510"></scales>
<clustering>
<clus scale="   37.190">  1  4  2 -1</clus>
<clus scale="   52.545">  2  6  1 -1</clus>
<clus scale="  104.076">  1  5  2 -1</clus>
<clus scale="   37.190">  1  3  2 -1</clus>
</clustering>
</event>
<event>
 6    0  0.5775861E+002  0.1579638E+03  0.7546771E-02  0.1191015E+00
          2   -1    0    0  505    0 -0.00000000000E+00  0.00000000000E+00  0.25931263124E+04  0.25931263124E+04  0.00000000000E+00 0. -1.
         21   -1    0    0  504  502  0.00000000000E+00 -0.00000000000E+00 -0.32770212513E+03  0.32770212513E+03  0.00000000000E+00 0. -1.
         21    1    1    2  503  501  0.17900190707E+03 -0.16682183871E+01  0.43168521044E+03  0.46732920581E+03  0.00000000000E+00 0. -1.
         21    1    1    2  504  503  0.89332670992E+00  0.50464976931E+02 -0.30258363035E+03  0.30676434813E+03  0.00000000000E+00 0. -1.
         21    1    1    2  505  502 -0.10261419425E+03 -0.63404072722E+02  0.92025799943E+03  0.92812958945E+03  0.00000000000E+00 0. -1.
          2    1    1    2  501    0 -0.77281039531E+02  0.14607314178E+02  0.12160646078E+04  0.12186052942E+04  0.00000000000E+00 0. -1.
<scales pt_clust_3="157.96379" pt_clust_4="50.47288" pt_clust_5="14000.00000" pt_clust_6="79.16564"></scales>
<clustering>
<clus scale="   50.473">  2  4  1 -1</clus>
<clus scale="   79.166">  1  6  2 -1</clus>
<clus scale="  157.964">  2  3  1 -1</clus>
<clus scale="   50.473">  2  3  1 -1</clus>
</clustering>
</event>
<event>
 6    0  0.1538790E+003  0.1859216E+03  0.7546771E-02  0.1162192E+00
         21   -1    0    0  501  502  0.00000000000E+00  0.00000000000E+00  0.89002943659E+03  0.89002943659E+03  0.00000000000E+00 0.  1.
          2   -1    0    0  505    0 -0.00000000000E+00 -0.00000000000E+00 -0.20122694453E+04  0.20122694453E+04  0.00000000000E+00 0. -1.
         21    1    1    2  503  504  0.15493747156E+03 -0.42763218551E+02  0.16170710025E+03  0.22799890181E+03  0.00000000000E+00 0. -1.
         21    1    1    2  504  502  0.30671051314E+02  0.13989398242E+02  0.68833348547E+03  0.68915847515E+03  0.00000000000E+00 0.  1.
         21    1    1    2  505  503 -0.34029834916E+02 -0.37853576727E+02 -0.74579550983E+03  0.74753051137E+03  0.00000000000E+00 0.  1.
          2    1    1    2  501    0 -0.15157868796E+03  0.66627397036E+02 -0.12264850846E+04  0.12376109935E+04  0.00000000000E+00 0. -1.
<scales pt_clust_3="185.92163" pt_clust_4="33.71078" pt_clust_5="50.76793" pt_clust_6="14000.00000"></scales>
<clustering>
<clus scale="   33.711">  1  4  2 -1</clus>
<clus scale="   50.768">  2  5  1 -1</clus>
<clus scale="  185.922">  1  3  2 -1</clus>
<clus scale="   33.711">  1  3  2 -1</clus>
</clustering>
</event>
<event>
 6    0  0.5775861E+002  0.2147474E+03  0.7546771E-02  0.1137861E+00
          2   -1    0    0  505    0 -0.00000000000E+00  0.00000000000E+00  0.13588885470E+04  0.13588885470E+04  0.00000000000E+00 0. -1.
         21   -1    0    0  504  502  0.00000000000E+00 -0.00000000000E+00 -0.10044616753E+03  0.10044616753E+03  0.00000000000E+00 0. -1.
         21    1    1    2  503  502 -0.24292564586E+03 -0.15558465402E+03  0.48193850476E+03  0.56167978097E+03  0.00000000000E+00 0. -1.
         21    1    1    2  504  501  0.15729977550E+03  0.10420613165E+03  0.13626407253E+03  0.23274456966E+03  0.00000000000E+00 0. -1.
         21    1    1    2  505  503  0.50648177317E+02 -0.39370301380E+02  0.12423205097E+03  0.13981724137E+03  0.00000000000E+00 0.  1.
          2    1    1    2  501    0  0.34977693040E+02  0.90748823752E+02  0.51600775118E+03  0.52509312251E+03  0.00000000000E+00 0. -1.
<scales pt_clust_3="14000.00000" pt_clust_4="214.74741" pt_clust_5="64.15028" pt_clust_6="93.11884"></scales>
<clustering>
<clus scale="   64.150">  1  5  2 -1</clus>
<clus scale="   93.119">  1  6  2 -1</clus>
<clus scale="  214.747">  2  4  1 -1</clus>
<clus scale="  214.747">  2  3  1 -1</clus>
</clustering>
</event>
<event>
 6    0  0.5775861E+002  0.1683348E+03  0.7546771E-02  0.1179596E+00
          2   -1    0    0  504    0 -0.00000000000E+00  0.00000000000E+00  0.13845389833E+04  0.13845389833E+04  0.00000000000E+00 0. -1.
         21   -1    0    0  501  502  0.00000000000E+00 -0.00000000000E+00 -0.18967048857E+03  0.18967048857E+03  0.00000000000E+00 0. -1.
         21    1    1    2  503  505 -0.10402347072E+03 -0.53902120387E+02  0.89582604664E+02  0.14748343670E+03  0.00000000000E+00 0. -1.
         21    1    1    2  504  503  0.29804713595E+02  0.34157472599E+02  0.93192177291E+02  0.10363317903E+03  0.00000000000E+00 0. -1.
         21    1    1    2  505  502 -0.39556473760E+02 -0.83823205389E+02 -0.13608512532E+03  0.16465177105E+03  0.00000000000E+00 0. -1.
          2    1    1    2  501    0  0.11377523088E+03  0.10356785318E+03  0.11481788381E+04  0.11584410851E+04  0.00000000000E+00 0. -1.
<scales pt_clust_3="14000.00000" pt_clust_4="45.33270" pt_clust_5="92.20367" pt_clust_6="168.33481"></scales>
<clustering>
<clus scale="   45.333">  1  4  2 -1</clus>
<clus scale="   92.204">  2  5  1 -1</clus>
<clus scale="  168.335">  1  6  2 -1</clus>
<clus scale="   92.204">  2  3  1 -1</clus>
</clustering>
</event>
<event>
 6    0  0.5775861E+002  0.7999208E+02  0.7546771E-02  0.1329074E+00
         21   -1    0    0  505  502  0.00000000000E+00  0.00000000000E+00  0.55778363603E+02  0.55778363603E+02  0.00000000000E+00 0. -1.
          2   -1    0    0  504    0 -0.00000000000E+00 -0.00000000000E+00 -0.27142568486E+04  0.27142568486E+04  0.00000000000E+00 0. -1.
         21    1    1    2  503  502  0.96689626899E+02  0.22557013831E+01 -0.10624962780E+03  0.14367656575E+03  0.00000000000E+00 0. -1.
         21    1    1    2  504  503 -0.63083284903E+02 -0.28053492885E+02 -0.10075466243E+03  0.12213927009E+03  0.00000000000E+00 0. -1.
         21    1    1    2  505  501 -0.27552766191E+02  0.65917093374E+02 -0.22495312564E+02  0.74901650256E+02  0.00000000000E+00 0. -1.
          2    1    1    2  501    0 -0.60535758051E+01 -0.40119301873E+02 -0.24289788822E+04  0.24293177261E+04  0.00000000000E+00 0. -1.
<scales pt_clust_3="79.99208" pt_clust_4="14000.00000" pt_clust_5="65.61868" pt_clust_6="40.57344"></scales>
<clustering>
<clus scale="   40.573">  2  6  1 -1</clus>
<clus scale="   65.619">  1  5  2 -1</clus>
<clus scale="   79.992">  1  3  2 -1</clus>
<clus scale="   65.619">  1  3  2 -1</clus>
</clustering>
</event>
<event>
 6    0  0.5775861E+002  0.1956628E+03  0.7546771E-02  0.1153451E+00
          2   -1    0    0  504    0 -0.00000000000E+00  0.00000000000E+00  0.52984557605E+03  0.52984557605E+03  0.00000000000E+00 0. -1.
         21   -1    0    0  505  502  0.00000000000E+00 -0.00000000000E+00 -0.56276661124E+03  0.56276661124E+03  0.00000000000E+00 0.  1.
         21    1    1    2  503  501 -0.14999765817E+03 -0.83497553402E+00  0.17995024597E+03  0.23426925890E+03  0.00000000000E+00 0.  1.
         21    1    1    2  504  502  0.41788299912E+02  0.20690473556E+02 -0.26999669697E+03  0.27399374825E+03  0.00000000000E+00 0.  1.
         21    1    1    2  505  503  0.16633993585E+03 -0.57396158978E+02 -0.22966663363E+03  0.28932690149E+03  0.00000000000E+00 0.  1.
          2    1    1    2  501    0 -0.58130577588E+02  0.37540660956E+02  0.28679204944E+03  0.29502227865E+03  0.00000000000E+00 0. -1.
<scales pt_clust_3="14000.00000" pt_clust_4="46.63001" pt_clust_5="195.66275" pt_clust_6="68.86312"></scales>
<clustering>
<clus scale="   46.630">  2  4  1 -1</clus>
<clus scale="   68.863">  1  6  2 -1</clus>
<clus scale="  195.663">  2  5  1 -1</clus>
<clus scale="   46.630">  2  3  1 -1</clus>
</clustering>
</event>
<event>
 6    0  0.5775861E+002  0.1578055E+03  0.7546771E-02  0.1191197E+00
         21   -1    0    0  504  502  0.00000000000E+00  0.00000000000E+00  0.23619748044E+03  0.23619748044E+03  0.00000000000E+00 0. -1.
          2   -1    0    0  505    0 -0.00000000000E+00 -0.00000000000E+00 -0.52722210004E+03  0.52722210004E+03  0.00000000000E+00 0. -1.
         21    1    1    2  503  501  0.17420520722E+03 -0.14243908753E+03 -0.53963081487E+02  0.23140519018E+03  0.00000000000E+00 0. -1.
         21    1    1    2  504  503 -0.10255039116E+03 -0.48223660819E+01  0.10166256505E+03  0.14448223100E+03  0.00000000000E+00 0. -1.
         21    1    1    2  505  502 -0.61832570607E+02  0.10206663777E+03 -0.14219735647E+03  0.18563661686E+03  0.00000000000E+00 0. -1.
          2    1    1    2  501    0 -0.98222454568E+01  0.45194815839E+02 -0.19652674671E+03  0.20189554244E+03  0.00000000000E+00 0. -1.
<scales pt_clust_3="14000.00000" pt_clust_4="103.20849" pt_clust_5="157.80554" pt_clust_6="46.24984"></scales>
<clustering>
<clus scale="   46.250">  2  6  1 -1</clus>
<clus scale="  103.208">  1  4  2 -1</clus>
<clus scale="  157.806">  2  5  1 -1</clus>
<clus scale="  103.208">  1  3  2 -1</clus>
</clustering>
</event>
<event>
 6    0  0.5775861E+002  0.8209310E+02  0.7546771E-02  0.1323214E+00
         21   -1    0    0  503  502  0.00000000000E+00  0.00000000000E+00  0.51559887404E+03  0.51559887404E+03  0.00000000000E+00 0. -1.
          1   -1    0    0  505    0 -0.00000000000E+00 -0.00000000000E+00 -0.20642226561E+04  0.20642226561E+04  0.00000000000E+00 0. -1.
         21    1    1    2  503  501  0.95843783218E+02  0.85015277708E+01 -0.14096652297E+04  0.14129452808E+04  0.00000000000E+00 0. -1.
         21    1    1    2  504  502 -0.81677163638E+02  0.79562608340E+01  0.50405253810E+03  0.51068916408E+03  0.00000000000E+00 0. -1.
         21    1    1    2  505  504 -0.27351796269E+02 -0.45098719197E+02 -0.10743958601E+03  0.11968826122E+03  0.00000000000E+00 0. -1.
          1    1    1    2  501    0  0.13185176689E+02  0.28640930592E+02 -0.53557150444E+03  0.53649882400E+03  0.00000000000E+00 0. -1.
<scales pt_clust_3="82.09310" pt_clust_4="14000.00000" pt_clust_5="50.41756" pt_clust_6="31.53017"></scales>
<clustering>
<clus scale="   31.530">  2  6  1 -1</clus>
<clus scale="   50.418">  2  5  1 -1</clus>
<clus scale="   82.093">  2  3  1 -1</clus>
<clus scale="   82.093">  1  3  2 -1</clus>
</clustering>
</event>
<event>
 6    0  0.5775861E+002  0.7922832E+02  0.7546771E-02  0.1331256E+00
         21   -1    0    0  504  502  0.00000000000E+00  0.00000000000E+00  0.68655891849E+03  0.68655891849E+03  0.00000000000E+00 0.  1.
          1   -1    0    0  505    0 -0.00000000000E+00 -0.00000000000E+00 -0.23866786090E+03  0.23866786090E+03  0.00000000000E+00 0.  1.
         21    1    1    2  503  501  0.99852695173E+02 -0.74559550114E+02  0.20234403882E+01  0.12463459214E+03  0.00000000000E+00 0.  1.
         21    1    1    2  504  503 -0.50235855267E+02 -0.36341733193E+02  0.55059656744E+03  0.55407665787E+03  0.00000000000E+00 0.  1.
         21    1    1    2  505  502 -0.14947599060E+02  0.44875153479E+02  0.53610471843E+02  0.71493306041E+02  0.00000000000E+00 0. -1.
          1    1    1    2  501    0 -0.34669240846E+02  0.66026129829E+02 -0.15833942207E+03  0.17502222334E+03  0.00000000000E+00 0.  1.
<scales pt_clust_3="79.22832" pt_clust_4="63.55655" pt_clust_5="47.29916" pt_clust_6="14000.00000"></scales>
<clustering>
<clus scale="   47.299">  1  5  2 -1</clus>
<clus scale="   63.557">  1  4  2 -1</clus>
<clus scale="   79.228">  1  3  2 -1</clus>
<clus scale="   47.299">  1  3  2 -1</clus>
</clustering>
</event>
<event>
 6    0  0.5775861E+002  0.8475825E+02  0.7546771E-02  0.1316066E+00
          2   -1    0    0  505    0 -0.00000000000E+00  0.00000000000E+00  0.94196710597E+03  0.94196710597E+03  0.00000000000E+00 0.  1.
         21   -1    0    0  501  502  0.00000000000E+00 -0.00000000000E+00 -0.96740381417E+02  0.96740381417E+02  0.00000000000E+00 0.  1.
         21    1    1    2  503  502 -0.71463170475E+01 -0.79155644157E+02 -0.45956855785E+02  0.91808052168E+02  0.00000000000E+00 0.  1.
         21    1    1    2  504  503  0.58347875866E+02  0.12694054749E+03  0.18587007331E+03  0.23252109875E+03  0.00000000000E+00 0.  1.
         21    1    1    2  505  504 -0.68626313956E+02 -0.10876238741E+02  0.35849493395E+03  0.36516637469E+03  0.00000000000E+00 0.  1.
          2    1    1    2  501    0  0.17424755138E+02 -0.36908664589E+02  0.34681857308E+03  0.34921196178E+03  0.00000000000E+00 0.  1.
<scales pt_clust_3="84.75825" pt_clust_4="14000.00000" pt_clust_5="66.91970" pt_clust_6="40.81509"></scales>
<clustering>
<clus scale="   40.815">  1  6  2 -1</clus>
<clus scale="   66.920">  1  5  2 -1</clus>
<clus scale="   84.758">  2  3  1 -1</clus>
<clus scale="   84.758">  2  3  1 -1</clus>
</clustering>
</event>
<event>
 6    0  0.5775861E+002  0.1174152E+03  0.7546771E-02  0.1247423E+00
         21   -1    0    0  504  502  0.00000000000E+00  0.00000000000E+00  0.58414587345E+03  0.58414587345E+03  0.00000000000E+00 0. -1.
          2   -1    0    0  505    0 -0.00000000000E+00 -0.00000000000E+00 -0.18581780700E+04  0.18581780700E+04  0.00000000000E+00 0. -1.
         21    1    1    2  503  502  0.53289903061E+02 -0.20100746945E+02  0.29849855450E+03  0.30388359751E+03  0.00000000000E+00 0. -1.
         21    1    1    2  504  501 -0.58372328176E+02 -0.78169141304E+02  0.25207359883E+03  0.27029399286E+03  0.00000000000E+00 0. -1.
         21    1    1    2  505  503  0.86546437197E+02  0.12647053292E+02 -0.76939591405E+02  0.11649006170E+03  0.00000000000E+00 0.  1.
          2    1    1    2  501    0 -0.81464012082E+02  0.85622834957E+02 -0.17476647585E+04  0.17516562914E+04  0.00000000000E+00 0. -1.
<scales pt_clust_3="56.95484" pt_clust_4="14000.00000" pt_clust_5="90.96814" pt_clust_6="117.41521"></scales>
<clustering>
<clus scale="   56.955">  1  3  2 -1</clus>
<clus scale="   90.968">  1  5  2 -1</clus>
<clus scale="  117.415">  2  6  1 -1</clus>
<clus scale="   56.955">  1  3  2 -1</clus>
</clustering>
</event>
<event>
 6    0  0.5775861E+002  0.7385851E+02  0.7546771E-02  0.1347443E+00
         -1   -1    0    0    0  501 -0.00000000000E+00  0.00000000000E+00  0.18595105021E+04  0.18595105021E+04  0.00000000000E+00 0.  1.
         21   -1    0    0  501  502  0.00000000000E+00 -0.00000000000E+00 -0.46628477794E+03  0.46628477794E+03  0.00000000000E+00 0.  1.
         21    1    1    2  503  505 -0.67164225337E+02  0.79692227175E+01  0.44640972062E+02  0.81039237795E+02  0.00000000000E+00 0. -1.
         21    1    1    2  504  503  0.40887587738E+02 -0.76411519533E+02  0.66749779079E+02  0.10938943347E+03  0.00000000000E+00 0. -1.
         21    1    1    2  505  502  0.66028240065E+02  0.35120696024E+02 -0.42309185751E+03  0.42965091838E+03  0.00000000000E+00 0.  1.
         -1    1    1    2    0  504 -0.39751602466E+02  0.33321600792E+02  0.17049268306E+04  0.17057156904E+04  0.00000000000E+00 0.  1.
<scales pt_clust_3="73.85851" pt_clust_4="60.19085" pt_clust_5="14000.00000" pt_clust_6="51.87021"></scales>
<clustering>
<clus scale="   51.870">  1  6  2 -1</clus>
<clus scale="   60.191">  1  4  2 -1</clus>
<clus scale="   73.859">  1  3  2 -1</clus>
<clus scale="   73.859">  2  3  1 -1</clus>
</clustering>
</event>
<event>
 6    0  0.5775861E+002  0.9205229E+02  0.7546771E-02  0.1297957E+00
          1   -1    0    0  504    0 -0.00000000000E+00  0.00000000000E+00  0.40324436107E+04  0.40324436107E+04  0.00000000000E+00 0.  1.
         21   -1    0    0  503  502  0.00000000000E+00 -0.00000000000E+00 -0.10159776117E+03  0.10159776117E+03  0.00000000000E+00 0. -1.
         21    1    1    2  503  501 -0.53860133399E+02  0.42176196738E+02  0.15405623705E+03  0.16856176825E+03  0.00000000000E+00 0. -1.
         21    1    1    2  504  505  0.83658294535E+02 -0.71454405561E+02  0.64084226196E+03  0.65021784583E+03  0.00000000000E+00 0.  1.
         21    1    1    2  505  502 -0.52014006149E+02 -0.11643043548E+02 -0.81551951423E+02  0.97425551471E+02  0.00000000000E+00 0. -1.
          1    1    1    2  501    0  0.22215845013E+02  0.40921252371E+02  0.32174993020E+04  0.32178362063E+04  0.00000000000E+00 0.  1.
<scales pt_clust_3="92.05229" pt_clust_4="14000.00000" pt_clust_5="53.00404" pt_clust_6="46.56278"></scales>
<clustering>
<clus scale="   46.563">  1  6  2 -1</clus>
<clus scale="   53.004">  2  5  1 -1</clus>
<clus scale="   92.052">  2  3  1 -1</clus>
<clus scale="   53.004">  2  3  1 -1</clus>
</clustering>
</event>
<event>
 6    0  0.5775861E+002  0.7701293E+02  0.7546771E-02  0.1337749E+00
          2   -1    0    0  503    0 -0.00000000000E+00  0.00000000000E+00  0.15000084011E+04  0.15000084011E+04  0.00000000000E+00 0.  1.
         21   -1    0    0  504  502  0.00000000000E+00 -0.00000000000E+00 -0.20773311491E+03  0.20773311491E+03  0.00000000000E+00 0. -1.
         21    1    1    2  503  505 -0.26456552805E+01  0.51685680972E+02 -0.89742211732E+01  0.52525667584E+02  0.00000000000E+00 0. -1.
         21    1    1    2  504  501 -0.73598148619E+02 -0.11073257351E+03  0.28123453438E+02  0.13590187250E+03  0.00000000000E+00 0. -1.
         21    1    1    2  505  502  0.33972213015E+02  0.19785806576E+02 -0.11934230951E+03  0.12565100970E+03  0.00000000000E+00 0. -1.
          2    1    1    2  501    0  0.42271590885E+02  0.39261085958E+02  0.13924683635E+04  0.13936629663E+04  0.00000000000E+00 0.  1.
<scales pt_clust_3="14000.00000" pt_clust_4="77.01293" pt_clust_5="39.31398" pt_clust_6="57.96042"></scales>
<clustering>
<clus scale="   39.314">  2  5  1 -1</clus>
<clus scale="   57.960">  1  6  2 -1</clus>
<clus scale="   77.013">  1  4  2 -1</clus>
<clus scale="   39.314">  2  3  1 -1</clus>
</clustering>
</event>
<event>
 6    0  0.5775861E+002  0.1180405E+03  0.7546771E-02  0.1246365E+00
          1   -1    0    0  505    0 -0.00000000000E+00  0.00000000000E+00  0.17793076319E+04  0.17793076319E+04  0.00000000000E+00 0.  1.
         21   -1    0    0  504  502  0.00000000000E+00 -0.00000000000E+00 -0.15426082755E+03  0.15426082755E+03  0.00000000000E+00 0. -1.
         21    1    1    2  503  502 -0.33673059390E+02  0.62199323256E+02 -0.11054136341E+03  0.13123270845E+03  0.00000000000E+00 0. -1.
         21    1    1    2  504  501  0.16171290670E+02 -0.31236697891E+02  0.13489920406E+02  0.37672534951E+02  0.00000000000E+00 0.  1.
         21    1    1    2  505  503 -0.10147617161E+03 -0.42361459311E+02  0.13983693112E+03  0.17789399637E+03  0.00000000000E+00 0.  1.
          1    1    1    2  501    0  0.11897794033E+03  0.11398833945E+02  0.15822613163E+04  0.15867692197E+04  0.00000000000E+00 0.  1.
<scales pt_clust_3="40.82923" pt_clust_4="35.17445" pt_clust_5="14000.00000" pt_clust_6="118.04053"></scales>
<clustering>
<clus scale="   35.174">  2  4  1 -1</clus>
<clus scale="   40.829">  2  3  1 -1</clus>
<clus scale="  118.041">  1  6  2 -1</clus>
<clus scale="   35.174">  2  3  1 -1</clus>
</clustering>
</event>
<event>
 6    0  0.5775861E+002  0.1130774E+03  0.7546771E-02  0.1254975E+00
          1   -1    0    0  505    0 -0.00000000000E+00  0.00000000000E+00  0.20241565173E+04  0.20241565173E+04  0.00000000000E+00 0.  1.
         21   -1    0    0  503  502  0.00000000000E+00 -0.00000000000E+00 -0.25483455421E+02  0.25483455421E+02  0.00000000000E+00 0. -1.
         21    1    1    2  503  501 -0.32310278137E+02 -0.15477846966E+01  0.79488733718E+02  0.85818462459E+02  0.00000000000E+00 0. -1.
         21    1    1    2  504  502  0.28000846241E+02 -0.12737443007E+03  0.20542154762E+03  0.24332345767E+03  0.00000000000E+00 0. -1.
         21    1    1    2  505  504  0.20971494922E+01  0.80816286014E+02  0.56807572810E+03  0.57379935777E+03  0.00000000000E+00 0.  1.
          1    1    1    2  501    0  0.22122824037E+01  0.48105928753E+02  0.11456870524E+04  0.11466986948E+04  0.00000000000E+00 0.  1.
<scales pt_clust_3="32.34733" pt_clust_4="14000.00000" pt_clust_5="113.07741" pt_clust_6="48.09363"></scales>
<clustering>
<clus scale="   32.347">  2  3  1 -1</clus>
<clus scale="   48.094">  1  6  2 -1</clus>
<clus scale="  113.077">  1  5  2 -1</clus>
<clus scale="   32.347">  2  3  1 -1</clus>
</clustering>
</event>
<event>
 6    0  0.5775861E+002  0.9938500E+02  0.7546771E-02  0.1281595E+00
          1   -1    0    0  505    0 -0.00000000000E+00  0.00000000000E+00  0.98743659342E+03  0.98743659342E+03  0.00000000000E+00 0.  1.
         21   -1    0    0  503  502  0.00000000000E+00 -0.00000000000E+00 -0.24985876096E+03  0.24985876096E+03  0.00000000000E+00 0.  1.
         21    1    1    2  503  501 -0.35793344220E+02 -0.14275484615E+02 -0.14054443404E+02  0.41018048842E+02  0.00000000000E+00 0. -1.
         21    1    1    2  504  502 -0.13673089152E+02  0.39644876034E+02 -0.17444395354E+03  0.17941394173E+03  0.00000000000E+00 0.  1.
         21    1    1    2  505  504  0.14566812413E+03 -0.17820288299E+02  0.83633867590E+02  0.16891237039E+03  0.00000000000E+00 0. -1.
          1    1    1    2  501    0 -0.96201690758E+02 -0.75491031203E+01  0.84244236181E+03  0.84795099342E+03  0.00000000000E+00 0.  1.
<scales pt_clust_3="38.53509" pt_clust_4="50.76717" pt_clust_5="99.38500" pt_clust_6="14000.00000"></scales>
<clustering>
<clus scale="   38.535">  2  3  1 -1</clus>
<clus scale="   50.767">  2  4  1 -1</clus>
<clus scale="   99.385">  2  5  1 -1</clus>
<clus scale="   38.535">  2  3  1 -1</clus>
</clustering>
</event>
<event>
 6    0  0.5775861E+002  0.1742445E+03  0.7546771E-02  0.1173492E+00
          2   -1    0    0  504    0 -0.00000000000E+00  0.00000000000E+00  0.28499026792E+04  0.28499026792E+04  0.00000000000E+00 0. -1.
         21   -1    0    0  503  502  0.00000000000E+00 -0.00000000000E+00 -0.15357106645E+03  0.15357106645E+03  0.00000000000E+00 0. -1.
         21    1    1    2  503  501  0.11739414055E+03 -0.43622020680E+02  0.12606566660E+03  0.17769866971E+03  0.00000000000E+00 0. -1.
         21    1    1    2  504  505 -0.16374469806E+03  0.20775815502E+02  0.13955583857E+04  0.14052854402E+04  0.00000000000E+00 0. -1.
         21    1    1    2  505  502  0.54032266692E+02 -0.50993851017E+02 -0.11049193404E+03  0.13314776067E+03  0.00000000000E+00 0. -1.
          2    1    1    2  501    0 -0.76817091759E+01  0.73840056195E+02  0.12851994945E+04  0.12873418751E+04  0.00000000000E+00 0. -1.
<scales pt_clust_3="14000.00000" pt_clust_4="174.24455" pt_clust_5="73.88895" pt_clust_6="74.23855"></scales>
<clustering>
<clus scale="   74.239">  1  6  2 -1</clus>
<clus scale="   73.889">  2  5  1 -1</clus>
<clus scale="  174.245">  1  4  2 -1</clus>
<clus scale="   73.889">  2  3  1 -1</clus>
</clustering>
</event>
<event>
 6    0  0.5775861E+002  0.9223216E+02  0.7546771E-02  0.1297534E+00
         -3   -1    0    0    0  501 -0.00000000000E+00  0.00000000000E+00  0.23323859915E+03  0.23323859915E+03  0.00000000000E+00 0. -1.
         21   -1    0    0  505  502  0.00000000000E+00 -0.00000000000E+00 -0.36167075523E+03  0.36167075523E+03  0.00000000000E+00 0.  1.
         21    1    1    2  503  502 -0.81384169790E+02 -0.42221935550E+02 -0.10208544463E+03  0.13721338469E+03  0.00000000000E+00 0.  1.
         21    1    1    2  504  501  0.10589014468E+03  0.62028536414E+02 -0.87503553966E+02  0.15072204227E+03  0.00000000000E+00 0.  1.
         21    1    1    2  505  504  0.41424420773E+02 -0.31809166744E+01 -0.11279618132E+03  0.12020432350E+03  0.00000000000E+00 0.  1.
         -3    1    1    2    0  503 -0.65930395659E+02 -0.16625684189E+02  0.17395302384E+03  0.18676960392E+03  0.00000000000E+00 0. -1.
<scales pt_clust_3="14000.00000" pt_clust_4="92.23216" pt_clust_5="41.54637" pt_clust_6="66.96567"></scales>
<clustering>
<clus scale="   41.546">  2  5  1 -1</clus>
<clus scale="   66.966">  1  6  2 -1</clus>
<clus scale="   92.232">  1  4  2 -1</clus>
<clus scale="   41.546">  2  3  1 -1</clus>
</clustering>
</event>
<event>
 6    0  0.5775861E+002  0.1594588E+03  0.7546771E-02  0.1189309E+00
         21   -1    0    0  503  502  0.00000000000E+00  0.00000000000E+00  0.12333842921E+04  0.12333842921E+04  0.00000000000E+00 0.  1.
         -4   -1    0    0    0  501 -0.00000000000E+00 -0.00000000000E+00 -0.18599613218E+03  0.18599613218E+03  0.00000000000E+00 0. -1.
         21    1    1    2  503  505 -0.22254312130E+02  0.16171985260E+03  0.65848949523E+03  0.67842242037E+03  0.00000000000E+00 0.  1.
         21    1    1    2  504  502  0.38844678085E+02  0.34511336465E+01  0.47508142403E+03  0.47667932491E+03  0.00000000000E+00 0.  1.
         21    1    1    2  505  501  0.52259529392E+02 -0.81896423215E+02  0.33755566074E+02  0.10284707477E+03  0.00000000000E+00 0. -1.
         -4    1    1    2    0  504 -0.68849895348E+02 -0.83274563029E+02 -0.11993832543E+03  0.16143160423E+03  0.00000000000E+00 0. -1.
<scales pt_clust_3="14000.00000" pt_clust_4="38.99768" pt_clust_5="98.82082" pt_clust_6="159.45884"></scales>
<clustering>
<clus scale="   38.998">  1  4  2 -1</clus>
<clus scale="   98.821">  2  5  1 -1</clus>
<clus scale="  159.459">  2  6  1 -1</clus>
<clus scale="   38.998">  1  3  2 -1</clus>
</clustering>
</event>
<event>
 6    0  0.5775861E+002  0.1078822E+03  0.7546771E-02  0.1264543E+00
          2   -1    0    0  505    0 -0.00000000000E+00  0.00000000000E+00  0.25093461818E+03  0.25093461818E+03  0.00000000000E+00 0. -1.
         21   -1    0    0  504  502  0.00000000000E+00 -0.00000000000E+00 -0.17647678910E+03  0.17647678910E+03  0.00000000000E+00 0. -1.
         21    1    1    2  503  501  0.99653030137E+02 -0.41687155277E+02  0.50579404093E+02  0.11927624009E+03  0.00000000000E+00 0.  1.
         21    1    1    2  504  503 -0.40894204927E+02  0.13456597088E+03 -0.43071421693E+01  0.14070852138E+03  0.00000000000E+00 0. -1.
         21    1    1    2  505  502  0.26131312786E+02 -0.35802191864E+02 -0.26287012842E+02  0.51532994230E+02  0.00000000000E+00 0. -1.
          2    1    1    2  501    0 -0.84890137997E+02 -0.57076623734E+02  0.54472580000E+02  0.11589365159E+03  0.00000000000E+00 0. -1.
<scales pt_clust_3="107.88220" pt_clust_4="14000.00000" pt_clust_5="44.32429" pt_clust_6="102.39108"></scales>
<clustering>
<clus scale="   44.324">  2  5  1 -1</clus>
<clus scale="  102.391">  1  6  2 -1</clus>
<clus scale="  107.882">  1  3  2 -1</clus>
<clus scale="   44.324">  2  3  1 -1</clus>
</clustering>
</event>
<event>
 6    0  0.5775861E+002  0.1424507E+03  0.7546771E-02  0.1210069E+00
          2   -1    0    0  504    0 -0.00000000000E+00  0.00000000000E+00  0.98856830519E+03  0.98856830519E+03  0.00000000000E+00 0. -1.
         21   -1    0    0  505  502  0.00000000000E+00 -0.00000000000E+00 -0.29461641713E+03  0.29461641713E+03  0.00000000000E+00 0. -1.
         21    1    1    2  503  501 -0.10779235143E+03  0.30352140487E+02 -0.38402238277E+02  0.11838570591E+03  0.00000000000E+00 0. -1.
         21    1    1    2  504  502  0.12100592427E+03 -0.33791255786E+02  0.36805391026E+03  0.38890611146E+03  0.00000000000E+00 0. -1.
         21    1    1    2  505  503 -0.32705975607E+02  0.28083574746E+02 -0.20309935391E+03  0.20762397639E+03  0.00000000000E+00 0. -1.
          2    1    1    2  501    0  0.19492402763E+02 -0.24644459446E+02  0.56739957000E+03  0.56826892857E+03  0.00000000000E+00 0. -1.
<scales pt_clust_3="14000.00000" pt_clust_4="142.45069" pt_clust_5="42.94296" pt_clust_6="31.42138"></scales>
<clustering>
<clus scale="   31.421">  1  6  2 -1</clus>
<clus scale="   42.943">  2  5  1 -1</clus>
<clus scale="  142.451">  1  4  2 -1</clus>
<clus scale="   42.943">  2  3  1 -1</clus>
</clustering>
</event>
<event>
 6    0  0.5775861E+002  0.1611202E+03  0.7546771E-02  0.1187438E+00
         21   -1    0    0  503  502  0.00000000000E+00  0.00000000000E+00  0.49798074650E+02  0.49798074650E+02  0.00000000000E+00 0. -1.
          4   -1    0    0  505    0 -0.00000000000E+00 -0.00000000000E+00 -0.29320658544E+04  0.29320658544E+04  0.00000000000E+00 0.  1.
         21    1    1    2  503  501  0.38576692232E+02 -0.56449255495E+02 -0.10244390354E+04  0.10267180805E+04  0.00000000000E+00 0. -1.
         21    1    1    2  504  502 -0.70725990427E+02 -0.11199646348E+02 -0.63409950916E+02  0.95647371503E+02  0.00000000000E+00 0. -1.
         21    1    1    2  505  504 -0.63563957314E+02  0.63671439277E+02 -0.33542541358E+02  0.96018388498E+02  0.00000000000E+00 0. -1.
          4    1    1    2  501    0  0.95713255510E+02  0.39774625665E+01 -0.17608762521E+04  0.17634800886E+04  0.00000000000E+00 0.  1.
<scales pt_clust_3="67.78334" pt_clust_4="71.60725" pt_clust_5="139.72194" pt_clust_6="67.78334"></scales>
<clustering>
<clus scale="   67.783">  3  6 -1 -1</clus>
<clus scale="   71.607">  1  4  2 -1</clus>
<clus scale="  139.722">  1  5  2 -1</clus>
<clus scale="   71.607">  1  3  2 -1</clus>
</clustering>
</event>
<event>
 6    0  0.5775861E+002  0.9100987E+02  0.7546771E-02  0.1300424E+00
         21   -1    0    0  504  502  0.00000000000E+00  0.00000000000E+00  0.34378911015E+02  0.34378911015E+02  0.00000000000E+00 0. -1.
          2   -1    0    0  503    0 -0.00000000000E+00 -0.00000000000E+00 -0.33362627339E+04  0.33362627339E+04  0.00000000000E+00 0. -1.
         21    1    1    2  503  502 -0.23328322758E+02  0.93711112774E+02 -0.10429184565E+03  0.14213645686E+03  0.00000000000E+00 0. -1.
         21    1    1    2  504  505 -0.30390106481E+02 -0.32572566209E+02 -0.52179213623E+02  0.68609044416E+02  0.00000000000E+00 0. -1.
         21    1    1    2  505  501  0.37247771226E+02 -0.10954169042E+03 -0.47128503240E+03  0.48527967211E+03  0.00000000000E+00 0. -1.
          2    1    1    2  501    0  0.16470658013E+02  0.48403143858E+02 -0.26741277312E+04  0.26746164715E+04  0.00000000000E+00 0. -1.
<scales pt_clust_3="14000.00000" pt_clust_4="44.54807" pt_clust_5="91.00987" pt_clust_6="50.74957"></scales>
<clustering>
<clus scale="   44.548">  1  4  2 -1</clus>
<clus scale="   50.750">  2  6  1 -1</clus>
<clus scale="   91.010">  2  5  1 -1</clus>
<clus scale="   44.548">  1  3  2 -1</clus>
</clustering>
</event>
<event>
 6    0  0.5775861E+002  0.1317952E+03  0.7546771E-02  0.1224816E+00
          2   -1    0    0  505    0 -0.00000000000E+00  0.00000000000E+00  0.51776114437E+03  0.51776114437E+03  0.00000000000E+00 0. -1.
         21   -1    0    0  504  502  0.00000000000E+00 -0.00000000000E+00 -0.65235653801E+02  0.65235653801E+02  0.00000000000E+00 0.  1.
         21    1    1    2  503  502 -0.91340511094E+02 -0.46890127522E+01  0.11596105678E+02  0.92192979529E+02  0.00000000000E+00 0.  1.
         21    1    1    2  504  501  0.95663231827E+02  0.35226727801E+02  0.21083915295E+03  0.23419121395E+03  0.00000000000E+00 0. -1.
         21    1    1    2  505  503 -0.39494248794E+02  0.15908877509E+02  0.42402937673E+02  0.60090741339E+02  0.00000000000E+00 0. -1.
          2    1    1    2  501    0  0.35171528060E+02 -0.46446592558E+02  0.18768729426E+03  0.19652186335E+03  0.00000000000E+00 0. -1.
<scales pt_clust_3="37.56254" pt_clust_4="119.74618" pt_clust_5="37.56254" pt_clust_6="58.26081"></scales>
<clustering>
<clus scale="   37.563">  3  5 -1 -1</clus>
<clus scale="   58.261">  1  6  2 -1</clus>
<clus scale="  119.746">  1  4  2 -1</clus>
<clus scale="  131.795">  2  3  1 -1</clus>
</clustering>
</event>
<event>
 6    0  0.5775861E+002  0.1073910E+03  0.7546771E-02  0.1265479E+00
          1   -1    0    0  504    0 -0.00000000000E+00  0.00000000000E+00  0.25351314041E+04  0.25351314041E+04  0.00000000000E+00 0.  1.
         21   -1    0    0  505  502  0.00000000000E+00 -0.00000000000E+00 -0.22153325435E+03  0.22153325435E+03  0.00000000000E+00 0. -1.
         21    1    1    2  503  502  0.51721896699E+02 -0.12156711505E+03  0.12426290364E+03  0.18136975294E+03  0.00000000000E+00 0.  1.
         21    1    1    2  504  503  0.55027110888E+02  0.50864835465E+02  0.36565411225E+03  0.37325345842E+03  0.00000000000E+00 0.  1.
         21    1    1    2  505  501 -0.36577991231E+02  0.16190637987E+02 -0.18607295968E+03  0.19032401983E+03  0.00000000000E+00 0. -1.
          1    1    1    2  501    0 -0.70171016355E+02  0.54511641598E+02  0.20097540935E+04  0.20117174272E+04  0.00000000000E+00 0.  1.
<scales pt_clust_3="14000.00000" pt_clust_4="73.24541" pt_clust_5="40.00108" pt_clust_6="107.39104"></scales>
<clustering>
<clus scale="   40.001">  2  5  1 -1</clus>
<clus scale="   73.245">  1  4  2 -1</clus>
<clus scale="  107.391">  1  6  2 -1</clus>
<clus scale="   40.001">  2  3  1 -1</clus>
</clustering>
</event>
<event>
 6    0  0.5775861E+002  0.1056346E+03  0.7546771E-02  0.1268874E+00
          1   -1    0    0  504    0 -0.00000000000E+00  0.00000000000E+00  0.14199905393E+04  0.14199905393E+04  0.00000000000E+00 0.  1.
         21   -1    0    0  503  502  0.00000000000E+00 -0.00000000000E+00 -0.83880492595E+03  0.83880492595E+03  0.00000000000E+00 0.  1.
         21    1    1    2  503  505 -0.24438277208E+02 -0.18391997676E+02 -0.21001856599E+03  0.21223405248E+03  0.00000000000E+00 0.  1.
         21    1    1    2  504  502  0.10681905911E+03 -0.14085423668E+01 -0.52517241262E+03  0.53592756820E+03  0.00000000000E+00 0.  1.
         21    1    1    2  505  501 -0.81869263177E+02 -0.86243401170E+02 -0.57907738827E+02  0.13226415506E+03  0.00000000000E+00 0.  1.
          1    1    1    2  501    0 -0.51151872420E+00  0.10604394121E+03  0.13742843308E+04  0.13783696895E+04  0.00000000000E+00 0.  1.
<scales pt_clust_3="30.58586" pt_clust_4="87.81469" pt_clust_5="14000.00000" pt_clust_6="105.63458"></scales>
<clustering>
<clus scale="   30.586">  2  3  1 -1</clus>
<clus scale="   87.815">  2  4  1 -1</clus>
<clus scale="  105.635">  1  6  2 -1</clus>
<clus scale="   30.586">  2  3  1 -1</clus>
</clustering>
</event>
<event>
 6    0  0.5775861E+002  0.8105337E+02  0.7546771E-02  0.1326088E+00
         -4   -1    0    0    0  501 -0.00000000000E+00  0.00000000000E+00  0.20277223699E+03  0.20277223699E+03  0.00000000000E+00 0. -1.
         21   -1    0    0  503  502  0.00000000000E+00 -0.00000000000E+00 -0.23032685967E+03  0.23032685967E+03  0.00000000000E+00 0. -1.
         21    1    1    2  503  501 -0.72114576768E+02  0.85385081423E+02 -0.64690343962E+01  0.11195076024E+03  0.00000000000E+00 0. -1.
         21    1    1    2  504  502  0.24517591541E+02  0.28730419189E+02 -0.85734457227E+02  0.93685358716E+02  0.00000000000E+00 0. -1.
         21    1    1    2  505  504 -0.11925299752E+02 -0.67412110909E+02 -0.53693154423E+02  0.87003220074E+02  0.00000000000E+00 0. -1.
         -4    1    1    2    0  505  0.59522284978E+02 -0.46703389704E+02  0.11834202337E+03  0.14045975763E+03  0.00000000000E+00 0. -1.
<scales pt_clust_3="81.05337" pt_clust_4="37.76969" pt_clust_5="53.03988" pt_clust_6="14000.00000"></scales>
<clustering>
<clus scale="   37.770">  2  4  1 -1</clus>
<clus scale="   53.040">  2  5  1 -1</clus>
<clus scale="   81.053">  2  3  1 -1</clus>
<clus scale="   37.770">  2  3  1 -1</clus>
</clustering>
</event>
<event>
 6    0  0.5775861E+002  0.1273533E+03  0.7546771E-02  0.1231437E+00
         21   -1    0    0  504  502  0.00000000000E+00  0.00000000000E+00  0.11881227387E+03  0.11881227387E+03  0.00000000000E+00 0.  1.
          1   -1    0    0  503    0 -0.00000000000E+00 -0.00000000000E+00 -0.31449439127E+04  0.31449439127E+04  0.00000000000E+00 0.  1.
         21    1    1    2  503  502  0.12695148046E+03 -0.32286647274E+02  0.48458644471E+02  0.13966870160E+03  0.00000000000E+00 0.  1.
         21    1    1    2  504  505 -0.12401668510E+03 -0.88794690674E+02 -0.24353969645E+03  0.28736078198E+03  0.00000000000E+00 0. -1.
         21    1    1    2  505  501  0.32778860648E+00  0.84828702709E+02 -0.66733831532E+03  0.67270828994E+03  0.00000000000E+00 0.  1.
          1    1    1    2  501    0 -0.32625839682E+01  0.36252635240E+02 -0.21637122716E+04  0.21640184131E+04  0.00000000000E+00 0.  1.
<scales pt_clust_3="14000.00000" pt_clust_4="127.35330" pt_clust_5="109.60376" pt_clust_6="36.39915"></scales>
<clustering>
<clus scale="   36.399">  2  6  1 -1</clus>
<clus scale="  109.604">  2  5  1 -1</clus>
<clus scale="  127.353">  2  4  1 -1</clus>
<clus scale="  127.353">  1  3  2 -1</clus>
</clustering>
</event>
<event>
 6    0  0.5775861E+002  0.1477828E+03  0.7546771E-02  0.1203224E+00
         -3   -1    0    0    0  501 -0.00000000000E+00  0.00000000000E+00  0.44925356043E+03  0.44925356043E+03  0.00000000000E+00 0. -1.
         21   -1    0    0  504  502  0.00000000000E+00 -0.00000000000E+00 -0.15560482986E+03  0.15560482986E+03  0.00000000000E+00 0.  1.
         21    1    1    2  503  505 -0.56455047553E+02 -0.22260902040E+02  0.20359010228E+01  0.60719560661E+02  0.00000000000E+00 0.  1.
         21    1    1    2  504  501  0.13505944585E+03  0.11752021933E+03 -0.25296927186E+02  0.18080926522E+03  0.00000000000E+00 0.  1.
         21    1    1    2  505  502 -0.14048495642E+02 -0.50349217653E+02  0.19650607533E+02  0.55843981990E+02  0.00000000000E+00 0.  1.
         -3    1    1    2    0  503 -0.64555902657E+02 -0.44910099632E+02  0.29725914920E+03  0.30748558242E+03  0.00000000000E+00 0. -1.
<scales pt_clust_3="49.75314" pt_clust_4="137.71703" pt_clust_5="49.75314" pt_clust_6="78.64084"></scales>
<clustering>
<clus scale="   49.753">  3  5 -1 -1</clus>
<clus scale="   78.641">  1  6  2 -1</clus>
<clus scale="  137.717">  1  4  2 -1</clus>
<clus scale="  147.783">  2  3  1 -1</clus>
</clustering>
</event>
<event>
 6    0  0.5775861E+002  0.9563450E+02  0.7546771E-02  0.1289753E+00
         21   -1    0    0  504  502  0.00000000000E+00  0.00000000000E+00  0.31189933798E+03  0.31189933798E+03  0.00000000000E+00 0.  1.
          2   -1    0    0  505    0 -0.00000000000E+00 -0.00000000000E+00 -0.77356657125E+03  0.77356657125E+03  0.00000000000E+00 0.  1.
         21    1    1    2  503  501  0.44372858852E+02  0.62879516821E+02 -0.11845916264E+03  0.14126343282E+03  0.00000000000E+00 0.  1.
         21    1    1    2  504  503  0.33682663077E+02 -0.96830716025E+02  0.15902601212E+03  0.18920883142E+03  0.00000000000E+00 0. -1.
         21    1    1    2  505  502 -0.47698902097E+02 -0.31599302538E+01  0.12090526848E+03  0.13001251620E+03  0.00000000000E+00 0.  1.
          2    1    1    2  501    0 -0.30356619833E+02  0.37111129457E+02 -0.62313935123E+03  0.62498112879E+03  0.00000000000E+00 0.  1.
<scales pt_clust_3="14000.00000" pt_clust_4="95.63450" pt_clust_5="47.80346" pt_clust_6="48.08286"></scales>
<clustering>
<clus scale="   47.803">  1  5  2 -1</clus>
<clus scale="   48.083">  2  6  1 -1</clus>
<clus scale="   95.635">  1  4  2 -1</clus>
<clus scale="   47.803">  1  3  2 -1</clus>
</clustering>
</event>
<event>
 6    0  0.5775861E+002  0.8792966E+02  0.7546771E-02  0.1307944E+00
         21   -1    0    0  501  502  0.00000000000E+00  0.00000000000E+00  0.90271968474E+02  0.90271968474E+02  0.00000000000E+00 0. -1.
          1   -1    0    0  505    0 -0.00000000000E+00 -0.00000000000E+00 -0.14401448831E+04  0.14401448831E+04  0.00000000000E+00 0. -1.
         21    1    1    2  503  504 -0.95241228746E+02 -0.19000312922E+02 -0.11590854635E+03  0.15121737553E+03  0.00000000000E+00 0. -1.
         21    1    1    2  504  502  0.46359902302E+02 -0.52755596620E+02  0.50497866945E+02  0.86501029371E+02  0.00000000000E+00 0. -1.
         21    1    1    2  505  503  0.50053029308E+02  0.10270922110E+03 -0.10502910117E+04  0.10564874344E+04  0.00000000000E+00 0. -1.
          1    1    1    2  501    0 -0.11717028642E+01 -0.30953311553E+02 -0.23417122353E+03  0.23621101226E+03  0.00000000000E+00 0. -1.
<scales pt_clust_3="14000.00000" pt_clust_4="70.56753" pt_clust_5="87.92966" pt_clust_6="30.97548"></scales>
<clustering>
<clus scale="   30.975">  2  6  1 -1</clus>
<clus scale="   70.568">  1  4  2 -1</clus>
<clus scale="   87.930">  2  5  1 -1</clus>
<clus scale="   70.568">  1  3  2 -1</clus>
</clustering>
</event>
<event>
 6    0  0.5775861E+002  0.1440384E+03  0.7546771E-02  0.1207996E+00
         21   -1    0    0  504  502  0.00000000000E+00  0.00000000000E+00  0.49568693700E+02  0.49568693700E+02  0.00000000000E+00 0. -1.
          1   -1    0    0  505    0 -0.00000000000E+00 -0.00000000000E+00 -0.78776996068E+03  0.78776996068E+03  0.00000000000E+00 0. -1.
         21    1    1    2  503  502 -0.59959299885E+02 -0.47998029126E+02 -0.44800416334E+02  0.88915722717E+02  0.00000000000E+00 0. -1.
         21    1    1    2  504  501  0.95654756208E+02  0.56291497910E+02 -0.25808412997E+03  0.28093768573E+03  0.00000000000E+00 0. -1.
         21    1    1    2  505  503 -0.42673231941E+02 -0.67367565211E+02 -0.10497210242E+03  0.13182767484E+03  0.00000000000E+00 0. -1.
          1    1    1    2  501    0  0.69777756172E+01  0.59074096427E+02 -0.33034461825E+03  0.33565757109E+03  0.00000000000E+00 0. -1.
<scales pt_clust_3="48.60762" pt_clust_4="135.25484" pt_clust_5="48.60762" pt_clust_6="59.48477"></scales>
<clustering>
<clus scale="   48.608">  3  5 -1 -1</clus>
<clus scale="   59.485">  2  6  1 -1</clus>
<clus scale="  135.255">  2  4  1 -1</clus>
<clus scale="  144.038">  1  3  2 -1</clus>
</clustering>
</event>
<event>
 6    0  0.5775861E+002  0.1130910E+03  0.7546771E-02  0.1254951E+00
         21   -1    0    0  504  502  0.00000000000E+00  0.00000000000E+00  0.36356327126E+03  0.36356327126E+03  0.00000000000E+00 0.  1.
          2   -1    0    0  505    0 -0.00000000000E+00 -0.00000000000E+00 -0.12741895461E+04  0.12741895461E+04  0.00000000000E+00 0.  1.
         21    1    1    2  503  501 -0.76863709269E+02  0.99893617109E+02 -0.45749473322E+03  0.47453998300E+03  0.00000000000E+00 0.  1.
         21    1    1    2  504  503  0.36721662869E+01  0.41249269384E+02 -0.14415061808E+02  0.43849527214E+02  0.00000000000E+00 0. -1.
         21    1    1    2  505  502  0.28914423647E+02 -0.14794104704E+03  0.32294107290E+03  0.35638958158E+03  0.00000000000E+00 0.  1.
          2    1    1    2  501    0  0.44277119335E+02  0.67981605474E+01 -0.76165755272E+03  0.76297372557E+03  0.00000000000E+00 0.  1.
<scales pt_clust_3="14000.00000" pt_clust_4="41.41240" pt_clust_5="113.09102" pt_clust_6="44.81468"></scales>
<clustering>
<clus scale="   41.412">  1  4  2 -1</clus>
<clus scale="   44.815">  2  6  1 -1</clus>
<clus scale="  113.091">  1  5  2 -1</clus>
<clus scale="   41.412">  1  3  2 -1</clus>
</clustering>
</event>
<event>
 6    0  0.5775861E+002  0.8666678E+02  0.7546771E-02  0.1311130E+00
          2   -1    0    0  505    0 -0.00000000000E+00  0.00000000000E+00  0.23842248926E+04  0.23842248926E+04  0.00000000000E+00 0. -1.
         21   -1    0    0  503  502  0.00000000000E+00 -0.00000000000E+00 -0.22832326550E+03  0.22832326550E+03  0.00000000000E+00 0. -1.
         21    1    1    2  503  504  0.24978378028E+02  0.47511580931E+02 -0.60780242085E+02  0.81089503139E+02  0.00000000000E+00 0. -1.
         21    1    1    2  504  501  0.80262553614E+02 -0.19910144332E+02  0.35218397888E+02  0.89882294751E+02  0.00000000000E+00 0.  1.
         21    1    1    2  505  502 -0.51250038046E+02  0.40895191221E+02 -0.12091428269E+03  0.13754725305E+03  0.00000000000E+00 0. -1.
          2    1    1    2  501    0 -0.53990893595E+02 -0.68496627820E+02  0.23023777540E+04  0.23040291071E+04  0.00000000000E+00 0. -1.
<scales pt_clust_3="53.67746" pt_clust_4="85.39992" pt_clust_5="86.66678" pt_clust_6="14000.00000"></scales>
<clustering>
<clus scale="   53.677">  2  3  1 -1</clus>
<clus scale="   85.400">  2  4  1 -1</clus>
<clus scale="   86.667">  2  5  1 -1</clus>
<clus scale="   53.677">  2  3  1 -1</clus>
</clustering>
</event>
<event>
 6    0  0.5775861E+002  0.9798417E+02  0.7546771E-02  0.1284593E+00
          3   -1    0    0  503    0 -0.00000000000E+00  0.00000000000E+00  0.12430317972E+04  0.12430317972E+04  0.00000000000E+00 0.  1.
         21   -1    0    0  505  502  0.00000000000E+00 -0.00000000000E+00 -0.19608386396E+03  0.19608386396E+03  0.00000000000E+00 0. -1.
         21    1    1    2  503  504  0.69951502934E+01  0.96759779912E+02  0.76736167890E+03  0.77346967192E+03  0.00000000000E+00 0.  1.
         21    1    1    2  504  502  0.25453817083E+02 -0.13054897892E+03  0.13200854245E+01  0.13301381630E+03  0.00000000000E+00 0. -1.
         21    1    1    2  505  501  0.30058329729E+01  0.38551987665E+02 -0.12343038764E+03  0.12934585953E+03  0.00000000000E+00 0. -1.
          3    1    1    2  501    0 -0.35454800349E+02 -0.47627886537E+01  0.40169655659E+03  0.40328631343E+03  0.00000000000E+00 0.  1.
<scales pt_clust_3="14000.00000" pt_clust_4="97.98417" pt_clust_5="38.64278" pt_clust_6="35.77327"></scales>
<clustering>
<clus scale="   35.773">  1  6  2 -1</clus>
<clus scale="   38.643">  2  5  1 -1</clus>
<clus scale="   97.984">  2  4  1 -1</clus>
<clus scale="   38.643">  2  3  1 -1</clus>
</clustering>
</event>
<event>
 6    0  0.5775861E+002  0.8829954E+02  0.7546771E-02  0.1307023E+00
          2   -1    0    0  505    0 -0.00000000000E+00  0.00000000000E+00  0.43340736751E+03  0.43340736751E+03  0.00000000000E+00 0. -1.
         21   -1    0    0  503  502  0.00000000000E+00 -0.00000000000E+00 -0.12228237604E+03  0.12228237604E+03  0.00000000000E+00 0.  1.
         21    1    1    2  503  501 -0.28793211310E+02 -0.33538274610E+02  0.18831172809E+02  0.48046622678E+02  0.00000000000E+00 0. -1.
         21    1    1    2  504  502  0.10586418923E+03 -0.17209855113E+02 -0.67532409427E+02  0.12674396237E+03  0.00000000000E+00 0.  1.
         21    1    1    2  505  504 -0.35700950063E+02  0.23343530316E+01  0.35575593194E+02  0.50454235408E+02  0.00000000000E+00 0. -1.
          2    1    1    2  501    0 -0.41370027852E+02  0.48413776692E+02  0.32425063489E+03  0.33044492310E+03  0.00000000000E+00 0. -1.
<scales pt_clust_3="46.10792" pt_clust_4="14000.00000" pt_clust_5="35.77719" pt_clust_6="88.29954"></scales>
<clustering>
<clus scale="   35.777">  1  5  2 -1</clus>
<clus scale="   46.108">  2  3  1 -1</clus>
<clus scale="   88.300">  1  6  2 -1</clus>
<clus scale="   46.108">  2  3  1 -1</clus>
</clustering>
</event>
<event>
 6    0  0.5775861E+002  0.1188124E+03  0.7546771E-02  0.1245069E+00
          2   -1    0    0  505    0 -0.00000000000E+00  0.00000000000E+00  0.88183485361E+03  0.88183485361E+03  0.00000000000E+00 0.  1.
         21   -1    0    0  501  502  0.00000000000E+00 -0.00000000000E+00 -0.15366338590E+03  0.15366338590E+03  0.00000000000E+00 0.  1.
         21    1    1    2  503  502 -0.31842476257E+02 -0.43581102389E+02 -0.43005661973E+02  0.69012627405E+02  0.00000000000E+00 0. -1.
         21    1    1    2  504  503  0.89199073647E+02  0.52954962555E+02 -0.42970444464E+02  0.11228161869E+03  0.00000000000E+00 0.  1.
         21    1    1    2  505  504 -0.10971071847E+03  0.73793495308E+02  0.64644697456E+03  0.65982998766E+03  0.00000000000E+00 0.  1.
          2    1    1    2  501    0  0.52354121080E+02 -0.83167355474E+02  0.16770059958E+03  0.19437400575E+03  0.00000000000E+00 0.  1.
<scales pt_clust_3="53.97458" pt_clust_4="66.45987" pt_clust_5="14000.00000" pt_clust_6="118.81239"></scales>
<clustering>
<clus scale="   53.975">  2  3  1 -1</clus>
<clus scale="   66.460">  2  4  1 -1</clus>
<clus scale="  118.812">  2  6  1 -1</clus>
<clus scale="   53.975">  2  3  1 -1</clus>
</clustering>
</event>
<event>
 6    0  0.5775861E+002  0.7110689E+02  0.7546771E-02  0.1356369E+00
         21   -1    0    0  505  502  0.00000000000E+00  0.00000000000E+00  0.11127325204E+03  0.11127325204E+03  0.00000000000E+00 0. -1.
          2   -1    0    0  503    0 -0.00000000000E+00 -0.00000000000E+00 -0.38768299805E+03  0.38768299805E+03  0.00000000000E+00 0. -1.
         21    1    1    2  503  502  0.45952269990E+02 -0.75494595114E+02  0.21399921468E+02  0.90934051090E+02  0.00000000000E+00 0. -1.
         21    1    1    2  504  501 -0.94187165057E+02  0.51710453562E+01 -0.72451395076E+02  0.11894186151E+03  0.00000000000E+00 0. -1.
         21    1    1    2  505  504 -0.52494313383E+01  0.30390489103E+02  0.18694785847E+02  0.36064295018E+02  0.00000000000E+00 0. -1.
          2    1    1    2  501    0  0.53484326405E+02  0.39933060655E+02 -0.24405305825E+03  0.25301604247E+03  0.00000000000E+00 0. -1.
<scales pt_clust_3="14000.00000" pt_clust_4="71.10689" pt_clust_5="30.84053" pt_clust_6="67.50998"></scales>
<clustering>
<clus scale="   30.841">  1  5  2 -1</clus>
<clus scale="   67.510">  2  6  1 -1</clus>
<clus scale="   71.107">  2  4  1 -1</clus>
<clus scale="   30.841">  1  3  2 -1</clus>
</clustering>
</event>
<event>
 6    0  0.5775861E+002  0.2761957E+03  0.7546771E-02  0.1097785E+00
         21   -1    0    0  501  502  0.00000000000E+00  0.00000000000E+00  0.61686359043E+03  0.61686359043E+03  0.00000000000E+00 0. -1.
          1   -1    0    0  503    0 -0.00000000000E+00 -0.00000000000E+00 -0.22616389110E+04  0.22616389110E+04  0.00000000000E+00 0. -1.
         21    1    1    2  503  505  0.30696478360E+03 -0.85427055053E+00 -0.11951443412E+04  0.12339360213E+04  0.00000000000E+00 0. -1.
         21    1    1    2  504  502 -0.21767102287E+02  0.31129553526E+02  0.31462001156E+03  0.31690472940E+03  0.00000000000E+00 0. -1.
         21    1    1    2  505  504 -0.25300311977E+03 -0.55121711923E+02  0.22169478220E+03  0.34087762935E+03  0.00000000000E+00 0. -1.
          1    1    1    2  501    0 -0.32194561542E+02  0.24846428948E+02 -0.98594577312E+03  0.98678412145E+03  0.00000000000E+00 0. -1.
<scales pt_clust_3="14000.00000" pt_clust_4="37.98494" pt_clust_5="276.19571" pt_clust_6="40.71784"></scales>
<clustering>
<clus scale="   37.985">  1  4  2 -1</clus>
<clus scale="   40.718">  2  6  1 -1</clus>
<clus scale="  276.196">  1  5  2 -1</clus>
<clus scale="   37.985">  1  3  2 -1</clus>
</clustering>
</event>
<event>
 6    0  0.5775861E+002  0.8289139E+02  0.7546771E-02  0.1321041E+00
         21   -1    0    0  503  502  0.00000000000E+00  0.00000000000E+00  0.55332511023E+02  0.55332511023E+02  0.00000000000E+00 0. -1.
          1   -1    0    0  505    0 -0.00000000000E+00 -0.00000000000E+00 -0.24567802393E+04  0.24567802393E+04  0.00000000000E+00 0.  1.
         21    1    1    2  503  501  0.26786203643E+02 -0.29218150863E+02 -0.10692252534E+02  0.41055149613E+02  0.00000000000E+00 0. -1.
         21    1    1    2  504  502  0.53409294890E+02  0.39492093039E+02 -0.61780009062E+01  0.66710912814E+02  0.00000000000E+00 0. -1.
         21    1    1    2  505  504 -0.11584306888E+03 -0.44880878944E+02 -0.39341046639E+03  0.41255994106E+03  0.00000000000E+00 0. -1.
          1    1    1    2  501    0  0.35647570351E+02  0.34606936768E+02 -0.19911670085E+04  0.19917867468E+04  0.00000000000E+00 0.  1.
<scales pt_clust_3="39.63838" pt_clust_4="82.89139" pt_clust_5="14000.00000" pt_clust_6="49.67509"></scales>
<clustering>
<clus scale="   39.638">  1  3  2 -1</clus>
<clus scale="   49.675">  2  6  1 -1</clus>
<clus scale="   82.891">  1  4  2 -1</clus>
<clus scale="   39.638">  1  3  2 -1</clus>
</clustering>
</event>
<event>
 6    0  0.5775861E+002  0.1434349E+03  0.7546771E-02  0.1208780E+00
          2   -1    0    0  503    0 -0.00000000000E+00  0.00000000000E+00  0.39397203737E+03  0.39397203737E+03  0.00000000000E+00 0. -1.
         21   -1    0    0  505  502  0.00000000000E+00 -0.00000000000E+00 -0.52872857959E+03  0.52872857959E+03  0.00000000000E+00 0. -1.
         21    1    1    2  503  502 -0.80019378261E+02  0.82243215500E+02 -0.37483791681E+03  0.39200830510E+03  0.00000000000E+00 0. -1.
         21    1    1    2  504  501  0.88590534226E+02 -0.93127451299E+02  0.54631785741E+01  0.12865011178E+03  0.00000000000E+00 0. -1.
         21    1    1    2  505  504 -0.55606385660E+01  0.50072323346E+02 -0.74774469175E+02  0.90163071748E+02  0.00000000000E+00 0. -1.
          2    1    1    2  501    0 -0.30105173992E+01 -0.39188087547E+02  0.30939266519E+03  0.31187912834E+03  0.00000000000E+00 0. -1.
<scales pt_clust_3="143.43489" pt_clust_4="14000.00000" pt_clust_5="46.81962" pt_clust_6="39.30355"></scales>
<clustering>
<clus scale="   39.304">  1  6  2 -1</clus>
<clus scale="   46.820">  2  5  1 -1</clus>
<clus scale="  143.435">  2  3  1 -1</clus>
<clus scale="   46.820">  2  3  1 -1</clus>
</clustering>
</event>
<event>
 6    0  0.5775861E+002  0.9698360E+02  0.7546771E-02  0.1286770E+00
          2   -1    0    0  504    0 -0.00000000000E+00  0.00000000000E+00  0.13780523745E+04  0.13780523745E+04  0.00000000000E+00 0.  1.
         21   -1    0    0  503  502  0.00000000000E+00 -0.00000000000E+00 -0.13948701958E+04  0.13948701958E+04  0.00000000000E+00 0. -1.
         21    1    1    2  503  501 -0.11386923394E+03 -0.41510975614E+02 -0.89454653944E+03  0.90271970997E+03  0.00000000000E+00 0. -1.
         21    1    1    2  504  505  0.42729130563E+02 -0.17758476574E+02 -0.84039215860E+02  0.95936082322E+02  0.00000000000E+00 0.  1.
         21    1    1    2  505  502  0.21357470762E+02 -0.23968562396E+02 -0.40389261655E+03  0.40516648336E+03  0.00000000000E+00 0. -1.
          2    1    1    2  501    0  0.49782632616E+02  0.83238014585E+02  0.13656605505E+04  0.13691002947E+04  0.00000000000E+00 0.  1.
<scales pt_clust_3="96.98360" pt_clust_4="48.91676" pt_clust_5="32.10348" pt_clust_6="14000.00000"></scales>
<clustering>
<clus scale="   32.103">  2  5  1 -1</clus>
<clus scale="   48.917">  2  4  1 -1</clus>
<clus scale="   96.984">  2  3  1 -1</clus>
<clus scale="   32.103">  2  3  1 -1</clus>
</clustering>
</event>
<event>
 6    0  0.5775861E+002  0.1296583E+03  0.7546771E-02  0.1227964E+00
          2   -1    0    0  504    0 -0.00000000000E+00  0.00000000000E+00  0.39702884698E+02  0.39702884698E+02  0.00000000000E+00 0. -1.
         21   -1    0    0  505  502  0.00000000000E+00 -0.00000000000E+00 -0.11331073127E+04  0.11331073127E+04  0.00000000000E+00 0. -1.
         21    1    1    2  503  501  0.49118158652E+02  0.57754748174E+01 -0.39493090703E+03  0.39801554109E+03  0.00000000000E+00 0. -1.
         21    1    1    2  504  502 -0.35374709734E+02 -0.66866639582E+02 -0.79078822151E+02  0.10943481023E+03  0.00000000000E+00 0. -1.
         21    1    1    2  505  503  0.72485626261E+02 -0.34849385101E+02 -0.42170642838E+03  0.42930753243E+03  0.00000000000E+00 0. -1.
          2    1    1    2  501    0 -0.86229075179E+02  0.95940549866E+02 -0.19768827046E+03  0.23605231367E+03  0.00000000000E+00 0. -1.
<scales pt_clust_3="34.48692" pt_clust_4="75.64732" pt_clust_5="34.48692" pt_clust_6="121.97183"></scales>
<clustering>
<clus scale="   34.487">  3  5 -1 -1</clus>
<clus scale="   75.647">  1  4  2 -1</clus>
<clus scale="  121.972">  1  6  2 -1</clus>
<clus scale="  129.658">  2  3  1 -1</clus>
</clustering>
</event>
<event>
 6    0  0.5775861E+002  0.7793459E+02  0.7546771E-02  0.1335017E+00
          1   -1    0    0  505    0 -0.00000000000E+00  0.00000000000E+00  0.81987099905E+02  0.81987099905E+02  0.00000000000E+00 0. -1.
         21   -1    0    0  504  502  0.00000000000E+00 -0.00000000000E+00 -0.12984013542E+04  0.12984013542E+04  0.00000000000E+00 0. -1.
         21    1    1    2  503  502 -0.13920395835E+02 -0.45468490896E+02 -0.11566017323E+04  0.11575788216E+04  0.00000000000E+00 0. -1.
         21    1    1    2  504  501 -0.12011878612E+02 -0.63329857810E+02 -0.52661761902E+02  0.83235913431E+02  0.00000000000E+00 0. -1.
         21    1    1    2  505  503 -0.18507935714E+02  0.87154361805E+02 -0.12014737679E+02  0.89904284590E+02  0.00000000000E+00 0. -1.
          1    1    1    2  501    0  0.44440210162E+02  0.21643986901E+02  0.48639775377E+01  0.49669434521E+02  0.00000000000E+00 0. -1.
<scales pt_clust_3="47.55167" pt_clust_4="77.93459" pt_clust_5="14000.00000" pt_clust_6="44.63231"></scales>
<clustering>
<clus scale="   47.552">  2  3  1 -1</clus>
<clus scale="   44.632">  1  6  2 -1</clus>
<clus scale="   77.935">  1  4  2 -1</clus>
<clus scale="   47.552">  2  3  1 -1</clus>
</clustering>
</event>
<event>
 6    0  0.5775861E+002  0.1016300E+03  0.7546771E-02  0.1276905E+00
         21   -1    0    0  503  502  0.00000000000E+00  0.00000000000E+00  0.79023177563E+02  0.79023177563E+02  0.00000000000E+00 0.  1.
          2   -1    0    0  505    0 -0.00000000000E+00 -0.00000000000E+00 -0.27479516235E+04  0.27479516235E+04  0.00000000000E+00 0.  1.
         21    1    1    2  503  501  0.17578407558E+02 -0.68291718660E+02  0.44801392257E+02  0.83545939446E+02  0.00000000000E+00 0.  1.
         21    1    1    2  504  502 -0.13301719372E+02 -0.32666186933E+02 -0.43128434992E+02  0.55714247835E+02  0.00000000000E+00 0.  1.
         21    1    1    2  505  504  0.23406379752E+02  0.13204246429E+03 -0.52978420822E+03  0.54649279800E+03  0.00000000000E+00 0.  1.
          2    1    1    2  501    0 -0.27683067938E+02 -0.31084558700E+02 -0.21408171950E+04  0.21412218158E+04  0.00000000000E+00 0.  1.
<scales pt_clust_3="101.62997" pt_clust_4="35.27060" pt_clust_5="14000.00000" pt_clust_6="41.71701"></scales>
<clustering>
<clus scale="   35.271">  1  4  2 -1</clus>
<clus scale="   41.717">  2  6  1 -1</clus>
<clus scale="  101.630">  1  3  2 -1</clus>
<clus scale="   35.271">  1  3  2 -1</clus>
</clustering>
</event>
<event>
 6    0  0.5775861E+002  0.1218827E+03  0.7546771E-02  0.1240023E+00
         21   -1    0    0  504  502  0.00000000000E+00  0.00000000000E+00  0.27811908691E+03  0.27811908691E+03  0.00000000000E+00 0.  1.
          2   -1    0    0  505    0 -0.00000000000E+00 -0.00000000000E+00 -0.12467017773E+03  0.12467017773E+03  0.00000000000E+00 0.  1.
         21    1    1    2  503  501 -0.77695425519E+02  0.16954207636E+02  0.22452115837E+02  0.82632450095E+02  0.00000000000E+00 0.  1.
         21    1    1    2  504  503  0.10338658585E+03  0.78779107125E+02  0.24052069453E+02  0.13218712455E+03  0.00000000000E+00 0.  1.
         21    1    1    2  505  502  0.50202492071E+01 -0.84409621841E+02  0.12475027204E+03  0.15070772222E+03  0.00000000000E+00 0.  1.
          2    1    1    2  501    0 -0.30711409539E+02 -0.11323692919E+02 -0.17805548151E+02  0.37261967770E+02  0.00000000000E+00 0.  1.
<scales pt_clust_3="32.52009" pt_clust_4="110.84252" pt_clust_5="84.55878" pt_clust_6="32.52009"></scales>
<clustering>
<clus scale="   32.520">  3  6 -1 -1</clus>
<clus scale="   84.559">  1  5  2 -1</clus>
<clus scale="  110.843">  1  4  2 -1</clus>
<clus scale="   84.559">  1  3  2 -1</clus>
</clustering>
</event>
<event>
 6    0  0.5775861E+002  0.2143079E+03  0.7546771E-02  0.1138199E+00
          1   -1    0    0  502    0 -0.00000000000E+00  0.00000000000E+00  0.15398120758E+04  0.15398120758E+04  0.00000000000E+00 0. -1.
         21   -1    0    0  504  502  0.00000000000E+00 -0.00000000000E+00 -0.54631773873E+03  0.54631773873E+03  0.00000000000E+00 0. -1.
         21    1    1    2  503  505 -0.85257357277E+02 -0.11263597802E+03 -0.38001845616E+03  0.40542534151E+03  0.00000000000E+00 0. -1.
         21    1    1    2  504  503 -0.16104138102E+02 -0.69547873738E+02 -0.12692283970E+03  0.14562162354E+03  0.00000000000E+00 0. -1.
         21    1    1    2  505  501  0.11510681618E+03  0.13053693253E+03  0.43809438117E+03  0.47139808728E+03  0.00000000000E+00 0. -1.
          1    1    1    2  501    0 -0.13745320801E+02  0.51646919227E+02  0.10623412518E+04  0.10636847622E+04  0.00000000000E+00 0. -1.
<scales pt_clust_3="40.20193" pt_clust_4="40.20193" pt_clust_5="206.71166" pt_clust_6="53.44472"></scales>
<clustering>
<clus scale="   40.202">  3  4 -1 -1</clus>
<clus scale="   53.445">  1  6  2 -1</clus>
<clus scale="  206.712">  1  5  2 -1</clus>
<clus scale="  214.308">  2  3  1 -1</clus>
</clustering>
</event>
<event>
 6    0  0.5775861E+002  0.9158359E+02  0.7546771E-02  0.1299062E+00
          2   -1    0    0  503    0 -0.00000000000E+00  0.00000000000E+00  0.35501537661E+04  0.35501537661E+04  0.00000000000E+00 0. -1.
         21   -1    0    0  504  502  0.00000000000E+00 -0.00000000000E+00 -0.25182190874E+02  0.25182190874E+02  0.00000000000E+00 0. -1.
         21    1    1    2  503  502 -0.30465031815E+02 -0.57012448338E+02  0.56448524611E+03  0.56817438388E+03  0.00000000000E+00 0. -1.
         21    1    1    2  504  505  0.58278214187E+02  0.77733860096E+02  0.93634702481E+02  0.13493094813E+03  0.00000000000E+00 0. -1.
         21    1    1    2  505  501 -0.69511932525E+02 -0.13489108546E+02  0.49880083738E+03  0.50380168736E+03  0.00000000000E+00 0. -1.
          2    1    1    2  501    0  0.41698750153E+02 -0.72323032119E+01  0.23680507892E+04  0.23684289376E+04  0.00000000000E+00 0. -1.
<scales pt_clust_3="14000.00000" pt_clust_4="91.58359" pt_clust_5="54.40609" pt_clust_6="42.32129"></scales>
<clustering>
<clus scale="   42.321">  1  6  2 -1</clus>
<clus scale="   54.406">  1  5  2 -1</clus>
<clus scale="   91.584">  2  4  1 -1</clus>
<clus scale="   91.584">  2  3  1 -1</clus>
</clustering>
</event>
<event>
 6    0  0.5775861E+002  0.6095442E+02  0.7546771E-02  0.1393870E+00
         21   -1    0    0  504  502  0.00000000000E+00  0.00000000000E+00  0.37238249580E+02  0.37238249580E+02  0.00000000000E+00 0.  1.
          2   -1    0    0  505    0 -0.00000000000E+00 -0.00000000000E+00 -0.23618633448E+04  0.23618633448E+04  0.00000000000E+00 0. -1.
         21    1    1    2  503  502 -0.28138172641E+02 -0.50902370488E+02 -0.30438652818E+01  0.58241507507E+02  0.00000000000E+00 0.  1.
         21    1    1    2  504  501 -0.48378952167E+02 -0.19145429122E+02 -0.18342666250E+03  0.19066308239E+03  0.00000000000E+00 0.  1.
         21    1    1    2  505  503  0.80081094573E+02  0.11158814221E+03 -0.82304674301E+03  0.83442844892E+03  0.00000000000E+00 0.  1.
          2    1    1    2  501    0 -0.35639697656E+01 -0.41540342603E+02 -0.13151078244E+04  0.13157685555E+04  0.00000000000E+00 0. -1.
<scales pt_clust_3="14000.00000" pt_clust_4="55.75452" pt_clust_5="60.95442" pt_clust_6="41.69295"></scales>
<clustering>
<clus scale="   41.693">  2  6  1 -1</clus>
<clus scale="   55.755">  2  4  1 -1</clus>
<clus scale="   60.954">  2  5  1 -1</clus>
<clus scale="   60.954">  1  3  2 -1</clus>
</clustering>
</event>
<event>
 6    0  0.5775861E+002  0.9659073E+02  0.7546771E-02  0.1287633E+00
         21   -1    0    0  503  502  0.00000000000E+00  0.00000000000E+00  0.73281095699E+03  0.73281095699E+03  0.00000000000E+00 0. -1.
          1   -1    0    0  504    0 -0.00000000000E+00 -0.00000000000E+00 -0.22517846762E+03  0.22517846762E+03  0.00000000000E+00 0.  1.
         21    1    1    2  503  501  0.69622825444E+02 -0.79341904660E+02  0.61103514193E+02  0.12196768057E+03  0.00000000000E+00 0.  1.
         21    1    1    2  504  505 -0.11396216252E+03  0.52807741745E+02 -0.87020256561E+01  0.12590376216E+03  0.00000000000E+00 0.  1.
         21    1    1    2  505  502 -0.13337759746E+01  0.49385080678E+02  0.57645880305E+03  0.57857187692E+03  0.00000000000E+00 0. -1.
          1    1    1    2  501    0  0.45673113051E+02 -0.22850917762E+02 -0.12122780222E+03  0.13154610496E+03  0.00000000000E+00 0.  1.
<scales pt_clust_3="14000.00000" pt_clust_4="96.59073" pt_clust_5="49.40309" pt_clust_6="50.31762"></scales>
<clustering>
<clus scale="   49.403">  1  5  2 -1</clus>
<clus scale="   50.318">  2  6  1 -1</clus>
<clus scale="   96.591">  2  4  1 -1</clus>
<clus scale="   49.403">  1  3  2 -1</clus>
</clustering>
</event>
<event>
 6    0  0.5775861E+002  0.1327439E+03  0.7546771E-02  0.1223440E+00
          1   -1    0    0  503    0 -0.00000000000E+00  0.00000000000E+00  0.23442182877E+04  0.23442182877E+04  0.00000000000E+00 0.  1.
         21   -1    0    0  505  502  0.00000000000E+00 -0.00000000000E+00 -0.77866252787E+03  0.77866252787E+03  0.00000000000E+00 0.  1.
         21    1    1    2  503  502 -0.17762781682E+02 -0.75622470997E+02  0.16911064819E+02  0.79500054378E+02  0.00000000000E+00 0. -1.
         21    1    1    2  504  501 -0.75695589171E+02 -0.22433982793E+02 -0.26316441790E+03  0.27475191838E+03  0.00000000000E+00 0.  1.
         21    1    1    2  505  504 -0.38750229393E+02  0.82336965114E+02 -0.47212625497E+03  0.48081613610E+03  0.00000000000E+00 0.  1.
          1    1    1    2  501    0  0.13220860025E+03  0.15719488677E+02  0.22839353679E+04  0.22878127067E+04  0.00000000000E+00 0.  1.
<scales pt_clust_3="77.68059" pt_clust_4="132.74394" pt_clust_5="60.59697" pt_clust_6="14000.00000"></scales>
<clustering>
<clus scale="   77.681">  2  3  1 -1</clus>
<clus scale="   60.597">  2  5  1 -1</clus>
<clus scale="  132.744">  2  4  1 -1</clus>
<clus scale="   77.681">  2  3  1 -1</clus>
</clustering>
</event>
<event>
 6    0  0.5775861E+002  0.7985039E+02  0.7546771E-02  0.1329477E+00
          2   -1    0    0  505    0 -0.00000000000E+00  0.00000000000E+00  0.92712571198E+03  0.92712571198E+03  0.00000000000E+00 0.  1.
         21   -1    0    0  504  502  0.00000000000E+00 -0.00000000000E+00 -0.46985173102E+03  0.46985173102E+03  0.00000000000E+00 0. -1.
         21    1    1    2  503  501  0.24502057524E+02 -0.10936150304E+03  0.29244197130E+03  0.31318141029E+03  0.00000000000E+00 0. -1.
         21    1    1    2  504  503 -0.18032031802E+02  0.56072951986E+02 -0.33737961083E+03  0.34248260090E+03  0.00000000000E+00 0. -1.
         21    1    1    2  505  502  0.31164615532E+02  0.22883933711E+02 -0.11545388938E+03  0.12175593726E+03  0.00000000000E+00 0. -1.
          2    1    1    2  501    0 -0.37634641254E+02  0.30404617343E+02  0.61766550987E+03  0.61955749455E+03  0.00000000000E+00 0.  1.
<scales pt_clust_3="79.85039" pt_clust_4="14000.00000" pt_clust_5="38.66404" pt_clust_6="48.35543"></scales>
<clustering>
<clus scale="   38.664">  2  5  1 -1</clus>
<clus scale="   48.355">  1  6  2 -1</clus>
<clus scale="   79.850">  1  3  2 -1</clus>
<clus scale="   38.664">  2  3  1 -1</clus>
</clustering>
</event>
<event>
 6    0  0.5775861E+002  0.4428205E+03  0.7546771E-02  0.1029885E+00
          1   -1    0    0  504    0 -0.00000000000E+00  0.00000000000E+00  0.13654053207E+04  0.13654053207E+04  0.00000000000E+00 0. -1.
         21   -1    0    0  505  502  0.00000000000E+00 -0.00000000000E+00 -0.16336759574E+04  0.16336759574E+04  0.00000000000E+00 0.  1.
         21    1    1    2  503  502 -0.23200000214E+02 -0.32981921198E+02 -0.70268089249E+03  0.70383697247E+03  0.00000000000E+00 0.  1.
         21    1    1    2  504  503  0.30224834688E+03 -0.93348833763E+02 -0.44119390270E+03  0.54288132012E+03  0.00000000000E+00 0.  1.
         21    1    1    2  505  501  0.16162683918E+03  0.24945045545E+03 -0.34112028218E+03  0.45245089433E+03  0.00000000000E+00 0.  1.
          1    1    1    2  501    0 -0.44067518584E+03 -0.12311970049E+03  0.12167244407E+04  0.12999120911E+04  0.00000000000E+00 0. -1.
<scales pt_clust_3="40.32427" pt_clust_4="442.82052" pt_clust_5="280.05176" pt_clust_6="14000.00000"></scales>
<clustering>
<clus scale="   40.324">  2  3  1 -1</clus>
<clus scale="  280.052">  2  5  1 -1</clus>
<clus scale="  442.821">  2  4  1 -1</clus>
<clus scale="   40.324">  2  3  1 -1</clus>
</clustering>
</event>
<event>
 6    0  0.5775861E+002  0.1120461E+03  0.7546771E-02  0.1256827E+00
         21   -1    0    0  505  502  0.00000000000E+00  0.00000000000E+00  0.21760274126E+03  0.21760274126E+03  0.00000000000E+00 0.  1.
          2   -1    0    0  502    0 -0.00000000000E+00 -0.00000000000E+00 -0.59065559426E+03  0.59065559426E+03  0.00000000000E+00 0. -1.
         21    1    1    2  503  504  0.80902670718E+02  0.29038999604E+02  0.28784015300E+02  0.90647808380E+02  0.00000000000E+00 0.  1.
         21    1    1    2  504  501 -0.12950174104E+03 -0.73448444150E+02  0.82372688404E+02  0.17014886034E+03  0.00000000000E+00 0.  1.
         21    1    1    2  505  503 -0.17729319425E+02  0.27074462553E+02  0.20374054904E+02  0.38242089418E+02  0.00000000000E+00 0.  1.
          2    1    1    2  501    0  0.66328389750E+02  0.17334981992E+02 -0.50458361160E+03  0.50921957738E+03  0.00000000000E+00 0. -1.
<scales pt_clust_3="112.04608" pt_clust_4="14000.00000" pt_clust_5="32.36287" pt_clust_6="68.43039"></scales>
<clustering>
<clus scale="   32.363">  1  5  2 -1</clus>
<clus scale="   68.430">  2  6  1 -1</clus>
<clus scale="  112.046">  1  3  2 -1</clus>
<clus scale="   32.363">  1  3  2 -1</clus>
</clustering>
</event>
<event>
 6    0  0.5775861E+002  0.1382229E+03  0.7546771E-02  0.1215740E+00
         21   -1    0    0  504  502  0.00000000000E+00  0.00000000000E+00  0.25426760326E+02  0.25426760326E+02  0.00000000000E+00 0.  1.
          2   -1    0    0  503    0 -0.00000000000E+00 -0.00000000000E+00 -0.31705389643E+04  0.31705389643E+04  0.00000000000E+00 0.  1.
         21    1    1    2  503  505 -0.12008571880E+03 -0.74527440973E+02 -0.10139301321E+04  0.10237329887E+04  0.00000000000E+00 0.  1.
         21    1    1    2  504  501 -0.22540183948E+02 -0.47962373764E+02 -0.70128456816E+02  0.87900225511E+02  0.00000000000E+00 0. -1.
         21    1    1    2  505  502 -0.71014146506E+01  0.14218987515E+03 -0.66101095922E+03  0.67616852847E+03  0.00000000000E+00 0.  1.
          2    1    1    2  501    0  0.14972731740E+03 -0.19700060413E+02 -0.14000426558E+04  0.14081639820E+04  0.00000000000E+00 0.  1.
<scales pt_clust_3="138.22287" pt_clust_4="52.99480" pt_clust_5="121.47111" pt_clust_6="14000.00000"></scales>
<clustering>
<clus scale="   52.995">  1  4  2 -1</clus>
<clus scale="  121.471">  1  5  2 -1</clus>
<clus scale="  138.223">  1  3  2 -1</clus>
<clus scale="   52.995">  1  3  2 -1</clus>
</clustering>
</event>
<event>
 6    0  0.5775861E+002  0.9684702E+02  0.7546771E-02  0.1287069E+00
          1   -1    0    0  504    0 -0.00000000000E+00  0.00000000000E+00  0.34917457284E+03  0.34917457284E+03  0.00000000000E+00 0. -1.
         21   -1    0    0  503  502  0.00000000000E+00 -0.00000000000E+00 -0.65607739944E+03  0.65607739944E+03  0.00000000000E+00 0.  1.
         21    1    1    2  503  505 -0.44640573927E+02  0.39822803204E+02 -0.50357330316E+03  0.50711409777E+03  0.00000000000E+00 0.  1.
         21    1    1    2  504  502  0.75233970491E+02 -0.46791388367E+02  0.90435495662E+01  0.89058240101E+02  0.00000000000E+00 0.  1.
         21    1    1    2  505  501 -0.52312737664E+02  0.64280871725E+02 -0.91412078643E+02  0.12338890191E+03  0.00000000000E+00 0.  1.
          1    1    1    2  501    0  0.21719341100E+02 -0.57312286562E+02  0.27903900564E+03  0.28569073250E+03  0.00000000000E+00 0. -1.
<scales pt_clust_3="59.82171" pt_clust_4="14000.00000" pt_clust_5="96.84702" pt_clust_6="60.12210"></scales>
<clustering>
<clus scale="   59.822">  2  3  1 -1</clus>
<clus scale="   60.122">  1  6  2 -1</clus>
<clus scale="   96.847">  2  5  1 -1</clus>
<clus scale="   59.822">  2  3  1 -1</clus>
</clustering>
</event>
<event>
 6    0  0.5775861E+002  0.1298581E+03  0.7546771E-02  0.1227666E+00
         21   -1    0    0  503  502  0.00000000000E+00  0.00000000000E+00  0.19979468829E+03  0.19979468829E+03  0.00000000000E+00 0. -1.
          2   -1    0    0  504    0 -0.00000000000E+00 -0.00000000000E+00 -0.11848508775E+04  0.11848508775E+04  0.00000000000E+00 0. -1.
         21    1    1    2  503  505  0.11759766700E+02  0.13706619222E+03  0.12370753898E+03  0.18501077904E+03  0.00000000000E+00 0. -1.
         21    1    1    2  504  502 -0.95453188167E+02 -0.42879525797E+02 -0.37708218215E+02  0.11122892872E+03  0.00000000000E+00 0.  1.
         21    1    1    2  505  501  0.70937365130E+02 -0.64599311136E+02 -0.26717071351E+03  0.28387562581E+03  0.00000000000E+00 0.  1.
          2    1    1    2  501    0  0.12756056336E+02 -0.29587355287E+02 -0.80388479645E+03  0.80453023221E+03  0.00000000000E+00 0. -1.
<scales pt_clust_3="14000.00000" pt_clust_4="104.92706" pt_clust_5="129.85808" pt_clust_6="32.22000"></scales>
<clustering>
<clus scale="   32.220">  2  6  1 -1</clus>
<clus scale="  104.927">  2  4  1 -1</clus>
<clus scale="  129.858">  2  5  1 -1</clus>
<clus scale="  129.858">  1  3  2 -1</clus>
</clustering>
</event>
<event>
 6    0  0.5775861E+002  0.1128226E+03  0.7546771E-02  0.1255430E+00
         21   -1    0    0  505  502  0.00000000000E+00  0.00000000000E+00  0.89563232791E+03  0.89563232791E+03  0.00000000000E+00 0. -1.
          1   -1    0    0  504    0 -0.00000000000E+00 -0.00000000000E+00 -0.66794804093E+03  0.66794804093E+03  0.00000000000E+00 0. -1.
         21    1    1    2  503  502  0.37195480299E+02  0.17170122116E+02  0.25051757533E+03  0.25384517407E+03  0.00000000000E+00 0. -1.
         21    1    1    2  504  503  0.56613155950E+02  0.34072783490E+02  0.10078526591E+03  0.12051420591E+03  0.00000000000E+00 0. -1.
         21    1    1    2  505  501 -0.21927057728E+02  0.38705830499E+02  0.52680728600E+03  0.52868218597E+03  0.00000000000E+00 0. -1.
          1    1    1    2  501    0 -0.71881578521E+02 -0.89948736105E+02 -0.65042584026E+03  0.66053880289E+03  0.00000000000E+00 0. -1.
<scales pt_clust_3="40.96727" pt_clust_4="14000.00000" pt_clust_5="53.48111" pt_clust_6="112.82260"></scales>
<clustering>
<clus scale="   40.967">  1  3  2 -1</clus>
<clus scale="   53.481">  1  5  2 -1</clus>
<clus scale="  112.823">  2  6  1 -1</clus>
<clus scale="   40.967">  1  3  2 -1</clus>
</clustering>
</event>
<event>
 6    0  0.5775861E+002  0.9757464E+02  0.7546771E-02  0.1285480E+00
         21   -1    0    0  505  502  0.00000000000E+00  0.00000000000E+00  0.10701303464E+04  0.10701303464E+04  0.00000000000E+00 0.  1.
         -2   -1    0    0    0  501 -0.00000000000E+00 -0.00000000000E+00 -0.22312182333E+04  0.22312182333E+04  0.00000000000E+00 0. -1.
         21    1    1    2  503  502  0.34231307470E+02  0.11940846823E+02  0.10471480807E+04  0.10477754861E+04  0.00000000000E+00 0.  1.
         21    1    1    2  504  501 -0.11153322379E+03 -0.11355144619E+02 -0.51846038827E+03  0.53044299743E+03  0.00000000000E+00 0. -1.
         21    1    1    2  505  504  0.60283584282E+02 -0.65709598800E+02 -0.10858840493E+03  0.14051086646E+03  0.00000000000E+00 0. -1.
         -2    1    1    2    0  503  0.17018332037E+02  0.65123896596E+02 -0.15811871745E+04  0.15826192297E+04  0.00000000000E+00 0. -1.
<scales pt_clust_3="36.25419" pt_clust_4="14000.00000" pt_clust_5="97.57464" pt_clust_6="67.95576"></scales>
<clustering>
<clus scale="   36.254">  1  3  2 -1</clus>
<clus scale="   67.956">  2  6  1 -1</clus>
<clus scale="   97.575">  1  5  2 -1</clus>
<clus scale="   36.254">  1  3  2 -1</clus>
</clustering>
</event>
<event>
 6    0  0.5775861E+002  0.1440317E+03  0.7546771E-02  0.1208005E+00
          2   -1    0    0  504    0 -0.00000000000E+00  0.00000000000E+00  0.19408322798E+04  0.19408322798E+04  0.00000000000E+00 0.  1.
         21   -1    0    0  503  502  0.00000000000E+00 -0.00000000000E+00 -0.31400182202E+03  0.31400182202E+03  0.00000000000E+00 0. -1.
         21    1    1    2  503  501 -0.89198545452E+02 -0.16666022985E+03  0.50976613184E+03  0.54368513121E+03  0.00000000000E+00 0. -1.
         21    1    1    2  504  505  0.14528562443E+03  0.92970981587E+02 -0.25685995589E+02  0.17438832086E+03  0.00000000000E+00 0. -1.
         21    1    1    2  505  502 -0.51687452985E+02  0.36639653184E+01 -0.19266089567E+03  0.19950748898E+03  0.00000000000E+00 0. -1.
          2    1    1    2  501    0 -0.43996259937E+01  0.70025282944E+02  0.13354112172E+04  0.13372531608E+04  0.00000000000E+00 0.  1.
<scales pt_clust_3="14000.00000" pt_clust_4="144.03167" pt_clust_5="51.81715" pt_clust_6="70.21838"></scales>
<clustering>
<clus scale="   51.817">  2  5  1 -1</clus>
<clus scale="   70.218">  1  6  2 -1</clus>
<clus scale="  144.032">  2  4  1 -1</clus>
<clus scale="   51.817">  2  3  1 -1</clus>
</clustering>
</event>
<event>
 6    0  0.5775861E+002  0.9599666E+02  0.7546771E-02  0.1288947E+00
         21   -1    0    0  503  502  0.00000000000E+00  0.00000000000E+00  0.43622993663E+03  0.43622993663E+03  0.00000000000E+00 0. -1.
          2   -1    0    0  504    0 -0.00000000000E+00 -0.00000000000E+00 -0.37229528247E+04  0.37229528247E+04  0.00000000000E+00 0. -1.
         21    1    1    2  503  505 -0.34658666943E+02 -0.14635855943E+02  0.42544684886E+03  0.42710707402E+03  0.00000000000E+00 0. -1.
         21    1    1    2  504  502 -0.84877186544E+02  0.19238846115E+02 -0.22725440308E+03  0.24334920118E+03  0.00000000000E+00 0. -1.
         21    1    1    2  505  501  0.69813119460E+02 -0.21982102442E+02 -0.81194855686E+03  0.81524078864E+03  0.00000000000E+00 0. -1.
          2    1    1    2  501    0  0.49722734027E+02  0.17379112270E+02 -0.26729667769E+04  0.26734856974E+04  0.00000000000E+00 0. -1.
<scales pt_clust_3="37.62222" pt_clust_4="14000.00000" pt_clust_5="95.99666" pt_clust_6="51.69366"></scales>
<clustering>
<clus scale="   37.622">  1  3  2 -1</clus>
<clus scale="   51.694">  2  6  1 -1</clus>
<clus scale="   95.997">  2  5  1 -1</clus>
<clus scale="   37.622">  1  3  2 -1</clus>
</clustering>
</event>
<event>
 6    0  0.5775861E+002  0.1583692E+03  0.7546771E-02  0.1190550E+00
          3   -1    0    0  505    0 -0.00000000000E+00  0.00000000000E+00  0.15158523245E+03  0.15158523245E+03  0.00000000000E+00 0.  1.
         21   -1    0    0  504  502  0.00000000000E+00 -0.00000000000E+00 -0.26573214704E+03  0.26573214704E+03  0.00000000000E+00 0.  1.
         21    1    1    2  503  501 -0.45683399333E+02  0.45728118497E+02 -0.71655042772E+01  0.65033670106E+02  0.00000000000E+00 0.  1.
         21    1    1    2  504  503 -0.77725806056E+02  0.60273613669E+02 -0.10534765341E+03  0.14412611669E+03  0.00000000000E+00 0.  1.
         21    1    1    2  505  502  0.11832505457E+03 -0.49156596170E+02 -0.45718538316E+02  0.13604181060E+03  0.00000000000E+00 0.  1.
          3    1    1    2  501    0  0.50841508157E+01 -0.56845135996E+02  0.44084781414E+02  0.72115782103E+02  0.00000000000E+00 0.  1.
<scales pt_clust_3="55.11543" pt_clust_4="55.11543" pt_clust_5="143.03283" pt_clust_6="57.07204"></scales>
<clustering>
<clus scale="   55.115">  3  4 -1 -1</clus>
<clus scale="   57.072">  1  6  2 -1</clus>
<clus scale="  143.033">  1  5  2 -1</clus>
<clus scale="  158.369">  2  3  1 -1</clus>
</clustering>
</event>
<event>
 6    0  0.5775861E+002  0.9078547E+02  0.7546771E-02  0.1300961E+00
         21   -1    0    0  503  502  0.00000000000E+00  0.00000000000E+00  0.39047120521E+03  0.39047120521E+03  0.00000000000E+00 0.  1.
          2   -1    0    0  504    0 -0.00000000000E+00 -0.00000000000E+00 -0.14830936579E+03  0.14830936579E+03  0.00000000000E+00 0.  1.
         21    1    1    2  503  501  0.66312625665E+02 -0.80626529745E+02  0.28897990243E+03  0.30725784877E+03  0.00000000000E+00 0.  1.
         21    1    1    2  504  505 -0.35640708543E+02  0.42918685160E+02 -0.13068248537E+02  0.57297929816E+02  0.00000000000E+00 0.  1.
         21    1    1    2  505  502 -0.68699124393E+02  0.19448608739E+02  0.45346996111E+02  0.84582315708E+02  0.00000000000E+00 0.  1.
          2    1    1    2  501    0  0.38027207271E+02  0.18259235846E+02 -0.79096810579E+02  0.89642476708E+02  0.00000000000E+00 0.  1.
<scales pt_clust_3="14000.00000" pt_clust_4="54.97227" pt_clust_5="90.78547" pt_clust_6="42.18374"></scales>
<clustering>
<clus scale="   42.184">  2  6  1 -1</clus>
<clus scale="   54.972">  2  4  1 -1</clus>
<clus scale="   90.785">  2  5  1 -1</clus>
<clus scale="   90.785">  1  3  2 -1</clus>
</clustering>
</event>
<event>
 6    0  0.5775861E+002  0.8069468E+02  0.7546771E-02  0.1327092E+00
         21   -1    0    0  504  502  0.00000000000E+00  0.00000000000E+00  0.14506192000E+03  0.14506192000E+03  0.00000000000E+00 0. -1.
          2   -1    0    0  505    0 -0.00000000000E+00 -0.00000000000E+00 -0.17039646152E+04  0.17039646152E+04  0.00000000000E+00 0. -1.
         21    1    1    2  503  501  0.35628317093E+02 -0.38205804376E+02 -0.10363881330E+03  0.11606060524E+03  0.00000000000E+00 0. -1.
         21    1    1    2  504  503  0.12694905700E+02 -0.30639993662E+02  0.12890758456E+03  0.13310572941E+03  0.00000000000E+00 0. -1.
         21    1    1    2  505  502 -0.77612689724E+02  0.11061767250E+03 -0.63015794620E+03  0.64448354225E+03  0.00000000000E+00 0. -1.
          2    1    1    2  501    0  0.29289466931E+02 -0.41771874459E+02 -0.95401352025E+03  0.95537665828E+03  0.00000000000E+00 0. -1.
<scales pt_clust_3="80.69468" pt_clust_4="33.16579" pt_clust_5="14000.00000" pt_clust_6="52.58840"></scales>
<clustering>
<clus scale="   33.166">  1  4  2 -1</clus>
<clus scale="   52.588">  2  6  1 -1</clus>
<clus scale="   80.695">  1  3  2 -1</clus>
<clus scale="   33.166">  1  3  2 -1</clus>
</clustering>
</event>
<event>
 6    0  0.5775861E+002  0.7912994E+02  0.7546771E-02  0.1331539E+00
         21   -1    0    0  505  502  0.00000000000E+00  0.00000000000E+00  0.36240109769E+03  0.36240109769E+03  0.00000000000E+00 0.  1.
          2   -1    0    0  504    0 -0.00000000000E+00 -0.00000000000E+00 -0.18250767313E+04  0.18250767313E+04  0.00000000000E+00 0.  1.
         21    1    1    2  503  502  0.29956110388E+02  0.25061925271E+02  0.16326927149E+03  0.16787591746E+03  0.00000000000E+00 0.  1.
         21    1    1    2  504  503  0.74217492026E+02 -0.20047523295E+01 -0.72074482224E+02  0.10347456761E+03  0.00000000000E+00 0. -1.
         21    1    1    2  505  501 -0.10024368032E+03 -0.57260368582E+02  0.16254313108E+03  0.19936853993E+03  0.00000000000E+00 0.  1.
          2    1    1    2  501    0 -0.39299220977E+01  0.34203195640E+02 -0.17164135540E+04  0.17167588040E+04  0.00000000000E+00 0.  1.
<scales pt_clust_3="39.46393" pt_clust_4="79.12994" pt_clust_5="14000.00000" pt_clust_6="34.42823"></scales>
<clustering>
<clus scale="   34.428">  2  6  1 -1</clus>
<clus scale="   39.464">  1  3  2 -1</clus>
<clus scale="   79.130">  2  4  1 -1</clus>
<clus scale="   39.464">  1  3  2 -1</clus>
</clustering>
</event>
<event>
 6    0  0.5775861E+002  0.9456105E+02  0.7546771E-02  0.1292168E+00
         21   -1    0    0  501  502  0.00000000000E+00  0.00000000000E+00  0.14178422302E+03  0.14178422302E+03  0.00000000000E+00 0. -1.
          2   -1    0    0  504    0 -0.00000000000E+00 -0.00000000000E+00 -0.19526256528E+04  0.19526256528E+04  0.00000000000E+00 0. -1.
         21    1    1    2  503  502  0.19203855365E+02 -0.33347906274E+02  0.90558469596E+02  0.98395667228E+02  0.00000000000E+00 0. -1.
         21    1    1    2  504  505  0.45956658171E+02  0.10781589916E+03 -0.19179291998E+03  0.22476834006E+03  0.00000000000E+00 0.  1.
         21    1    1    2  505  503 -0.24848135551E+02 -0.67989090076E+02 -0.12272570974E+02  0.73420448160E+02  0.00000000000E+00 0. -1.
          2    1    1    2  501    0 -0.40312377985E+02 -0.64789028088E+01 -0.16973344084E+04  0.16978254203E+04  0.00000000000E+00 0. -1.
<scales pt_clust_3="38.48209" pt_clust_4="94.56105" pt_clust_5="14000.00000" pt_clust_6="40.75919"></scales>
<clustering>
<clus scale="   38.482">  1  3  2 -1</clus>
<clus scale="   40.759">  2  6  1 -1</clus>
<clus scale="   94.561">  2  4  1 -1</clus>
<clus scale="   38.482">  1  3  2 -1</clus>
</clustering>
</event>
<event>
 6    0  0.5775861E+002  0.1694224E+03  0.7546771E-02  0.1178452E+00
          2   -1    0    0  503    0 -0.00000000000E+00  0.00000000000E+00  0.82480915998E+03  0.82480915998E+03  0.00000000000E+00 0.  1.
         21   -1    0    0  505  502  0.00000000000E+00 -0.00000000000E+00 -0.30273844196E+03  0.30273844196E+03  0.00000000000E+00 0.  1.
         21    1    1    2  503  504  0.58751091716E+02  0.14988708205E+03  0.10606138472E+03  0.19278704695E+03  0.00000000000E+00 0.  1.
         21    1    1    2  504  502 -0.64242374258E+01 -0.32297138047E+02 -0.10908460246E+03  0.11394659471E+03  0.00000000000E+00 0.  1.
         21    1    1    2  505  501 -0.85891045402E+02 -0.12630445153E+03 -0.10781210632E+03  0.18695864897E+03  0.00000000000E+00 0.  1.
          2    1    1    2  501    0  0.33564191112E+02  0.87145075284E+01  0.63290604208E+03  0.63385531130E+03  0.00000000000E+00 0.  1.
<scales pt_clust_3="14000.00000" pt_clust_4="32.92986" pt_clust_5="169.42243" pt_clust_6="34.64155"></scales>
<clustering>
<clus scale="   32.930">  2  4  1 -1</clus>
<clus scale="   34.642">  1  6  2 -1</clus>
<clus scale="  169.422">  2  5  1 -1</clus>
<clus scale="   32.930">  2  3  1 -1</clus>
</clustering>
</event>
<event>
 6    0  0.5775861E+002  0.8868989E+02  0.7546771E-02  0.1306056E+00
         21   -1    0    0  503  502  0.00000000000E+00  0.00000000000E+00  0.17670041375E+02  0.17670041375E+02  0.00000000000E+00 0. -1.
          2   -1    0    0  505    0 -0.00000000000E+00 -0.00000000000E+00 -0.22329057831E+04  0.22329057831E+04  0.00000000000E+00 0. -1.
         21    1    1    2  503  501 -0.10809408884E+02  0.71376599319E+02 -0.29672723484E+03  0.30538257015E+03  0.00000000000E+00 0. -1.
         21    1    1    2  504  502  0.48231094080E+02  0.14466824035E+02 -0.59095799747E+02  0.77639171695E+02  0.00000000000E+00 0.  1.
         21    1    1    2  505  504  0.64051752443E+01 -0.11840827881E+03 -0.11758623482E+04  0.11818264714E+04  0.00000000000E+00 0. -1.
          2    1    1    2  501    0 -0.43826860440E+02  0.32564855460E+02 -0.68355035895E+03  0.68572761117E+03  0.00000000000E+00 0. -1.
<scales pt_clust_3="14000.00000" pt_clust_4="50.35402" pt_clust_5="88.68989" pt_clust_6="50.97057"></scales>
<clustering>
<clus scale="   50.354">  1  4  2 -1</clus>
<clus scale="   50.971">  2  6  1 -1</clus>
<clus scale="   88.690">  2  5  1 -1</clus>
<clus scale="   50.354">  1  3  2 -1</clus>
</clustering>
</event>
<event>
 6    0  0.5775861E+002  0.8874963E+02  0.7546771E-02  0.1305908E+00
          2   -1    0    0  504    0 -0.00000000000E+00  0.00000000000E+00  0.49016545017E+03  0.49016545017E+03  0.00000000000E+00 0. -1.
         21   -1    0    0  505  502  0.00000000000E+00 -0.00000000000E+00 -0.28350421909E+03  0.28350421909E+03  0.00000000000E+00 0.  1.
         21    1    1    2  503  501 -0.68993603357E+02  0.50145887116E+02  0.15250956697E+03  0.17473950703E+03  0.00000000000E+00 0. -1.
         21    1    1    2  504  502  0.18355308795E+02 -0.25526184164E+02 -0.19645595143E+02  0.37073613898E+02  0.00000000000E+00 0. -1.
         21    1    1    2  505  503  0.29734001271E+02  0.75046582818E+02 -0.22877937410E+03  0.24260276676E+03  0.00000000000E+00 0.  1.
          2    1    1    2  501    0  0.20904293290E+02 -0.99666285771E+02  0.30257663336E+03  0.31925378158E+03  0.00000000000E+00 0. -1.
<scales pt_clust_3="88.74963" pt_clust_4="31.44047" pt_clust_5="69.48923" pt_clust_6="14000.00000"></scales>
<clustering>
<clus scale="   31.440">  2  4  1 -1</clus>
<clus scale="   69.489">  2  5  1 -1</clus>
<clus scale="   88.750">  2  3  1 -1</clus>
<clus scale="   31.440">  2  3  1 -1</clus>
</clustering>
</event>
<event>
 6    0  0.5775861E+002  0.1008567E+03  0.7546771E-02  0.1278505E+00
          1   -1    0    0  503    0 -0.00000000000E+00  0.00000000000E+00  0.13032985032E+04  0.13032985032E+04  0.00000000000E+00 0. -1.
         21   -1    0    0  505  502  0.00000000000E+00 -0.00000000000E+00 -0.34382934333E+03  0.34382934333E+03  0.00000000000E+00 0. -1.
         21    1    1    2  503  504  0.59872645516E+02 -0.26584110169E+02  0.73193658652E+03  0.73486231043E+03  0.00000000000E+00 0. -1.
         21    1    1    2  504  502  0.51632584029E+02  0.12797984534E+03 -0.44014119706E+02  0.14485167338E+03  0.00000000000E+00 0. -1.
         21    1    1    2  505  501 -0.79460139714E+02 -0.55907079727E+02 -0.23683877458E+03  0.25599242276E+03  0.00000000000E+00 0. -1.
          1    1    1    2  501    0 -0.32045089832E+02 -0.45488655448E+02  0.50838546759E+03  0.51142143992E+03  0.00000000000E+00 0. -1.
<scales pt_clust_3="75.00395" pt_clust_4="14000.00000" pt_clust_5="100.85665" pt_clust_6="55.64266"></scales>
<clustering>
<clus scale="   55.643">  1  6  2 -1</clus>
<clus scale="   75.004">  1  3  2 -1</clus>
<clus scale="  100.857">  2  5  1 -1</clus>
<clus scale="  100.857">  2  3  1 -1</clus>
</clustering>
</event>
<event>
 6    0  0.5775861E+002  0.1054285E+03  0.7546771E-02  0.1269278E+00
         21   -1    0    0  504  502  0.00000000000E+00  0.00000000000E+00  0.33634024497E+02  0.33634024497E+02  0.00000000000E+00 0.  1.
          1   -1    0    0  503    0 -0.00000000000E+00 -0.00000000000E+00 -0.24999889737E+04  0.24999889737E+04  0.00000000000E+00 0.  1.
         21    1    1    2  503  505  0.31474619390E+02 -0.95360918714E+01 -0.62634192368E+02  0.70743415012E+02  0.00000000000E+00 0.  1.
         21    1    1    2  504  501 -0.13065784175E+03  0.54330635688E+02 -0.24974710390E+03  0.28704861172E+03  0.00000000000E+00 0.  1.
         21    1    1    2  505  502  0.22518021212E+02 -0.48467699732E+02 -0.59602788114E+02  0.80054178826E+02  0.00000000000E+00 0.  1.
          1    1    1    2  501    0  0.76665201149E+02  0.36731559163E+01 -0.20943708648E+04  0.20957767926E+04  0.00000000000E+00 0.  1.
<scales pt_clust_3="30.56756" pt_clust_4="97.96320" pt_clust_5="30.56756" pt_clust_6="76.75314"></scales>
<clustering>
<clus scale="   30.568">  3  5 -1 -1</clus>
<clus scale="   76.753">  2  6  1 -1</clus>
<clus scale="   97.963">  2  4  1 -1</clus>
<clus scale="  105.429">  1  3  2 -1</clus>
</clustering>
</event>
<event>
 6    0  0.5775861E+002  0.8196738E+02  0.7546771E-02  0.1323559E+00
         21   -1    0    0  504  502  0.00000000000E+00  0.00000000000E+00  0.76545181294E+02  0.76545181294E+02  0.00000000000E+00 0.  1.
          2   -1    0    0  503    0 -0.00000000000E+00 -0.00000000000E+00 -0.36368458133E+04  0.36368458133E+04  0.00000000000E+00 0. -1.
         21    1    1    2  503  505 -0.54883122446E+02 -0.69519316331E+01 -0.22659513472E+03  0.23325059821E+03  0.00000000000E+00 0. -1.
         21    1    1    2  504  501 -0.16120668901E+02 -0.68000171596E+02  0.41557127338E+02  0.81307405170E+02  0.00000000000E+00 0.  1.
         21    1    1    2  505  502  0.11076816991E+03  0.63443477933E+02 -0.33820307640E+03  0.36149133219E+03  0.00000000000E+00 0. -1.
          2    1    1    2  501    0 -0.39764378567E+02  0.11508625296E+02 -0.30370595482E+04  0.30373416590E+04  0.00000000000E+00 0. -1.
<scales pt_clust_3="81.96738" pt_clust_4="69.83121" pt_clust_5="14000.00000" pt_clust_6="41.39631"></scales>
<clustering>
<clus scale="   41.396">  2  6  1 -1</clus>
<clus scale="   69.831">  1  4  2 -1</clus>
<clus scale="   81.967">  2  3  1 -1</clus>
<clus scale="   69.831">  1  3  2 -1</clus>
</clustering>
</event>
<event>
 6    0  0.5775861E+002  0.1373036E+03  0.7546771E-02  0.1217004E+00
         21   -1    0    0  505  502  0.00000000000E+00  0.00000000000E+00  0.18836857603E+04  0.18836857603E+04  0.00000000000E+00 0.  1.
          2   -1    0    0  504    0 -0.00000000000E+00 -0.00000000000E+00 -0.11929870938E+03  0.11929870938E+03  0.00000000000E+00 0.  1.
         21    1    1    2  503  501 -0.15375996621E+03 -0.38144384157E+01  0.12723509189E+03  0.19961324044E+03  0.00000000000E+00 0.  1.
         21    1    1    2  504  502  0.10913511616E+03 -0.67319557382E+02  0.64677344359E+03  0.65936202781E+03  0.00000000000E+00 0.  1.
         21    1    1    2  505  503  0.27391717209E+02  0.41361572051E+02  0.10627346176E+04  0.10638918899E+04  0.00000000000E+00 0.  1.
          2    1    1    2  501    0  0.17233132842E+02  0.29772423747E+02 -0.72356102213E+02  0.80117311555E+02  0.00000000000E+00 0.  1.
<scales pt_clust_3="137.30364" pt_clust_4="14000.00000" pt_clust_5="50.07075" pt_clust_6="34.40026"></scales>
<clustering>
<clus scale="   34.400">  2  6  1 -1</clus>
<clus scale="   50.071">  1  5  2 -1</clus>
<clus scale="  137.304">  2  3  1 -1</clus>
<clus scale="   50.071">  1  3  2 -1</clus>
</clustering>
</event>
<event>
 6    0  0.5775861E+002  0.1530467E+03  0.7546771E-02  0.1196778E+00
         21   -1    0    0  503  502  0.00000000000E+00  0.00000000000E+00  0.29561978782E+03  0.29561978782E+03  0.00000000000E+00 0.  1.
          4   -1    0    0  505    0 -0.00000000000E+00 -0.00000000000E+00 -0.87233935551E+03  0.87233935551E+03  0.00000000000E+00 0. -1.
         21    1    1    2  503  501  0.31356952605E+02 -0.12753536275E+02 -0.16718680264E+02  0.37754806766E+02  0.00000000000E+00 0.  1.
         21    1    1    2  504  502  0.53764283018E+02  0.49957667910E+02  0.21368287164E+03  0.22593524812E+03  0.00000000000E+00 0.  1.
         21    1    1    2  505  504 -0.95241972533E+02  0.11914349105E+03 -0.45143826329E+02  0.15907284447E+03  0.00000000000E+00 0.  1.
          4    1    1    2  501    0  0.10120736909E+02 -0.15634762269E+03 -0.72853993274E+03  0.74519624397E+03  0.00000000000E+00 0. -1.
<scales pt_clust_3="33.85131" pt_clust_4="87.66215" pt_clust_5="14000.00000" pt_clust_6="153.04674"></scales>
<clustering>
<clus scale="   33.851">  1  3  2 -1</clus>
<clus scale="   87.662">  1  4  2 -1</clus>
<clus scale="  153.047">  2  6  1 -1</clus>
<clus scale="   33.851">  1  3  2 -1</clus>
</clustering>
</event>
<event>
 6    0  0.5775861E+002  0.1357136E+03  0.7546771E-02  0.1219216E+00
         21   -1    0    0  505  502  0.00000000000E+00  0.00000000000E+00  0.16665219608E+03  0.16665219608E+03  0.00000000000E+00 0. -1.
          2   -1    0    0  504    0 -0.00000000000E+00 -0.00000000000E+00 -0.10097441216E+04  0.10097441216E+04  0.00000000000E+00 0. -1.
         21    1    1    2  503  502 -0.27700150192E+02 -0.45487165333E+02 -0.97271390636E+01  0.54138690093E+02  0.00000000000E+00 0. -1.
         21    1    1    2  504  503 -0.67661096233E+02 -0.61653087401E-01 -0.66694889281E+03  0.67037217526E+03  0.00000000000E+00 0. -1.
         21    1    1    2  505  501  0.59921586182E+02 -0.94664796384E+02  0.99075085505E+02  0.14955899416E+03  0.00000000000E+00 0. -1.
          2    1    1    2  501    0  0.35439660243E+02  0.14021361480E+03 -0.26549097918E+03  0.30232645819E+03  0.00000000000E+00 0. -1.
<scales pt_clust_3="53.25768" pt_clust_4="67.99199" pt_clust_5="14000.00000" pt_clust_6="135.71358"></scales>
<clustering>
<clus scale="   53.258">  1  3  2 -1</clus>
<clus scale="   67.992">  2  4  1 -1</clus>
<clus scale="  135.714">  2  6  1 -1</clus>
<clus scale="   53.258">  1  3  2 -1</clus>
</clustering>
</event>
<event>
 6    0  0.5775861E+002  0.8263493E+02  0.7546771E-02  0.1321736E+00
          2   -1    0    0  504    0 -0.00000000000E+00  0.00000000000E+00  0.18329363864E+04  0.18329363864E+04  0.00000000000E+00 0. -1.
         21   -1    0    0  505  502  0.00000000000E+00 -0.00000000000E+00 -0.49946977483E+03  0.49946977483E+03  0.00000000000E+00 0.  1.
         21    1    1    2  503  501 -0.60188854152E+01  0.61597916930E+02 -0.13236477398E+02  0.63290873636E+02  0.00000000000E+00 0.  1.
         21    1    1    2  504  502 -0.29676596253E+02 -0.11940613573E+03 -0.49433560797E+02  0.13259789798E+03  0.00000000000E+00 0.  1.
         21    1    1    2  505  503 -0.14767997138E+02  0.53332414722E+02 -0.36775649023E+03  0.37189686246E+03  0.00000000000E+00 0.  1.
          2    1    1    2  501    0  0.50463478806E+02  0.44758040764E+01  0.17638931400E+04  0.17646205272E+04  0.00000000000E+00 0. -1.
<scales pt_clust_3="82.63493" pt_clust_4="14000.00000" pt_clust_5="55.08389" pt_clust_6="50.66158"></scales>
<clustering>
<clus scale="   50.662">  1  6  2 -1</clus>
<clus scale="   55.084">  2  5  1 -1</clus>
<clus scale="   82.635">  1  3  2 -1</clus>
<clus scale="   55.084">  2  3  1 -1</clus>
</clustering>
</event>
<event>
 6    0  0.5775861E+002  0.8410317E+02  0.7546771E-02  0.1317795E+00
          2   -1    0    0  504    0 -0.00000000000E+00  0.00000000000E+00  0.13722693155E+04  0.13722693155E+04  0.00000000000E+00 0.  1.
         21   -1    0    0  503  502  0.00000000000E+00 -0.00000000000E+00 -0.11982143405E+03  0.11982143405E+03  0.00000000000E+00 0.  1.
         21    1    1    2  503  505 -0.52151492621E+02  0.86392268871E+02 -0.17516882537E+02  0.10242188964E+03  0.00000000000E+00 0.  1.
         21    1    1    2  504  502  0.62502358756E+01 -0.30696165205E+02 -0.22465453790E+02  0.38548886116E+02  0.00000000000E+00 0. -1.
         21    1    1    2  505  501 -0.16898709036E+02 -0.11133084556E+03  0.85780816730E+02  0.14155731016E+03  0.00000000000E+00 0.  1.
          2    1    1    2  501    0  0.62799965781E+02  0.55634741892E+02  0.12066494010E+04  0.12095626636E+04  0.00000000000E+00 0.  1.
<scales pt_clust_3="81.40564" pt_clust_4="31.32603" pt_clust_5="84.10317" pt_clust_6="14000.00000"></scales>
<clustering>
<clus scale="   31.326">  2  4  1 -1</clus>
<clus scale="   81.406">  2  3  1 -1</clus>
<clus scale="   84.103">  2  5  1 -1</clus>
<clus scale="   31.326">  2  3  1 -1</clus>
</clustering>
</event>
<event>
 6    0  0.5775861E+002  0.1150206E+03  0.7546771E-02  0.1251545E+00
          1   -1    0    0  505    0 -0.00000000000E+00  0.00000000000E+00  0.23975908669E+03  0.23975908669E+03  0.00000000000E+00 0. -1.
         21   -1    0    0  504  502  0.00000000000E+00 -0.00000000000E+00 -0.76984927308E+03  0.76984927308E+03  0.00000000000E+00 0.  1.
         21    1    1    2  503  501 -0.83174207349E+02  0.11630112161E+03  0.13833789449E+03  0.19895042776E+03  0.00000000000E+00 0. -1.
         21    1    1    2  504  503  0.70962830352E+02 -0.14569064070E+03 -0.52130871049E+03  0.54591598045E+03  0.00000000000E+00 0.  1.
         21    1    1    2  505  502 -0.67086424667E+00  0.61160979811E+02 -0.19583919105E+03  0.20516847775E+03  0.00000000000E+00 0. -1.
          1    1    1    2  501    0  0.12882241243E+02 -0.31771460722E+02  0.48719820664E+02  0.59573473807E+02  0.00000000000E+00 0. -1.
<scales pt_clust_3="14000.00000" pt_clust_4="115.02064" pt_clust_5="60.36353" pt_clust_6="34.28378"></scales>
<clustering>
<clus scale="   34.284">  1  6  2 -1</clus>
<clus scale="   60.364">  2  5  1 -1</clus>
<clus scale="  115.021">  2  4  1 -1</clus>
<clus scale="   60.364">  2  3  1 -1</clus>
</clustering>
</event>
<event>
 6    0  0.5775861E+002  0.1077800E+03  0.7546771E-02  0.1264737E+00
         21   -1    0    0  504  502  0.00000000000E+00  0.00000000000E+00  0.15188083629E+04  0.15188083629E+04  0.00000000000E+00 0. -1.
          2   -1    0    0  503    0 -0.00000000000E+00 -0.00000000000E+00 -0.18474777526E+04  0.18474777526E+04  0.00000000000E+00 0. -1.
         21    1    1    2  503  505 -0.45711751498E+02  0.16618388313E+03 -0.35963349803E+01  0.17239367988E+03  0.00000000000E+00 0.  1.
         21    1    1    2  504  501  0.89759524979E+02 -0.94221105838E+02  0.93265847079E+03  0.94169326866E+03  0.00000000000E+00 0. -1.
         21    1    1    2  505  502 -0.65886323679E+02  0.32322014129E+02  0.49289746321E+03  0.49833084340E+03  0.00000000000E+00 0.  1.
          2    1    1    2  501    0  0.21838550197E+02 -0.10428479142E+03 -0.17506289888E+04  0.17538683235E+04  0.00000000000E+00 0. -1.
<scales pt_clust_3="14000.00000" pt_clust_4="70.99541" pt_clust_5="73.38747" pt_clust_6="107.77999"></scales>
<clustering>
<clus scale="   73.387">  1  5  2 -1</clus>
<clus scale="   70.995">  1  4  2 -1</clus>
<clus scale="  107.780">  2  6  1 -1</clus>
<clus scale="   73.387">  1  3  2 -1</clus>
</clustering>
</event>
<event>
 6    0  0.5775861E+002  0.8965440E+02  0.7546771E-02  0.1303691E+00
         -3   -1    0    0    0  501 -0.00000000000E+00  0.00000000000E+00  0.14575321281E+03  0.14575321281E+03  0.00000000000E+00 0.  1.
         21   -1    0    0  505  502  0.00000000000E+00 -0.00000000000E+00 -0.11280693638E+04  0.11280693638E+04  0.00000000000E+00 0. -1.
         21    1    1    2  503  504 -0.53401541102E+02 -0.34070419742E+02  0.20119508638E+02  0.66462867236E+02  0.00000000000E+00 0. -1.
         21    1    1    2  504  502 -0.37631502903E+02  0.52755112238E+02 -0.65784525614E+03  0.66102920730E+03  0.00000000000E+00 0. -1.
         21    1    1    2  505  501  0.81697697493E+02  0.35105018906E+02 -0.43321144350E+03  0.44224318073E+03  0.00000000000E+00 0. -1.
         -3    1    1    2    0  503  0.93353465123E+01 -0.53789711403E+02  0.88621039969E+02  0.10408732138E+03  0.00000000000E+00 0.  1.
<scales pt_clust_3="89.65440" pt_clust_4="63.22013" pt_clust_5="14000.00000" pt_clust_6="54.59379"></scales>
<clustering>
<clus scale="   54.594">  1  6  2 -1</clus>
<clus scale="   63.220">  2  4  1 -1</clus>
<clus scale="   89.654">  1  3  2 -1</clus>
<clus scale="   63.220">  2  3  1 -1</clus>
</clustering>
</event>
<event>
 6    0  0.5775861E+002  0.1347501E+03  0.7546771E-02  0.1220573E+00
         21   -1    0    0  504  502  0.00000000000E+00  0.00000000000E+00  0.10906688514E+04  0.10906688514E+04  0.00000000000E+00 0.  1.
          2   -1    0    0  505    0 -0.00000000000E+00 -0.00000000000E+00 -0.19576447138E+04  0.19576447138E+04  0.00000000000E+00 0.  1.
         21    1    1    2  503  501 -0.56043207701E+02 -0.14152208775E+03 -0.12117281263E+03  0.19455640049E+03  0.00000000000E+00 0.  1.
         21    1    1    2  504  503  0.46225072486E+02 -0.16158261728E+02  0.98941077289E+03  0.99062178669E+03  0.00000000000E+00 0.  1.
         21    1    1    2  505  502  0.23526999818E+02  0.23733738593E+02  0.56890575294E+02  0.65979903193E+02  0.00000000000E+00 0.  1.
          2    1    1    2  501    0 -0.13708864603E+02  0.13394661088E+03 -0.17921043980E+04  0.17971554748E+04  0.00000000000E+00 0.  1.
<scales pt_clust_3="14000.00000" pt_clust_4="69.17803" pt_clust_5="33.41871" pt_clust_6="134.75005"></scales>
<clustering>
<clus scale="   33.419">  1  5  2 -1</clus>
<clus scale="   69.178">  1  4  2 -1</clus>
<clus scale="  134.750">  2  6  1 -1</clus>
<clus scale="   33.419">  1  3  2 -1</clus>
</clustering>
</event>
<event>
 6    0  0.5775861E+002  0.9777467E+02  0.7546771E-02  0.1285046E+00
          2   -1    0    0  503    0 -0.00000000000E+00  0.00000000000E+00  0.11828569568E+04  0.11828569568E+04  0.00000000000E+00 0.  1.
         21   -1    0    0  504  502  0.00000000000E+00 -0.00000000000E+00 -0.43133673999E+03  0.43133673999E+03  0.00000000000E+00 0.  1.
         21    1    1    2  503  505  0.21124000523E+02  0.12107031019E+03  0.13007840794E+03  0.17895428361E+03  0.00000000000E+00 0. -1.
         21    1    1    2  504  501  0.24612758728E+02 -0.27793593096E+02 -0.25877076883E+02  0.45253671866E+02  0.00000000000E+00 0. -1.
         21    1    1    2  505  502 -0.75611868972E+02 -0.54420302401E+02 -0.36488814104E+03  0.37659272366E+03  0.00000000000E+00 0.  1.
          2    1    1    2  501    0  0.29875109721E+02 -0.38856414693E+02  0.10122070268E+04  0.10133930176E+04  0.00000000000E+00 0.  1.
<scales pt_clust_3="14000.00000" pt_clust_4="37.12508" pt_clust_5="97.77467" pt_clust_6="49.06920"></scales>
<clustering>
<clus scale="   37.125">  2  4  1 -1</clus>
<clus scale="   49.069">  1  6  2 -1</clus>
<clus scale="   97.775">  2  5  1 -1</clus>
<clus scale="   37.125">  2  3  1 -1</clus>
</clustering>
</event>
<event>
 6    0  0.5775861E+002  0.1157910E+03  0.7546771E-02  0.1250207E+00
          2   -1    0    0  503    0 -0.00000000000E+00  0.00000000000E+00  0.25893499054E+04  0.25893499054E+04  0.00000000000E+00 0. -1.
         21   -1    0    0  505  502  0.00000000000E+00 -0.00000000000E+00 -0.21905489164E+02  0.21905489164E+02  0.00000000000E+00 0. -1.
         21    1    1    2  503  504  0.84471803037E+02 -0.40177041172E+02  0.95364258702E+03  0.95821911060E+03  0.00000000000E+00 0. -1.
         21    1    1    2  504  502  0.38539816018E+02 -0.41117505174E+02  0.21003115138E+03  0.21746045893E+03  0.00000000000E+00 0. -1.
         21    1    1    2  505  501 -0.15465351600E+03  0.54361743104E+02  0.41896560380E+03  0.44989452797E+03  0.00000000000E+00 0. -1.
          2    1    1    2  501    0  0.31641896942E+02  0.26932803241E+02  0.98480507404E+03  0.98568129707E+03  0.00000000000E+00 0. -1.
<scales pt_clust_3="14000.00000" pt_clust_4="56.89013" pt_clust_5="115.79103" pt_clust_6="41.55220"></scales>
<clustering>
<clus scale="   41.552">  1  6  2 -1</clus>
<clus scale="   56.890">  2  4  1 -1</clus>
<clus scale="  115.791">  2  5  1 -1</clus>
<clus scale="   56.890">  2  3  1 -1</clus>
</clustering>
</event>
<event>
 6    0  0.5775861E+002  0.8655470E+02  0.7546771E-02  0.1311416E+00
          2   -1    0    0  504    0 -0.00000000000E+00  0.00000000000E+00  0.15838211251E+04  0.15838211251E+04  0.00000000000E+00 0. -1.
         21   -1    0    0  503  502  0.00000000000E+00 -0.00000000000E+00 -0.51754175569E+03  0.51754175569E+03  0.00000000000E+00 0.  1.
         21    1    1    2  503  505  0.28804870633E+02 -0.27899773238E+02 -0.49195373175E+03  0.49358544560E+03  0.00000000000E+00 0.  1.
         21    1    1    2  504  502 -0.98106324881E+02  0.56590751834E+02  0.18046262939E+03  0.21305897020E+03  0.00000000000E+00 0. -1.
         21    1    1    2  505  501  0.77584682711E+02  0.90022425835E+00  0.17353500811E+03  0.19009101093E+03  0.00000000000E+00 0. -1.
          2    1    1    2  501    0 -0.82832284625E+01 -0.29591202854E+02  0.12042354637E+04  0.12046274541E+04  0.00000000000E+00 0. -1.
<scales pt_clust_3="40.13287" pt_clust_4="86.55470" pt_clust_5="14000.00000" pt_clust_6="30.72867"></scales>
<clustering>
<clus scale="   30.729">  1  6  2 -1</clus>
<clus scale="   40.133">  2  3  1 -1</clus>
<clus scale="   86.555">  2  4  1 -1</clus>
<clus scale="   40.133">  2  3  1 -1</clus>
</clustering>
</event>
<event>
 6    0  0.5775861E+002  0.9499598E+02  0.7546771E-02  0.1291185E+00
         21   -1    0    0  505  502  0.00000000000E+00  0.00000000000E+00  0.13135968674E+03  0.13135968674E+03  0.00000000000E+00 0.  1.
          1   -1    0    0  503    0 -0.00000000000E+00 -0.00000000000E+00 -0.18324457095E+04  0.18324457095E+04  0.00000000000E+00 0. -1.
         21    1    1    2  503  502 -0.99222690840E+01 -0.10829299469E+03  0.82963119985E+02  0.13677976240E+03  0.00000000000E+00 0.  1.
         21    1    1    2  504  501  0.56039805279E+02  0.40852113882E+01 -0.91710291966E+02  0.10755429503E+03  0.00000000000E+00 0.  1.
         21    1    1    2  505  504  0.17435251116E+02  0.33261341764E+02 -0.16653213297E+02  0.41080827043E+02  0.00000000000E+00 0.  1.
          1    1    1    2  501    0 -0.63552787311E+02  0.70946441541E+02 -0.16756856374E+04  0.16783905117E+04  0.00000000000E+00 0. -1.
<scales pt_clust_3="14000.00000" pt_clust_4="57.54462" pt_clust_5="37.55403" pt_clust_6="94.99598"></scales>
<clustering>
<clus scale="   37.554">  1  5  2 -1</clus>
<clus scale="   57.545">  1  4  2 -1</clus>
<clus scale="   94.996">  2  6  1 -1</clus>
<clus scale="   37.554">  1  3  2 -1</clus>
</clustering>
</event>
<event>
 6    0  0.5775861E+002  0.9435333E+02  0.7546771E-02  0.1292639E+00
         21   -1    0    0  501  502  0.00000000000E+00  0.00000000000E+00  0.55090990748E+03  0.55090990748E+03  0.00000000000E+00 0.  1.
          2   -1    0    0  505    0 -0.00000000000E+00 -0.00000000000E+00 -0.15742242995E+04  0.15742242995E+04  0.00000000000E+00 0.  1.
         21    1    1    2  503  504 -0.14179453598E+03  0.58841322802E+01  0.18658008814E+03  0.23441937364E+03  0.00000000000E+00 0.  1.
         21    1    1    2  504  502  0.79720273234E+02 -0.27383191670E+02  0.31406024169E+03  0.32517533203E+03  0.00000000000E+00 0.  1.
         21    1    1    2  505  503  0.42293748805E+02 -0.13926427028E+02 -0.36320082219E+01  0.44675474720E+02  0.00000000000E+00 0.  1.
          2    1    1    2  501    0  0.19780513942E+02  0.35425486418E+02 -0.15203227137E+04  0.15208640266E+04  0.00000000000E+00 0.  1.
<scales pt_clust_3="94.35333" pt_clust_4="14000.00000" pt_clust_5="51.24244" pt_clust_6="40.57381"></scales>
<clustering>
<clus scale="   40.574">  2  6  1 -1</clus>
<clus scale="   51.242">  2  5  1 -1</clus>
<clus scale="   94.353">  2  3  1 -1</clus>
<clus scale="   94.353">  1  3  2 -1</clus>
</clustering>
</event>
<event>
 6    0  0.5775861E+002  0.1096786E+03  0.7546771E-02  0.1261166E+00
          1   -1    0    0  505    0 -0.00000000000E+00  0.00000000000E+00  0.30701894802E+04  0.30701894802E+04  0.00000000000E+00 0.  1.
         21   -1    0    0  504  502  0.00000000000E+00 -0.00000000000E+00 -0.78557439646E+03  0.78557439646E+03  0.00000000000E+00 0.  1.
         21    1    1    2  503  502  0.29171158946E+02  0.52107301075E+02 -0.76565092363E+03  0.76797621330E+03  0.00000000000E+00 0.  1.
         21    1    1    2  504  501 -0.19311516909E+02  0.24869957590E+02  0.30047373938E+01  0.31630332320E+02  0.00000000000E+00 0.  1.
         21    1    1    2  505  503  0.92052185826E+02  0.10012237904E+02  0.90957302745E+03  0.91427399727E+03  0.00000000000E+00 0.  1.
          1    1    1    2  501    0 -0.10191182786E+03 -0.86989496570E+02  0.21376882426E+04  0.21418833338E+04  0.00000000000E+00 0.  1.
<scales pt_clust_3="77.47812" pt_clust_4="31.48729" pt_clust_5="14000.00000" pt_clust_6="109.67859"></scales>
<clustering>
<clus scale="   31.487">  2  4  1 -1</clus>
<clus scale="   77.478">  2  3  1 -1</clus>
<clus scale="  109.679">  1  6  2 -1</clus>
<clus scale="   31.487">  2  3  1 -1</clus>
</clustering>
</event>
<event>
 6    0  0.5775861E+002  0.6130524E+02  0.7546771E-02  0.1392434E+00
         21   -1    0    0  503  502  0.00000000000E+00  0.00000000000E+00  0.36749397705E+03  0.36749397705E+03  0.00000000000E+00 0.  1.
          2   -1    0    0  505    0 -0.00000000000E+00 -0.00000000000E+00 -0.28586241618E+04  0.28586241618E+04  0.00000000000E+00 0.  1.
         21    1    1    2  503  504  0.71302076530E+01 -0.32119875645E+02  0.34691018428E+03  0.34846693133E+03  0.00000000000E+00 0.  1.
         21    1    1    2  504  501 -0.36653103883E+02  0.79248795311E+02 -0.92644745935E+02  0.12730620775E+03  0.00000000000E+00 0. -1.
         21    1    1    2  505  502 -0.42256842018E+02  0.97916306639E+01 -0.17996974767E+04  0.18002201322E+04  0.00000000000E+00 0.  1.
          2    1    1    2  501    0  0.71779738249E+02 -0.56920550330E+02 -0.94569814645E+03  0.95012486762E+03  0.00000000000E+00 0.  1.
<scales pt_clust_3="32.90177" pt_clust_4="61.30524" pt_clust_5="43.19091" pt_clust_6="14000.00000"></scales>
<clustering>
<clus scale="   32.902">  1  3  2 -1</clus>
<clus scale="   43.191">  2  5  1 -1</clus>
<clus scale="   61.305">  1  4  2 -1</clus>
<clus scale="   32.902">  1  3  2 -1</clus>
</clustering>
</event>
<event>
 6    0  0.5775861E+002  0.6840878E+02  0.7546771E-02  0.1365589E+00
         21   -1    0    0  504  502  0.00000000000E+00  0.00000000000E+00  0.57262862209E+02  0.57262862209E+02  0.00000000000E+00 0. -1.
          2   -1    0    0  502    0 -0.00000000000E+00 -0.00000000000E+00 -0.11841260792E+04  0.11841260792E+04  0.00000000000E+00 0.  1.
         21    1    1    2  503  501  0.96243157421E+02  0.40611367023E+02 -0.22318848453E+03  0.24642469055E+03  0.00000000000E+00 0.  1.
         21    1    1    2  504  505  0.29870534004E+02  0.26404875828E+02  0.84933752405E+01  0.40762773362E+02  0.00000000000E+00 0.  1.
         21    1    1    2  505  503 -0.66662909213E+02 -0.41690126676E+02 -0.58276199518E+02  0.97867898502E+02  0.00000000000E+00 0. -1.
          2    1    1    2  501    0 -0.59450782212E+02 -0.25326116175E+02 -0.85389190819E+03  0.85633357901E+03  0.00000000000E+00 0.  1.
<scales pt_clust_3="68.40878" pt_clust_4="39.86811" pt_clust_5="54.91465" pt_clust_6="14000.00000"></scales>
<clustering>
<clus scale="   39.868">  1  4  2 -1</clus>
<clus scale="   54.915">  1  5  2 -1</clus>
<clus scale="   68.409">  1  3  2 -1</clus>
<clus scale="   39.868">  1  3  2 -1</clus>
</clustering>
</event>
<event>
 6    0  0.5775861E+002  0.1071477E+03  0.7546771E-02  0.1265945E+00
          2   -1    0    0  503    0 -0.00000000000E+00  0.00000000000E+00  0.12925310271E+03  0.12925310271E+03  0.00000000000E+00 0.  1.
         21   -1    0    0  504  502  0.00000000000E+00 -0.00000000000E+00 -0.87183596982E+03  0.87183596982E+03  0.00000000000E+00 0.  1.
         21    1    1    2  503  505  0.66412446451E+02 -0.31335540564E+02 -0.89761436298E+02  0.11597260277E+03  0.00000000000E+00 0. -1.
         21    1    1    2  504  501 -0.23804259789E+02 -0.45741446428E+02 -0.21267161428E+03  0.21883358569E+03  0.00000000000E+00 0.  1.
         21    1    1    2  505  502 -0.21837735909E+02 -0.37406521861E+02 -0.52214685956E+03  0.52394033776E+03  0.00000000000E+00 0.  1.
          2    1    1    2  501    0 -0.20770450752E+02  0.11448350885E+03  0.81997043025E+02  0.14234254630E+03  0.00000000000E+00 0.  1.
<scales pt_clust_3="73.42787" pt_clust_4="14000.00000" pt_clust_5="43.31437" pt_clust_6="107.14772"></scales>
<clustering>
<clus scale="   43.314">  2  5  1 -1</clus>
<clus scale="   73.428">  2  3  1 -1</clus>
<clus scale="  107.148">  1  6  2 -1</clus>
<clus scale="   43.314">  2  3  1 -1</clus>
</clustering>
</event>
<event>
 6    0  0.5775861E+002  0.7729727E+02  0.7546771E-02  0.1336901E+00
         -1   -1    0    0    0  501 -0.00000000000E+00  0.00000000000E+00  0.12150314936E+03  0.12150314936E+03  0.00000000000E+00 0. -1.
         21   -1    0    0  504  502  0.00000000000E+00 -0.00000000000E+00 -0.10793294614E+04  0.10793294614E+04  0.00000000000E+00 0. -1.
         21    1    1    2  503  505 -0.48176390191E+02 -0.79111277155E+02 -0.60669659811E+02  0.11072653867E+03  0.00000000000E+00 0.  1.
         21    1    1    2  504  501  0.63615799829E+02  0.60394559214E+02 -0.79046061000E+03  0.79531279931E+03  0.00000000000E+00 0. -1.
         21    1    1    2  505  502 -0.48147870222E+02  0.12734536575E+02 -0.19456779222E+03  0.20084076180E+03  0.00000000000E+00 0. -1.
         -1    1    1    2    0  503  0.32708460585E+02  0.59821813665E+01  0.87871749960E+02  0.93952511029E+02  0.00000000000E+00 0. -1.
<scales pt_clust_3="14000.00000" pt_clust_4="77.29727" pt_clust_5="46.74071" pt_clust_6="33.25101"></scales>
<clustering>
<clus scale="   33.251">  1  6  2 -1</clus>
<clus scale="   46.741">  2  5  1 -1</clus>
<clus scale="   77.297">  2  4  1 -1</clus>
<clus scale="   46.741">  2  3  1 -1</clus>
</clustering>
</event>
<event>
 6    0  0.5775861E+002  0.9100397E+02  0.7546771E-02  0.1300438E+00
         21   -1    0    0  504  502  0.00000000000E+00  0.00000000000E+00  0.19394091518E+03  0.19394091518E+03  0.00000000000E+00 0.  1.
         -1   -1    0    0    0  501 -0.00000000000E+00 -0.00000000000E+00 -0.34610745091E+03  0.34610745091E+03  0.00000000000E+00 0.  1.
         21    1    1    2  503  501 -0.71678402954E+02  0.82206247970E+02 -0.25495364600E+03  0.27730312343E+03  0.00000000000E+00 0.  1.
         21    1    1    2  504  503  0.35401320375E+02  0.18819305540E+02  0.26862255056E+02  0.48259719145E+02  0.00000000000E+00 0.  1.
         21    1    1    2  505  502  0.50414281890E+02 -0.55613584013E+02  0.12521464554E+03  0.14599033530E+03  0.00000000000E+00 0.  1.
         -1    1    1    2    0  505 -0.14137199311E+02 -0.45411969496E+02 -0.49289790332E+02  0.68495188217E+02  0.00000000000E+00 0.  1.
<scales pt_clust_3="91.00397" pt_clust_4="40.09264" pt_clust_5="14000.00000" pt_clust_6="45.84480"></scales>
<clustering>
<clus scale="   40.093">  1  4  2 -1</clus>
<clus scale="   45.845">  2  6  1 -1</clus>
<clus scale="   91.004">  2  3  1 -1</clus>
<clus scale="   40.093">  1  3  2 -1</clus>
</clustering>
</event>
<event>
 6    0  0.5775861E+002  0.9303169E+02  0.7546771E-02  0.1295672E+00
         -2   -1    0    0    0  501 -0.00000000000E+00  0.00000000000E+00  0.71935994340E+03  0.71935994340E+03  0.00000000000E+00 0. -1.
         21   -1    0    0  503  502  0.00000000000E+00 -0.00000000000E+00 -0.26676583075E+04  0.26676583075E+04  0.00000000000E+00 0.  1.
         21    1    1    2  503  505  0.45050329622E+02  0.36220907588E+02 -0.15007495071E+04  0.15018623670E+04  0.00000000000E+00 0.  1.
         21    1    1    2  504  502  0.51979187885E+01 -0.44820275121E+02 -0.89816437718E+03  0.89929701649E+03  0.00000000000E+00 0.  1.
         21    1    1    2  505  501  0.38035207639E+02  0.39516694789E+02 -0.26172132755E+03  0.26740661824E+03  0.00000000000E+00 0.  1.
         -2    1    1    2    0  504 -0.88283456050E+02 -0.30917327257E+02  0.71233684772E+03  0.71845224919E+03  0.00000000000E+00 0. -1.
<scales pt_clust_3="49.49527" pt_clust_4="45.12068" pt_clust_5="14000.00000" pt_clust_6="93.03169"></scales>
<clustering>
<clus scale="   45.121">  2  4  1 -1</clus>
<clus scale="   49.495">  2  3  1 -1</clus>
<clus scale="   93.032">  1  6  2 -1</clus>
<clus scale="   45.121">  2  3  1 -1</clus>
</clustering>
</event>
<event>
 6    0  0.5775861E+002  0.1562225E+03  0.7546771E-02  0.1193029E+00
         21   -1    0    0  505  502  0.00000000000E+00  0.00000000000E+00  0.16740569313E+03  0.16740569313E+03  0.00000000000E+00 0. -1.
         -1   -1    0    0    0  501 -0.00000000000E+00 -0.00000000000E+00 -0.62212726387E+03  0.62212726387E+03  0.00000000000E+00 0.  1.
         21    1    1    2  503  504  0.70055793573E+02 -0.81228515635E+02 -0.30909680824E+03  0.32717995481E+03  0.00000000000E+00 0.  1.
         21    1    1    2  504  502 -0.81927902068E+02  0.82687938323E+02  0.10892577778E+03  0.15941863551E+03  0.00000000000E+00 0. -1.
         21    1    1    2  505  501  0.31343866811E+01  0.41256686473E+02  0.32216256733E+01  0.41500812408E+02  0.00000000000E+00 0. -1.
         -1    1    1    2    0  503  0.87377218141E+01 -0.42716109161E+02 -0.25777216596E+03  0.26143355428E+03  0.00000000000E+00 0.  1.
<scales pt_clust_3="38.01196" pt_clust_4="144.39781" pt_clust_5="41.37558" pt_clust_6="38.01196"></scales>
<clustering>
<clus scale="   38.012">  3  6 -1 -1</clus>
<clus scale="   41.376">  1  5  2 -1</clus>
<clus scale="  144.398">  1  4  2 -1</clus>
<clus scale="   41.376">  1  3  2 -1</clus>
</clustering>
</event>
<event>
 6    0  0.5775861E+002  0.8682562E+02  0.7546771E-02  0.1310726E+00
         -3   -1    0    0    0  501 -0.00000000000E+00  0.00000000000E+00  0.65791630512E+03  0.65791630512E+03  0.00000000000E+00 0. -1.
         21   -1    0    0  503  502  0.00000000000E+00 -0.00000000000E+00 -0.55136261806E+03  0.55136261806E+03  0.00000000000E+00 0.  1.
         21    1    1    2  503  501  0.45740052255E+01 -0.50695068449E+02 -0.64726896096E+02  0.82343685654E+02  0.00000000000E+00 0.  1.
         21    1    1    2  504  502 -0.35198150176E+02 -0.10101831096E+02 -0.44328767482E+03  0.44479761624E+03  0.00000000000E+00 0.  1.
         21    1    1    2  505  504  0.96883695515E+02  0.10688942039E+03  0.14094570911E+03  0.20168661722E+03  0.00000000000E+00 0.  1.
         -3    1    1    2    0  505 -0.66259550564E+02 -0.46092520846E+02  0.47362254887E+03  0.48045100407E+03  0.00000000000E+00 0. -1.
<scales pt_clust_3="60.84120" pt_clust_4="36.61908" pt_clust_5="14000.00000" pt_clust_6="86.82562"></scales>
<clustering>
<clus scale="   36.619">  2  4  1 -1</clus>
<clus scale="   60.841">  2  3  1 -1</clus>
<clus scale="   86.826">  1  6  2 -1</clus>
<clus scale="   36.619">  2  3  1 -1</clus>
</clustering>
</event>
<event>
 6    0  0.5775861E+002  0.6882840E+02  0.7546771E-02  0.1364123E+00
         21   -1    0    0  505  502  0.00000000000E+00  0.00000000000E+00  0.14875139302E+04  0.14875139302E+04  0.00000000000E+00 0.  1.
          4   -1    0    0  503    0 -0.00000000000E+00 -0.00000000000E+00 -0.10083075337E+04  0.10083075337E+04  0.00000000000E+00 0. -1.
         21    1    1    2  503  502 -0.84926856728E+02 -0.28966553347E+02 -0.11753831274E+03  0.14787456566E+03  0.00000000000E+00 0. -1.
         21    1    1    2  504  501  0.54900949833E+02  0.20346427654E+02  0.44644312280E+03  0.45026609166E+03  0.00000000000E+00 0.  1.
         21    1    1    2  505  504 -0.37000636431E+02  0.18904610535E+02  0.10222527438E+04  0.10230968203E+04  0.00000000000E+00 0.  1.
          4    1    1    2  501    0  0.67026543326E+02 -0.10284484842E+02 -0.87195115738E+03  0.87458398624E+03  0.00000000000E+00 0. -1.
<scales pt_clust_3="14000.00000" pt_clust_4="43.09969" pt_clust_5="41.55035" pt_clust_6="68.82840"></scales>
<clustering>
<clus scale="   41.550">  1  5  2 -1</clus>
<clus scale="   43.100">  1  4  2 -1</clus>
<clus scale="   68.828">  2  6  1 -1</clus>
<clus scale="   41.550">  1  3  2 -1</clus>
</clustering>
</event>
<event>
 6    0  0.5775861E+002  0.1553496E+03  0.7546771E-02  0.1194049E+00
         21   -1    0    0  503  502  0.00000000000E+00  0.00000000000E+00  0.16160966295E+03  0.16160966295E+03  0.00000000000E+00 0. -1.
          2   -1    0    0  505    0 -0.00000000000E+00 -0.00000000000E+00 -0.22448507235E+04  0.22448507235E+04  0.00000000000E+00 0.  1.
         21    1    1    2  503  501  0.16125063509E+01  0.86186308105E+02 -0.12419583852E+03  0.15117964872E+03  0.00000000000E+00 0.  1.
         21    1    1    2  504  502 -0.29859917379E+02 -0.99437123832E+01  0.57429332923E+02  0.65487558833E+02  0.00000000000E+00 0. -1.
         21    1    1    2  505  504 -0.98763269462E+02  0.17220437420E+02  0.53626281844E+02  0.11369478864E+03  0.00000000000E+00 0. -1.
          2    1    1    2  501    0  0.12701068049E+03 -0.93463033142E+02 -0.20701008368E+04  0.20760983903E+04  0.00000000000E+00 0.  1.
<scales pt_clust_3="84.88096" pt_clust_4="31.47208" pt_clust_5="155.34960" pt_clust_6="14000.00000"></scales>
<clustering>
<clus scale="   31.472">  1  4  2 -1</clus>
<clus scale="   84.881">  1  3  2 -1</clus>
<clus scale="  155.350">  1  5  2 -1</clus>
<clus scale="   31.472">  1  3  2 -1</clus>
</clustering>
</event>
<event>
 6    0  0.5775861E+002  0.1357459E+03  0.7546771E-02  0.1219171E+00
         -4   -1    0    0    0  501 -0.00000000000E+00  0.00000000000E+00  0.76991245687E+02  0.76991245687E+02  0.00000000000E+00 0.  1.
         21   -1    0    0  504  502  0.00000000000E+00 -0.00000000000E+00 -0.23301222504E+04  0.23301222504E+04  0.00000000000E+00 0.  1.
         21    1    1    2  503  501 -0.54971154740E+02 -0.90749049863E+02 -0.85498688740E+02  0.13626167356E+03  0.00000000000E+00 0.  1.
         21    1    1    2  504  503  0.13185018247E+03  0.48870503482E+02 -0.20479763017E+04  0.20527980244E+04  0.00000000000E+00 0.  1.
         21    1    1    2  505  502 -0.55205065831E+02  0.20641554350E+02 -0.15830242191E+03  0.16891811579E+03  0.00000000000E+00 0.  1.
         -4    1    1    2    0  505 -0.21673961903E+02  0.21236992031E+02  0.38646407631E+02  0.49135682328E+02  0.00000000000E+00 0.  1.
<scales pt_clust_3="135.74589" pt_clust_4="14000.00000" pt_clust_5="63.41670" pt_clust_6="30.34420"></scales>
<clustering>
<clus scale="   30.344">  1  6  2 -1</clus>
<clus scale="   63.417">  1  5  2 -1</clus>
<clus scale="  135.746">  1  3  2 -1</clus>
<clus scale="  135.746">  2  3  1 -1</clus>
</clustering>
</event>
<event>
 6    0  0.5775861E+002  0.8517121E+02  0.7546771E-02  0.1314985E+00
         21   -1    0    0  504  502  0.00000000000E+00  0.00000000000E+00  0.21478826263E+03  0.21478826263E+03  0.00000000000E+00 0. -1.
         -1   -1    0    0    0  501 -0.00000000000E+00 -0.00000000000E+00 -0.43096208997E+03  0.43096208997E+03  0.00000000000E+00 0. -1.
         21    1    1    2  503  502 -0.65166754787E+02  0.42758739486E+02  0.16639368567E+03  0.18374404579E+03  0.00000000000E+00 0. -1.
         21    1    1    2  504  501  0.28554901746E+02  0.39254815352E+02 -0.46821902929E+02  0.67443409878E+02  0.00000000000E+00 0. -1.
         21    1    1    2  505  503 -0.20116581760E+01 -0.12069720222E+03 -0.11349847543E+03  0.16569177806E+03  0.00000000000E+00 0. -1.
         -1    1    1    2    0  505  0.38623511217E+02  0.38683647382E+02 -0.22224713465E+03  0.22887111887E+03  0.00000000000E+00 0. -1.
<scales pt_clust_3="77.89622" pt_clust_4="48.54197" pt_clust_5="14000.00000" pt_clust_6="85.17121"></scales>
<clustering>
<clus scale="   48.542">  2  4  1 -1</clus>
<clus scale="   77.896">  1  3  2 -1</clus>
<clus scale="   85.171">  2  6  1 -1</clus>
<clus scale="   77.896">  1  3  2 -1</clus>
</clustering>
</event>
<event>
 6    0  0.5775861E+002  0.1276796E+03  0.7546771E-02  0.1230940E+00
         21   -1    0    0  503  502  0.00000000000E+00  0.00000000000E+00  0.13204368964E+04  0.13204368964E+04  0.00000000000E+00 0.  1.
          1   -1    0    0  505    0 -0.00000000000E+00 -0.00000000000E+00 -0.35617825826E+03  0.35617825826E+03  0.00000000000E+00 0.  1.
         21    1    1    2  503  501  0.29386073772E+02  0.98405091112E+02  0.51459573068E+03  0.52474362247E+03  0.00000000000E+00 0.  1.
         21    1    1    2  504  502  0.84196290490E+02 -0.15559227081E+03  0.76903191913E+03  0.78911853528E+03  0.00000000000E+00 0.  1.
         21    1    1    2  505  504 -0.15965450642E+02 -0.29534498023E+02 -0.11857919572E+03  0.12324044728E+03  0.00000000000E+00 0. -1.
          1    1    1    2  501    0 -0.97616913620E+02  0.86721677724E+02 -0.20078981599E+03  0.23951254960E+03  0.00000000000E+00 0.  1.
<scales pt_clust_3="101.99035" pt_clust_4="127.67960" pt_clust_5="33.57353" pt_clust_6="14000.00000"></scales>
<clustering>
<clus scale="   33.574">  2  5  1 -1</clus>
<clus scale="  101.990">  1  3  2 -1</clus>
<clus scale="  127.680">  1  4  2 -1</clus>
<clus scale="  101.990">  1  3  2 -1</clus>
</clustering>
</event>
<event>
 6    0  0.5775861E+002  0.1619492E+03  0.7546771E-02  0.1186513E+00
          2   -1    0    0  505    0 -0.00000000000E+00  0.00000000000E+00  0.82497820967E+03  0.82497820967E+03  0.00000000000E+00 0.  1.
         21   -1    0    0  503  502  0.00000000000E+00 -0.00000000000E+00 -0.39116966608E+03  0.39116966608E+03  0.00000000000E+00 0. -1.
         21    1    1    2  503  504  0.36236711042E+02 -0.16641046781E+03 -0.34049562324E+03  0.38071355698E+03  0.00000000000E+00 0. -1.
         21    1    1    2  504  501 -0.84072848821E+02  0.70577314782E+02  0.16021412056E+03  0.19421113691E+03  0.00000000000E+00 0. -1.
         21    1    1    2  505  502  0.43915306037E+02  0.56766483641E+02  0.87489462581E+02  0.11316092007E+03  0.00000000000E+00 0. -1.
          2    1    1    2  501    0  0.39208317414E+01  0.39066669390E+02  0.52660058369E+03  0.52806226178E+03  0.00000000000E+00 0.  1.
<scales pt_clust_3="161.94925" pt_clust_4="14000.00000" pt_clust_5="83.28977" pt_clust_6="39.26293"></scales>
<clustering>
<clus scale="   39.263">  1  6  2 -1</clus>
<clus scale="   83.290">  1  5  2 -1</clus>
<clus scale="  161.949">  2  3  1 -1</clus>
<clus scale="  161.949">  2  3  1 -1</clus>
</clustering>
</event>
<event>
 6    0  0.5775861E+002  0.9328262E+02  0.7546771E-02  0.1295092E+00
         21   -1    0    0  504  502  0.00000000000E+00  0.00000000000E+00  0.76586969432E+03  0.76586969432E+03  0.00000000000E+00 0. -1.
         -4   -1    0    0    0  501 -0.00000000000E+00 -0.00000000000E+00 -0.92313986642E+02  0.92313986642E+02  0.00000000000E+00 0. -1.
         21    1    1    2  503  501 -0.14344981002E+03 -0.34025859479E+02  0.17063090511E+03  0.22550058290E+03  0.00000000000E+00 0. -1.
         21    1    1    2  504  503  0.55407057107E+02  0.69450767129E+01  0.42901756406E+03  0.43263639045E+03  0.00000000000E+00 0. -1.
         21    1    1    2  505  502  0.42114361831E+02  0.45951394109E+02  0.11812286244E+03  0.13355957743E+03  0.00000000000E+00 0. -1.
         -4    1    1    2    0  505  0.45928391077E+02 -0.18870611343E+02 -0.44215623940E+02  0.66487130181E+02  0.00000000000E+00 0. -1.
<scales pt_clust_3="93.28262" pt_clust_4="57.96894" pt_clust_5="14000.00000" pt_clust_6="49.65397"></scales>
<clustering>
<clus scale="   49.654">  2  6  1 -1</clus>
<clus scale="   57.969">  1  4  2 -1</clus>
<clus scale="   93.283">  2  3  1 -1</clus>
<clus scale="   57.969">  1  3  2 -1</clus>
</clustering>
</event>
<event>
 6    0  0.5775861E+002  0.1009493E+03  0.7546771E-02  0.1278312E+00
         21   -1    0    0  505  502  0.00000000000E+00  0.00000000000E+00  0.85716313860E+03  0.85716313860E+03  0.00000000000E+00 0.  1.
          2   -1    0    0  503    0 -0.00000000000E+00 -0.00000000000E+00 -0.17965400372E+03  0.17965400372E+03  0.00000000000E+00 0.  1.
         21    1    1    2  503  504 -0.61860970095E+02  0.33112613008E+01  0.11023674928E+03  0.12645111690E+03  0.00000000000E+00 0.  1.
         21    1    1    2  504  502  0.39696133639E+02  0.76032486470E+01  0.91744494650E+02  0.10025290377E+03  0.00000000000E+00 0.  1.
         21    1    1    2  505  501  0.43005504920E+02  0.88010282571E+02  0.62336512891E+03  0.63101455390E+03  0.00000000000E+00 0.  1.
          2    1    1    2  501    0 -0.20840668465E+02 -0.98924792518E+02 -0.14783723797E+03  0.17909856774E+03  0.00000000000E+00 0.  1.
<scales pt_clust_3="55.87010" pt_clust_4="40.41772" pt_clust_5="14000.00000" pt_clust_6="100.94932"></scales>
<clustering>
<clus scale="   40.418">  1  4  2 -1</clus>
<clus scale="   55.870">  1  3  2 -1</clus>
<clus scale="  100.949">  2  6  1 -1</clus>
<clus scale="   40.418">  1  3  2 -1</clus>
</clustering>
</event>
<event>
 6    0  0.5775861E+002  0.1429876E+03  0.7546771E-02  0.1209365E+00
         -1   -1    0    0    0  501 -0.00000000000E+00  0.00000000000E+00  0.20772100683E+04  0.20772100683E+04  0.00000000000E+00 0. -1.
         21   -1    0    0  504  502  0.00000000000E+00 -0.00000000000E+00 -0.28481108828E+02  0.28481108828E+02  0.00000000000E+00 0. -1.
         21    1    1    2  503  505  0.85437707407E+02  0.96224398469E+01  0.52958512835E+03  0.53651896646E+03  0.00000000000E+00 0. -1.
         21    1    1    2  504  501 -0.10365607764E+03 -0.95885093389E+01  0.57983943014E+03  0.58910974079E+03  0.00000000000E+00 0. -1.
         21    1    1    2  505  502 -0.66637108114E+02  0.71887953304E+01  0.42803316100E+02  0.79525510531E+02  0.00000000000E+00 0. -1.
         -1    1    1    2    0  503  0.84855478348E+02 -0.72227258384E+01  0.89650108489E+03  0.90053695937E+03  0.00000000000E+00 0. -1.
<scales pt_clust_3="48.78044" pt_clust_4="134.32475" pt_clust_5="67.02375" pt_clust_6="48.78044"></scales>
<clustering>
<clus scale="   48.780">  3  6 -1 -1</clus>
<clus scale="   67.024">  2  5  1 -1</clus>
<clus scale="  134.325">  1  4  2 -1</clus>
<clus scale="   67.024">  2  3  1 -1</clus>
</clustering>
</event>
<event>
 6    0  0.5775861E+002  0.1054957E+03  0.7546771E-02  0.1269146E+00
          2   -1    0    0  504    0 -0.00000000000E+00  0.00000000000E+00  0.16253190554E+04  0.16253190554E+04  0.00000000000E+00 0.  1.
         21   -1    0    0  503  502  0.00000000000E+00 -0.00000000000E+00 -0.11413855681E+03  0.11413855681E+03  0.00000000000E+00 0.  1.
         21    1    1    2  503  505  0.44684690099E+02  0.48789617271E+02 -0.77609868296E+02  0.10198254723E+03  0.00000000000E+00 0.  1.
         21    1    1    2  504  502 -0.14942251279E+03 -0.59227874704E+02  0.27974526141E+03  0.32263359985E+03  0.00000000000E+00 0. -1.
         21    1    1    2  505  501  0.65714536322E+02  0.34107755785E+02  0.95518332689E+03  0.95804849943E+03  0.00000000000E+00 0.  1.
          2    1    1    2  501    0  0.39023286370E+02 -0.23669498352E+02  0.35386177859E+03  0.35679296571E+03  0.00000000000E+00 0.  1.
<scales pt_clust_3="66.24683" pt_clust_4="14000.00000" pt_clust_5="105.49572" pt_clust_6="45.64057"></scales>
<clustering>
<clus scale="   45.641">  1  6  2 -1</clus>
<clus scale="   66.247">  2  3  1 -1</clus>
<clus scale="  105.496">  1  5  2 -1</clus>
<clus scale="   66.247">  2  3  1 -1</clus>
</clustering>
</event>
<event>
 6    0  0.5775861E+002  0.1118478E+03  0.7546771E-02  0.1257186E+00
         -1   -1    0    0    0  501 -0.00000000000E+00  0.00000000000E+00  0.14901326992E+03  0.14901326992E+03  0.00000000000E+00 0. -1.
         21   -1    0    0  503  502  0.00000000000E+00 -0.00000000000E+00 -0.18930780036E+04  0.18930780036E+04  0.00000000000E+00 0.  1.
         21    1    1    2  503  501  0.60133807654E+01 -0.82251353586E+02 -0.17383225930E+04  0.17402778179E+04  0.00000000000E+00 0.  1.
         21    1    1    2  504  502  0.17479996881E+02 -0.26722001521E+02 -0.94100737205E+02  0.99370842800E+02  0.00000000000E+00 0.  1.
         21    1    1    2  505  504 -0.39261697838E+02  0.14097932499E+03  0.68105121685E+02  0.16141548436E+03  0.00000000000E+00 0. -1.
         -1    1    1    2    0  505  0.15768320192E+02 -0.32005969879E+02  0.20253474856E+02  0.41027128505E+02  0.00000000000E+00 0. -1.
<scales pt_clust_3="14000.00000" pt_clust_4="31.93142" pt_clust_5="111.84782" pt_clust_6="35.86271"></scales>
<clustering>
<clus scale="   31.931">  2  4  1 -1</clus>
<clus scale="   35.863">  1  6  2 -1</clus>
<clus scale="  111.848">  1  5  2 -1</clus>
<clus scale="   31.931">  2  3  1 -1</clus>
</clustering>
</event>
<event>
 6    0  0.5775861E+002  0.8575224E+02  0.7546771E-02  0.1313477E+00
         -2   -1    0    0    0  501 -0.00000000000E+00  0.00000000000E+00  0.31884896704E+03  0.31884896704E+03  0.00000000000E+00 0.  1.
         21   -1    0    0  505  502  0.00000000000E+00 -0.00000000000E+00 -0.22303803537E+03  0.22303803537E+03  0.00000000000E+00 0. -1.
         21    1    1    2  503  501  0.10624062539E+02  0.50952800236E+02  0.12143191778E+03  0.13211649864E+03  0.00000000000E+00 0.  1.
         21    1    1    2  504  502  0.80952150449E+01  0.36488879001E+02 -0.16558703416E+03  0.16975286943E+03  0.00000000000E+00 0. -1.
         21    1    1    2  505  503  0.54211444717E+02  0.25855610867E+02  0.38450778048E+02  0.71315185508E+02  0.00000000000E+00 0.  1.
         -2    1    1    2    0  504 -0.72930722301E+02 -0.11329729010E+03  0.10151527000E+03  0.16870244884E+03  0.00000000000E+00 0.  1.
<scales pt_clust_3="55.65464" pt_clust_4="37.37607" pt_clust_5="85.75224" pt_clust_6="14000.00000"></scales>
<clustering>
<clus scale="   37.376">  2  4  1 -1</clus>
<clus scale="   55.655">  1  3  2 -1</clus>
<clus scale="   85.752">  2  5  1 -1</clus>
<clus scale="   37.376">  2  3  1 -1</clus>
</clustering>
</event>
<event>
 6    0  0.5775861E+002  0.9014818E+02  0.7546771E-02  0.1302493E+00
         21   -1    0    0  505  502  0.00000000000E+00  0.00000000000E+00  0.14760689058E+03  0.14760689058E+03  0.00000000000E+00 0.  1.
          2   -1    0    0  503    0 -0.00000000000E+00 -0.00000000000E+00 -0.24755377123E+04  0.24755377123E+04  0.00000000000E+00 0. -1.
         21    1    1    2  503  502  0.30179347246E+02 -0.12478849609E+03 -0.54848035540E+02  0.13961113408E+03  0.00000000000E+00 0.  1.
         21    1    1    2  504  501 -0.16355650106E+02  0.66788157419E+02 -0.74932728391E+02  0.10170092943E+03  0.00000000000E+00 0.  1.
         21    1    1    2  505  504 -0.47523785434E+02  0.34655803158E+02  0.82220912461E+02  0.10109309235E+03  0.00000000000E+00 0.  1.
          2    1    1    2  501    0  0.33700088294E+02  0.23344535512E+02 -0.22803709702E+04  0.22807394470E+04  0.00000000000E+00 0. -1.
<scales pt_clust_3="14000.00000" pt_clust_4="90.14818" pt_clust_5="58.19590" pt_clust_6="40.99589"></scales>
<clustering>
<clus scale="   40.996">  2  6  1 -1</clus>
<clus scale="   58.196">  1  5  2 -1</clus>
<clus scale="   90.148">  2  4  1 -1</clus>
<clus scale="   58.196">  1  3  2 -1</clus>
</clustering>
</event>
<event>
 6    0  0.5775861E+002  0.1229199E+03  0.7546771E-02  0.1238356E+00
         21   -1    0    0  505  502  0.00000000000E+00  0.00000000000E+00  0.92222838934E+03  0.92222838934E+03  0.00000000000E+00 0. -1.
          2   -1    0    0  503    0 -0.00000000000E+00 -0.00000000000E+00 -0.93801438672E+03  0.93801438672E+03  0.00000000000E+00 0. -1.
         21    1    1    2  503  504 -0.64580449264E+02 -0.15245616289E+02 -0.55546682459E+02  0.86536103306E+02  0.00000000000E+00 0. -1.
         21    1    1    2  504  502 -0.70827430144E+02  0.97076408571E+02  0.22700695395E+02  0.12229339939E+03  0.00000000000E+00 0. -1.
         21    1    1    2  505  501  0.71191144394E+02  0.32204886888E+02  0.82714362032E+03  0.83082603620E+03  0.00000000000E+00 0. -1.
          2    1    1    2  501    0  0.64216735014E+02 -0.11403567917E+03 -0.81008363064E+03  0.82058723717E+03  0.00000000000E+00 0. -1.
<scales pt_clust_3="66.35558" pt_clust_4="122.91989" pt_clust_5="77.99834" pt_clust_6="14000.00000"></scales>
<clustering>
<clus scale="   66.356">  2  3  1 -1</clus>
<clus scale="   77.998">  1  5  2 -1</clus>
<clus scale="  122.920">  1  4  2 -1</clus>
<clus scale="   77.998">  1  3  2 -1</clus>
</clustering>
</event>
<event>
 6    0  0.5775861E+002  0.6926128E+02  0.7546771E-02  0.1362623E+00
          1   -1    0    0  505    0 -0.00000000000E+00  0.00000000000E+00  0.17757777360E+04  0.17757777360E+04  0.00000000000E+00 0.  1.
         21   -1    0    0  504  502  0.00000000000E+00 -0.00000000000E+00 -0.15874974313E+02  0.15874974313E+02  0.00000000000E+00 0.  1.
         21    1    1    2  503  501 -0.55905143519E+02 -0.10167541586E+02  0.25838683866E+03  0.26456099933E+03  0.00000000000E+00 0.  1.
         21    1    1    2  504  503 -0.23754930902E+02  0.48488228016E+02  0.10985679123E+03  0.12240882149E+03  0.00000000000E+00 0.  1.
         21    1    1    2  505  502  0.13085461232E+02 -0.72903845562E+02  0.25470066280E+03  0.26525200777E+03  0.00000000000E+00 0.  1.
          1    1    1    2  501    0  0.66574613189E+02  0.34583159132E+02  0.11369584690E+04  0.11394308817E+04  0.00000000000E+00 0.  1.
<scales pt_clust_3="69.26128" pt_clust_4="53.99449" pt_clust_5="46.25430" pt_clust_6="14000.00000"></scales>
<clustering>
<clus scale="   53.994">  2  4  1 -1</clus>
<clus scale="   46.254">  2  5  1 -1</clus>
<clus scale="   69.261">  2  3  1 -1</clus>
<clus scale="   53.994">  2  3  1 -1</clus>
</clustering>
</event>
<event>
 6    0  0.5775861E+002  0.8322640E+02  0.7546771E-02  0.1320137E+00
         21   -1    0    0  503  502  0.00000000000E+00  0.00000000000E+00  0.18524930210E+03  0.18524930210E+03  0.00000000000E+00 0. -1.
          2   -1    0    0  505    0 -0.00000000000E+00 -0.00000000000E+00 -0.54238131373E+03  0.54238131373E+03  0.00000000000E+00 0. -1.
         21    1    1    2  503  501  0.89731076243E+02  0.42396257122E+02  0.82200307792E+02  0.12886426682E+03  0.00000000000E+00 0. -1.
         21    1    1    2  504  502 -0.52982678705E+02 -0.50077120864E+02  0.57234810228E+02  0.92686060326E+02  0.00000000000E+00 0. -1.
         21    1    1    2  505  504 -0.54803594571E+02 -0.17198405142E+02 -0.20492767431E+03  0.21282521189E+03  0.00000000000E+00 0. -1.
          2    1    1    2  501    0  0.18055197033E+02  0.24879268884E+02 -0.29163945533E+03  0.29325507679E+03  0.00000000000E+00 0. -1.
<scales pt_clust_3="83.22640" pt_clust_4="14000.00000" pt_clust_5="39.87667" pt_clust_6="30.74033"></scales>
<clustering>
<clus scale="   30.740">  2  6  1 -1</clus>
<clus scale="   39.877">  2  5  1 -1</clus>
<clus scale="   83.226">  2  3  1 -1</clus>
<clus scale="   83.226">  1  3  2 -1</clus>
</clustering>
</event>
<event>
 6    0  0.5775861E+002  0.7108673E+02  0.7546771E-02  0.1356436E+00
          2   -1    0    0  503    0 -0.00000000000E+00  0.00000000000E+00  0.16676239017E+04  0.16676239017E+04  0.00000000000E+00 0. -1.
         21   -1    0    0  505  502  0.00000000000E+00 -0.00000000000E+00 -0.54260223262E+02  0.54260223262E+02  0.00000000000E+00 0.  1.
         21    1    1    2  503  504 -0.47800609659E+02  0.43268765243E+02  0.15265703566E+01  0.64493524841E+02  0.00000000000E+00 0.  1.
         21    1    1    2  504  502  0.15439544923E+02  0.58797057970E+02  0.42053067168E+02  0.73918428227E+02  0.00000000000E+00 0.  1.
         21    1    1    2  505  501 -0.21543274837E+02 -0.55436500589E+02  0.14255247472E+03  0.15446205468E+03  0.00000000000E+00 0.  1.
          2    1    1    2  501    0  0.53904339572E+02 -0.46629322623E+02  0.14272315662E+04  0.14290101172E+04  0.00000000000E+00 0. -1.
<scales pt_clust_3="71.08673" pt_clust_4="41.36063" pt_clust_5="59.47536" pt_clust_6="14000.00000"></scales>
<clustering>
<clus scale="   59.475">  2  5  1 -1</clus>
<clus scale="   41.361">  2  4  1 -1</clus>
<clus scale="   71.087">  2  3  1 -1</clus>
<clus scale="   59.475">  2  3  1 -1</clus>
</clustering>
</event>
<event>
 6    0  0.5775861E+002  0.1445109E+03  0.7546771E-02  0.1207385E+00
          2   -1    0    0  504    0 -0.00000000000E+00  0.00000000000E+00  0.51796509923E+03  0.51796509923E+03  0.00000000000E+00 0. -1.
         21   -1    0    0  505  502  0.00000000000E+00 -0.00000000000E+00 -0.55781921607E+03  0.55781921607E+03  0.00000000000E+00 0. -1.
         21    1    1    2  503  501  0.15137609690E+03 -0.15401913647E+01 -0.24692097577E+02  0.15338446657E+03  0.00000000000E+00 0. -1.
         21    1    1    2  504  502 -0.16569141537E+02 -0.10616095097E+03 -0.93704313560E+02  0.14256641379E+03  0.00000000000E+00 0. -1.
         21    1    1    2  505  503 -0.94509735054E+01  0.32661780684E+02 -0.33733274041E+03  0.33904201888E+03  0.00000000000E+00 0. -1.
          2    1    1    2  501    0 -0.12535598186E+03  0.75039361648E+02  0.41587503471E+03  0.44079141606E+03  0.00000000000E+00 0. -1.
<scales pt_clust_3="144.51088" pt_clust_4="91.20050" pt_clust_5="34.00166" pt_clust_6="14000.00000"></scales>
<clustering>
<clus scale="   34.002">  2  5  1 -1</clus>
<clus scale="   91.201">  2  4  1 -1</clus>
<clus scale="  144.511">  2  3  1 -1</clus>
<clus scale="   34.002">  2  3  1 -1</clus>
</clustering>
</event>
<event>
 6    0  0.5775861E+002  0.1638748E+03  0.7546771E-02  0.1184390E+00
         21   -1    0    0  504  502  0.00000000000E+00  0.00000000000E+00  0.71047968505E+02  0.71047968505E+02  0.00000000000E+00 0.  1.
          2   -1    0    0  503    0 -0.00000000000E+00 -0.00000000000E+00 -0.31678298386E+04  0.31678298386E+04  0.00000000000E+00 0. -1.
         21    1    1    2  503  505 -0.67862829857E+02  0.61372507106E+02 -0.66362894542E+02  0.11303088992E+03  0.00000000000E+00 0.  1.
         21    1    1    2  504  501  0.11336614092E+03 -0.23194837454E+02 -0.28629970104E+03  0.30879993719E+03  0.00000000000E+00 0. -1.
         21    1    1    2  505  502 -0.79434589063E+02  0.54062491598E+02 -0.29307363167E+02  0.10045659995E+03  0.00000000000E+00 0.  1.
          2    1    1    2  501    0  0.33931278004E+02 -0.92240161250E+02 -0.27148119113E+04  0.27165903800E+04  0.00000000000E+00 0. -1.
<scales pt_clust_3="36.54285" pt_clust_4="159.53869" pt_clust_5="36.54285" pt_clust_6="98.28316"></scales>
<clustering>
<clus scale="   36.543">  3  5 -1 -1</clus>
<clus scale="   98.283">  2  6  1 -1</clus>
<clus scale="  159.539">  2  4  1 -1</clus>
<clus scale="  163.875">  1  3  2 -1</clus>
</clustering>
</event>
<event>
 6    0  0.5775861E+002  0.1256165E+03  0.7546771E-02  0.1234109E+00
          2   -1    0    0  502    0 -0.00000000000E+00  0.00000000000E+00  0.69054859815E+03  0.69054859815E+03  0.00000000000E+00 0.  1.
         21   -1    0    0  505  502  0.00000000000E+00 -0.00000000000E+00 -0.18066550236E+03  0.18066550236E+03  0.00000000000E+00 0. -1.
         21    1    1    2  503  504 -0.40776943832E+02 -0.10908005067E+00 -0.13699809112E+02  0.43016924768E+02  0.00000000000E+00 0. -1.
         21    1    1    2  504  501  0.79439751830E+02  0.36786459135E+02  0.51478246041E+02  0.10155750864E+03  0.00000000000E+00 0. -1.
         21    1    1    2  505  503 -0.88017933478E+02 -0.19407670084E+02 -0.10998911943E+03  0.14220204170E+03  0.00000000000E+00 0. -1.
          2    1    1    2  501    0  0.49355125480E+02 -0.17269709000E+02  0.58209377828E+03  0.58443762539E+03  0.00000000000E+00 0.  1.
<scales pt_clust_3="30.36546" pt_clust_4="117.22380" pt_clust_5="30.36546" pt_clust_6="52.28930"></scales>
<clustering>
<clus scale="   30.365">  3  5 -1 -1</clus>
<clus scale="   52.289">  1  6  2 -1</clus>
<clus scale="  117.224">  1  4  2 -1</clus>
<clus scale="  125.617">  2  3  1 -1</clus>
</clustering>
</event>
<event>
 6    0  0.5775861E+002  0.8946523E+02  0.7546771E-02  0.1304152E+00
         21   -1    0    0  504  502  0.00000000000E+00  0.00000000000E+00  0.47975686533E+03  0.47975686533E+03  0.00000000000E+00 0.  1.
         -1   -1    0    0    0  501 -0.00000000000E+00 -0.00000000000E+00 -0.54923628905E+03  0.54923628905E+03  0.00000000000E+00 0. -1.
         21    1    1    2  503  502  0.47141728981E+02  0.75383331708E+02  0.43858298303E+03  0.44750421486E+03  0.00000000000E+00 0.  1.
         21    1    1    2  504  501 -0.77424346534E+02 -0.90808820364E+02 -0.21438276475E+03  0.24535839320E+03  0.00000000000E+00 0.  1.
         21    1    1    2  505  503  0.34587450143E+02  0.48029918423E+02 -0.23061902758E+02  0.63521776817E+02  0.00000000000E+00 0. -1.
         -1    1    1    2    0  505 -0.43048325893E+01 -0.32604429767E+02 -0.27061773924E+03  0.27260876951E+03  0.00000000000E+00 0. -1.
<scales pt_clust_3="14000.00000" pt_clust_4="89.46523" pt_clust_5="54.72327" pt_clust_6="32.88739"></scales>
<clustering>
<clus scale="   32.887">  2  6  1 -1</clus>
<clus scale="   54.723">  2  5  1 -1</clus>
<clus scale="   89.465">  2  4  1 -1</clus>
<clus scale="   89.465">  1  3  2 -1</clus>
</clustering>
</event>
<event>
 6    0  0.5775861E+002  0.1523119E+03  0.7546771E-02  0.1197661E+00
          2   -1    0    0  505    0 -0.00000000000E+00  0.00000000000E+00  0.68489427815E+03  0.68489427815E+03  0.00000000000E+00 0. -1.
         21   -1    0    0  504  502  0.00000000000E+00 -0.00000000000E+00 -0.24652063233E+03  0.24652063233E+03  0.00000000000E+00 0.  1.
         21    1    1    2  503  501  0.14505245535E+03 -0.17624951469E+02  0.24638563372E+03  0.28645546638E+03  0.00000000000E+00 0.  1.
         21    1    1    2  504  503 -0.48697417732E+02 -0.27493102429E+02 -0.17289993553E+03  0.18171873013E+03  0.00000000000E+00 0.  1.
         21    1    1    2  505  502 -0.13059593706E+03  0.33696699086E+02  0.46276730131E+02  0.14259138143E+03  0.00000000000E+00 0.  1.
          2    1    1    2  501    0  0.34240899450E+02  0.11421354812E+02  0.31861121750E+03  0.32064933254E+03  0.00000000000E+00 0. -1.
<scales pt_clust_3="14000.00000" pt_clust_4="55.49468" pt_clust_5="152.31190" pt_clust_6="36.09552"></scales>
<clustering>
<clus scale="   36.096">  1  6  2 -1</clus>
<clus scale="   55.495">  2  4  1 -1</clus>
<clus scale="  152.312">  2  5  1 -1</clus>
<clus scale="   55.495">  2  3  1 -1</clus>
</clustering>
</event>
<event>
 6    0  0.5775861E+002  0.1208806E+03  0.7546771E-02  0.1241651E+00
         21   -1    0    0  503  502  0.00000000000E+00  0.00000000000E+00  0.52547110285E+02  0.52547110285E+02  0.00000000000E+00 0. -1.
          2   -1    0    0  504    0 -0.00000000000E+00 -0.00000000000E+00 -0.23869226715E+04  0.23869226715E+04  0.00000000000E+00 0. -1.
         21    1    1    2  503  505  0.71558303350E+02 -0.66363987791E+02 -0.97958901937E+01  0.98085315509E+02  0.00000000000E+00 0. -1.
         21    1    1    2  504  502 -0.23079409701E+02 -0.32951009250E+02 -0.52907458409E+02  0.66465233905E+02  0.00000000000E+00 0. -1.
         21    1    1    2  505  501 -0.24956608593E+02  0.18206859594E+02 -0.33957301942E+03  0.34097530346E+03  0.00000000000E+00 0. -1.
          2    1    1    2  501    0 -0.23522285055E+02  0.81108137447E+02 -0.19320991932E+04  0.19339439289E+04  0.00000000000E+00 0. -1.
<scales pt_clust_3="109.83131" pt_clust_4="40.22969" pt_clust_5="30.53694" pt_clust_6="30.53694"></scales>
<clustering>
<clus scale="   30.537">  5  6 -1 -1</clus>
<clus scale="   40.230">  1  4  2 -1</clus>
<clus scale="  109.831">  1  3  2 -1</clus>
<clus scale="   40.230">  1  3  2 -1</clus>
</clustering>
</event>
<event>
 6    0  0.5775861E+002  0.8830649E+02  0.7546771E-02  0.1307005E+00
         21   -1    0    0  504  502  0.00000000000E+00  0.00000000000E+00  0.17112395034E+04  0.17112395034E+04  0.00000000000E+00 0.  1.
          2   -1    0    0  503    0 -0.00000000000E+00 -0.00000000000E+00 -0.69410248239E+03  0.69410248239E+03  0.00000000000E+00 0.  1.
         21    1    1    2  503  502  0.48052013605E+01  0.40195669753E+02  0.57062673253E+03  0.57206087937E+03  0.00000000000E+00 0.  1.
         21    1    1    2  504  505  0.27281826875E+02 -0.24977600185E+02  0.45838062527E+03  0.45987060812E+03  0.00000000000E+00 0.  1.
         21    1    1    2  505  501 -0.88672993636E+02 -0.82837639055E+02  0.67251181435E+03  0.68337187145E+03  0.00000000000E+00 0.  1.
          2    1    1    2  501    0  0.56585965401E+02  0.67619569486E+02 -0.68438215118E+03  0.69003862683E+03  0.00000000000E+00 0.  1.
<scales pt_clust_3="33.57146" pt_clust_4="36.98890" pt_clust_5="88.30649" pt_clust_6="14000.00000"></scales>
<clustering>
<clus scale="   36.989">  1  4  2 -1</clus>
<clus scale="   33.571">  1  3  2 -1</clus>
<clus scale="   88.306">  1  5  2 -1</clus>
<clus scale="   36.989">  1  3  2 -1</clus>
</clustering>
</event>
<event>
 6    0  0.5775861E+002  0.8503714E+02  0.7546771E-02  0.1315335E+00
         21   -1    0    0  503  502  0.00000000000E+00  0.00000000000E+00  0.10465622827E+04  0.10465622827E+04  0.00000000000E+00 0.  1.
          2   -1    0    0  504    0 -0.00000000000E+00 -0.00000000000E+00 -0.51980896527E+02  0.51980896527E+02  0.00000000000E+00 0.  1.
         21    1    1    2  503  505  0.29271274778E+02  0.11937913272E+02  0.11550039238E+03  0.11974832750E+03  0.00000000000E+00 0. -1.
         21    1    1    2  504  502 -0.12005143148E+03 -0.40355931144E+02  0.83993556137E+03  0.84943080627E+03  0.00000000000E+00 0.  1.
         21    1    1    2  505  501  0.48782296163E+02  0.19162849472E+02  0.61575316321E+02  0.80860662864E+02  0.00000000000E+00 0.  1.
          2    1    1    2  501    0  0.41997860535E+02  0.92551683996E+01 -0.22429883895E+02  0.48503382595E+02  0.00000000000E+00 0.  1.
<scales pt_clust_3="31.61204" pt_clust_4="85.03714" pt_clust_5="14000.00000" pt_clust_6="43.44285"></scales>
<clustering>
<clus scale="   31.612">  1  3  2 -1</clus>
<clus scale="   43.443">  2  6  1 -1</clus>
<clus scale="   85.037">  1  4  2 -1</clus>
<clus scale="   31.612">  1  3  2 -1</clus>
</clustering>
</event>
<event>
 6    0  0.5775861E+002  0.9945413E+02  0.7546771E-02  0.1281448E+00
         21   -1    0    0  504  502  0.00000000000E+00  0.00000000000E+00  0.31818501027E+04  0.31818501027E+04  0.00000000000E+00 0. -1.
          2   -1    0    0  503    0 -0.00000000000E+00 -0.00000000000E+00 -0.47843672299E+03  0.47843672299E+03  0.00000000000E+00 0. -1.
         21    1    1    2  503  505  0.10134393887E+03  0.14954057605E+02 -0.12840072763E+03  0.16425883429E+03  0.00000000000E+00 0. -1.
         21    1    1    2  504  501  0.21514856383E+02 -0.84481490983E+02  0.30202382822E+04  0.30214962010E+04  0.00000000000E+00 0. -1.
         21    1    1    2  505  502 -0.11520537120E+03  0.99625732729E+02  0.10144800989E+03  0.18300071827E+03  0.00000000000E+00 0.  1.
          2    1    1    2  501    0 -0.76534240525E+01 -0.30098299351E+02 -0.28987218475E+03  0.29153107213E+03  0.00000000000E+00 0. -1.
<scales pt_clust_3="14000.00000" pt_clust_4="87.26945" pt_clust_5="99.45413" pt_clust_6="31.05612"></scales>
<clustering>
<clus scale="   31.056">  2  6  1 -1</clus>
<clus scale="   87.269">  1  4  2 -1</clus>
<clus scale="   99.454">  1  5  2 -1</clus>
<clus scale="   87.269">  1  3  2 -1</clus>
</clustering>
</event>
<event>
 6    0  0.5775861E+002  0.1214783E+03  0.7546771E-02  0.1240678E+00
         -1   -1    0    0    0  501 -0.00000000000E+00  0.00000000000E+00  0.10914898254E+04  0.10914898254E+04  0.00000000000E+00 0. -1.
         21   -1    0    0  504  502  0.00000000000E+00 -0.00000000000E+00 -0.43334746773E+03  0.43334746773E+03  0.00000000000E+00 0. -1.
         21    1    1    2  503  502  0.20386574853E+02 -0.10702143830E+03  0.22573655628E+02  0.11125992369E+03  0.00000000000E+00 0. -1.
         21    1    1    2  504  505 -0.14732184738E+03  0.28513341214E+02 -0.24810325572E+03  0.28995165604E+03  0.00000000000E+00 0. -1.
         21    1    1    2  505  501  0.35136865965E+02  0.15645974850E+03 -0.60807888035E+02  0.17149883818E+03  0.00000000000E+00 0.  1.
         -1    1    1    2    0  503  0.91798406565E+02 -0.77951651411E+02  0.94447984577E+03  0.95212687519E+03  0.00000000000E+00 0. -1.
<scales pt_clust_3="108.94586" pt_clust_4="121.47835" pt_clust_5="14000.00000" pt_clust_6="121.26557"></scales>
<clustering>
<clus scale="  108.946">  2  3  1 -1</clus>
<clus scale="  121.266">  1  6  2 -1</clus>
<clus scale="  121.478">  2  4  1 -1</clus>
<clus scale="  108.946">  2  3  1 -1</clus>
</clustering>
</event>
<event>
 6    0  0.5775861E+002  0.8919933E+02  0.7546771E-02  0.1304802E+00
          2   -1    0    0  503    0 -0.00000000000E+00  0.00000000000E+00  0.28473251511E+03  0.28473251511E+03  0.00000000000E+00 0.  1.
         21   -1    0    0  504  502  0.00000000000E+00 -0.00000000000E+00 -0.16740389343E+03  0.16740389343E+03  0.00000000000E+00 0. -1.
         21    1    1    2  503  505 -0.64433137466E+02 -0.98519670304E+01  0.44445708624E+02  0.78893038180E+02  0.00000000000E+00 0. -1.
         21    1    1    2  504  501 -0.90381938985E+01 -0.29737960948E+02 -0.72852177094E+02  0.79205271148E+02  0.00000000000E+00 0. -1.
         21    1    1    2  505  502  0.96997069899E+02  0.73122556266E+02 -0.20184324374E+02  0.12313710551E+03  0.00000000000E+00 0. -1.
          2    1    1    2  501    0 -0.23525738535E+02 -0.33532628287E+02  0.16591941452E+03  0.17090099371E+03  0.00000000000E+00 0.  1.
<scales pt_clust_3="89.19933" pt_clust_4="31.08111" pt_clust_5="14000.00000" pt_clust_6="41.76808"></scales>
<clustering>
<clus scale="   31.081">  2  4  1 -1</clus>
<clus scale="   41.768">  1  6  2 -1</clus>
<clus scale="   89.199">  1  3  2 -1</clus>
<clus scale="   31.081">  2  3  1 -1</clus>
</clustering>
</event>
<event>
 6    0  0.5775861E+002  0.8269940E+02  0.7546771E-02  0.1321561E+00
         21   -1    0    0  505  502  0.00000000000E+00  0.00000000000E+00  0.14902778650E+03  0.14902778650E+03  0.00000000000E+00 0. -1.
         -3   -1    0    0    0  501 -0.00000000000E+00 -0.00000000000E+00 -0.10241210856E+04  0.10241210856E+04  0.00000000000E+00 0. -1.
         21    1    1    2  503  504  0.10394945024E+03 -0.11541292124E+02 -0.55708649377E+02  0.11849954955E+03  0.00000000000E+00 0. -1.
         21    1    1    2  504  502 -0.44515086275E+02 -0.27687707217E+02  0.92065726810E+02  0.10594479737E+03  0.00000000000E+00 0. -1.
         21    1    1    2  505  501 -0.34500298938E+02 -0.24453122945E+02 -0.84566446604E+01  0.43124710869E+02  0.00000000000E+00 0. -1.
         -3    1    1    2    0  503 -0.24934065024E+02  0.63682122286E+02 -0.90299373186E+03  0.90557981430E+03  0.00000000000E+00 0. -1.
<scales pt_clust_3="82.69940" pt_clust_4="14000.00000" pt_clust_5="42.28742" pt_clust_6="68.29060"></scales>
<clustering>
<clus scale="   42.287">  1  5  2 -1</clus>
<clus scale="   68.291">  2  6  1 -1</clus>
<clus scale="   82.699">  2  3  1 -1</clus>
<clus scale="   42.287">  1  3  2 -1</clus>
</clustering>
</event>
<event>
 6    0  0.5775861E+002  0.8205425E+02  0.7546771E-02  0.1323321E+00
         21   -1    0    0  505  502  0.00000000000E+00  0.00000000000E+00  0.11866362311E+03  0.11866362311E+03  0.00000000000E+00 0. -1.
          2   -1    0    0  504    0 -0.00000000000E+00 -0.00000000000E+00 -0.24234419818E+03  0.24234419818E+03  0.00000000000E+00 0. -1.
         21    1    1    2  503  502 -0.52805978608E+02  0.14363817212E+02  0.21477354611E+02  0.58788326926E+02  0.00000000000E+00 0. -1.
         21    1    1    2  504  503 -0.41296779817E+02  0.27792096747E+02 -0.47333380687E+02  0.68689690581E+02  0.00000000000E+00 0. -1.
         21    1    1    2  505  501  0.26701646265E+02 -0.97902496116E+02  0.10966454976E+01  0.10148437954E+03  0.00000000000E+00 0.  1.
          2    1    1    2  501    0  0.67401112161E+02  0.55746582157E+02 -0.98921194492E+02  0.13204542424E+03  0.00000000000E+00 0. -1.
<scales pt_clust_3="59.51784" pt_clust_4="49.77775" pt_clust_5="14000.00000" pt_clust_6="82.05425"></scales>
<clustering>
<clus scale="   49.778">  2  4  1 -1</clus>
<clus scale="   59.518">  1  3  2 -1</clus>
<clus scale="   82.054">  2  6  1 -1</clus>
<clus scale="   59.518">  1  3  2 -1</clus>
</clustering>
</event>
<event>
 6    0  0.5775861E+002  0.8502179E+02  0.7546771E-02  0.1315376E+00
         21   -1    0    0  505  502  0.00000000000E+00  0.00000000000E+00  0.28827582916E+03  0.28827582916E+03  0.00000000000E+00 0.  1.
          2   -1    0    0  503    0 -0.00000000000E+00 -0.00000000000E+00 -0.61401032407E+03  0.61401032407E+03  0.00000000000E+00 0.  1.
         21    1    1    2  503  504 -0.24766086947E+02 -0.61757317611E+02  0.27557871669E+02  0.72019175447E+02  0.00000000000E+00 0.  1.
         21    1    1    2  504  502 -0.55321773115E+02 -0.37065918373E+02  0.11203622026E+03  0.13033225056E+03  0.00000000000E+00 0.  1.
         21    1    1    2  505  501  0.44158466393E+02  0.11522425095E+03  0.83945234794E+02  0.14924275730E+03  0.00000000000E+00 0.  1.
          2    1    1    2  501    0  0.35929393669E+02 -0.16401014964E+02 -0.54927382163E+03  0.55069196993E+03  0.00000000000E+00 0.  1.
<scales pt_clust_3="85.02179" pt_clust_4="63.81187" pt_clust_5="14000.00000" pt_clust_6="39.49575"></scales>
<clustering>
<clus scale="   39.496">  2  6  1 -1</clus>
<clus scale="   63.812">  1  4  2 -1</clus>
<clus scale="   85.022">  2  3  1 -1</clus>
<clus scale="   63.812">  1  3  2 -1</clus>
</clustering>
</event>
<event>
 6    0  0.5775861E+002  0.1232026E+03  0.7546771E-02  0.1237905E+00
          2   -1    0    0  503    0 -0.00000000000E+00  0.00000000000E+00  0.40014727297E+04  0.40014727297E+04  0.00000000000E+00 0. -1.
         21   -1    0    0  505  502  0.00000000000E+00 -0.00000000000E+00 -0.15022120929E+04  0.15022120929E+04  0.00000000000E+00 0. -1.
         21    1    1    2  503  504  0.94094565633E+02  0.18014826807E+02  0.56244417914E+02  0.11109345531E+03  0.00000000000E+00 0.  1.
         21    1    1    2  504  502  0.74786241564E+01  0.53648476929E+02 -0.21310686559E+03  0.21988320776E+03  0.00000000000E+00 0.  1.
         21    1    1    2  505  501  0.18274114313E+02 -0.10556894778E+03 -0.12550187829E+04  0.12595836183E+04  0.00000000000E+00 0. -1.
          2    1    1    2  501    0 -0.11984730410E+03  0.33905644040E+02  0.39111418673E+04  0.39131245412E+04  0.00000000000E+00 0. -1.
<scales pt_clust_3="123.20259" pt_clust_4="54.16723" pt_clust_5="58.94898" pt_clust_6="14000.00000"></scales>
<clustering>
<clus scale="   54.167">  2  4  1 -1</clus>
<clus scale="   58.949">  2  5  1 -1</clus>
<clus scale="  123.203">  2  3  1 -1</clus>
<clus scale="   54.167">  2  3  1 -1</clus>
</clustering>
</event>
<event>
 6    0  0.5775861E+002  0.1022038E+03  0.7546771E-02  0.1275729E+00
         -2   -1    0    0    0  501 -0.00000000000E+00  0.00000000000E+00  0.40187481305E+02  0.40187481305E+02  0.00000000000E+00 0.  1.
         21   -1    0    0  503  502  0.00000000000E+00 -0.00000000000E+00 -0.21270715574E+04  0.21270715574E+04  0.00000000000E+00 0.  1.
         21    1    1    2  503  501  0.40931465096E+02 -0.13902989285E+03 -0.14575779070E+04  0.14647655276E+04  0.00000000000E+00 0.  1.
         21    1    1    2  504  505  0.19285731082E+02  0.81054544713E+02 -0.26551476795E+03  0.27828020167E+03  0.00000000000E+00 0.  1.
         21    1    1    2  505  502 -0.39536592280E+02  0.34434677434E+02 -0.38358442596E+03  0.38715100539E+03  0.00000000000E+00 0.  1.
         -2    1    1    2    0  504 -0.20680603898E+02  0.23540670700E+02  0.19793024753E+02  0.37062304077E+02  0.00000000000E+00 0.  1.
<scales pt_clust_3="102.20375" pt_clust_4="14000.00000" pt_clust_5="57.14275" pt_clust_6="31.33449"></scales>
<clustering>
<clus scale="   31.334">  1  6  2 -1</clus>
<clus scale="   57.143">  2  5  1 -1</clus>
<clus scale="  102.204">  2  3  1 -1</clus>
<clus scale="   57.143">  2  3  1 -1</clus>
</clustering>
</event>
<event>
 6    0  0.5775861E+002  0.9693454E+02  0.7546771E-02  0.1286878E+00
         21   -1    0    0  505  502  0.00000000000E+00  0.00000000000E+00  0.22089271650E+04  0.22089271650E+04  0.00000000000E+00 0. -1.
         -2   -1    0    0    0  501 -0.00000000000E+00 -0.00000000000E+00 -0.47253928844E+02  0.47253928844E+02  0.00000000000E+00 0.  1.
         21    1    1    2  503  501 -0.12059325592E+03  0.50707864255E+02  0.55610679269E+03  0.57128695570E+03  0.00000000000E+00 0. -1.
         21    1    1    2  504  502  0.25562297386E+02  0.33584239974E+02  0.71990585955E+03  0.72114199631E+03  0.00000000000E+00 0. -1.
         21    1    1    2  505  503  0.30539396755E+02 -0.96688681952E+02  0.89202760868E+03  0.89777202597E+03  0.00000000000E+00 0. -1.
         -2    1    1    2    0  504  0.64491561779E+02  0.12396577723E+02 -0.63670248049E+01  0.65980115829E+02  0.00000000000E+00 0.  1.
<scales pt_clust_3="14000.00000" pt_clust_4="42.20583" pt_clust_5="96.93454" pt_clust_6="66.30425"></scales>
<clustering>
<clus scale="   42.206">  1  4  2 -1</clus>
<clus scale="   66.304">  2  6  1 -1</clus>
<clus scale="   96.935">  1  5  2 -1</clus>
<clus scale="   42.206">  1  3  2 -1</clus>
</clustering>
</event>
<event>
 6    0  0.5775861E+002  0.1238512E+03  0.7546771E-02  0.1236876E+00
         21   -1    0    0  504  502  0.00000000000E+00  0.00000000000E+00  0.83482222240E+02  0.83482222240E+02  0.00000000000E+00 0. -1.
          2   -1    0    0  505    0 -0.00000000000E+00 -0.00000000000E+00 -0.27689904902E+04  0.27689904902E+04  0.00000000000E+00 0.  1.
         21    1    1    2  503  501 -0.12244013682E+03 -0.16387330783E+02 -0.28776237097E+02  0.12683928231E+03  0.00000000000E+00 0. -1.
         21    1    1    2  504  503 -0.16230558886E+02  0.30905271660E+02  0.13628477858E+02  0.37474021226E+02  0.00000000000E+00 0. -1.
         21    1    1    2  505  502  0.23415851249E+02  0.32119546275E+02 -0.45749728559E+02  0.60605321597E+02  0.00000000000E+00 0. -1.
          2    1    1    2  501    0  0.11525484446E+03 -0.46637487152E+02 -0.26246107801E+04  0.26275540873E+04  0.00000000000E+00 0.  1.
<scales pt_clust_3="123.85117" pt_clust_4="34.90798" pt_clust_5="41.91773" pt_clust_6="14000.00000"></scales>
<clustering>
<clus scale="   34.908">  1  4  2 -1</clus>
<clus scale="   41.918">  1  5  2 -1</clus>
<clus scale="  123.851">  1  3  2 -1</clus>
<clus scale="   34.908">  1  3  2 -1</clus>
</clustering>
</event>
<event>
 6    0  0.5775861E+002  0.7883301E+02  0.7546771E-02  0.1332396E+00
         21   -1    0    0  504  502  0.00000000000E+00  0.00000000000E+00  0.31711718497E+03  0.31711718497E+03  0.00000000000E+00 0.  1.
          4   -1    0    0  505    0 -0.00000000000E+00 -0.00000000000E+00 -0.58763799114E+03  0.58763799114E+03  0.00000000000E+00 0.  1.
         21    1    1    2  503  502 -0.76829321100E+02 -0.54215117832E+02 -0.25462626860E+03  0.27143426505E+03  0.00000000000E+00 0.  1.
         21    1    1    2  504  501  0.48674724800E+01 -0.63689831649E+02  0.28404922260E+03  0.29114265885E+03  0.00000000000E+00 0.  1.
         21    1    1    2  505  503  0.16970139222E+02  0.75473866522E+02 -0.23379520372E+03  0.24626101485E+03  0.00000000000E+00 0.  1.
          4    1    1    2  501    0  0.54991709398E+02  0.42431082959E+02 -0.66148556447E+02  0.95917237365E+02  0.00000000000E+00 0.  1.
<scales pt_clust_3="14000.00000" pt_clust_4="63.87556" pt_clust_5="78.83301" pt_clust_6="58.36533"></scales>
<clustering>
<clus scale="   63.876">  1  4  2 -1</clus>
<clus scale="   58.365">  1  6  2 -1</clus>
<clus scale="   78.833">  2  5  1 -1</clus>
<clus scale="   63.876">  1  3  2 -1</clus>
</clustering>
</event>
<event>
 6    0  0.5775861E+002  0.1024995E+03  0.7546771E-02  0.1275126E+00
         21   -1    0    0  504  502  0.00000000000E+00  0.00000000000E+00  0.12541809082E+04  0.12541809082E+04  0.00000000000E+00 0. -1.
          1   -1    0    0  503    0 -0.00000000000E+00 -0.00000000000E+00 -0.91565521977E+02  0.91565521977E+02  0.00000000000E+00 0. -1.
         21    1    1    2  503  502 -0.54146448476E+02 -0.12903380972E+01  0.44248399020E+03  0.44578647852E+03  0.00000000000E+00 0. -1.
         21    1    1    2  504  505  0.76653734467E+02 -0.31400682293E+01  0.47003217714E+03  0.47625193184E+03  0.00000000000E+00 0. -1.
         21    1    1    2  505  501  0.44047126337E+02 -0.47602570345E+02  0.31219574072E+03  0.31886099568E+03  0.00000000000E+00 0. -1.
          1    1    1    2  501    0 -0.66554412328E+02  0.52032976672E+02 -0.62096521785E+02  0.10484702418E+03  0.00000000000E+00 0. -1.
<scales pt_clust_3="54.16182" pt_clust_4="51.85289" pt_clust_5="51.85289" pt_clust_6="85.58975"></scales>
<clustering>
<clus scale="   51.853">  4  5 -1 -1</clus>
<clus scale="   54.162">  1  3  2 -1</clus>
<clus scale="   85.590">  2  6  1 -1</clus>
<clus scale="   54.162">  1  3  2 -1</clus>
</clustering>
</event>
<event>
 6    0  0.5775861E+002  0.1111907E+03  0.7546771E-02  0.1258381E+00
         21   -1    0    0  503  502  0.00000000000E+00  0.00000000000E+00  0.82213404016E+02  0.82213404016E+02  0.00000000000E+00 0.  1.
          2   -1    0    0  504    0 -0.00000000000E+00 -0.00000000000E+00 -0.66196102682E+03  0.66196102682E+03  0.00000000000E+00 0.  1.
         21    1    1    2  503  501  0.77073451624E+02  0.10235225178E+03 -0.17336200315E+03  0.21557060218E+03  0.00000000000E+00 0.  1.
         21    1    1    2  504  505 -0.33728127558E+02 -0.47308312582E+02 -0.98827855975E+01  0.58934985188E+02  0.00000000000E+00 0. -1.
         21    1    1    2  505  502 -0.21169098034E+01 -0.42137837402E+02  0.22928384673E+02  0.48018636712E+02  0.00000000000E+00 0.  1.
          2    1    1    2  501    0 -0.41228414262E+02 -0.12906101801E+02 -0.41943121873E+03  0.42165020675E+03  0.00000000000E+00 0.  1.
<scales pt_clust_3="101.88213" pt_clust_4="37.95126" pt_clust_5="37.95126" pt_clust_6="43.20127"></scales>
<clustering>
<clus scale="   37.951">  4  5 -1 -1</clus>
<clus scale="   43.201">  2  6  1 -1</clus>
<clus scale="  101.882">  2  3  1 -1</clus>
<clus scale="  111.191">  1  3  2 -1</clus>
</clustering>
</event>
<event>
 6    0  0.5775861E+002  0.9058011E+02  0.7546771E-02  0.1301453E+00
          2   -1    0    0  505    0 -0.00000000000E+00  0.00000000000E+00  0.22315563510E+04  0.22315563510E+04  0.00000000000E+00 0. -1.
         21   -1    0    0  503  502  0.00000000000E+00 -0.00000000000E+00 -0.29771370752E+02  0.29771370752E+02  0.00000000000E+00 0.  1.
         21    1    1    2  503  501 -0.16065109368E+02  0.64046154899E+02  0.17542621659E+03  0.18744160468E+03  0.00000000000E+00 0.  1.
         21    1    1    2  504  502 -0.27942133198E+02  0.15726479724E+02  0.11526599324E+02  0.34072679145E+02  0.00000000000E+00 0. -1.
         21    1    1    2  505  504  0.46633209325E+02 -0.11559266383E+03  0.30341963234E+03  0.32802407447E+03  0.00000000000E+00 0.  1.
          2    1    1    2  501    0 -0.26259667588E+01  0.35820029205E+02  0.17114125320E+04  0.17117893634E+04  0.00000000000E+00 0. -1.
<scales pt_clust_3="14000.00000" pt_clust_4="32.06376" pt_clust_5="90.58011" pt_clust_6="36.09774"></scales>
<clustering>
<clus scale="   32.064">  2  4  1 -1</clus>
<clus scale="   36.098">  1  6  2 -1</clus>
<clus scale="   90.580">  1  5  2 -1</clus>
<clus scale="   32.064">  2  3  1 -1</clus>
</clustering>
</event>
<event>
 6    0  0.5775861E+002  0.1062922E+03  0.7546771E-02  0.1267594E+00
         21   -1    0    0  505  502  0.00000000000E+00  0.00000000000E+00  0.55717219716E+02  0.55717219716E+02  0.00000000000E+00 0.  1.
          2   -1    0    0  504    0 -0.00000000000E+00 -0.00000000000E+00 -0.29450616982E+04  0.29450616982E+04  0.00000000000E+00 0.  1.
         21    1    1    2  503  502  0.46545725127E+02  0.11764343459E+01  0.10911265247E+02  0.47822005757E+02  0.00000000000E+00 0.  1.
         21    1    1    2  504  503  0.84293542984E+02 -0.18299698626E+02 -0.75662232399E+02  0.11473906819E+03  0.00000000000E+00 0. -1.
         21    1    1    2  505  501 -0.91167937721E+02  0.38669799783E+02 -0.36458538457E+03  0.37779551205E+03  0.00000000000E+00 0. -1.
          2    1    1    2  501    0 -0.39671330390E+02 -0.21546535502E+02 -0.24600081267E+04  0.24604223319E+04  0.00000000000E+00 0.  1.
<scales pt_clust_3="45.03707" pt_clust_4="106.29216" pt_clust_5="14000.00000" pt_clust_6="45.14496"></scales>
<clustering>
<clus scale="   45.145">  2  6  1 -1</clus>
<clus scale="   45.037">  1  3  2 -1</clus>
<clus scale="  106.292">  1  4  2 -1</clus>
<clus scale="   45.037">  1  3  2 -1</clus>
</clustering>
</event>
<event>
 6    0  0.5775861E+002  0.1624329E+03  0.7546771E-02  0.1185977E+00
         21   -1    0    0  504  502  0.00000000000E+00  0.00000000000E+00  0.18729701827E+03  0.18729701827E+03  0.00000000000E+00 0.  1.
         -3   -1    0    0    0  501 -0.00000000000E+00 -0.00000000000E+00 -0.12912349758E+04  0.12912349758E+04  0.00000000000E+00 0.  1.
         21    1    1    2  503  501  0.12869347666E+03 -0.56473740485E+02 -0.56248042285E+03  0.57977195550E+03  0.00000000000E+00 0.  1.
         21    1    1    2  504  503 -0.15312977371E+03  0.11634557061E+02  0.38066222919E+02  0.15821860776E+03  0.00000000000E+00 0.  1.
         21    1    1    2  505  502 -0.15493059479E+02 -0.26733325114E+02  0.74890988755E+02  0.81014602143E+02  0.00000000000E+00 0.  1.
         -3    1    1    2    0  505  0.39929356524E+02  0.71572508538E+02 -0.65441474639E+03  0.65952682870E+03  0.00000000000E+00 0.  1.
<scales pt_clust_3="162.43291" pt_clust_4="14000.00000" pt_clust_5="30.89831" pt_clust_6="81.23498"></scales>
<clustering>
<clus scale="   30.898">  1  5  2 -1</clus>
<clus scale="   81.235">  2  6  1 -1</clus>
<clus scale="  162.433">  2  3  1 -1</clus>
<clus scale="   30.898">  1  3  2 -1</clus>
</clustering>
</event>
<event>
 6    0  0.5775861E+002  0.8787197E+02  0.7546771E-02  0.1308088E+00
          1   -1    0    0  502    0 -0.00000000000E+00  0.00000000000E+00  0.10602254393E+04  0.10602254393E+04  0.00000000000E+00 0.  1.
         21   -1    0    0  503  502  0.00000000000E+00 -0.00000000000E+00 -0.27689961260E+02  0.27689961260E+02  0.00000000000E+00 0.  1.
         21    1    1    2  503  505  0.30415710289E+02  0.76059249522E+01  0.41250416337E+02  0.51812762663E+02  0.00000000000E+00 0.  1.
         21    1    1    2  504  501  0.69106941295E+02 -0.76972710058E+02  0.33331850413E+03  0.34900113556E+03  0.00000000000E+00 0.  1.
         21    1    1    2  505  504 -0.40772970440E+02  0.75333104958E+02  0.12900609258E+03  0.15485504107E+03  0.00000000000E+00 0.  1.
          1    1    1    2  501    0 -0.58749681144E+02 -0.59663198513E+01  0.52896046500E+03  0.53224646128E+03  0.00000000000E+00 0.  1.
<scales pt_clust_3="31.35228" pt_clust_4="14000.00000" pt_clust_5="87.87197" pt_clust_6="56.77782"></scales>
<clustering>
<clus scale="   31.352">  2  3  1 -1</clus>
<clus scale="   56.778">  1  6  2 -1</clus>
<clus scale="   87.872">  2  5  1 -1</clus>
<clus scale="   31.352">  2  3  1 -1</clus>
</clustering>
</event>
<event>
 6    0  0.5775861E+002  0.7631386E+02  0.7546771E-02  0.1339850E+00
         21   -1    0    0  503  502  0.00000000000E+00  0.00000000000E+00  0.40802941348E+02  0.40802941348E+02  0.00000000000E+00 0.  1.
          2   -1    0    0  504    0 -0.00000000000E+00 -0.00000000000E+00 -0.19813331425E+04  0.19813331425E+04  0.00000000000E+00 0.  1.
         21    1    1    2  503  505 -0.27559861482E+02 -0.32231246442E+02  0.46650706993E+01  0.42663357776E+02  0.00000000000E+00 0.  1.
         21    1    1    2  504  502 -0.21930531841E+02 -0.55581069156E+02 -0.24536780124E+03  0.25253823743E+03  0.00000000000E+00 0. -1.
         21    1    1    2  505  501 -0.13146251739E+01  0.10764537773E+03 -0.20887786416E+03  0.23498769696E+03  0.00000000000E+00 0.  1.
          2    1    1    2  501    0  0.50805018496E+02 -0.19833062131E+02 -0.14909496064E+04  0.14919467917E+04  0.00000000000E+00 0.  1.
<scales pt_clust_3="42.40754" pt_clust_4="14000.00000" pt_clust_5="76.31386" pt_clust_6="54.14562"></scales>
<clustering>
<clus scale="   42.408">  1  3  2 -1</clus>
<clus scale="   54.146">  2  6  1 -1</clus>
<clus scale="   76.314">  1  5  2 -1</clus>
<clus scale="   42.408">  1  3  2 -1</clus>
</clustering>
</event>
<event>
 6    0  0.5775861E+002  0.9542908E+02  0.7546771E-02  0.1290213E+00
         -2   -1    0    0    0  501 -0.00000000000E+00  0.00000000000E+00  0.14354971858E+04  0.14354971858E+04  0.00000000000E+00 0.  1.
         21   -1    0    0  503  502  0.00000000000E+00 -0.00000000000E+00 -0.73952917076E+02  0.73952917076E+02  0.00000000000E+00 0.  1.
         21    1    1    2  503  504 -0.65399226818E+02  0.32156562965E+01  0.34553599902E+02  0.74036143741E+02  0.00000000000E+00 0.  1.
         21    1    1    2  504  501  0.73158176533E+02 -0.78729263578E+02  0.11110075166E+02  0.10804558995E+03  0.00000000000E+00 0.  1.
         21    1    1    2  505  502  0.29694615971E+02 -0.12016519533E+02  0.61164486704E+02  0.69045357505E+02  0.00000000000E+00 0. -1.
         -2    1    1    2    0  505 -0.37453565685E+02  0.87530126815E+02  0.12547161070E+04  0.12583230117E+04  0.00000000000E+00 0.  1.
<scales pt_clust_3="57.02656" pt_clust_4="95.42908" pt_clust_5="32.03384" pt_clust_6="14000.00000"></scales>
<clustering>
<clus scale="   32.034">  2  5  1 -1</clus>
<clus scale="   57.027">  2  3  1 -1</clus>
<clus scale="   95.429">  2  4  1 -1</clus>
<clus scale="   32.034">  2  3  1 -1</clus>
</clustering>
</event>
<event>
 6    0  0.5775861E+002  0.1138099E+03  0.7546771E-02  0.1253673E+00
         21   -1    0    0  504  502  0.00000000000E+00  0.00000000000E+00  0.94513941175E+03  0.94513941175E+03  0.00000000000E+00 0.  1.
         -1   -1    0    0    0  501 -0.00000000000E+00 -0.00000000000E+00 -0.15302563916E+04  0.15302563916E+04  0.00000000000E+00 0.  1.
         21    1    1    2  503  505 -0.10799761421E+03 -0.12471513314E+03 -0.15242328149E+03  0.22461123268E+03  0.00000000000E+00 0.  1.
         21    1    1    2  504  501  0.56749903433E+02  0.57583477068E+02 -0.22953953975E+03  0.24336147739E+03  0.00000000000E+00 0. -1.
         21    1    1    2  505  502  0.51660656349E+02  0.21500250333E+02  0.90079494848E+03  0.90253123125E+03  0.00000000000E+00 0.  1.
         -1    1    1    2    0  503 -0.41294557268E+00  0.45631405740E+02 -0.11039491071E+04  0.11048918620E+04  0.00000000000E+00 0.  1.
<scales pt_clust_3="113.80985" pt_clust_4="14000.00000" pt_clust_5="55.99113" pt_clust_6="45.63327"></scales>
<clustering>
<clus scale="   45.633">  2  6  1 -1</clus>
<clus scale="   55.991">  1  5  2 -1</clus>
<clus scale="  113.810">  1  3  2 -1</clus>
<clus scale="   55.991">  1  3  2 -1</clus>
</clustering>
</event>
<event>
 6    0  0.5775861E+002  0.1208639E+03  0.7546771E-02  0.1241679E+00
          1   -1    0    0  505    0 -0.00000000000E+00  0.00000000000E+00  0.16880473056E+03  0.16880473056E+03  0.00000000000E+00 0.  1.
         21   -1    0    0  503  502  0.00000000000E+00 -0.00000000000E+00 -0.35186476921E+03  0.35186476921E+03  0.00000000000E+00 0.  1.
         21    1    1    2  503  504 -0.42338838927E+02  0.92396855153E+01 -0.10484372427E+03  0.11344670814E+03  0.00000000000E+00 0.  1.
         21    1    1    2  504  501 -0.35429740458E+02  0.13572225147E+03  0.82093001707E+01  0.14051045748E+03  0.00000000000E+00 0.  1.
         21    1    1    2  505  502  0.11946113382E+03 -0.37438690345E+02 -0.85109798884E+02  0.15138129308E+03  0.00000000000E+00 0. -1.
          1    1    1    2  501    0 -0.41692554440E+02 -0.10752324664E+03 -0.13158156649E+01  0.11533104107E+03  0.00000000000E+00 0.  1.
<scales pt_clust_3="43.33531" pt_clust_4="120.86393" pt_clust_5="104.17878" pt_clust_6="14000.00000"></scales>
<clustering>
<clus scale="   43.335">  2  3  1 -1</clus>
<clus scale="  104.179">  2  5  1 -1</clus>
<clus scale="  120.864">  2  4  1 -1</clus>
<clus scale="   43.335">  2  3  1 -1</clus>
</clustering>
</event>
<event>
 6    0  0.5775861E+002  0.1354159E+03  0.7546771E-02  0.1219634E+00
          2   -1    0    0  504    0 -0.00000000000E+00  0.00000000000E+00  0.13586184681E+04  0.13586184681E+04  0.00000000000E+00 0. -1.
         21   -1    0    0  505  502  0.00000000000E+00 -0.00000000000E+00 -0.16933131935E+03  0.16933131935E+03  0.00000000000E+00 0. -1.
         21    1    1    2  503  501 -0.43574013216E+02 -0.11090944229E+03  0.11884698457E+02  0.11975326749E+03  0.00000000000E+00 0. -1.
         21    1    1    2  504  502  0.50164040164E+02  0.14299363338E+03 -0.39719290622E+02  0.15665641436E+03  0.00000000000E+00 0. -1.
         21    1    1    2  505  503 -0.30696934753E+02  0.36379664442E+01 -0.26335588614E+01  0.31023736644E+02  0.00000000000E+00 0. -1.
          2    1    1    2  501    0  0.24106907805E+02 -0.35722157535E+02  0.12197552998E+04  0.12205163690E+04  0.00000000000E+00 0. -1.
<scales pt_clust_3="14000.00000" pt_clust_4="135.41590" pt_clust_5="30.91176" pt_clust_6="43.04509"></scales>
<clustering>
<clus scale="   30.912">  2  5  1 -1</clus>
<clus scale="   43.045">  1  6  2 -1</clus>
<clus scale="  135.416">  2  4  1 -1</clus>
<clus scale="   30.912">  2  3  1 -1</clus>
</clustering>
</event>
<event>
 6    0  0.5775861E+002  0.1443200E+03  0.7546771E-02  0.1207632E+00
         21   -1    0    0  501  502  0.00000000000E+00  0.00000000000E+00  0.87250920941E+02  0.87250920941E+02  0.00000000000E+00 0.  1.
          2   -1    0    0  503    0 -0.00000000000E+00 -0.00000000000E+00 -0.32604943306E+04  0.32604943306E+04  0.00000000000E+00 0.  1.
         21    1    1    2  503  504  0.68445027338E+01 -0.59365663223E+02 -0.79145539704E+03  0.79370824280E+03  0.00000000000E+00 0. -1.
         21    1    1    2  504  505  0.34196567498E+02  0.62636125071E+02  0.20038525870E+00  0.71363362776E+02  0.00000000000E+00 0.  1.
         21    1    1    2  505  502 -0.30990120838E+02  0.65500424851E+02  0.23503330480E+02  0.76178079451E+02  0.00000000000E+00 0.  1.
          2    1    1    2  501    0 -0.10050949393E+02 -0.68770886699E+02 -0.24054917284E+04  0.24064955665E+04  0.00000000000E+00 0.  1.
<scales pt_clust_3="59.75893" pt_clust_4="68.54023" pt_clust_5="68.54023" pt_clust_6="126.69214"></scales>
<clustering>
<clus scale="   59.759">  2  3  1 -1</clus>
<clus scale="   68.540">  4  5 -1 -1</clus>
<clus scale="  126.692">  2  6  1 -1</clus>
<clus scale="  144.320">  1  3  2 -1</clus>
</clustering>
</event>
<event>
 6    0  0.5775861E+002  0.7666330E+02  0.7546771E-02  0.1338796E+00
         21   -1    0    0  503  502  0.00000000000E+00  0.00000000000E+00  0.93441112520E+03  0.93441112520E+03  0.00000000000E+00 0.  1.
          2   -1    0    0  504    0 -0.00000000000E+00 -0.00000000000E+00 -0.18471215242E+03  0.18471215242E+03  0.00000000000E+00 0.  1.
         21    1    1    2  503  501 -0.74393891414E+01  0.12145645554E+03  0.57034678285E+03  0.58318304829E+03  0.00000000000E+00 0.  1.
         21    1    1    2  504  505  0.79879425107E+02 -0.72762365784E+02 -0.19706377558E+01  0.10806927335E+03  0.00000000000E+00 0.  1.
         21    1    1    2  505  502 -0.23566489885E+02 -0.59421002988E+02  0.29596254825E+03  0.30278716124E+03  0.00000000000E+00 0.  1.
          2    1    1    2  501    0 -0.48873546080E+02  0.10726913231E+02 -0.11463972057E+03  0.12508379474E+03  0.00000000000E+00 0.  1.
<scales pt_clust_3="14000.00000" pt_clust_4="76.66330" pt_clust_5="64.39952" pt_clust_6="50.03689"></scales>
<clustering>
<clus scale="   50.037">  2  6  1 -1</clus>
<clus scale="   64.400">  1  5  2 -1</clus>
<clus scale="   76.663">  2  4  1 -1</clus>
<clus scale="   64.400">  1  3  2 -1</clus>
</clustering>
</event>
<event>
 6    0  0.5775861E+002  0.8452235E+02  0.7546771E-02  0.1316686E+00
         21   -1    0    0  505  502  0.00000000000E+00  0.00000000000E+00  0.58725482706E+02  0.58725482706E+02  0.00000000000E+00 0.  1.
          2   -1    0    0  504    0 -0.00000000000E+00 -0.00000000000E+00 -0.61349107073E+03  0.61349107073E+03  0.00000000000E+00 0.  1.
         21    1    1    2  503  501  0.92108044406E+02  0.32737096381E+02 -0.25910727147E+03  0.27693354339E+03  0.00000000000E+00 0.  1.
         21    1    1    2  504  502  0.17737852346E+02 -0.30638378826E+02 -0.25776956528E+01  0.35496284000E+02  0.00000000000E+00 0.  1.
         21    1    1    2  505  503 -0.94987506875E+02  0.31355344055E+02 -0.46157160156E+02  0.11016472891E+03  0.00000000000E+00 0.  1.
          2    1    1    2  501    0 -0.14858389877E+02 -0.33454061610E+02 -0.24692346075E+03  0.24962199714E+03  0.00000000000E+00 0.  1.
<scales pt_clust_3="14000.00000" pt_clust_4="35.40257" pt_clust_5="84.52235" pt_clust_6="37.28052"></scales>
<clustering>
<clus scale="   35.403">  1  4  2 -1</clus>
<clus scale="   37.281">  2  6  1 -1</clus>
<clus scale="   84.522">  1  5  2 -1</clus>
<clus scale="   35.403">  1  3  2 -1</clus>
</clustering>
</event>
<event>
 6    0  0.5775861E+002  0.7366082E+02  0.7546771E-02  0.1348069E+00
         21   -1    0    0  505  502  0.00000000000E+00  0.00000000000E+00  0.24636678312E+03  0.24636678312E+03  0.00000000000E+00 0.  1.
          2   -1    0    0  503    0 -0.00000000000E+00 -0.00000000000E+00 -0.21889397685E+04  0.21889397685E+04  0.00000000000E+00 0.  1.
         21    1    1    2  503  504 -0.46611871186E+02 -0.66670842372E+01 -0.60105618295E+03  0.60289771239E+03  0.00000000000E+00 0.  1.
         21    1    1    2  504  502  0.65468293407E+01 -0.46456576706E+02  0.15344950130E+03  0.16046128487E+03  0.00000000000E+00 0.  1.
         21    1    1    2  505  501  0.56775169312E+01  0.11841227010E+03  0.47504946591E+02  0.12771225415E+03  0.00000000000E+00 0.  1.
          2    1    1    2  501    0  0.34387524914E+02 -0.65288609157E+02 -0.15424712503E+04  0.15442353002E+04  0.00000000000E+00 0.  1.
<scales pt_clust_3="47.08975" pt_clust_4="46.91561" pt_clust_5="14000.00000" pt_clust_6="73.66082"></scales>
<clustering>
<clus scale="   46.916">  1  4  2 -1</clus>
<clus scale="   47.090">  2  3  1 -1</clus>
<clus scale="   73.661">  2  6  1 -1</clus>
<clus scale="   46.916">  1  3  2 -1</clus>
</clustering>
</event>
<event>
 6    0  0.5775861E+002  0.9547072E+02  0.7546771E-02  0.1290119E+00
          1   -1    0    0  504    0 -0.00000000000E+00  0.00000000000E+00  0.14592447145E+04  0.14592447145E+04  0.00000000000E+00 0. -1.
         21   -1    0    0  505  502  0.00000000000E+00 -0.00000000000E+00 -0.11949359999E+03  0.11949359999E+03  0.00000000000E+00 0.  1.
         21    1    1    2  503  502  0.47937746100E+02  0.89440082012E+01 -0.13618549315E+01  0.48783987462E+02  0.00000000000E+00 0.  1.
         21    1    1    2  504  503 -0.47539540090E+02 -0.61271980788E+02  0.77640354013E+02  0.10973735951E+03  0.00000000000E+00 0.  1.
         21    1    1    2  505  501 -0.14987606550E+01  0.98904401276E+02 -0.46581211856E+02  0.10933497232E+03  0.00000000000E+00 0.  1.
          1    1    1    2  501    0  0.11005546447E+01 -0.46576428689E+02  0.13100538273E+04  0.13108819952E+04  0.00000000000E+00 0. -1.
<scales pt_clust_3="48.13718" pt_clust_4="14000.00000" pt_clust_5="95.47072" pt_clust_6="46.58943"></scales>
<clustering>
<clus scale="   46.589">  1  6  2 -1</clus>
<clus scale="   48.137">  2  3  1 -1</clus>
<clus scale="   95.471">  2  5  1 -1</clus>
<clus scale="   48.137">  2  3  1 -1</clus>
</clustering>
</event>
<event>
 6    0  0.5775861E+002  0.6783247E+02  0.7546771E-02  0.1367623E+00
         21   -1    0    0  504  502  0.00000000000E+00  0.00000000000E+00  0.28269410700E+03  0.28269410700E+03  0.00000000000E+00 0.  1.
          2   -1    0    0  505    0 -0.00000000000E+00 -0.00000000000E+00 -0.95307386683E+03  0.95307386683E+03  0.00000000000E+00 0.  1.
         21    1    1    2  503  502 -0.64731879215E+02  0.22386084814E+02  0.23263022856E+03  0.24250397155E+03  0.00000000000E+00 0.  1.
         21    1    1    2  504  501  0.70505670249E+02  0.28348145888E+02 -0.50782142996E+03  0.51347567774E+03  0.00000000000E+00 0.  1.
         21    1    1    2  505  503  0.37586641866E+02 -0.73793557428E+02 -0.12741514253E+01  0.82824321467E+02  0.00000000000E+00 0.  1.
          2    1    1    2  501    0 -0.43360432900E+02  0.23059326727E+02 -0.39391440700E+03  0.39696400307E+03  0.00000000000E+00 0.  1.
<scales pt_clust_3="67.83247" pt_clust_4="58.26921" pt_clust_5="14000.00000" pt_clust_6="49.11069"></scales>
<clustering>
<clus scale="   49.111">  2  6  1 -1</clus>
<clus scale="   58.269">  2  4  1 -1</clus>
<clus scale="   67.832">  1  3  2 -1</clus>
<clus scale="   67.832">  1  3  2 -1</clus>
</clustering>
</event>
<event>
 6    0  0.5775861E+002  0.1372568E+03  0.7546771E-02  0.1217069E+00
         21   -1    0    0  503  502  0.00000000000E+00  0.00000000000E+00  0.63625311336E+03  0.63625311336E+03  0.00000000000E+00 0.  1.
          2   -1    0    0  505    0 -0.00000000000E+00 -0.00000000000E+00 -0.18235375010E+04  0.18235375010E+04  0.00000000000E+00 0.  1.
         21    1    1    2  503  504  0.19876817964E+02 -0.91057639512E+02  0.29541519487E+03  0.30976881536E+03  0.00000000000E+00 0.  1.
         21    1    1    2  504  501 -0.26029080024E+02 -0.30333613436E+02  0.10155372193E+03  0.10913660957E+03  0.00000000000E+00 0. -1.
         21    1    1    2  505  502 -0.46251194980E+02  0.13147845220E+03  0.20661068438E+03  0.24922626533E+03  0.00000000000E+00 0.  1.
          2    1    1    2  501    0  0.52403457041E+02 -0.10087199253E+02 -0.17908639888E+04  0.17916589241E+04  0.00000000000E+00 0.  1.
<scales pt_clust_3="36.60122" pt_clust_4="36.60122" pt_clust_5="125.36219" pt_clust_6="53.36547"></scales>
<clustering>
<clus scale="   36.601">  3  4 -1 -1</clus>
<clus scale="   53.365">  2  6  1 -1</clus>
<clus scale="  125.362">  2  5  1 -1</clus>
<clus scale="  137.257">  1  3  2 -1</clus>
</clustering>
</event>
<event>
 6    0  0.5775861E+002  0.1350600E+03  0.7546771E-02  0.1220135E+00
         21   -1    0    0  505  502  0.00000000000E+00  0.00000000000E+00  0.30439595225E+02  0.30439595225E+02  0.00000000000E+00 0. -1.
          2   -1    0    0  504    0 -0.00000000000E+00 -0.00000000000E+00 -0.17268399908E+04  0.17268399908E+04  0.00000000000E+00 0.  1.
         21    1    1    2  503  501 -0.78313457689E+02  0.31560356402E+02 -0.72988914660E+02  0.11160840208E+03  0.00000000000E+00 0. -1.
         21    1    1    2  504  502  0.10476329633E+03  0.16187851033E+02 -0.75688838169E+03  0.76427574678E+03  0.00000000000E+00 0.  1.
         21    1    1    2  505  503 -0.51094528745E+02  0.65592862163E+01 -0.99380383365E+02  0.11193808870E+03  0.00000000000E+00 0. -1.
          2    1    1    2  501    0  0.24644690106E+02 -0.54307493652E+02 -0.76714271588E+03  0.76945734849E+03  0.00000000000E+00 0.  1.
<scales pt_clust_3="35.47174" pt_clust_4="127.19623" pt_clust_5="35.47174" pt_clust_6="59.63778"></scales>
<clustering>
<clus scale="   35.472">  3  5 -1 -1</clus>
<clus scale="   59.638">  2  6  1 -1</clus>
<clus scale="  127.196">  2  4  1 -1</clus>
<clus scale="  135.060">  1  3  2 -1</clus>
</clustering>
</event>
<event>
 6    0  0.5775861E+002  0.1453176E+03  0.7546771E-02  0.1206348E+00
         21   -1    0    0  505  502  0.00000000000E+00  0.00000000000E+00  0.33452496013E+02  0.33452496013E+02  0.00000000000E+00 0. -1.
          2   -1    0    0  503    0 -0.00000000000E+00 -0.00000000000E+00 -0.32383265405E+04  0.32383265405E+04  0.00000000000E+00 0.  1.
         21    1    1    2  503  502  0.56687737202E+01 -0.33671576708E+02 -0.18955639955E+02  0.39054146510E+02  0.00000000000E+00 0. -1.
         21    1    1    2  504  501 -0.88941156095E+02 -0.33739811772E+02 -0.16581325896E+04  0.16608589913E+04  0.00000000000E+00 0.  1.
         21    1    1    2  505  504  0.12780312201E+03  0.54553970514E+02 -0.20149369852E+03  0.24476414001E+03  0.00000000000E+00 0. -1.
          2    1    1    2  501    0 -0.44530739634E+02  0.12857417966E+02 -0.13262921164E+04  0.13271017587E+04  0.00000000000E+00 0.  1.
<scales pt_clust_3="34.14543" pt_clust_4="37.19932" pt_clust_5="135.09032" pt_clust_6="37.19932"></scales>
<clustering>
<clus scale="   34.145">  1  3  2 -1</clus>
<clus scale="   37.199">  4  6 -1 -1</clus>
<clus scale="  135.090">  1  5  2 -1</clus>
<clus scale="   34.145">  1  3  2 -1</clus>
</clustering>
</event>
<event>
 6    0  0.5775861E+002  0.8034907E+02  0.7546771E-02  0.1328064E+00
          3   -1    0    0  503    0 -0.00000000000E+00  0.00000000000E+00  0.29462705681E+03  0.29462705681E+03  0.00000000000E+00 0.  1.
         21   -1    0    0  504  502  0.00000000000E+00 -0.00000000000E+00 -0.94613579859E+02  0.94613579859E+02  0.00000000000E+00 0. -1.
         21    1    1    2  503  505 -0.32031664035E+02 -0.11277369150E+02  0.22013620448E+02  0.40469816419E+02  0.00000000000E+00 0.  1.
         21    1    1    2  504  501  0.11146686828E+02  0.65075928541E+02  0.65250859901E+02  0.92826719324E+02  0.00000000000E+00 0.  1.
         21    1    1    2  505  502 -0.54374858369E+02 -0.69855538882E+02 -0.30253752109E+02  0.93550580179E+02  0.00000000000E+00 0. -1.
          3    1    1    2  501    0  0.75259835576E+02  0.16056979491E+02  0.14300274872E+03  0.16239352075E+03  0.00000000000E+00 0.  1.
<scales pt_clust_3="33.95890" pt_clust_4="14000.00000" pt_clust_5="80.34907" pt_clust_6="57.48304"></scales>
<clustering>
<clus scale="   33.959">  1  3  2 -1</clus>
<clus scale="   57.483">  1  6  2 -1</clus>
<clus scale="   80.349">  2  5  1 -1</clus>
<clus scale="   80.349">  2  3  1 -1</clus>
</clustering>
</event>
<event>
 6    0  0.5775861E+002  0.1323234E+03  0.7546771E-02  0.1224048E+00
          1   -1    0    0  503    0 -0.00000000000E+00  0.00000000000E+00  0.88635172111E+03  0.88635172111E+03  0.00000000000E+00 0. -1.
         21   -1    0    0  505  502  0.00000000000E+00 -0.00000000000E+00 -0.15335597412E+04  0.15335597412E+04  0.00000000000E+00 0.  1.
         21    1    1    2  503  504 -0.29949294509E+02 -0.10023012088E+03 -0.86594127203E+03  0.87223696550E+03  0.00000000000E+00 0.  1.
         21    1    1    2  504  502  0.30720036422E+02 -0.32728734327E+02 -0.56759618726E+03  0.56936835396E+03  0.00000000000E+00 0. -1.
         21    1    1    2  505  501 -0.42063119583E+02  0.16747453862E+03 -0.16694112558E+02  0.17348118200E+03  0.00000000000E+00 0.  1.
          1    1    1    2  501    0  0.41292377670E+02 -0.34515683412E+02  0.80302355179E+03  0.80482496083E+03  0.00000000000E+00 0. -1.
<scales pt_clust_3="14000.00000" pt_clust_4="44.88753" pt_clust_5="132.32340" pt_clust_6="53.85973"></scales>
<clustering>
<clus scale="   44.888">  2  4  1 -1</clus>
<clus scale="   53.860">  1  6  2 -1</clus>
<clus scale="  132.323">  1  5  2 -1</clus>
<clus scale="   44.888">  2  3  1 -1</clus>
</clustering>
</event>
<event>
 6    0  0.5775861E+002  0.1208539E+03  0.7546771E-02  0.1241695E+00
          2   -1    0    0  505    0 -0.00000000000E+00  0.00000000000E+00  0.65744995262E+02  0.65744995262E+02  0.00000000000E+00 0. -1.
         21   -1    0    0  504  502  0.00000000000E+00 -0.00000000000E+00 -0.19546087228E+04  0.19546087228E+04  0.00000000000E+00 0.  1.
         21    1    1    2  503  502  0.20891937458E+02 -0.44016123278E+02 -0.11442901231E+04  0.11453269306E+04  0.00000000000E+00 0.  1.
         21    1    1    2  504  501  0.13217484567E+03 -0.17908968158E+02 -0.55009543941E+03  0.56603525811E+03  0.00000000000E+00 0.  1.
         21    1    1    2  505  503 -0.98082372040E+02  0.18702276328E+02 -0.21419615989E+03  0.23632588042E+03  0.00000000000E+00 0.  1.
          2    1    1    2  501    0 -0.54984411088E+02  0.43222815108E+02  0.19717994876E+02  0.72665648903E+02  0.00000000000E+00 0. -1.
<scales pt_clust_3="48.72260" pt_clust_4="14000.00000" pt_clust_5="120.85388" pt_clust_6="68.51667"></scales>
<clustering>
<clus scale="   48.723">  2  3  1 -1</clus>
<clus scale="   68.517">  1  6  2 -1</clus>
<clus scale="  120.854">  2  5  1 -1</clus>
<clus scale="   48.723">  2  3  1 -1</clus>
</clustering>
</event>
<event>
 6    0  0.5775861E+002  0.6333336E+02  0.7546771E-02  0.1384353E+00
         21   -1    0    0  505  502  0.00000000000E+00  0.00000000000E+00  0.11595230540E+04  0.11595230540E+04  0.00000000000E+00 0.  1.
          2   -1    0    0  504    0 -0.00000000000E+00 -0.00000000000E+00 -0.55675121638E+03  0.55675121638E+03  0.00000000000E+00 0. -1.
         21    1    1    2  503  501  0.80577790110E+02 -0.15751774734E+02 -0.19329694148E+03  0.21001096698E+03  0.00000000000E+00 0. -1.
         21    1    1    2  504  502 -0.64746784458E+02  0.38901455836E+02 -0.19558709755E+02  0.78025716857E+02  0.00000000000E+00 0. -1.
         21    1    1    2  505  503  0.39015381314E+02  0.23250735806E+01  0.11186030605E+04  0.11192856708E+04  0.00000000000E+00 0.  1.
          2    1    1    2  501    0 -0.54846386966E+02 -0.25474754682E+02 -0.30297557158E+03  0.30895191578E+03  0.00000000000E+00 0. -1.
<scales pt_clust_3="14000.00000" pt_clust_4="54.67087" pt_clust_5="39.08460" pt_clust_6="63.33336"></scales>
<clustering>
<clus scale="   39.085">  1  5  2 -1</clus>
<clus scale="   54.671">  1  4  2 -1</clus>
<clus scale="   63.333">  2  6  1 -1</clus>
<clus scale="   39.085">  1  3  2 -1</clus>
</clustering>
</event>
<event>
 6    0  0.5775861E+002  0.1072498E+03  0.7546771E-02  0.1265749E+00
         21   -1    0    0  504  502  0.00000000000E+00  0.00000000000E+00  0.13533341994E+04  0.13533341994E+04  0.00000000000E+00 0.  1.
         -1   -1    0    0    0  501 -0.00000000000E+00 -0.00000000000E+00 -0.66873856383E+03  0.66873856383E+03  0.00000000000E+00 0.  1.
         21    1    1    2  503  502 -0.36848160736E+01 -0.56871137639E+02  0.21289177916E+03  0.22038787126E+03  0.00000000000E+00 0.  1.
         21    1    1    2  504  501  0.36716053929E+02  0.27792266815E+02  0.10844953129E+04  0.10854725065E+04  0.00000000000E+00 0.  1.
         21    1    1    2  505  503  0.18276345793E+02 -0.69445914937E+02  0.19360486423E+02  0.74374648581E+02  0.00000000000E+00 0. -1.
         -1    1    1    2    0  505 -0.51307583649E+02  0.98524785761E+02 -0.63215194291E+03  0.64183773687E+03  0.00000000000E+00 0.  1.
<scales pt_clust_3="43.12131" pt_clust_4="46.04866" pt_clust_5="14000.00000" pt_clust_6="107.24976"></scales>
<clustering>
<clus scale="   46.049">  1  4  2 -1</clus>
<clus scale="   43.121">  1  3  2 -1</clus>
<clus scale="  107.250">  2  6  1 -1</clus>
<clus scale="   46.049">  1  3  2 -1</clus>
</clustering>
</event>
<event>
 6    0  0.5775861E+002  0.1455371E+03  0.7546771E-02  0.1206067E+00
          2   -1    0    0  503    0 -0.00000000000E+00  0.00000000000E+00  0.41902071721E+04  0.41902071721E+04  0.00000000000E+00 0.  1.
         21   -1    0    0  504  502  0.00000000000E+00 -0.00000000000E+00 -0.22410455818E+03  0.22410455818E+03  0.00000000000E+00 0.  1.
         21    1    1    2  503  505 -0.10293073076E+03 -0.64701371300E+02  0.38034124174E+03  0.39929996613E+03  0.00000000000E+00 0.  1.
         21    1    1    2  504  501  0.55202397712E+02  0.56700185691E+01 -0.73115295705E+02  0.91789434521E+02  0.00000000000E+00 0.  1.
         21    1    1    2  505  502  0.13308819534E+02  0.13250045892E+03 -0.98081103552E+02  0.16538863070E+03  0.00000000000E+00 0.  1.
          2    1    1    2  501    0  0.34419513516E+02 -0.73469106188E+02  0.37569577714E+04  0.37578336989E+04  0.00000000000E+00 0.  1.
<scales pt_clust_3="145.53710" pt_clust_4="55.49283" pt_clust_5="14000.00000" pt_clust_6="81.18876"></scales>
<clustering>
<clus scale="   55.493">  2  4  1 -1</clus>
<clus scale="   81.189">  1  6  2 -1</clus>
<clus scale="  145.537">  1  3  2 -1</clus>
<clus scale="   55.493">  2  3  1 -1</clus>
</clustering>
</event>
<event>
 6    0  0.5775861E+002  0.7011492E+02  0.7546771E-02  0.1359703E+00
         -2   -1    0    0    0  501 -0.00000000000E+00  0.00000000000E+00  0.99637918317E+03  0.99637918317E+03  0.00000000000E+00 0.  1.
         21   -1    0    0  505  502  0.00000000000E+00 -0.00000000000E+00 -0.10911475946E+03  0.10911475946E+03  0.00000000000E+00 0.  1.
         21    1    1    2  503  501 -0.43433203038E+02 -0.33789701789E+01  0.11166108037E+03  0.11985848921E+03  0.00000000000E+00 0.  1.
         21    1    1    2  504  502 -0.43601060099E+02 -0.37539417307E+02 -0.33505939542E+02  0.66580089202E+02  0.00000000000E+00 0.  1.
         21    1    1    2  505  503  0.11907610554E+03  0.42655373611E+02  0.18542360997E+02  0.12783747087E+03  0.00000000000E+00 0.  1.
         -2    1    1    2    0  504 -0.32041842402E+02 -0.17369861252E+01  0.79056692189E+03  0.79121789336E+03  0.00000000000E+00 0.  1.
<scales pt_clust_3="70.11492" pt_clust_4="59.60107" pt_clust_5="14000.00000" pt_clust_6="32.08889"></scales>
<clustering>
<clus scale="   32.089">  1  6  2 -1</clus>
<clus scale="   59.601">  2  4  1 -1</clus>
<clus scale="   70.115">  1  3  2 -1</clus>
<clus scale="   59.601">  2  3  1 -1</clus>
</clustering>
</event>
<event>
 6    0  0.5775861E+002  0.1415499E+03  0.7546771E-02  0.1211259E+00
         21   -1    0    0  503  502  0.00000000000E+00  0.00000000000E+00  0.91031678704E+03  0.91031678704E+03  0.00000000000E+00 0.  1.
          4   -1    0    0  505    0 -0.00000000000E+00 -0.00000000000E+00 -0.18237183619E+03  0.18237183619E+03  0.00000000000E+00 0. -1.
         21    1    1    2  503  504 -0.23245482091E+02  0.12740626992E+03  0.76433276511E+03  0.77522724789E+03  0.00000000000E+00 0.  1.
         21    1    1    2  504  501  0.78015374880E+01 -0.11671502961E+03  0.31812156766E+02  0.12122407121E+03  0.00000000000E+00 0. -1.
         21    1    1    2  505  502 -0.28276628499E+02  0.14932440987E+02  0.54665503884E+02  0.63331373173E+02  0.00000000000E+00 0.  1.
          4    1    1    2  501    0  0.43720573102E+02 -0.25623681298E+02 -0.12286547491E+03  0.13290593095E+03  0.00000000000E+00 0. -1.
<scales pt_clust_3="141.54988" pt_clust_4="14000.00000" pt_clust_5="31.97727" pt_clust_6="50.48766"></scales>
<clustering>
<clus scale="   31.977">  1  5  2 -1</clus>
<clus scale="   50.488">  2  6  1 -1</clus>
<clus scale="  141.550">  1  3  2 -1</clus>
<clus scale="   31.977">  1  3  2 -1</clus>
</clustering>
</event>
<event>
 6    0  0.5775861E+002  0.1153362E+03  0.7546771E-02  0.1250995E+00
         21   -1    0    0  504  502  0.00000000000E+00  0.00000000000E+00  0.29495861968E+02  0.29495861968E+02  0.00000000000E+00 0. -1.
          1   -1    0    0  503    0 -0.00000000000E+00 -0.00000000000E+00 -0.25338268877E+04  0.25338268877E+04  0.00000000000E+00 0.  1.
         21    1    1    2  503  505 -0.54566416329E+01  0.65803848141E+02 -0.93592803504E+02  0.11454053534E+03  0.00000000000E+00 0. -1.
         21    1    1    2  504  501 -0.67506016294E+02  0.34270291744E+02 -0.32918977219E+03  0.33778309792E+03  0.00000000000E+00 0.  1.
         21    1    1    2  505  502  0.57529552422E+02  0.23314385950E+02 -0.62371131131E+02  0.87996408976E+02  0.00000000000E+00 0. -1.
          1    1    1    2  501    0  0.15433105505E+02 -0.12338852584E+03 -0.20191773189E+04  0.20230027074E+04  0.00000000000E+00 0.  1.
<scales pt_clust_3="115.33623" pt_clust_4="66.31933" pt_clust_5="62.07423" pt_clust_6="14000.00000"></scales>
<clustering>
<clus scale="   62.074">  1  5  2 -1</clus>
<clus scale="   66.319">  1  4  2 -1</clus>
<clus scale="  115.336">  1  3  2 -1</clus>
<clus scale="   62.074">  1  3  2 -1</clus>
</clustering>
</event>
<event>
 6    0  0.5775861E+002  0.9466897E+02  0.7546771E-02  0.1291923E+00
         21   -1    0    0  505  502  0.00000000000E+00  0.00000000000E+00  0.25228914811E+03  0.25228914811E+03  0.00000000000E+00 0.  1.
          3   -1    0    0  504    0 -0.00000000000E+00 -0.00000000000E+00 -0.20213654269E+03  0.20213654269E+03  0.00000000000E+00 0.  1.
         21    1    1    2  503  502  0.30951570538E+02  0.23204639871E+01  0.11202791862E+03  0.11624817772E+03  0.00000000000E+00 0.  1.
         21    1    1    2  504  503  0.17864809691E+02 -0.73363925400E+02 -0.16980717824E+01  0.75526819232E+02  0.00000000000E+00 0.  1.
         21    1    1    2  505  501 -0.72718788146E+02  0.93963676085E+02  0.63428157777E+02  0.13468602664E+03  0.00000000000E+00 0.  1.
          3    1    1    2  501    0  0.23902407916E+02 -0.22920214671E+02 -0.12360539919E+03  0.12796466721E+03  0.00000000000E+00 0.  1.
<scales pt_clust_3="31.03843" pt_clust_4="14000.00000" pt_clust_5="94.66897" pt_clust_6="33.44499"></scales>
<clustering>
<clus scale="   31.038">  1  3  2 -1</clus>
<clus scale="   33.445">  2  6  1 -1</clus>
<clus scale="   94.669">  1  5  2 -1</clus>
<clus scale="   31.038">  1  3  2 -1</clus>
</clustering>
</event>
<event>
 6    0  0.5775861E+002  0.9765105E+02  0.7546771E-02  0.1285314E+00
         21   -1    0    0  504  502  0.00000000000E+00  0.00000000000E+00  0.39614139329E+02  0.39614139329E+02  0.00000000000E+00 0. -1.
         -4   -1    0    0    0  501 -0.00000000000E+00 -0.00000000000E+00 -0.13302387908E+04  0.13302387908E+04  0.00000000000E+00 0. -1.
         21    1    1    2  503  501  0.10403103245E+03  0.15286787726E+02 -0.42195460715E+03  0.43485840464E+03  0.00000000000E+00 0. -1.
         21    1    1    2  504  503  0.15729833974E+02 -0.51877942687E+02 -0.26414500063E+02  0.60303187543E+02  0.00000000000E+00 0. -1.
         21    1    1    2  505  502 -0.94451316634E+02  0.83664160089E+02 -0.25007606630E+03  0.28010494789E+03  0.00000000000E+00 0. -1.
         -4    1    1    2    0  505 -0.25309549791E+02 -0.47073005128E+02 -0.59217947797E+03  0.59458639006E+03  0.00000000000E+00 0. -1.
<scales pt_clust_3="14000.00000" pt_clust_4="56.47284" pt_clust_5="97.65105" pt_clust_6="53.44568"></scales>
<clustering>
<clus scale="   53.446">  2  6  1 -1</clus>
<clus scale="   56.473">  1  4  2 -1</clus>
<clus scale="   97.651">  1  5  2 -1</clus>
<clus scale="   56.473">  1  3  2 -1</clus>
</clustering>
</event>
<event>
 6    0  0.5775861E+002  0.1606694E+03  0.7546771E-02  0.1187943E+00
         21   -1    0    0  505  502  0.00000000000E+00  0.00000000000E+00  0.64532756435E+03  0.64532756435E+03  0.00000000000E+00 0.  1.
          2   -1    0    0  502    0 -0.00000000000E+00 -0.00000000000E+00 -0.40913616378E+03  0.40913616378E+03  0.00000000000E+00 0.  1.
         21    1    1    2  503  501 -0.81958603168E+02  0.13381917241E+03 -0.33892417921E+03  0.37348946811E+03  0.00000000000E+00 0.  1.
         21    1    1    2  504  503  0.17051636662E+02 -0.99342499532E+02  0.20833086343E+03  0.23143344439E+03  0.00000000000E+00 0.  1.
         21    1    1    2  505  504  0.36654447177E+02 -0.61800014153E+02  0.39479321951E+03  0.40127855216E+03  0.00000000000E+00 0.  1.
          2    1    1    2  501    0  0.28252519329E+02  0.27323341279E+02 -0.28008503155E+02  0.48262263478E+02  0.00000000000E+00 0.  1.
<scales pt_clust_3="160.66944" pt_clust_4="14000.00000" pt_clust_5="71.77390" pt_clust_6="39.30356"></scales>
<clustering>
<clus scale="   39.304">  2  6  1 -1</clus>
<clus scale="   71.774">  1  5  2 -1</clus>
<clus scale="  160.669">  2  3  1 -1</clus>
<clus scale="   71.774">  1  3  2 -1</clus>
</clustering>
</event>
<event>
 6    0  0.5775861E+002  0.9986407E+02  0.7546771E-02  0.1280582E+00
         21   -1    0    0  503  502  0.00000000000E+00  0.00000000000E+00  0.11305867314E+04  0.11305867314E+04  0.00000000000E+00 0. -1.
          2   -1    0    0  504    0 -0.00000000000E+00 -0.00000000000E+00 -0.42015497904E+02  0.42015497904E+02  0.00000000000E+00 0.  1.
         21    1    1    2  503  505 -0.10129511465E+02  0.37212181168E+02  0.56763520673E+03  0.56894382970E+03  0.00000000000E+00 0. -1.
         21    1    1    2  504  502 -0.20823211505E+02  0.11980474042E+03  0.18030067354E+03  0.21747440043E+03  0.00000000000E+00 0. -1.
         21    1    1    2  505  501  0.16302286057E+01 -0.10920682606E+03  0.29266935636E+03  0.31238460374E+03  0.00000000000E+00 0. -1.
          2    1    1    2  501    0  0.29322494365E+02 -0.47810095528E+02  0.47965996863E+02  0.73799395426E+02  0.00000000000E+00 0.  1.
<scales pt_clust_3="38.56622" pt_clust_4="99.86407" pt_clust_5="14000.00000" pt_clust_6="52.09091"></scales>
<clustering>
<clus scale="   38.566">  1  3  2 -1</clus>
<clus scale="   52.091">  2  6  1 -1</clus>
<clus scale="   99.864">  2  4  1 -1</clus>
<clus scale="   38.566">  1  3  2 -1</clus>
</clustering>
</event>
<event>
 6    0  0.5775861E+002  0.1257493E+03  0.7546771E-02  0.1233903E+00
         21   -1    0    0  504  502  0.00000000000E+00  0.00000000000E+00  0.10117161829E+04  0.10117161829E+04  0.00000000000E+00 0. -1.
          2   -1    0    0  503    0 -0.00000000000E+00 -0.00000000000E+00 -0.32242265511E+04  0.32242265511E+04  0.00000000000E+00 0. -1.
         21    1    1    2  503  502 -0.14147001015E+03 -0.13143459670E+02 -0.11661425472E+04  0.11747659148E+04  0.00000000000E+00 0.  1.
         21    1    1    2  504  505 -0.33288565938E+02 -0.15646203093E+02  0.99405145396E+03  0.99473173541E+03  0.00000000000E+00 0. -1.
         21    1    1    2  505  501  0.14185310555E+03  0.38684650336E+02 -0.40835504339E+03  0.43401917836E+03  0.00000000000E+00 0.  1.
          2    1    1    2  501    0  0.32905470538E+02 -0.98949875739E+01 -0.16320642316E+04  0.16324259054E+04  0.00000000000E+00 0. -1.
<scales pt_clust_3="14000.00000" pt_clust_4="36.77676" pt_clust_5="125.74935" pt_clust_6="34.36104"></scales>
<clustering>
<clus scale="   34.361">  2  6  1 -1</clus>
<clus scale="   36.777">  1  4  2 -1</clus>
<clus scale="  125.749">  1  5  2 -1</clus>
<clus scale="   36.777">  1  3  2 -1</clus>
</clustering>
</event>
<event>
 6    0  0.5775861E+002  0.9512964E+02  0.7546771E-02  0.1290884E+00
          1   -1    0    0  504    0 -0.00000000000E+00  0.00000000000E+00  0.66601331300E+03  0.66601331300E+03  0.00000000000E+00 0.  1.
         21   -1    0    0  501  502  0.00000000000E+00 -0.00000000000E+00 -0.14748854113E+03  0.14748854113E+03  0.00000000000E+00 0.  1.
         21    1    1    2  503  505 -0.22876879589E+02  0.83187497616E+02  0.31029125348E+01  0.86331566913E+02  0.00000000000E+00 0.  1.
         21    1    1    2  504  503  0.12478395265E+03  0.34216192071E+02  0.10937894695E+02  0.12985153129E+03  0.00000000000E+00 0.  1.
         21    1    1    2  505  502 -0.26261236399E+02 -0.62863615022E+02 -0.14808205840E+02  0.69719219668E+02  0.00000000000E+00 0.  1.
          1    1    1    2  501    0 -0.75645836658E+02 -0.54540074665E+02  0.51929217048E+03  0.52759953627E+03  0.00000000000E+00 0.  1.
<scales pt_clust_3="67.14425" pt_clust_4="95.12964" pt_clust_5="68.12846" pt_clust_6="14000.00000"></scales>
<clustering>
<clus scale="   68.128">  2  5  1 -1</clus>
<clus scale="   67.144">  2  3  1 -1</clus>
<clus scale="   95.130">  2  4  1 -1</clus>
<clus scale="   68.128">  2  3  1 -1</clus>
</clustering>
</event>
<event>
 6    0  0.5775861E+002  0.9243183E+02  0.7546771E-02  0.1297067E+00
         21   -1    0    0  503  502  0.00000000000E+00  0.00000000000E+00  0.23014314840E+03  0.23014314840E+03  0.00000000000E+00 0.  1.
          2   -1    0    0  505    0 -0.00000000000E+00 -0.00000000000E+00 -0.94543688085E+03  0.94543688085E+03  0.00000000000E+00 0. -1.
         21    1    1    2  503  501  0.59972629024E+02  0.62107057365E+02 -0.15800649438E+03  0.18005569992E+03  0.00000000000E+00 0. -1.
         21    1    1    2  504  502 -0.79589159585E+02 -0.48085221851E+02  0.19261069046E+03  0.21388197905E+03  0.00000000000E+00 0.  1.
         21    1    1    2  505  504  0.38481601914E+02 -0.49422509722E+02 -0.48813900034E+02  0.79411680435E+02  0.00000000000E+00 0. -1.
          2    1    1    2  501    0 -0.18865071353E+02  0.35400674209E+02 -0.70108402849E+03  0.70223066984E+03  0.00000000000E+00 0. -1.
<scales pt_clust_3="14000.00000" pt_clust_4="92.43183" pt_clust_5="52.27428" pt_clust_6="40.11357"></scales>
<clustering>
<clus scale="   40.114">  2  6  1 -1</clus>
<clus scale="   52.274">  2  5  1 -1</clus>
<clus scale="   92.432">  1  4  2 -1</clus>
<clus scale="   92.432">  1  3  2 -1</clus>
</clustering>
</event>
<event>
 6    0  0.5775861E+002  0.7417422E+02  0.7546771E-02  0.1346447E+00
          2   -1    0    0  505    0 -0.00000000000E+00  0.00000000000E+00  0.12967465369E+04  0.12967465369E+04  0.00000000000E+00 0. -1.
         21   -1    0    0  504  502  0.00000000000E+00 -0.00000000000E+00 -0.14530973953E+03  0.14530973953E+03  0.00000000000E+00 0. -1.
         21    1    1    2  503  502 -0.27964777542E+01  0.55601349516E+02 -0.87639156002E+02  0.10382654776E+03  0.00000000000E+00 0. -1.
         21    1    1    2  504  501 -0.40814419490E+02  0.25377724246E+01 -0.22678713050E+02  0.46760893413E+02  0.00000000000E+00 0. -1.
         21    1    1    2  505  503  0.67217304106E+02 -0.10859681445E+03  0.27573704986E+03  0.30387884880E+03  0.00000000000E+00 0. -1.
          2    1    1    2  501    0 -0.23606406862E+02  0.50457692512E+02  0.98601761653E+03  0.98758998642E+03  0.00000000000E+00 0. -1.
<scales pt_clust_3="74.17422" pt_clust_4="40.89324" pt_clust_5="14000.00000" pt_clust_6="55.84662"></scales>
<clustering>
<clus scale="   40.893">  2  4  1 -1</clus>
<clus scale="   55.847">  1  6  2 -1</clus>
<clus scale="   74.174">  2  3  1 -1</clus>
<clus scale="   40.893">  2  3  1 -1</clus>
</clustering>
</event>
<event>
 6    0  0.5775861E+002  0.1453613E+03  0.7546771E-02  0.1206292E+00
          1   -1    0    0  505    0 -0.00000000000E+00  0.00000000000E+00  0.93151529182E+03  0.93151529182E+03  0.00000000000E+00 0. -1.
         21   -1    0    0  504  502  0.00000000000E+00 -0.00000000000E+00 -0.33709030362E+03  0.33709030362E+03  0.00000000000E+00 0.  1.
         21    1    1    2  503  501  0.15924503533E+02 -0.94363206570E+02  0.45065193389E+02  0.10577748448E+03  0.00000000000E+00 0.  1.
         21    1    1    2  504  503  0.41026917217E+01 -0.88525837823E+02 -0.26358188957E+03  0.27808104673E+03  0.00000000000E+00 0.  1.
         21    1    1    2  505  502 -0.29955859124E+02  0.25053561593E+02 -0.15002376864E+02  0.41834265332E+02  0.00000000000E+00 0.  1.
          1    1    1    2  501    0  0.99286638688E+01  0.15783548280E+03  0.82794406125E+03  0.84291279890E+03  0.00000000000E+00 0. -1.
<scales pt_clust_3="145.36126" pt_clust_4="70.14302" pt_clust_5="39.05169" pt_clust_6="14000.00000"></scales>
<clustering>
<clus scale="   39.052">  2  5  1 -1</clus>
<clus scale="   70.143">  2  4  1 -1</clus>
<clus scale="  145.361">  2  3  1 -1</clus>
<clus scale="   39.052">  2  3  1 -1</clus>
</clustering>
</event>
<event>
 6    0  0.5775861E+002  0.1606740E+03  0.7546771E-02  0.1187938E+00
         21   -1    0    0  505  502  0.00000000000E+00  0.00000000000E+00  0.12353440687E+03  0.12353440687E+03  0.00000000000E+00 0.  1.
          1   -1    0    0  504    0 -0.00000000000E+00 -0.00000000000E+00 -0.49889497877E+03  0.49889497877E+03  0.00000000000E+00 0.  1.
         21    1    1    2  503  502 -0.25141055366E+02  0.17152331794E+02  0.16325700826E+02  0.34536989712E+02  0.00000000000E+00 0. -1.
         21    1    1    2  504  503  0.65465875078E+02  0.15108621539E+03 -0.18216989229E+03  0.24555792583E+03  0.00000000000E+00 0.  1.
         21    1    1    2  505  501  0.79033854115E+02 -0.56462723745E+02 -0.35172694429E+02  0.10330298980E+03  0.00000000000E+00 0.  1.
          1    1    1    2  501    0 -0.11935867383E+03 -0.11177582344E+03 -0.17434368600E+03  0.23903148029E+03  0.00000000000E+00 0.  1.
<scales pt_clust_3="30.43477" pt_clust_4="160.67404" pt_clust_5="86.56544" pt_clust_6="14000.00000"></scales>
<clustering>
<clus scale="   30.435">  1  3  2 -1</clus>
<clus scale="   86.565">  1  5  2 -1</clus>
<clus scale="  160.674">  2  4  1 -1</clus>
<clus scale="   30.435">  1  3  2 -1</clus>
</clustering>
</event>
<event>
 6    0  0.5775861E+002  0.2326889E+03  0.7546771E-02  0.1124761E+00
         21   -1    0    0  504  502  0.00000000000E+00  0.00000000000E+00  0.90822740051E+02  0.90822740051E+02  0.00000000000E+00 0. -1.
          2   -1    0    0  505    0 -0.00000000000E+00 -0.00000000000E+00 -0.21077282746E+04  0.21077282746E+04  0.00000000000E+00 0. -1.
         21    1    1    2  503  502 -0.36791599586E+01  0.33168204822E+02 -0.74985269785E+00  0.33380058541E+02  0.00000000000E+00 0. -1.
         21    1    1    2  504  501  0.25537149997E+02 -0.22644311020E+03 -0.27811467673E+03  0.35955027687E+03  0.00000000000E+00 0. -1.
         21    1    1    2  505  503 -0.11658778111E+02  0.26890891898E+03 -0.52311804885E+03  0.58830300598E+03  0.00000000000E+00 0. -1.
          2    1    1    2  501    0 -0.10199211927E+02 -0.75634013599E+02 -0.12149229563E+04  0.12173176733E+04  0.00000000000E+00 0. -1.
<scales pt_clust_3="33.37164" pt_clust_4="232.68888" pt_clust_5="14000.00000" pt_clust_6="75.79837"></scales>
<clustering>
<clus scale="   33.372">  1  3  2 -1</clus>
<clus scale="   75.798">  2  6  1 -1</clus>
<clus scale="  232.689">  1  4  2 -1</clus>
<clus scale="   33.372">  1  3  2 -1</clus>
</clustering>
</event>
<event>
 6    0  0.5775861E+002  0.1014113E+03  0.7546771E-02  0.1277356E+00
         21   -1    0    0  503  502  0.00000000000E+00  0.00000000000E+00  0.13576525200E+03  0.13576525200E+03  0.00000000000E+00 0. -1.
          1   -1    0    0  505    0 -0.00000000000E+00 -0.00000000000E+00 -0.14755459929E+04  0.14755459929E+04  0.00000000000E+00 0. -1.
         21    1    1    2  503  501  0.37483780549E+02 -0.36063037586E+02  0.85028207247E+02  0.99676338776E+02  0.00000000000E+00 0. -1.
         21    1    1    2  504  502  0.12084683421E+02 -0.59318453437E+02 -0.39146401971E+01  0.60663357139E+02  0.00000000000E+00 0. -1.
         21    1    1    2  505  504 -0.73314321382E+02  0.14643774661E+03 -0.45739624194E+03  0.48582952308E+03  0.00000000000E+00 0. -1.
          1    1    1    2  501    0  0.23745857412E+02 -0.51056255591E+02 -0.96349806602E+03  0.96514202593E+03  0.00000000000E+00 0. -1.
<scales pt_clust_3="52.01516" pt_clust_4="101.41126" pt_clust_5="14000.00000" pt_clust_6="57.22767"></scales>
<clustering>
<clus scale="   52.015">  1  3  2 -1</clus>
<clus scale="   57.228">  2  6  1 -1</clus>
<clus scale="  101.411">  1  4  2 -1</clus>
<clus scale="   52.015">  1  3  2 -1</clus>
</clustering>
</event>
<event>
 6    0  0.9807526E+002  0.1170468E+03  0.7546771E-02  0.1248050E+00
          2   -1    0    0  505    0 -0.00000000000E+00  0.00000000000E+00  0.13467659979E+04  0.13467659979E+04  0.00000000000E+00 0.  1.
         21   -1    0    0  503  502  0.00000000000E+00 -0.00000000000E+00 -0.14356098348E+04  0.14356098348E+04  0.00000000000E+00 0.  1.
         21    1    1    2  503  501 -0.21631183217E+02 -0.69692033177E+02  0.16404417305E+03  0.17954213513E+03  0.00000000000E+00 0.  1.
         21    1    1    2  504  502 -0.77088375471E+02  0.89604400068E+02 -0.13725087291E+04  0.13775891178E+04  0.00000000000E+00 0.  1.
         21    1    1    2  505  504  0.68179541628E+02  0.15042551190E+02 -0.29060679750E+02  0.75625732065E+02  0.00000000000E+00 0. -1.
          2    1    1    2  501    0  0.30540017060E+02 -0.34954918082E+02  0.11486813989E+04  0.11496188477E+04  0.00000000000E+00 0.  1.
<scales pt_clust_3="14000.00000" pt_clust_4="117.04679" pt_clust_5="72.60423" pt_clust_6="46.41701"></scales>
<clustering>
<clus scale="   46.417">  1  6  2 -1</clus>
<clus scale="   72.604">  1  5  2 -1</clus>
<clus scale="  117.047">  2  4  1 -1</clus>
<clus scale="  117.047">  2  3  1 -1</clus>
</clustering>
</event>
<event>
 6    0  0.5775861E+002  0.1250573E+03  0.7546771E-02  0.1234980E+00
         21   -1    0    0  503  502  0.00000000000E+00  0.00000000000E+00  0.14194250253E+03  0.14194250253E+03  0.00000000000E+00 0.  1.
          1   -1    0    0  504    0 -0.00000000000E+00 -0.00000000000E+00 -0.24942889326E+04  0.24942889326E+04  0.00000000000E+00 0. -1.
         21    1    1    2  503  505  0.32822618092E+02 -0.22708439221E+02 -0.19019349477E+02  0.44212363936E+02  0.00000000000E+00 0. -1.
         21    1    1    2  504  502 -0.59163468937E+02 -0.10146188354E+03  0.93200026710E+02  0.14993690289E+03  0.00000000000E+00 0.  1.
         21    1    1    2  505  501 -0.35362452307E+02  0.12688158017E+03 -0.59031290575E+03  0.60482953393E+03  0.00000000000E+00 0.  1.
          1    1    1    2  501    0  0.61703303151E+02 -0.27112574116E+01 -0.18362142015E+04  0.18372526343E+04  0.00000000000E+00 0. -1.
<scales pt_clust_3="39.91237" pt_clust_4="14000.00000" pt_clust_5="125.05730" pt_clust_6="61.89853"></scales>
<clustering>
<clus scale="   39.912">  1  3  2 -1</clus>
<clus scale="   61.899">  2  6  1 -1</clus>
<clus scale="  125.057">  2  5  1 -1</clus>
<clus scale="   39.912">  1  3  2 -1</clus>
</clustering>
</event>
<event>
 6    0  0.5775861E+002  0.7504975E+02  0.7546771E-02  0.1343717E+00
         -2   -1    0    0    0  501 -0.00000000000E+00  0.00000000000E+00  0.14778529910E+04  0.14778529910E+04  0.00000000000E+00 0.  1.
         21   -1    0    0  504  502  0.00000000000E+00 -0.00000000000E+00 -0.85923256318E+02  0.85923256318E+02  0.00000000000E+00 0.  1.
         21    1    1    2  503  502  0.81302386316E+02 -0.79053617624E+02  0.40855133327E+01  0.11347353832E+03  0.00000000000E+00 0.  1.
         21    1    1    2  504  505 -0.20264745039E+02  0.24689811392E+02 -0.63057621319E+01  0.32557784232E+02  0.00000000000E+00 0.  1.
         21    1    1    2  505  501 -0.40655873582E+02 -0.17406664446E+02  0.34607109508E+02  0.56156424854E+02  0.00000000000E+00 0.  1.
         -2    1    1    2    0  503 -0.20381767695E+02  0.71770470678E+02  0.13595428740E+04  0.13615884999E+04  0.00000000000E+00 0.  1.
<scales pt_clust_3="75.04975" pt_clust_4="31.94130" pt_clust_5="45.93921" pt_clust_6="14000.00000"></scales>
<clustering>
<clus scale="   31.941">  2  4  1 -1</clus>
<clus scale="   45.939">  2  5  1 -1</clus>
<clus scale="   75.050">  2  3  1 -1</clus>
<clus scale="   31.941">  2  3  1 -1</clus>
</clustering>
</event>
<event>
 6    0  0.5775861E+002  0.8676367E+02  0.7546771E-02  0.1310884E+00
         21   -1    0    0  504  502  0.00000000000E+00  0.00000000000E+00  0.12732378215E+04  0.12732378215E+04  0.00000000000E+00 0. -1.
          1   -1    0    0  505    0 -0.00000000000E+00 -0.00000000000E+00 -0.20406347416E+03  0.20406347416E+03  0.00000000000E+00 0. -1.
         21    1    1    2  503  501 -0.67242356669E+02 -0.39892329736E+02  0.30386207004E+03  0.31375960561E+03  0.00000000000E+00 0.  1.
         21    1    1    2  504  503 -0.90704836250E+01 -0.37919467533E+02  0.70642477312E+03  0.70749990796E+03  0.00000000000E+00 0. -1.
         21    1    1    2  505  502  0.85578730791E+02 -0.10232095974E+02  0.23969724200E+03  0.25472177523E+03  0.00000000000E+00 0.  1.
          1    1    1    2  501    0 -0.92658904972E+01  0.88043893244E+02 -0.18080973783E+03  0.20132000685E+03  0.00000000000E+00 0. -1.
<scales pt_clust_3="86.76367" pt_clust_4="38.98923" pt_clust_5="85.90196" pt_clust_6="14000.00000"></scales>
<clustering>
<clus scale="   38.989">  1  4  2 -1</clus>
<clus scale="   85.902">  1  5  2 -1</clus>
<clus scale="   86.764">  1  3  2 -1</clus>
<clus scale="   38.989">  1  3  2 -1</clus>
</clustering>
</event>
<event>
 6    0  0.5775861E+002  0.7972560E+02  0.7546771E-02  0.1329832E+00
         21   -1    0    0  504  502  0.00000000000E+00  0.00000000000E+00  0.40512683978E+03  0.40512683978E+03  0.00000000000E+00 0.  1.
          1   -1    0    0  505    0 -0.00000000000E+00 -0.00000000000E+00 -0.19093153203E+04  0.19093153203E+04  0.00000000000E+00 0.  1.
         21    1    1    2  503  501 -0.12812147611E+03 -0.18170471696E+02  0.14766168798E+03  0.19633963629E+03  0.00000000000E+00 0.  1.
         21    1    1    2  504  503 -0.20077209028E+02  0.38650415055E+02  0.20921490284E+03  0.21370031464E+03  0.00000000000E+00 0.  1.
         21    1    1    2  505  502  0.70458475668E+02 -0.37739765892E+01 -0.39033772053E+02  0.80636685531E+02  0.00000000000E+00 0.  1.
          1    1    1    2  501    0  0.77740209472E+02 -0.16705966770E+02 -0.18220312993E+04  0.18237655236E+04  0.00000000000E+00 0.  1.
<scales pt_clust_3="14000.00000" pt_clust_4="43.55398" pt_clust_5="68.30308" pt_clust_6="79.72560"></scales>
<clustering>
<clus scale="   43.554">  1  4  2 -1</clus>
<clus scale="   68.303">  1  5  2 -1</clus>
<clus scale="   79.726">  2  6  1 -1</clus>
<clus scale="   43.554">  1  3  2 -1</clus>
</clustering>
</event>
<event>
 6    0  0.5775861E+002  0.9963564E+02  0.7546771E-02  0.1281064E+00
         -2   -1    0    0    0  501 -0.00000000000E+00  0.00000000000E+00  0.28011077089E+03  0.28011077089E+03  0.00000000000E+00 0. -1.
         21   -1    0    0  505  502  0.00000000000E+00 -0.00000000000E+00 -0.14129789181E+04  0.14129789181E+04  0.00000000000E+00 0.  1.
         21    1    1    2  503  502  0.86022901212E+02 -0.42483901764E+00 -0.51565469295E+03  0.52278091241E+03  0.00000000000E+00 0. -1.
         21    1    1    2  504  503 -0.34974033483E+02 -0.12313540119E+03  0.74419566206E+02  0.14806681559E+03  0.00000000000E+00 0.  1.
         21    1    1    2  505  501 -0.41126994263E+02  0.89034901446E+02 -0.85213946837E+03  0.85776472117E+03  0.00000000000E+00 0.  1.
         -2    1    1    2    0  504 -0.99218734666E+01  0.34525338765E+02  0.16050644791E+03  0.16447723980E+03  0.00000000000E+00 0. -1.
<scales pt_clust_3="85.72458" pt_clust_4="99.63564" pt_clust_5="14000.00000" pt_clust_6="35.92273"></scales>
<clustering>
<clus scale="   35.923">  1  6  2 -1</clus>
<clus scale="   85.725">  2  3  1 -1</clus>
<clus scale="   99.636">  1  4  2 -1</clus>
<clus scale="   85.725">  2  3  1 -1</clus>
</clustering>
</event>
<event>
 6    0  0.5775861E+002  0.8816680E+02  0.7546771E-02  0.1307353E+00
         -1   -1    0    0    0  501 -0.00000000000E+00  0.00000000000E+00  0.86156566742E+03  0.86156566742E+03  0.00000000000E+00 0.  1.
         21   -1    0    0  503  502  0.00000000000E+00 -0.00000000000E+00 -0.33996028497E+03  0.33996028497E+03  0.00000000000E+00 0.  1.
         21    1    1    2  503  505 -0.37845605341E+02 -0.77061391259E+02 -0.28612799136E+03  0.29873060658E+03  0.00000000000E+00 0.  1.
         21    1    1    2  504  502  0.76720980777E+02  0.13424173586E+03  0.14703149936E+03  0.21336638522E+03  0.00000000000E+00 0.  1.
         21    1    1    2  505  501 -0.42335210630E+02 -0.62876408578E+01  0.20959438196E+02  0.47656086035E+02  0.00000000000E+00 0. -1.
         -1    1    1    2    0  504  0.34598351948E+01 -0.50892703747E+02  0.63974243627E+03  0.64177287456E+03  0.00000000000E+00 0.  1.
<scales pt_clust_3="88.16680" pt_clust_4="14000.00000" pt_clust_5="42.79959" pt_clust_6="63.00643"></scales>
<clustering>
<clus scale="   42.800">  1  5  2 -1</clus>
<clus scale="   63.006">  1  6  2 -1</clus>
<clus scale="   88.167">  2  3  1 -1</clus>
<clus scale="   88.167">  2  3  1 -1</clus>
</clustering>
</event>
<event>
 6    0  0.5775861E+002  0.1002675E+03  0.7546771E-02  0.1279734E+00
         21   -1    0    0  501  502  0.00000000000E+00  0.00000000000E+00  0.59208346300E+03  0.59208346300E+03  0.00000000000E+00 0.  1.
          2   -1    0    0  505    0 -0.00000000000E+00 -0.00000000000E+00 -0.39453441052E+03  0.39453441052E+03  0.00000000000E+00 0.  1.
         21    1    1    2  503  504 -0.34943908786E+02 -0.38717232395E+02  0.23334691834E+03  0.23910433945E+03  0.00000000000E+00 0.  1.
         21    1    1    2  504  502 -0.41290645448E+02  0.30570556153E+02  0.32421617542E+03  0.32826148832E+03  0.00000000000E+00 0.  1.
         21    1    1    2  505  503 -0.45247039847E+02  0.57505959831E+02 -0.71347808495E+02  0.10219950982E+03  0.00000000000E+00 0. -1.
          2    1    1    2  501    0  0.12148159408E+03 -0.49359283589E+02 -0.28866623280E+03  0.31705253592E+03  0.00000000000E+00 0.  1.
<scales pt_clust_3="72.55976" pt_clust_4="51.37583" pt_clust_5="14000.00000" pt_clust_6="100.26754"></scales>
<clustering>
<clus scale="   51.376">  1  4  2 -1</clus>
<clus scale="   72.560">  1  3  2 -1</clus>
<clus scale="  100.268">  2  6  1 -1</clus>
<clus scale="   51.376">  1  3  2 -1</clus>
</clustering>
</event>
<event>
 6    0  0.5775861E+002  0.1542092E+03  0.7546771E-02  0.1195394E+00
          2   -1    0    0  503    0 -0.00000000000E+00  0.00000000000E+00  0.14385564372E+03  0.14385564372E+03  0.00000000000E+00 0. -1.
         21   -1    0    0  504  502  0.00000000000E+00 -0.00000000000E+00 -0.60634304838E+03  0.60634304838E+03  0.00000000000E+00 0.  1.
         21    1    1    2  503  505  0.14316219448E+03 -0.37693010654E+02 -0.78096789052E+02  0.16737767306E+03  0.00000000000E+00 0. -1.
         21    1    1    2  504  501 -0.17607979594E+03 -0.59645771057E+02 -0.31263510444E+03  0.36373399769E+03  0.00000000000E+00 0.  1.
         21    1    1    2  505  502  0.28429220497E+02  0.49225043995E+02 -0.13090118457E+03  0.14271105653E+03  0.00000000000E+00 0.  1.
          2    1    1    2  501    0  0.44883809702E+01  0.48113737716E+02  0.59145673405E+02  0.76375964827E+02  0.00000000000E+00 0. -1.
<scales pt_clust_3="154.20917" pt_clust_4="14000.00000" pt_clust_5="60.27242" pt_clust_6="48.32264"></scales>
<clustering>
<clus scale="   48.323">  1  6  2 -1</clus>
<clus scale="   60.272">  2  5  1 -1</clus>
<clus scale="  154.209">  1  3  2 -1</clus>
<clus scale="   60.272">  2  3  1 -1</clus>
</clustering>
</event>
<event>
 6    0  0.5775861E+002  0.7915639E+02  0.7546771E-02  0.1331463E+00
          2   -1    0    0  504    0 -0.00000000000E+00  0.00000000000E+00  0.23671921424E+04  0.23671921424E+04  0.00000000000E+00 0. -1.
         21   -1    0    0  503  502  0.00000000000E+00 -0.00000000000E+00 -0.16865424146E+03  0.16865424146E+03  0.00000000000E+00 0.  1.
         21    1    1    2  503  505  0.73101135777E+02 -0.26020744525E+02 -0.14283443053E+03  0.16255008380E+03  0.00000000000E+00 0.  1.
         21    1    1    2  504  502 -0.57394042763E+01 -0.36867668456E+02  0.25974214116E+03  0.26240835664E+03  0.00000000000E+00 0.  1.
         21    1    1    2  505  501 -0.10638959799E+03  0.72859993391E+02  0.27417474941E+03  0.30298369330E+03  0.00000000000E+00 0.  1.
          2    1    1    2  501    0  0.39027866487E+02 -0.99715804109E+01  0.18074554409E+04  0.18079042502E+04  0.00000000000E+00 0. -1.
<scales pt_clust_3="14000.00000" pt_clust_4="37.31174" pt_clust_5="79.15639" pt_clust_6="53.80283"></scales>
<clustering>
<clus scale="   37.312">  1  4  2 -1</clus>
<clus scale="   53.803">  1  6  2 -1</clus>
<clus scale="   79.156">  1  5  2 -1</clus>
<clus scale="   79.156">  2  3  1 -1</clus>
</clustering>
</event>
<event>
 6    0  0.5775861E+002  0.1271291E+03  0.7546771E-02  0.1231779E+00
         21   -1    0    0  503  502  0.00000000000E+00  0.00000000000E+00  0.33246364118E+03  0.33246364118E+03  0.00000000000E+00 0. -1.
          2   -1    0    0  504    0 -0.00000000000E+00 -0.00000000000E+00 -0.10873390102E+03  0.10873390102E+03  0.00000000000E+00 0.  1.
         21    1    1    2  503  501  0.94709433822E+02 -0.83819891327E+02  0.80271748006E+02  0.14979721147E+03  0.00000000000E+00 0. -1.
         21    1    1    2  504  505 -0.14250446796E+03  0.10105292681E+02  0.60179681343E+02  0.15502010958E+03  0.00000000000E+00 0. -1.
         21    1    1    2  505  502  0.26056609735E+02  0.48799462561E+02  0.87007670956E+02  0.10310513694E+03  0.00000000000E+00 0. -1.
          2    1    1    2  501    0  0.21738424404E+02  0.24915136085E+02 -0.37293601402E+01  0.33275084204E+02  0.00000000000E+00 0.  1.
<scales pt_clust_3="127.12909" pt_clust_4="14000.00000" pt_clust_5="58.19789" pt_clust_6="33.06544"></scales>
<clustering>
<clus scale="   33.065">  2  6  1 -1</clus>
<clus scale="   58.198">  1  5  2 -1</clus>
<clus scale="  127.129">  1  3  2 -1</clus>
<clus scale="   58.198">  1  3  2 -1</clus>
</clustering>
</event>
<event>
 6    0  0.5775861E+002  0.1718502E+03  0.7546771E-02  0.1175932E+00
          1   -1    0    0  505    0 -0.00000000000E+00  0.00000000000E+00  0.39358254356E+03  0.39358254356E+03  0.00000000000E+00 0. -1.
         21   -1    0    0  504  502  0.00000000000E+00 -0.00000000000E+00 -0.86611217004E+03  0.86611217004E+03  0.00000000000E+00 0.  1.
         21    1    1    2  503  502  0.11301561909E+03  0.37673542694E+02 -0.77423796768E+03  0.78334938347E+03  0.00000000000E+00 0.  1.
         21    1    1    2  504  501  0.37601074200E+02  0.52135503596E+02 -0.36721376162E+02  0.74029797943E+02  0.00000000000E+00 0.  1.
         21    1    1    2  505  503  0.10847483589E+01 -0.34504637166E+02  0.93637674544E+01  0.35769076112E+02  0.00000000000E+00 0.  1.
          1    1    1    2  501    0 -0.15170144165E+03 -0.55304409124E+02  0.32906594991E+03  0.36654645607E+03  0.00000000000E+00 0. -1.
<scales pt_clust_3="171.85024" pt_clust_4="62.91400" pt_clust_5="34.52168" pt_clust_6="14000.00000"></scales>
<clustering>
<clus scale="   34.522">  1  5  2 -1</clus>
<clus scale="   62.914">  2  4  1 -1</clus>
<clus scale="  171.850">  2  3  1 -1</clus>
<clus scale="   62.914">  2  3  1 -1</clus>
</clustering>
</event>
<event>
 6    0  0.5775861E+002  0.1389220E+03  0.7546771E-02  0.1214787E+00
         21   -1    0    0  503  502  0.00000000000E+00  0.00000000000E+00  0.19243109281E+04  0.19243109281E+04  0.00000000000E+00 0. -1.
         -3   -1    0    0    0  501 -0.00000000000E+00 -0.00000000000E+00 -0.73250900532E+02  0.73250900532E+02  0.00000000000E+00 0. -1.
         21    1    1    2  503  504 -0.13897103634E+02  0.49672116314E+02  0.32853638077E+03  0.33256067434E+03  0.00000000000E+00 0. -1.
         21    1    1    2  504  505  0.15315904946E+03 -0.90491865499E+02  0.14336633126E+04  0.14446580793E+04  0.00000000000E+00 0. -1.
         21    1    1    2  505  501 -0.10889425678E+03 -0.17401981561E+02  0.10548723804E+03  0.15260519491E+03  0.00000000000E+00 0. -1.
         -3    1    1    2    0  502 -0.30367689046E+02  0.58221730746E+02 -0.16626903842E+02  0.67737880100E+02  0.00000000000E+00 0. -1.
<scales pt_clust_3="51.57954" pt_clust_4="138.92203" pt_clust_5="14000.00000" pt_clust_6="66.47503"></scales>
<clustering>
<clus scale="   51.580">  1  3  2 -1</clus>
<clus scale="   66.475">  2  6  1 -1</clus>
<clus scale="  138.922">  1  4  2 -1</clus>
<clus scale="   51.580">  1  3  2 -1</clus>
</clustering>
</event>
<event>
 6    0  0.5775861E+002  0.1697258E+03  0.7546771E-02  0.1178134E+00
         21   -1    0    0  504  502  0.00000000000E+00  0.00000000000E+00  0.29552527756E+03  0.29552527756E+03  0.00000000000E+00 0.  1.
          2   -1    0    0  505    0 -0.00000000000E+00 -0.00000000000E+00 -0.55530075500E+03  0.55530075500E+03  0.00000000000E+00 0. -1.
         21    1    1    2  503  502  0.50388401187E+01  0.18497451094E+03  0.12015177543E+03  0.22062957360E+03  0.00000000000E+00 0.  1.
         21    1    1    2  504  501  0.20200256784E+02 -0.86105135505E+02  0.38371936079E+02  0.96408247640E+02  0.00000000000E+00 0.  1.
         21    1    1    2  505  503 -0.37799456854E+02  0.47991027303E+02  0.25465579711E+02  0.66184842601E+02  0.00000000000E+00 0. -1.
          2    1    1    2  501    0  0.12560359951E+02 -0.14686040274E+03 -0.44376476866E+03  0.46760336872E+03  0.00000000000E+00 0. -1.
<scales pt_clust_3="43.42474" pt_clust_4="88.44289" pt_clust_5="43.42474" pt_clust_6="151.97029"></scales>
<clustering>
<clus scale="   43.425">  3  5 -1 -1</clus>
<clus scale="   88.443">  1  4  2 -1</clus>
<clus scale="  151.970">  2  6  1 -1</clus>
<clus scale="   88.443">  1  3  2 -1</clus>
</clustering>
</event>
<event>
 6    0  0.5775861E+002  0.8603047E+02  0.7546771E-02  0.1312760E+00
         21   -1    0    0  505  502  0.00000000000E+00  0.00000000000E+00  0.18797949722E+04  0.18797949722E+04  0.00000000000E+00 0.  1.
          2   -1    0    0  504    0 -0.00000000000E+00 -0.00000000000E+00 -0.45593087049E+03  0.45593087049E+03  0.00000000000E+00 0. -1.
         21    1    1    2  503  501 -0.42597481047E+02 -0.10141575984E+03  0.11760726488E+03  0.16103158227E+03  0.00000000000E+00 0.  1.
         21    1    1    2  504  502  0.44351986641E+02  0.75521410621E+02  0.38726445090E+02  0.95761786379E+02  0.00000000000E+00 0.  1.
         21    1    1    2  505  503 -0.14729020602E+02  0.59295932646E+02  0.16718811077E+04  0.16729971279E+04  0.00000000000E+00 0.  1.
          2    1    1    2  501    0  0.12974515008E+02 -0.33401583424E+02 -0.40435071592E+03  0.40593534618E+03  0.00000000000E+00 0. -1.
<scales pt_clust_3="14000.00000" pt_clust_4="86.03047" pt_clust_5="60.70738" pt_clust_6="35.83300"></scales>
<clustering>
<clus scale="   35.833">  2  6  1 -1</clus>
<clus scale="   60.707">  1  5  2 -1</clus>
<clus scale="   86.030">  2  4  1 -1</clus>
<clus scale="   60.707">  1  3  2 -1</clus>
</clustering>
</event>
<event>
 6    0  0.5775861E+002  0.2935305E+03  0.7546771E-02  0.1088520E+00
         21   -1    0    0  505  502  0.00000000000E+00  0.00000000000E+00  0.18173826950E+03  0.18173826950E+03  0.00000000000E+00 0.  1.
         -1   -1    0    0    0  501 -0.00000000000E+00 -0.00000000000E+00 -0.20200740539E+04  0.20200740539E+04  0.00000000000E+00 0.  1.
         21    1    1    2  503  502 -0.25704616660E+03 -0.16037525084E+03 -0.13980777072E+02  0.30329591981E+03  0.00000000000E+00 0.  1.
         21    1    1    2  504  501  0.48351909452E+02  0.81210856273E+02 -0.69823338690E+03  0.70460128648E+03  0.00000000000E+00 0.  1.
         21    1    1    2  505  504  0.25036605005E+03  0.90818561172E+02 -0.50181228664E+03  0.56810803646E+03  0.00000000000E+00 0.  1.
         -1    1    1    2    0  503 -0.41671792901E+02 -0.11654166602E+02 -0.62430933382E+03  0.62580708067E+03  0.00000000000E+00 0.  1.
<scales pt_clust_3="293.53048" pt_clust_4="80.17798" pt_clust_5="14000.00000" pt_clust_6="43.27075"></scales>
<clustering>
<clus scale="   43.271">  2  6  1 -1</clus>
<clus scale="   80.178">  2  4  1 -1</clus>
<clus scale="  293.530">  1  3  2 -1</clus>
<clus scale="  293.530">  1  3  2 -1</clus>
</clustering>
</event>
<event>
 6    0  0.5775861E+002  0.8956742E+02  0.7546771E-02  0.1303903E+00
         21   -1    0    0  501  502  0.00000000000E+00  0.00000000000E+00  0.16942447123E+03  0.16942447123E+03  0.00000000000E+00 0. -1.
          2   -1    0    0  504    0 -0.00000000000E+00 -0.00000000000E+00 -0.15109726815E+04  0.15109726815E+04  0.00000000000E+00 0.  1.
         21    1    1    2  503  502  0.13516692032E+01  0.59478481958E+02  0.32138226083E+02  0.67619393679E+02  0.00000000000E+00 0. -1.
         21    1    1    2  504  505  0.19712731568E+02 -0.45924021478E+02 -0.10089797380E+03  0.11259666359E+03  0.00000000000E+00 0. -1.
         21    1    1    2  505  503  0.73101212350E+02 -0.54566570108E+01  0.10008469218E+03  0.12405848605E+03  0.00000000000E+00 0.  1.
          2    1    1    2  501    0 -0.94165613121E+02 -0.80978034691E+01 -0.13728731548E+04  0.13761226094E+04  0.00000000000E+00 0.  1.
<scales pt_clust_3="58.92004" pt_clust_4="49.97607" pt_clust_5="89.56742" pt_clust_6="14000.00000"></scales>
<clustering>
<clus scale="   49.976">  2  4  1 -1</clus>
<clus scale="   58.920">  1  3  2 -1</clus>
<clus scale="   89.567">  1  5  2 -1</clus>
<clus scale="   58.920">  1  3  2 -1</clus>
</clustering>
</event>
<event>
 6    0  0.5775861E+002  0.8799874E+02  0.7546771E-02  0.1307772E+00
         21   -1    0    0  504  502  0.00000000000E+00  0.00000000000E+00  0.86003571132E+03  0.86003571132E+03  0.00000000000E+00 0. -1.
          2   -1    0    0  505    0 -0.00000000000E+00 -0.00000000000E+00 -0.30503002165E+03  0.30503002165E+03  0.00000000000E+00 0.  1.
         21    1    1    2  503  501 -0.11885171030E+03  0.14248746952E+02 -0.23310881182E+02  0.12195143711E+03  0.00000000000E+00 0. -1.
         21    1    1    2  504  503  0.47528693993E+02 -0.55261075861E+02  0.34281308142E+03  0.35047620754E+03  0.00000000000E+00 0. -1.
         21    1    1    2  505  502  0.40350381370E+02  0.44610990913E+02  0.46104446816E+03  0.46495192807E+03  0.00000000000E+00 0. -1.
          2    1    1    2  501    0  0.30972634938E+02 -0.35986620047E+01 -0.22554097873E+03  0.22768616025E+03  0.00000000000E+00 0.  1.
<scales pt_clust_3="14000.00000" pt_clust_4="87.99874" pt_clust_5="60.60670" pt_clust_6="31.18100"></scales>
<clustering>
<clus scale="   31.181">  2  6  1 -1</clus>
<clus scale="   60.607">  1  5  2 -1</clus>
<clus scale="   87.999">  1  4  2 -1</clus>
<clus scale="   60.607">  1  3  2 -1</clus>
</clustering>
</event>
<event>
 6    0  0.5775861E+002  0.1076410E+03  0.7546771E-02  0.1265002E+00
         21   -1    0    0  503  502  0.00000000000E+00  0.00000000000E+00  0.36217225826E+03  0.36217225826E+03  0.00000000000E+00 0.  1.
          1   -1    0    0  505    0 -0.00000000000E+00 -0.00000000000E+00 -0.62179965442E+03  0.62179965442E+03  0.00000000000E+00 0.  1.
         21    1    1    2  503  501  0.10257672139E+02 -0.13106815486E+03  0.38535163986E+02  0.13700014569E+03  0.00000000000E+00 0.  1.
         21    1    1    2  504  502  0.43940101383E+02 -0.15053154307E+01  0.21297128120E+03  0.21746210037E+03  0.00000000000E+00 0.  1.
         21    1    1    2  505  504 -0.30201108461E+02  0.88163578913E+02  0.20552625055E+02  0.95432352982E+02  0.00000000000E+00 0. -1.
          1    1    1    2  501    0 -0.23996665061E+02  0.44409891381E+02 -0.53168646640E+03  0.53407731363E+03  0.00000000000E+00 0.  1.
<scales pt_clust_3="14000.00000" pt_clust_4="43.96588" pt_clust_5="107.64100" pt_clust_6="50.29875"></scales>
<clustering>
<clus scale="   43.966">  1  4  2 -1</clus>
<clus scale="   50.299">  2  6  1 -1</clus>
<clus scale="  107.641">  1  5  2 -1</clus>
<clus scale="   43.966">  1  3  2 -1</clus>
</clustering>
</event>
<event>
 6    0  0.5775861E+002  0.1284532E+03  0.7546771E-02  0.1229769E+00
         -4   -1    0    0    0  501 -0.00000000000E+00  0.00000000000E+00  0.11224335238E+04  0.11224335238E+04  0.00000000000E+00 0.  1.
         21   -1    0    0  505  502  0.00000000000E+00 -0.00000000000E+00 -0.21597214585E+03  0.21597214585E+03  0.00000000000E+00 0.  1.
         21    1    1    2  503  504  0.35361159269E+02 -0.84173981612E+02  0.60766874498E+02  0.10967353282E+03  0.00000000000E+00 0.  1.
         21    1    1    2  504  501 -0.14700749954E+02  0.16524265922E+03  0.34803669940E+03  0.38555258085E+03  0.00000000000E+00 0.  1.
         21    1    1    2  505  503  0.13593490109E+01 -0.57060952134E+02 -0.16763710835E+03  0.17708754949E+03  0.00000000000E+00 0.  1.
         -4    1    1    2    0  502 -0.22019758326E+02 -0.24007725478E+02  0.66529491245E+03  0.66609200654E+03  0.00000000000E+00 0.  1.
<scales pt_clust_3="14000.00000" pt_clust_4="128.45322" pt_clust_5="57.32049" pt_clust_6="32.57669"></scales>
<clustering>
<clus scale="   32.577">  1  6  2 -1</clus>
<clus scale="   57.320">  2  5  1 -1</clus>
<clus scale="  128.453">  1  4  2 -1</clus>
<clus scale="   57.320">  2  3  1 -1</clus>
</clustering>
</event>
<event>
 6    0  0.5775861E+002  0.6397382E+02  0.7546771E-02  0.1381874E+00
         21   -1    0    0  505  502  0.00000000000E+00  0.00000000000E+00  0.22104566094E+03  0.22104566094E+03  0.00000000000E+00 0. -1.
         -1   -1    0    0    0  501 -0.00000000000E+00 -0.00000000000E+00 -0.41866387423E+03  0.41866387423E+03  0.00000000000E+00 0.  1.
         21    1    1    2  503  501 -0.89585952921E+02 -0.37219047672E+02 -0.14548633673E+03  0.17486330274E+03  0.00000000000E+00 0.  1.
         21    1    1    2  504  502  0.50697970431E+02 -0.59652956001E+02  0.57359998001E+02  0.97051165558E+02  0.00000000000E+00 0. -1.
         21    1    1    2  505  503  0.10606459704E+02  0.56216792119E+02  0.12004312333E+03  0.13297810407E+03  0.00000000000E+00 0. -1.
         -1    1    1    2    0  504  0.28281522786E+02  0.40655211554E+02 -0.22953499790E+03  0.23481696280E+03  0.00000000000E+00 0.  1.
<scales pt_clust_3="14000.00000" pt_clust_4="63.97382" pt_clust_5="58.78015" pt_clust_6="49.52465"></scales>
<clustering>
<clus scale="   49.525">  2  6  1 -1</clus>
<clus scale="   58.780">  1  5  2 -1</clus>
<clus scale="   63.974">  1  4  2 -1</clus>
<clus scale="   58.780">  1  3  2 -1</clus>
</clustering>
</event>
<event>
 6    0  0.5775861E+002  0.1488976E+03  0.7546771E-02  0.1201834E+00
          2   -1    0    0  504    0 -0.00000000000E+00  0.00000000000E+00  0.77190694930E+03  0.77190694930E+03  0.00000000000E+00 0.  1.
         21   -1    0    0  503  502  0.00000000000E+00 -0.00000000000E+00 -0.11052909852E+04  0.11052909852E+04  0.00000000000E+00 0. -1.
         21    1    1    2  503  505  0.39194432937E+02 -0.38430078928E+01 -0.58122086043E+03  0.58255356911E+03  0.00000000000E+00 0. -1.
         21    1    1    2  504  502  0.11643478054E+03 -0.70542556605E+02 -0.43202195792E+03  0.45296388657E+03  0.00000000000E+00 0. -1.
         21    1    1    2  505  501 -0.10426974858E+03  0.47056743751E+02 -0.38704007580E+02  0.12076637696E+03  0.00000000000E+00 0. -1.
          2    1    1    2  501    0 -0.51359464900E+02  0.27328820746E+02  0.71856279002E+03  0.72091410187E+03  0.00000000000E+00 0.  1.
<scales pt_clust_3="39.38239" pt_clust_4="148.89762" pt_clust_5="14000.00000" pt_clust_6="58.09606"></scales>
<clustering>
<clus scale="   39.382">  2  3  1 -1</clus>
<clus scale="   58.096">  1  6  2 -1</clus>
<clus scale="  148.898">  2  4  1 -1</clus>
<clus scale="   39.382">  2  3  1 -1</clus>
</clustering>
</event>
<event>
 6    0  0.5775861E+002  0.1311834E+03  0.7546771E-02  0.1225710E+00
          3   -1    0    0  504    0 -0.00000000000E+00  0.00000000000E+00  0.33610533347E+03  0.33610533347E+03  0.00000000000E+00 0.  1.
         21   -1    0    0  505  502  0.00000000000E+00 -0.00000000000E+00 -0.47335371015E+03  0.47335371015E+03  0.00000000000E+00 0. -1.
         21    1    1    2  503  502  0.79445292384E+02 -0.12106417466E+03 -0.14616390659E+03  0.20574736075E+03  0.00000000000E+00 0. -1.
         21    1    1    2  504  503 -0.10607519811E+02  0.13098071198E+03  0.27418191593E+03  0.30404636063E+03  0.00000000000E+00 0.  1.
         21    1    1    2  505  501 -0.32134413369E+02  0.15946175473E+02 -0.24951789881E+03  0.25208348391E+03  0.00000000000E+00 0. -1.
          3    1    1    2  501    0 -0.36703359204E+02 -0.25862712790E+02 -0.15748487216E+02  0.47581838334E+02  0.00000000000E+00 0.  1.
<scales pt_clust_3="131.18344" pt_clust_4="14000.00000" pt_clust_5="35.87340" pt_clust_6="47.54300"></scales>
<clustering>
<clus scale="   35.873">  2  5  1 -1</clus>
<clus scale="   47.543">  2  6  1 -1</clus>
<clus scale="  131.183">  2  3  1 -1</clus>
<clus scale="   35.873">  2  3  1 -1</clus>
</clustering>
</event>
<event>
 6    0  0.5775861E+002  0.7580493E+02  0.7546771E-02  0.1341396E+00
          2   -1    0    0  505    0 -0.00000000000E+00  0.00000000000E+00  0.75086819423E+03  0.75086819423E+03  0.00000000000E+00 0.  1.
         21   -1    0    0  501  502  0.00000000000E+00 -0.00000000000E+00 -0.13092538565E+03  0.13092538565E+03  0.00000000000E+00 0.  1.
         21    1    1    2  503  504  0.31198573784E+02 -0.48440500426E+02  0.69732953586E+02  0.90457271147E+02  0.00000000000E+00 0.  1.
         21    1    1    2  504  502 -0.36189289261E+02 -0.67578347564E+02 -0.10043455186E+03  0.12634712867E+03  0.00000000000E+00 0.  1.
         21    1    1    2  505  503  0.35930505022E+02  0.40349080489E+02  0.30996448693E+03  0.31463793898E+03  0.00000000000E+00 0.  1.
          2    1    1    2  501    0 -0.30939789545E+02  0.75669767501E+02  0.34067991992E+03  0.35035124108E+03  0.00000000000E+00 0.  1.
<scales pt_clust_3="55.79187" pt_clust_4="75.80493" pt_clust_5="54.02823" pt_clust_6="14000.00000"></scales>
<clustering>
<clus scale="   54.028">  1  5  2 -1</clus>
<clus scale="   55.792">  1  3  2 -1</clus>
<clus scale="   75.805">  2  4  1 -1</clus>
<clus scale="   75.805">  2  3  1 -1</clus>
</clustering>
</event>
<event>
 6    0  0.5775861E+002  0.9061203E+02  0.7546771E-02  0.1301376E+00
         21   -1    0    0  504  502  0.00000000000E+00  0.00000000000E+00  0.93848726165E+02  0.93848726165E+02  0.00000000000E+00 0. -1.
          3   -1    0    0  503    0 -0.00000000000E+00 -0.00000000000E+00 -0.12926313444E+04  0.12926313444E+04  0.00000000000E+00 0. -1.
         21    1    1    2  503  502  0.22420906292E+02 -0.26357834774E+02  0.19489973694E+02  0.39715130209E+02  0.00000000000E+00 0. -1.
         21    1    1    2  504  505 -0.10819066783E+03  0.73086541357E+02 -0.11300332175E+02  0.13105174795E+03  0.00000000000E+00 0. -1.
         21    1    1    2  505  501  0.54581477567E+02 -0.66247121660E+01 -0.19884038696E+03  0.20630202130E+03  0.00000000000E+00 0. -1.
          3    1    1    2  501    0  0.31188283969E+02 -0.40103994417E+02 -0.10081318728E+04  0.10094111711E+04  0.00000000000E+00 0. -1.
<scales pt_clust_3="34.60394" pt_clust_4="90.61203" pt_clust_5="14000.00000" pt_clust_6="51.14813"></scales>
<clustering>
<clus scale="   34.604">  1  3  2 -1</clus>
<clus scale="   51.148">  2  6  1 -1</clus>
<clus scale="   90.612">  1  4  2 -1</clus>
<clus scale="   34.604">  1  3  2 -1</clus>
</clustering>
</event>
<event>
 6    0  0.5775861E+002  0.8201088E+02  0.7546771E-02  0.1323440E+00
          2   -1    0    0  503    0 -0.00000000000E+00  0.00000000000E+00  0.39411582046E+04  0.39411582046E+04  0.00000000000E+00 0.  1.
         21   -1    0    0  505  502  0.00000000000E+00 -0.00000000000E+00 -0.50266104671E+02  0.50266104671E+02  0.00000000000E+00 0. -1.
         21    1    1    2  503  504  0.51372329614E+02 -0.77229970487E+02  0.78024533948E+02  0.12120813706E+03  0.00000000000E+00 0. -1.
         21    1    1    2  504  502  0.34754510731E+02  0.45324034045E+01 -0.36902371551E+01  0.35242538885E+02  0.00000000000E+00 0.  1.
         21    1    1    2  505  501 -0.45437686714E+02  0.17422680837E+01  0.50217344603E+02  0.67745114739E+02  0.00000000000E+00 0. -1.
          2    1    1    2  501    0 -0.40689153631E+02  0.70955298999E+02  0.37663404585E+04  0.37672285186E+04  0.00000000000E+00 0.  1.
<scales pt_clust_3="14000.00000" pt_clust_4="35.04880" pt_clust_5="35.67755" pt_clust_6="82.01088"></scales>
<clustering>
<clus scale="   35.049">  2  4  1 -1</clus>
<clus scale="   35.678">  2  5  1 -1</clus>
<clus scale="   82.011">  1  6  2 -1</clus>
<clus scale="   35.049">  2  3  1 -1</clus>
</clustering>
</event>
<event>
 6    0  0.5775861E+002  0.1286950E+03  0.7546771E-02  0.1229405E+00
          2   -1    0    0  504    0 -0.00000000000E+00  0.00000000000E+00  0.22125975420E+03  0.22125975420E+03  0.00000000000E+00 0. -1.
         21   -1    0    0  505  502  0.00000000000E+00 -0.00000000000E+00 -0.74334477951E+03  0.74334477951E+03  0.00000000000E+00 0. -1.
         21    1    1    2  503  502  0.77958099457E+02 -0.68643692282E+02 -0.63565341073E+03  0.64408437361E+03  0.00000000000E+00 0. -1.
         21    1    1    2  504  503  0.13503532096E+02 -0.60971365717E+02  0.13118139630E+03  0.14528734133E+03  0.00000000000E+00 0. -1.
         21    1    1    2  505  501 -0.32699431527E+02  0.10608690981E+03 -0.12924928021E+02  0.11176197483E+03  0.00000000000E+00 0. -1.
          2    1    1    2  501    0 -0.58762200025E+02  0.23528148193E+02 -0.46880828639E+01  0.63470843938E+02  0.00000000000E+00 0. -1.
<scales pt_clust_3="106.44895" pt_clust_4="62.44880" pt_clust_5="54.61370" pt_clust_6="54.61370"></scales>
<clustering>
<clus scale="   54.614">  5  6 -1 -1</clus>
<clus scale="   62.449">  1  4  2 -1</clus>
<clus scale="  106.449">  2  3  1 -1</clus>
<clus scale="  106.449">  2  3  1 -1</clus>
</clustering>
</event>
<event>
 6    0  0.5775861E+002  0.8197361E+02  0.7546771E-02  0.1323542E+00
         21   -1    0    0  504  502  0.00000000000E+00  0.00000000000E+00  0.41887306808E+02  0.41887306808E+02  0.00000000000E+00 0.  1.
          2   -1    0    0  503    0 -0.00000000000E+00 -0.00000000000E+00 -0.28687079471E+04  0.28687079471E+04  0.00000000000E+00 0.  1.
         21    1    1    2  503  502  0.56417711942E+02 -0.65121266380E+02 -0.18560377831E+03  0.20462771092E+03  0.00000000000E+00 0.  1.
         21    1    1    2  504  505  0.47590789879E+02  0.42551785603E+01 -0.82478279771E+01  0.48487281757E+02  0.00000000000E+00 0.  1.
         21    1    1    2  505  501 -0.98649889166E+02  0.17629930262E+02 -0.19610374600E+03  0.22022555317E+03  0.00000000000E+00 0.  1.
          2    1    1    2  501    0 -0.53586126549E+01  0.43236157558E+02 -0.24368652880E+04  0.24372547081E+04  0.00000000000E+00 0.  1.
<scales pt_clust_3="14000.00000" pt_clust_4="47.76871" pt_clust_5="81.97361" pt_clust_6="43.56696"></scales>
<clustering>
<clus scale="   43.567">  2  6  1 -1</clus>
<clus scale="   47.769">  1  4  2 -1</clus>
<clus scale="   81.974">  1  5  2 -1</clus>
<clus scale="   47.769">  1  3  2 -1</clus>
</clustering>
</event>
<event>
 6    0  0.6242980E+002  0.1685848E+03  0.7546771E-02  0.1179332E+00
         21   -1    0    0  504  502  0.00000000000E+00  0.00000000000E+00  0.56978328674E+03  0.56978328674E+03  0.00000000000E+00 0. -1.
         -2   -1    0    0    0  501 -0.00000000000E+00 -0.00000000000E+00 -0.33586341366E+03  0.33586341366E+03  0.00000000000E+00 0.  1.
         21    1    1    2  503  502 -0.29497726587E+02  0.12255826671E+02  0.19427050504E+03  0.19687902450E+03  0.00000000000E+00 0. -1.
         21    1    1    2  504  501 -0.69700682595E+02  0.11417723584E+03  0.33899709603E+03  0.36443608144E+03  0.00000000000E+00 0. -1.
         21    1    1    2  505  503  0.65337301849E+02 -0.92887787821E+02 -0.15384463176E+03  0.19122048755E+03  0.00000000000E+00 0.  1.
         -2    1    1    2    0  505  0.33861107333E+02 -0.33545274689E+02 -0.14550309623E+03  0.15311110690E+03  0.00000000000E+00 0.  1.
<scales pt_clust_3="31.94247" pt_clust_4="159.03241" pt_clust_5="36.34344" pt_clust_6="36.34344"></scales>
<clustering>
<clus scale="   31.942">  1  3  2 -1</clus>
<clus scale="   36.343">  5  6 -1 -1</clus>
<clus scale="  159.032">  1  4  2 -1</clus>
<clus scale="   31.942">  1  3  2 -1</clus>
</clustering>
</event>
<event>
 6    0  0.5775861E+002  0.2151697E+03  0.7546771E-02  0.1137536E+00
         21   -1    0    0  504  502  0.00000000000E+00  0.00000000000E+00  0.66142554717E+02  0.66142554717E+02  0.00000000000E+00 0. -1.
         -3   -1    0    0    0  501 -0.00000000000E+00 -0.00000000000E+00 -0.15721239243E+04  0.15721239243E+04  0.00000000000E+00 0. -1.
         21    1    1    2  503  502  0.20050758526E+03 -0.92899161641E+02 -0.86138100753E+03  0.88927542759E+03  0.00000000000E+00 0. -1.
         21    1    1    2  504  505 -0.24207659876E+02  0.41828642200E+02 -0.98022830693E+02  0.10928916434E+03  0.00000000000E+00 0. -1.
         21    1    1    2  505  501 -0.19613255357E+03  0.92246817360E+01 -0.16832130250E+03  0.25862160427E+03  0.00000000000E+00 0. -1.
         -3    1    1    2    0  503  0.19832628188E+02  0.41845837705E+02 -0.37825622885E+03  0.38108028279E+03  0.00000000000E+00 0. -1.
<scales pt_clust_3="215.16970" pt_clust_4="50.72166" pt_clust_5="14000.00000" pt_clust_6="46.30775"></scales>
<clustering>
<clus scale="   46.308">  2  6  1 -1</clus>
<clus scale="   50.722">  1  4  2 -1</clus>
<clus scale="  215.170">  2  3  1 -1</clus>
<clus scale="   50.722">  1  3  2 -1</clus>
</clustering>
</event>
<event>
 6    0  0.5775861E+002  0.9848650E+02  0.7546771E-02  0.1283511E+00
         21   -1    0    0  504  502  0.00000000000E+00  0.00000000000E+00  0.12945927597E+03  0.12945927597E+03  0.00000000000E+00 0. -1.
          2   -1    0    0  505    0 -0.00000000000E+00 -0.00000000000E+00 -0.18154332589E+04  0.18154332589E+04  0.00000000000E+00 0.  1.
         21    1    1    2  503  501 -0.57686360746E+02 -0.10668914951E+02 -0.83715607988E+02  0.10222448329E+03  0.00000000000E+00 0. -1.
         21    1    1    2  504  503 -0.93123516804E+02 -0.24361385068E+02  0.79251143988E+02  0.12468444285E+03  0.00000000000E+00 0. -1.
         21    1    1    2  505  502  0.12266065490E+03 -0.14875215440E+00 -0.19228138060E+03  0.22807408383E+03  0.00000000000E+00 0. -1.
          2    1    1    2  501    0  0.28149222645E+02  0.35179052173E+02 -0.14892281383E+04  0.14899095249E+04  0.00000000000E+00 0.  1.
<scales pt_clust_3="49.65933" pt_clust_4="98.48650" pt_clust_5="14000.00000" pt_clust_6="45.05490"></scales>
<clustering>
<clus scale="   45.055">  2  6  1 -1</clus>
<clus scale="   49.659">  2  3  1 -1</clus>
<clus scale="   98.486">  1  4  2 -1</clus>
<clus scale="   98.486">  1  3  2 -1</clus>
</clustering>
</event>
<event>
 6    0  0.5775861E+002  0.6894020E+02  0.7546771E-02  0.1363734E+00
         21   -1    0    0  505  502  0.00000000000E+00  0.00000000000E+00  0.37630931266E+03  0.37630931266E+03  0.00000000000E+00 0. -1.
          1   -1    0    0  503    0 -0.00000000000E+00 -0.00000000000E+00 -0.10563649648E+04  0.10563649648E+04  0.00000000000E+00 0.  1.
         21    1    1    2  503  504  0.23673372694E+02  0.41865491878E+02 -0.51259348085E+03  0.51484485488E+03  0.00000000000E+00 0.  1.
         21    1    1    2  504  502  0.45624198510E+02  0.25032483622E+02 -0.16962260843E+03  0.17742610298E+03  0.00000000000E+00 0.  1.
         21    1    1    2  505  501  0.13403147680E+02 -0.68094884406E+02  0.36332253884E+03  0.36989163937E+03  0.00000000000E+00 0. -1.
          1    1    1    2  501    0 -0.82700718884E+02  0.11969089064E+01 -0.36116210166E+03  0.37051168021E+03  0.00000000000E+00 0.  1.
<scales pt_clust_3="48.09520" pt_clust_4="65.61810" pt_clust_5="68.94020" pt_clust_6="14000.00000"></scales>
<clustering>
<clus scale="   48.095">  2  3  1 -1</clus>
<clus scale="   65.618">  2  4  1 -1</clus>
<clus scale="   68.940">  1  5  2 -1</clus>
<clus scale="   68.940">  1  3  2 -1</clus>
</clustering>
</event>
<event>
 6    0  0.5775861E+002  0.1134176E+03  0.7546771E-02  0.1254369E+00
          2   -1    0    0  503    0 -0.00000000000E+00  0.00000000000E+00  0.63767444001E+03  0.63767444001E+03  0.00000000000E+00 0. -1.
         21   -1    0    0  504  502  0.00000000000E+00 -0.00000000000E+00 -0.16862391603E+03  0.16862391603E+03  0.00000000000E+00 0. -1.
         21    1    1    2  503  502  0.23418913840E+02 -0.86422529329E+02  0.74012486821E+01  0.89844741544E+02  0.00000000000E+00 0.  1.
         21    1    1    2  504  505 -0.12684653548E+03  0.80731755083E+02 -0.59220021041E+02  0.16160034262E+03  0.00000000000E+00 0. -1.
         21    1    1    2  505  501  0.13487141608E+03  0.11134655127E+02  0.27055755539E+03  0.30251557017E+03  0.00000000000E+00 0.  1.
          2    1    1    2  501    0 -0.31443794444E+02 -0.54438808812E+01  0.25031174095E+03  0.25233770171E+03  0.00000000000E+00 0. -1.
<scales pt_clust_3="89.25525" pt_clust_4="14000.00000" pt_clust_5="113.41762" pt_clust_6="31.91157"></scales>
<clustering>
<clus scale="   31.912">  1  6  2 -1</clus>
<clus scale="   89.255">  2  3  1 -1</clus>
<clus scale="  113.418">  1  5  2 -1</clus>
<clus scale="   89.255">  2  3  1 -1</clus>
</clustering>
</event>
<event>
 6    0  0.5775861E+002  0.1468087E+03  0.7546771E-02  0.1204450E+00
         21   -1    0    0  505  502  0.00000000000E+00  0.00000000000E+00  0.59019023332E+03  0.59019023332E+03  0.00000000000E+00 0.  1.
          2   -1    0    0  504    0 -0.00000000000E+00 -0.00000000000E+00 -0.29889916585E+03  0.29889916585E+03  0.00000000000E+00 0.  1.
         21    1    1    2  503  501  0.62432663475E+02  0.10707982906E+03  0.80354855124E+02  0.14771875304E+03  0.00000000000E+00 0.  1.
         21    1    1    2  504  502  0.30891339777E+02 -0.38698978277E+01  0.95960286240E+02  0.10088422829E+03  0.00000000000E+00 0. -1.
         21    1    1    2  505  503 -0.11474852392E+03 -0.12478114040E+03  0.35771518554E+03  0.39585061665E+03  0.00000000000E+00 0.  1.
          2    1    1    2  501    0  0.21424520666E+02  0.21571209170E+02 -0.24273925943E+03  0.24463580118E+03  0.00000000000E+00 0.  1.
<scales pt_clust_3="14000.00000" pt_clust_4="31.97918" pt_clust_5="146.80865" pt_clust_6="30.40275"></scales>
<clustering>
<clus scale="   30.403">  2  6  1 -1</clus>
<clus scale="   31.979">  1  4  2 -1</clus>
<clus scale="  146.809">  1  5  2 -1</clus>
<clus scale="   31.979">  1  3  2 -1</clus>
</clustering>
</event>
<event>
 6    0  0.5775861E+002  0.7340311E+02  0.7546771E-02  0.1348889E+00
         -1   -1    0    0    0  501 -0.00000000000E+00  0.00000000000E+00  0.42938217896E+03  0.42938217896E+03  0.00000000000E+00 0. -1.
         21   -1    0    0  504  502  0.00000000000E+00 -0.00000000000E+00 -0.15282640132E+04  0.15282640132E+04  0.00000000000E+00 0.  1.
         21    1    1    2  503  501 -0.62376680196E+02  0.65904268003E+02 -0.21273358797E+02  0.93202889267E+02  0.00000000000E+00 0. -1.
         21    1    1    2  504  503  0.30871299555E+02 -0.35148515107E+02 -0.14284081045E+04  0.14291739461E+04  0.00000000000E+00 0.  1.
         21    1    1    2  505  502  0.95506719831E+02 -0.34601029968E+02  0.26897288857E+02  0.10508201062E+03  0.00000000000E+00 0. -1.
         -1    1    1    2    0  505 -0.64001339191E+02  0.38452770714E+01  0.32390234020E+03  0.33018734616E+03  0.00000000000E+00 0. -1.
<scales pt_clust_3="73.40311" pt_clust_4="46.78093" pt_clust_5="14000.00000" pt_clust_6="63.08538"></scales>
<clustering>
<clus scale="   46.781">  2  4  1 -1</clus>
<clus scale="   63.085">  1  6  2 -1</clus>
<clus scale="   73.403">  2  3  1 -1</clus>
<clus scale="   46.781">  2  3  1 -1</clus>
</clustering>
</event>
<event>
 6    0  0.5775861E+002  0.1875303E+03  0.7546771E-02  0.1160708E+00
          1   -1    0    0  503    0 -0.00000000000E+00  0.00000000000E+00  0.18631466527E+04  0.18631466527E+04  0.00000000000E+00 0. -1.
         21   -1    0    0  504  502  0.00000000000E+00 -0.00000000000E+00 -0.24438887706E+03  0.24438887706E+03  0.00000000000E+00 0.  1.
         21    1    1    2  503  505  0.12846098726E+03  0.16156043746E+02  0.23840984203E+03  0.27129779905E+03  0.00000000000E+00 0. -1.
         21    1    1    2  504  501  0.22267972723E+02  0.83011708482E+02 -0.18886780435E+03  0.20750386472E+03  0.00000000000E+00 0.  1.
         21    1    1    2  505  502  0.18845251820E+02  0.47483493513E+02  0.82471786376E+01  0.51747865926E+02  0.00000000000E+00 0.  1.
          1    1    1    2  501    0 -0.16957421180E+03 -0.14665124574E+03  0.15609685593E+04  0.15769860000E+04  0.00000000000E+00 0. -1.
<scales pt_clust_3="187.53025" pt_clust_4="131.22299" pt_clust_5="51.08645" pt_clust_6="14000.00000"></scales>
<clustering>
<clus scale="   51.086">  2  5  1 -1</clus>
<clus scale="  131.223">  2  4  1 -1</clus>
<clus scale="  187.530">  2  3  1 -1</clus>
<clus scale="   51.086">  2  3  1 -1</clus>
</clustering>
</event>
<event>
 6    0  0.5775861E+002  0.1483459E+03  0.7546771E-02  0.1202520E+00
         -1   -1    0    0    0  501 -0.00000000000E+00  0.00000000000E+00  0.45542968216E+03  0.45542968216E+03  0.00000000000E+00 0. -1.
         21   -1    0    0  501  502  0.00000000000E+00 -0.00000000000E+00 -0.74854276755E+03  0.74854276755E+03  0.00000000000E+00 0.  1.
         21    1    1    2  503  502 -0.40169132702E+02  0.52095979084E+02 -0.33814227523E+03  0.34448185519E+03  0.00000000000E+00 0.  1.
         21    1    1    2  504  503  0.26299881481E+02  0.82124915674E+02 -0.38143898295E+03  0.39106506268E+03  0.00000000000E+00 0.  1.
         21    1    1    2  505  504 -0.29087541416E+02 -0.76860652096E+02  0.80233139030E+02  0.11485208533E+03  0.00000000000E+00 0.  1.
         -1    1    1    2    0  505  0.42956792637E+02 -0.57360242663E+02  0.34623503376E+03  0.35357344651E+03  0.00000000000E+00 0. -1.
<scales pt_clust_3="61.91108" pt_clust_4="61.91108" pt_clust_5="130.31511" pt_clust_6="71.66229"></scales>
<clustering>
<clus scale="   61.911">  3  4 -1 -1</clus>
<clus scale="   71.662">  1  6  2 -1</clus>
<clus scale="  130.315">  1  5  2 -1</clus>
<clus scale="  148.346">  2  3  1 -1</clus>
</clustering>
</event>
<event>
 6    0  0.5775861E+002  0.1217101E+03  0.7546771E-02  0.1240302E+00
         21   -1    0    0  503  502  0.00000000000E+00  0.00000000000E+00  0.32523753805E+03  0.32523753805E+03  0.00000000000E+00 0. -1.
          2   -1    0    0  505    0 -0.00000000000E+00 -0.00000000000E+00 -0.27070271830E+04  0.27070271830E+04  0.00000000000E+00 0. -1.
         21    1    1    2  503  504  0.69454201651E+01  0.63552286689E+02 -0.74141273335E+02  0.97898214572E+02  0.00000000000E+00 0.  1.
         21    1    1    2  504  501  0.47890363881E+02  0.91279889954E+02 -0.37121426460E+03  0.38526034770E+03  0.00000000000E+00 0.  1.
         21    1    1    2  505  502  0.62724894757E+02 -0.96323821194E+02  0.29355327308E+03  0.31525579311E+03  0.00000000000E+00 0. -1.
          2    1    1    2  501    0 -0.11756067880E+03 -0.58508355448E+02 -0.22299873801E+04  0.22338503657E+04  0.00000000000E+00 0. -1.
<scales pt_clust_3="63.93068" pt_clust_4="14000.00000" pt_clust_5="77.60566" pt_clust_6="121.71006"></scales>
<clustering>
<clus scale="   63.931">  1  3  2 -1</clus>
<clus scale="   77.606">  1  5  2 -1</clus>
<clus scale="  121.710">  2  6  1 -1</clus>
<clus scale="   63.931">  1  3  2 -1</clus>
</clustering>
</event>
<event>
 6    0  0.5775861E+002  0.8348400E+02  0.7546771E-02  0.1319445E+00
         21   -1    0    0  504  502  0.00000000000E+00  0.00000000000E+00  0.86137543117E+03  0.86137543117E+03  0.00000000000E+00 0.  1.
         -1   -1    0    0    0  501 -0.00000000000E+00 -0.00000000000E+00 -0.53329232048E+03  0.53329232048E+03  0.00000000000E+00 0.  1.
         21    1    1    2  503  501  0.28847291036E+02 -0.21307540648E+02 -0.14959147362E+02  0.38858121138E+02  0.00000000000E+00 0. -1.
         21    1    1    2  504  503 -0.77371384484E+02  0.85368735712E+02  0.11836368420E+03  0.16517903593E+03  0.00000000000E+00 0.  1.
         21    1    1    2  505  502  0.76616352326E+02 -0.27743212391E+02  0.70420868038E+03  0.70890734007E+03  0.00000000000E+00 0.  1.
         -1    1    1    2    0  505 -0.28092258878E+02 -0.36317982673E+02 -0.47953010652E+03  0.48172325451E+03  0.00000000000E+00 0.  1.
<scales pt_clust_3="35.86332" pt_clust_4="14000.00000" pt_clust_5="83.48400" pt_clust_6="56.54621"></scales>
<clustering>
<clus scale="   35.863">  2  3  1 -1</clus>
<clus scale="   56.546">  2  6  1 -1</clus>
<clus scale="   83.484">  1  5  2 -1</clus>
<clus scale="   83.484">  1  3  2 -1</clus>
</clustering>
</event>
<event>
 6    0  0.5775861E+002  0.1030136E+03  0.7546771E-02  0.1274083E+00
         -4   -1    0    0    0  501 -0.00000000000E+00  0.00000000000E+00  0.44610817298E+03  0.44610817298E+03  0.00000000000E+00 0. -1.
         21   -1    0    0  505  502  0.00000000000E+00 -0.00000000000E+00 -0.16331698278E+03  0.16331698278E+03  0.00000000000E+00 0. -1.
         21    1    1    2  503  502 -0.89716587931E+02 -0.32893664157E+02  0.10721335146E+03  0.14361671916E+03  0.00000000000E+00 0. -1.
         21    1    1    2  504  501  0.12031136248E+03  0.39319242891E+01  0.13793301296E+03  0.18307320949E+03  0.00000000000E+00 0. -1.
         21    1    1    2  505  504 -0.41081064243E+02 -0.53730901092E+01 -0.11692642772E+03  0.12404964102E+03  0.00000000000E+00 0. -1.
         -4    1    1    2    0  503  0.10486289696E+02  0.34334829977E+02  0.15457125351E+03  0.15868558609E+03  0.00000000000E+00 0. -1.
<scales pt_clust_3="14000.00000" pt_clust_4="103.01362" pt_clust_5="41.25020" pt_clust_6="35.90046"></scales>
<clustering>
<clus scale="   35.900">  1  6  2 -1</clus>
<clus scale="   41.250">  2  5  1 -1</clus>
<clus scale="  103.014">  2  4  1 -1</clus>
<clus scale="   41.250">  2  3  1 -1</clus>
</clustering>
</event>
<event>
 6    0  0.5775861E+002  0.8354521E+02  0.7546771E-02  0.1319281E+00
          1   -1    0    0  503    0 -0.00000000000E+00  0.00000000000E+00  0.37550682425E+03  0.37550682425E+03  0.00000000000E+00 0.  1.
         21   -1    0    0  504  502  0.00000000000E+00 -0.00000000000E+00 -0.14460939838E+03  0.14460939838E+03  0.00000000000E+00 0.  1.
         21    1    1    2  503  502 -0.11020502335E+02 -0.63593021730E+02 -0.46545059413E+02  0.79573654184E+02  0.00000000000E+00 0.  1.
         21    1    1    2  504  505  0.74803259592E+02  0.15899307440E+02 -0.14330469581E+02  0.77805385296E+02  0.00000000000E+00 0.  1.
         21    1    1    2  505  501 -0.99743635852E+02  0.49778744342E+02  0.56973323576E+02  0.12519055827E+03  0.00000000000E+00 0.  1.
          1    1    1    2  501    0  0.35960878594E+02 -0.20850300527E+01  0.23479963129E+03  0.23754662488E+03  0.00000000000E+00 0.  1.
<scales pt_clust_3="64.19688" pt_clust_4="14000.00000" pt_clust_5="83.54521" pt_clust_6="36.02127"></scales>
<clustering>
<clus scale="   36.021">  1  6  2 -1</clus>
<clus scale="   64.197">  2  3  1 -1</clus>
<clus scale="   83.545">  1  5  2 -1</clus>
<clus scale="   64.197">  2  3  1 -1</clus>
</clustering>
</event>
<event>
 6    0  0.5775861E+002  0.9751608E+02  0.7546771E-02  0.1285608E+00
          2   -1    0    0  503    0 -0.00000000000E+00  0.00000000000E+00  0.11117992799E+04  0.11117992799E+04  0.00000000000E+00 0. -1.
         21   -1    0    0  505  502  0.00000000000E+00 -0.00000000000E+00 -0.14498332321E+03  0.14498332321E+03  0.00000000000E+00 0.  1.
         21    1    1    2  503  504  0.80014475962E+02 -0.83312750148E+02  0.59139579014E+02  0.12977218695E+03  0.00000000000E+00 0.  1.
         21    1    1    2  504  502 -0.29687908437E+02  0.78084052954E+01 -0.69709523946E+02  0.76169290593E+02  0.00000000000E+00 0.  1.
         21    1    1    2  505  501 -0.10006594754E+03 -0.45918742803E+01  0.38629011338E+02  0.10736144412E+03  0.00000000000E+00 0.  1.
          2    1    1    2  501    0  0.49739380020E+02  0.80096219133E+02  0.93875689026E+03  0.94347968142E+03  0.00000000000E+00 0. -1.
<scales pt_clust_3="97.51608" pt_clust_4="30.69761" pt_clust_5="14000.00000" pt_clust_6="93.99266"></scales>
<clustering>
<clus scale="   30.698">  2  4  1 -1</clus>
<clus scale="   93.993">  1  6  2 -1</clus>
<clus scale="   97.516">  2  3  1 -1</clus>
<clus scale="   30.698">  2  3  1 -1</clus>
</clustering>
</event>
<event>
 6    0  0.5775861E+002  0.9396487E+02  0.7546771E-02  0.1293525E+00
         21   -1    0    0  503  502  0.00000000000E+00  0.00000000000E+00  0.13340081290E+03  0.13340081290E+03  0.00000000000E+00 0.  1.
          1   -1    0    0  505    0 -0.00000000000E+00 -0.00000000000E+00 -0.13655043212E+04  0.13655043212E+04  0.00000000000E+00 0. -1.
         21    1    1    2  503  501  0.68286676720E+02 -0.10035681555E+03 -0.12409040381E+00  0.12138606198E+03  0.00000000000E+00 0. -1.
         21    1    1    2  504  502  0.14914855626E+01  0.33114463162E+02  0.66411630718E+02  0.74224638055E+02  0.00000000000E+00 0.  1.
         21    1    1    2  505  504 -0.30796952052E+02  0.49220375064E+02 -0.43790168811E+03  0.44173406709E+03  0.00000000000E+00 0.  1.
          1    1    1    2  501    0 -0.38981210231E+02  0.18021977323E+02 -0.86048936051E+03  0.86156036699E+03  0.00000000000E+00 0. -1.
<scales pt_clust_3="93.96487" pt_clust_4="33.14803" pt_clust_5="14000.00000" pt_clust_6="43.05288"></scales>
<clustering>
<clus scale="   33.148">  1  4  2 -1</clus>
<clus scale="   43.053">  2  6  1 -1</clus>
<clus scale="   93.965">  1  3  2 -1</clus>
<clus scale="   33.148">  1  3  2 -1</clus>
</clustering>
</event>
<event>
 6    0  0.5775861E+002  0.1289765E+03  0.7546771E-02  0.1228982E+00
          3   -1    0    0  504    0 -0.00000000000E+00  0.00000000000E+00  0.75777274240E+03  0.75777274240E+03  0.00000000000E+00 0. -1.
         21   -1    0    0  501  502  0.00000000000E+00 -0.00000000000E+00 -0.15844230503E+03  0.15844230503E+03  0.00000000000E+00 0.  1.
         21    1    1    2  503  502  0.50832689492E+02  0.40695858241E+02 -0.91184589208E+02  0.11204795629E+03  0.00000000000E+00 0.  1.
         21    1    1    2  504  505 -0.58096188947E+02 -0.12496861706E+03  0.40601260730E+03  0.42876399068E+03  0.00000000000E+00 0. -1.
         21    1    1    2  505  503  0.19627448272E+02  0.52372572810E+02 -0.26945247800E+02  0.62081957825E+02  0.00000000000E+00 0.  1.
          3    1    1    2  501    0 -0.12363948817E+02  0.31900186008E+02  0.31144766708E+03  0.31332114264E+03  0.00000000000E+00 0. -1.
<scales pt_clust_3="48.86004" pt_clust_4="117.87597" pt_clust_5="48.86004" pt_clust_6="34.21241"></scales>
<clustering>
<clus scale="   34.212">  1  6  2 -1</clus>
<clus scale="   48.860">  3  5 -1 -1</clus>
<clus scale="  117.876">  1  4  2 -1</clus>
<clus scale="  128.977">  2  3  1 -1</clus>
</clustering>
</event>
<event>
 6    0  0.5775861E+002  0.7832967E+02  0.7546771E-02  0.1333860E+00
          1   -1    0    0  503    0 -0.00000000000E+00  0.00000000000E+00  0.65208546810E+03  0.65208546810E+03  0.00000000000E+00 0.  1.
         21   -1    0    0  501  502  0.00000000000E+00 -0.00000000000E+00 -0.42062874593E+03  0.42062874593E+03  0.00000000000E+00 0. -1.
         21    1    1    2  503  504  0.29560213703E+02  0.53017722026E+01  0.74647604609E+02  0.80462288661E+02  0.00000000000E+00 0. -1.
         21    1    1    2  504  505 -0.75846250257E+02  0.58992704786E+02  0.14751067665E+03  0.17604599575E+03  0.00000000000E+00 0. -1.
         21    1    1    2  505  502 -0.88958464455E+01 -0.78481410550E+02 -0.39758402674E+03  0.40535358171E+03  0.00000000000E+00 0. -1.
          1    1    1    2  501    0  0.55181882999E+02  0.14186933561E+02  0.40688246766E+03  0.41085234791E+03  0.00000000000E+00 0.  1.
<scales pt_clust_3="30.03190" pt_clust_4="78.32967" pt_clust_5="14000.00000" pt_clust_6="78.30599"></scales>
<clustering>
<clus scale="   30.032">  1  3  2 -1</clus>
<clus scale="   78.306">  1  6  2 -1</clus>
<clus scale="   78.330">  1  4  2 -1</clus>
<clus scale="   78.330">  2  3  1 -1</clus>
</clustering>
</event>
<event>
 6    0  0.5775861E+002  0.2493089E+03  0.7546771E-02  0.1113742E+00
          1   -1    0    0  505    0 -0.00000000000E+00  0.00000000000E+00  0.13894687934E+03  0.13894687934E+03  0.00000000000E+00 0.  1.
         21   -1    0    0  501  502  0.00000000000E+00 -0.00000000000E+00 -0.14031508671E+04  0.14031508671E+04  0.00000000000E+00 0. -1.
         21    1    1    2  503  504  0.13451369776E+03 -0.59279179473E+02 -0.62705098427E+03  0.64405038070E+03  0.00000000000E+00 0. -1.
         21    1    1    2  504  502  0.60299853282E+02 -0.90021601385E+02 -0.60450854945E+03  0.61414212311E+03  0.00000000000E+00 0. -1.
         21    1    1    2  505  503 -0.84686781763E+02  0.14965483980E+02 -0.64247091725E+02  0.10734759201E+03  0.00000000000E+00 0.  1.
          1    1    1    2  501    0 -0.11012676928E+03  0.13433529688E+03  0.31602637651E+02  0.17655765066E+03  0.00000000000E+00 0.  1.
<scales pt_clust_3="66.86987" pt_clust_4="66.86987" pt_clust_5="85.99893" pt_clust_6="236.83009"></scales>
<clustering>
<clus scale="   66.870">  3  4 -1 -1</clus>
<clus scale="   85.999">  1  5  2 -1</clus>
<clus scale="  236.830">  1  6  2 -1</clus>
<clus scale="  249.309">  2  3  1 -1</clus>
</clustering>
</event>
<event>
 6    0  0.5775861E+002  0.7524211E+02  0.7546771E-02  0.1343123E+00
          1   -1    0    0  505    0 -0.00000000000E+00  0.00000000000E+00  0.19824431163E+04  0.19824431163E+04  0.00000000000E+00 0. -1.
         21   -1    0    0  503  502  0.00000000000E+00 -0.00000000000E+00 -0.64546106201E+02  0.64546106201E+02  0.00000000000E+00 0. -1.
         21    1    1    2  503  504 -0.20783885258E+02  0.31999477003E+02 -0.37452782901E+02  0.53466319884E+02  0.00000000000E+00 0. -1.
         21    1    1    2  504  501 -0.82598237260E+02 -0.10749149787E+03  0.29180229749E+03  0.32175374393E+03  0.00000000000E+00 0. -1.
         21    1    1    2  505  502  0.56540245290E+02  0.21440978535E+02  0.28387278874E+03  0.29024175283E+03  0.00000000000E+00 0. -1.
          1    1    1    2  501    0  0.46841877228E+02  0.54051042329E+02  0.13796747068E+04  0.13815274059E+04  0.00000000000E+00 0. -1.
<scales pt_clust_3="38.15673" pt_clust_4="75.24211" pt_clust_5="59.44629" pt_clust_6="14000.00000"></scales>
<clustering>
<clus scale="   38.157">  2  3  1 -1</clus>
<clus scale="   59.446">  2  5  1 -1</clus>
<clus scale="   75.242">  2  4  1 -1</clus>
<clus scale="   38.157">  2  3  1 -1</clus>
</clustering>
</event>
<event>
 6    0  0.5775861E+002  0.1016582E+03  0.7546771E-02  0.1276847E+00
         21   -1    0    0  503  502  0.00000000000E+00  0.00000000000E+00  0.83214787313E+03  0.83214787313E+03  0.00000000000E+00 0.  1.
          2   -1    0    0  505    0 -0.00000000000E+00 -0.00000000000E+00 -0.16593389602E+04  0.16593389602E+04  0.00000000000E+00 0.  1.
         21    1    1    2  503  501  0.30895441954E+02 -0.58630556991E+01  0.59300834550E+03  0.59384156270E+03  0.00000000000E+00 0.  1.
         21    1    1    2  504  502 -0.22825725832E+02 -0.63449283984E+02  0.22049129094E+03  0.23057153939E+03  0.00000000000E+00 0.  1.
         21    1    1    2  505  504  0.74839038462E+02 -0.13430019014E+01 -0.11323184471E+03  0.13573553694E+03  0.00000000000E+00 0.  1.
          2    1    1    2  501    0 -0.82908754584E+02  0.70655341584E+02 -0.15274588788E+04  0.15313381943E+04  0.00000000000E+00 0.  1.
<scales pt_clust_3="31.44684" pt_clust_4="69.28112" pt_clust_5="101.65817" pt_clust_6="14000.00000"></scales>
<clustering>
<clus scale="   31.447">  1  3  2 -1</clus>
<clus scale="   69.281">  1  4  2 -1</clus>
<clus scale="  101.658">  1  5  2 -1</clus>
<clus scale="   31.447">  1  3  2 -1</clus>
</clustering>
</event>
<event>
 6    0  0.5775861E+002  0.6155385E+02  0.7546771E-02  0.1391424E+00
          2   -1    0    0  504    0 -0.00000000000E+00  0.00000000000E+00  0.10184013391E+04  0.10184013391E+04  0.00000000000E+00 0. -1.
         21   -1    0    0  503  502  0.00000000000E+00 -0.00000000000E+00 -0.71705189306E+03  0.71705189306E+03  0.00000000000E+00 0.  1.
         21    1    1    2  503  505  0.41745859912E+02 -0.44838135326E+02 -0.65946204055E+03  0.66230156132E+03  0.00000000000E+00 0.  1.
         21    1    1    2  504  502  0.65571198855E+02 -0.38104672405E+02  0.13361896737E+02  0.77007067616E+02  0.00000000000E+00 0. -1.
         21    1    1    2  505  501 -0.66909721265E+02  0.39826024478E+02  0.41432346994E+02  0.88202394542E+02  0.00000000000E+00 0. -1.
          2    1    1    2  501    0 -0.40407337501E+02  0.43116783252E+02  0.90601724290E+03  0.90794220871E+03  0.00000000000E+00 0. -1.
<scales pt_clust_3="14000.00000" pt_clust_4="53.33223" pt_clust_5="61.55385" pt_clust_6="59.09154"></scales>
<clustering>
<clus scale="   59.092">  1  6  2 -1</clus>
<clus scale="   53.332">  1  4  2 -1</clus>
<clus scale="   61.554">  1  5  2 -1</clus>
<clus scale="   61.554">  2  3  1 -1</clus>
</clustering>
</event>
<event>
 6    0  0.5775861E+002  0.9558936E+02  0.7546771E-02  0.1289854E+00
          2   -1    0    0  505    0 -0.00000000000E+00  0.00000000000E+00  0.91963829872E+03  0.91963829872E+03  0.00000000000E+00 0. -1.
         21   -1    0    0  503  502  0.00000000000E+00 -0.00000000000E+00 -0.11364216095E+03  0.11364216095E+03  0.00000000000E+00 0. -1.
         21    1    1    2  503  504 -0.41037470803E+02  0.23240050353E+02  0.29099992494E+02  0.55416455259E+02  0.00000000000E+00 0. -1.
         21    1    1    2  504  501 -0.37564148476E+02 -0.34056519439E+02 -0.11807494954E+02  0.52060817359E+02  0.00000000000E+00 0. -1.
         21    1    1    2  505  502  0.16701316733E+03  0.37397196762E+02  0.45780807460E+02  0.17716611052E+03  0.00000000000E+00 0. -1.
          2    1    1    2  501    0 -0.88411548049E+02 -0.26580727676E+02  0.74292283277E+03  0.74863707653E+03  0.00000000000E+00 0. -1.
<scales pt_clust_3="47.16115" pt_clust_4="57.20399" pt_clust_5="95.58936" pt_clust_6="14000.00000"></scales>
<clustering>
<clus scale="   47.161">  2  3  1 -1</clus>
<clus scale="   57.204">  2  4  1 -1</clus>
<clus scale="   95.589">  2  5  1 -1</clus>
<clus scale="   47.161">  2  3  1 -1</clus>
</clustering>
</event>
<event>
 6    0  0.5775861E+002  0.7480474E+02  0.7546771E-02  0.1344477E+00
         21   -1    0    0  504  502  0.00000000000E+00  0.00000000000E+00  0.26353578513E+03  0.26353578513E+03  0.00000000000E+00 0.  1.
         -1   -1    0    0    0  501 -0.00000000000E+00 -0.00000000000E+00 -0.42612870004E+03  0.42612870004E+03  0.00000000000E+00 0. -1.
         21    1    1    2  503  501 -0.11201079526E+02 -0.70183833097E+02  0.53451795208E+01  0.71272754646E+02  0.00000000000E+00 0. -1.
         21    1    1    2  504  503 -0.69206783834E+02 -0.18936880299E+02  0.18168409447E+03  0.19533892225E+03  0.00000000000E+00 0.  1.
         21    1    1    2  505  502  0.28428390898E+02  0.33238825977E+02  0.18216840918E+02  0.47379808510E+02  0.00000000000E+00 0.  1.
         -1    1    1    2    0  505  0.51979472462E+02  0.55881887420E+02 -0.36783902981E+03  0.37567299976E+03  0.00000000000E+00 0. -1.
<scales pt_clust_3="14000.00000" pt_clust_4="46.70972" pt_clust_5="43.73777" pt_clust_6="74.80474"></scales>
<clustering>
<clus scale="   43.738">  1  5  2 -1</clus>
<clus scale="   46.710">  1  4  2 -1</clus>
<clus scale="   74.805">  2  6  1 -1</clus>
<clus scale="   43.738">  1  3  2 -1</clus>
</clustering>
</event>
<event>
 6    0  0.5775861E+002  0.1192130E+03  0.7546771E-02  0.1244401E+00
          2   -1    0    0  503    0 -0.00000000000E+00  0.00000000000E+00  0.34696120060E+04  0.34696120060E+04  0.00000000000E+00 0. -1.
         21   -1    0    0  505  502  0.00000000000E+00 -0.00000000000E+00 -0.18387639267E+03  0.18387639267E+03  0.00000000000E+00 0. -1.
         21    1    1    2  503  504  0.31234752548E+02 -0.14522933454E+03  0.79242077970E+03  0.80622444857E+03  0.00000000000E+00 0. -1.
         21    1    1    2  504  502 -0.19064461974E+02  0.97110551689E+02 -0.15892982865E+03  0.18722340504E+03  0.00000000000E+00 0. -1.
         21    1    1    2  505  501 -0.29909433148E+02  0.94659659191E+01  0.62358016079E+02  0.69804733875E+02  0.00000000000E+00 0. -1.
          2    1    1    2  501    0  0.17739142574E+02  0.38652816931E+02  0.25898866462E+04  0.25902358112E+04  0.00000000000E+00 0. -1.
<scales pt_clust_3="14000.00000" pt_clust_4="119.21299" pt_clust_5="31.37162" pt_clust_6="42.52528"></scales>
<clustering>
<clus scale="   31.372">  2  5  1 -1</clus>
<clus scale="   42.525">  1  6  2 -1</clus>
<clus scale="  119.213">  2  4  1 -1</clus>
<clus scale="   31.372">  2  3  1 -1</clus>
</clustering>
</event>
<event>
 6    0  0.5775861E+002  0.1603725E+03  0.7546771E-02  0.1188277E+00
          1   -1    0    0  504    0 -0.00000000000E+00  0.00000000000E+00  0.70114722649E+03  0.70114722649E+03  0.00000000000E+00 0.  1.
         21   -1    0    0  505  502  0.00000000000E+00 -0.00000000000E+00 -0.19933837257E+03  0.19933837257E+03  0.00000000000E+00 0. -1.
         21    1    1    2  503  502  0.58285930389E+02 -0.19583588194E+01 -0.28578629666E+02  0.64944768259E+02  0.00000000000E+00 0. -1.
         21    1    1    2  504  503  0.92242393800E+02  0.97809372107E+02  0.74520568783E+02  0.15371612686E+03  0.00000000000E+00 0. -1.
         21    1    1    2  505  501  0.85177519722E+01 -0.30198441055E+02 -0.97447465807E+02  0.10237434509E+03  0.00000000000E+00 0. -1.
          1    1    1    2  501    0 -0.15904607616E+03 -0.65652572232E+02  0.55331438061E+03  0.57945035885E+03  0.00000000000E+00 0.  1.
<scales pt_clust_3="64.35417" pt_clust_4="160.37248" pt_clust_5="31.37671" pt_clust_6="14000.00000"></scales>
<clustering>
<clus scale="   31.377">  2  5  1 -1</clus>
<clus scale="   64.354">  2  3  1 -1</clus>
<clus scale="  160.372">  2  4  1 -1</clus>
<clus scale="   31.377">  2  3  1 -1</clus>
</clustering>
</event>
<event>
 6    0  0.5775861E+002  0.1198563E+03  0.7546771E-02  0.1243334E+00
         21   -1    0    0  505  502  0.00000000000E+00  0.00000000000E+00  0.82466479846E+02  0.82466479846E+02  0.00000000000E+00 0.  1.
          2   -1    0    0  503    0 -0.00000000000E+00 -0.00000000000E+00 -0.23776781924E+04  0.23776781924E+04  0.00000000000E+00 0. -1.
         21    1    1    2  503  502  0.27594127058E+01  0.32411309122E+02 -0.43615645145E+02  0.54409850385E+02  0.00000000000E+00 0.  1.
         21    1    1    2  504  501  0.11183336011E+03 -0.18072040764E+02 -0.16161357059E+04  0.16201012064E+04  0.00000000000E+00 0. -1.
         21    1    1    2  505  504 -0.11202456407E+03  0.19271890961E+02  0.31395595313E+02  0.11792621482E+03  0.00000000000E+00 0.  1.
          2    1    1    2  501    0 -0.25682087480E+01 -0.33611159320E+02 -0.66685595680E+03  0.66770740063E+03  0.00000000000E+00 0. -1.
<scales pt_clust_3="32.52856" pt_clust_4="119.85629" pt_clust_5="14000.00000" pt_clust_6="33.52946"></scales>
<clustering>
<clus scale="   32.529">  1  3  2 -1</clus>
<clus scale="   33.529">  2  6  1 -1</clus>
<clus scale="  119.856">  2  4  1 -1</clus>
<clus scale="   32.529">  1  3  2 -1</clus>
</clustering>
</event>
<event>
 6    0  0.5775861E+002  0.1930464E+03  0.7546771E-02  0.1155742E+00
          2   -1    0    0  503    0 -0.00000000000E+00  0.00000000000E+00  0.34225649802E+04  0.34225649802E+04  0.00000000000E+00 0.  1.
         21   -1    0    0  504  502  0.00000000000E+00 -0.00000000000E+00 -0.29364291098E+02  0.29364291098E+02  0.00000000000E+00 0.  1.
         21    1    1    2  503  502  0.29188303371E+02  0.24473029148E+03  0.16325289849E+04  0.16510286972E+04  0.00000000000E+00 0.  1.
         21    1    1    2  504  505  0.51714494058E+02 -0.11149108997E+02  0.10081328404E+03  0.11385082242E+03  0.00000000000E+00 0.  1.
         21    1    1    2  505  501 -0.38809507828E+02 -0.16538802048E+03  0.58388911021E+03  0.60810021233E+03  0.00000000000E+00 0.  1.
          2    1    1    2  501    0 -0.42093289602E+02 -0.68193162005E+02  0.10759693100E+04  0.10789495394E+04  0.00000000000E+00 0.  1.
<scales pt_clust_3="193.04641" pt_clust_4="52.90266" pt_clust_5="14000.00000" pt_clust_6="79.05232"></scales>
<clustering>
<clus scale="   52.903">  2  4  1 -1</clus>
<clus scale="   79.052">  1  6  2 -1</clus>
<clus scale="  193.046">  1  3  2 -1</clus>
<clus scale="   52.903">  2  3  1 -1</clus>
</clustering>
</event>
<event>
 6    0  0.5775861E+002  0.9132476E+02  0.7546771E-02  0.1299675E+00
         21   -1    0    0  503  502  0.00000000000E+00  0.00000000000E+00  0.18498756903E+03  0.18498756903E+03  0.00000000000E+00 0. -1.
          2   -1    0    0  504    0 -0.00000000000E+00 -0.00000000000E+00 -0.25535440219E+04  0.25535440219E+04  0.00000000000E+00 0. -1.
         21    1    1    2  503  501 -0.38674960795E+02 -0.98606194741E+00 -0.44216594210E+02  0.58752294544E+02  0.00000000000E+00 0. -1.
         21    1    1    2  504  505 -0.61417048153E+02  0.10858974656E+03 -0.16802667354E+04  0.16848917143E+04  0.00000000000E+00 0. -1.
         21    1    1    2  505  502  0.63427441913E+02 -0.48336030580E+02  0.16476692013E+03  0.18305067661E+03  0.00000000000E+00 0. -1.
          2    1    1    2  501    0  0.36664567035E+02 -0.59267654028E+02 -0.80884004339E+03  0.81183690547E+03  0.00000000000E+00 0. -1.
<scales pt_clust_3="38.68753" pt_clust_4="14000.00000" pt_clust_5="55.54289" pt_clust_6="91.32476"></scales>
<clustering>
<clus scale="   38.688">  1  3  2 -1</clus>
<clus scale="   55.543">  1  5  2 -1</clus>
<clus scale="   91.325">  2  6  1 -1</clus>
<clus scale="   38.688">  1  3  2 -1</clus>
</clustering>
</event>
<event>
 6    0  0.5775861E+002  0.2274519E+03  0.7546771E-02  0.1128446E+00
         21   -1    0    0  504  502  0.00000000000E+00  0.00000000000E+00  0.17049008430E+04  0.17049008430E+04  0.00000000000E+00 0.  1.
          2   -1    0    0  505    0 -0.00000000000E+00 -0.00000000000E+00 -0.58227763383E+03  0.58227763383E+03  0.00000000000E+00 0. -1.
         21    1    1    2  503  502  0.24879047009E+03 -0.93104336745E+02  0.15463124056E+04  0.15689637253E+04  0.00000000000E+00 0.  1.
         21    1    1    2  504  501 -0.47624008952E+02 -0.17965129869E+02  0.10267516991E+03  0.11459922616E+03  0.00000000000E+00 0. -1.
         21    1    1    2  505  503 -0.10586884431E+03  0.20490599965E+02 -0.69693105229E+02  0.12839472652E+03  0.00000000000E+00 0.  1.
          2    1    1    2  501    0 -0.95297616833E+02  0.90578866649E+02 -0.45667126116E+03  0.47522079882E+03  0.00000000000E+00 0. -1.
<scales pt_clust_3="227.45185" pt_clust_4="50.89982" pt_clust_5="108.63162" pt_clust_6="14000.00000"></scales>
<clustering>
<clus scale="   50.900">  1  4  2 -1</clus>
<clus scale="  108.632">  2  5  1 -1</clus>
<clus scale="  227.452">  1  3  2 -1</clus>
<clus scale="   50.900">  1  3  2 -1</clus>
</clustering>
</event>
<event>
 6    0  0.5775861E+002  0.7797680E+02  0.7546771E-02  0.1334893E+00
          2   -1    0    0  505    0 -0.00000000000E+00  0.00000000000E+00  0.24151496495E+04  0.24151496495E+04  0.00000000000E+00 0. -1.
         21   -1    0    0  504  502  0.00000000000E+00 -0.00000000000E+00 -0.25928188070E+03  0.25928188070E+03  0.00000000000E+00 0. -1.
         21    1    1    2  503  501  0.46949755662E+01  0.10354991787E+03 -0.89670046387E+02  0.13705964214E+03  0.00000000000E+00 0. -1.
         21    1    1    2  504  503 -0.40356402670E+02 -0.33644868579E+02 -0.14016433449E+03  0.14968853356E+03  0.00000000000E+00 0. -1.
         21    1    1    2  505  502 -0.55088705994E+01 -0.45751691665E+02  0.85896760525E+03  0.86020283178E+03  0.00000000000E+00 0. -1.
          2    1    1    2  501    0  0.41170297703E+02 -0.24153357622E+02  0.15267345445E+04  0.15274805227E+04  0.00000000000E+00 0. -1.
<scales pt_clust_3="14000.00000" pt_clust_4="52.64430" pt_clust_5="46.08215" pt_clust_6="77.97680"></scales>
<clustering>
<clus scale="   46.082">  1  5  2 -1</clus>
<clus scale="   52.644">  2  4  1 -1</clus>
<clus scale="   77.977">  1  6  2 -1</clus>
<clus scale="   52.644">  2  3  1 -1</clus>
</clustering>
</event>
<event>
 6    0  0.5775861E+002  0.9732163E+02  0.7546771E-02  0.1286031E+00
         21   -1    0    0  505  502  0.00000000000E+00  0.00000000000E+00  0.30264403772E+03  0.30264403772E+03  0.00000000000E+00 0.  1.
          1   -1    0    0  504    0 -0.00000000000E+00 -0.00000000000E+00 -0.19265633649E+04  0.19265633649E+04  0.00000000000E+00 0. -1.
         21    1    1    2  503  502  0.55090891419E+02 -0.53204660073E+02  0.25973582196E+03  0.27079224395E+03  0.00000000000E+00 0.  1.
         21    1    1    2  504  503  0.76800435789E+02 -0.17461951325E+02 -0.62070154392E+02  0.10027926380E+03  0.00000000000E+00 0.  1.
         21    1    1    2  505  501 -0.64094369151E+02 -0.23340622543E+01 -0.44040529477E+02  0.77801698183E+02  0.00000000000E+00 0.  1.
          1    1    1    2  501    0 -0.67796958057E+02  0.73000673652E+02 -0.17775444653E+04  0.17803341967E+04  0.00000000000E+00 0. -1.
<scales pt_clust_3="55.54628" pt_clust_4="97.32163" pt_clust_5="64.13685" pt_clust_6="14000.00000"></scales>
<clustering>
<clus scale="   64.137">  1  5  2 -1</clus>
<clus scale="   55.546">  1  3  2 -1</clus>
<clus scale="   97.322">  1  4  2 -1</clus>
<clus scale="   64.137">  1  3  2 -1</clus>
</clustering>
</event>
<event>
 6    0  0.5775861E+002  0.9414237E+02  0.7546771E-02  0.1293119E+00
         21   -1    0    0  505  502  0.00000000000E+00  0.00000000000E+00  0.11306539275E+03  0.11306539275E+03  0.00000000000E+00 0. -1.
          1   -1    0    0  504    0 -0.00000000000E+00 -0.00000000000E+00 -0.78120358711E+03  0.78120358711E+03  0.00000000000E+00 0.  1.
         21    1    1    2  503  502  0.38371419714E+02 -0.30285600585E+01  0.80688556985E+02  0.89399000303E+02  0.00000000000E+00 0. -1.
         21    1    1    2  504  503 -0.28340749414E+02 -0.23346520052E+02 -0.19119041173E+03  0.19468444111E+03  0.00000000000E+00 0.  1.
         21    1    1    2  505  501 -0.44154409629E+02 -0.84661827597E+02 -0.10093522617E+03  0.13894299847E+03  0.00000000000E+00 0. -1.
          1    1    1    2  501    0  0.34123739329E+02  0.11103690771E+03 -0.45670111345E+03  0.47124253998E+03  0.00000000000E+00 0.  1.
<scales pt_clust_3="38.29565" pt_clust_4="36.71863" pt_clust_5="14000.00000" pt_clust_6="94.14237"></scales>
<clustering>
<clus scale="   36.719">  2  4  1 -1</clus>
<clus scale="   38.296">  1  3  2 -1</clus>
<clus scale="   94.142">  2  6  1 -1</clus>
<clus scale="   38.296">  1  3  2 -1</clus>
</clustering>
</event>
<event>
 6    0  0.5775861E+002  0.1102358E+03  0.7546771E-02  0.1260134E+00
          2   -1    0    0  503    0 -0.00000000000E+00  0.00000000000E+00  0.16704244523E+04  0.16704244523E+04  0.00000000000E+00 0.  1.
         21   -1    0    0  504  502  0.00000000000E+00 -0.00000000000E+00 -0.21023320092E+02  0.21023320092E+02  0.00000000000E+00 0.  1.
         21    1    1    2  503  505 -0.28162448225E+01  0.30531056417E+02  0.22436944516E+03  0.22645468545E+03  0.00000000000E+00 0.  1.
         21    1    1    2  504  501  0.71644156327E+02 -0.96656173269E+02  0.19605321240E+03  0.23002643992E+03  0.00000000000E+00 0.  1.
         21    1    1    2  505  502 -0.35368779451E+02  0.15876117088E+02  0.17419527000E+03  0.17845726028E+03  0.00000000000E+00 0. -1.
          2    1    1    2  501    0 -0.33459132054E+02  0.50248999764E+02  0.10547832046E+04  0.10565093868E+04  0.00000000000E+00 0.  1.
<scales pt_clust_3="30.66067" pt_clust_4="110.23578" pt_clust_5="40.73821" pt_clust_6="14000.00000"></scales>
<clustering>
<clus scale="   30.661">  1  3  2 -1</clus>
<clus scale="   40.738">  1  5  2 -1</clus>
<clus scale="  110.236">  2  4  1 -1</clus>
<clus scale="  110.236">  2  3  1 -1</clus>
</clustering>
</event>
<event>
 6    0  0.5775861E+002  0.8511075E+02  0.7546771E-02  0.1315143E+00
         21   -1    0    0  503  502  0.00000000000E+00  0.00000000000E+00  0.79069816779E+02  0.79069816779E+02  0.00000000000E+00 0. -1.
          2   -1    0    0  504    0 -0.00000000000E+00 -0.00000000000E+00 -0.79916291779E+03  0.79916291779E+03  0.00000000000E+00 0. -1.
         21    1    1    2  503  501  0.68338034621E+02  0.19594984834E+02  0.14451586943E+02  0.72545839107E+02  0.00000000000E+00 0. -1.
         21    1    1    2  504  505 -0.87798901183E+02 -0.51513919573E+02 -0.54438987547E+03  0.55382548468E+03  0.00000000000E+00 0. -1.
         21    1    1    2  505  502 -0.46723818690E+02  0.19810494376E+02 -0.63665199712E+00  0.50754076153E+02  0.00000000000E+00 0. -1.
          2    1    1    2  501    0  0.66184685252E+02  0.12108440362E+02 -0.18951816048E+03  0.20110733463E+03  0.00000000000E+00 0. -1.
<scales pt_clust_3="46.97635" pt_clust_4="14000.00000" pt_clust_5="50.75008" pt_clust_6="85.11075"></scales>
<clustering>
<clus scale="   50.750">  1  5  2 -1</clus>
<clus scale="   46.976">  1  3  2 -1</clus>
<clus scale="   85.111">  1  6  2 -1</clus>
<clus scale="   50.750">  1  3  2 -1</clus>
</clustering>
</event>
<event>
 6    0  0.5775861E+002  0.1278761E+03  0.7546771E-02  0.1230642E+00
         21   -1    0    0  504  502  0.00000000000E+00  0.00000000000E+00  0.95356778185E+02  0.95356778185E+02  0.00000000000E+00 0.  1.
          2   -1    0    0  503    0 -0.00000000000E+00 -0.00000000000E+00 -0.13494818187E+04  0.13494818187E+04  0.00000000000E+00 0. -1.
         21    1    1    2  503  502  0.41072669420E+02  0.74840453189E+02 -0.40651952732E+03  0.41538678807E+03  0.00000000000E+00 0.  1.
         21    1    1    2  504  505  0.39333365394E+02  0.11640966385E+02 -0.68758179731E+01  0.41592097860E+02  0.00000000000E+00 0.  1.
         21    1    1    2  505  501  0.61721921027E+02  0.46984714118E+02  0.38972758721E+02  0.86810338200E+02  0.00000000000E+00 0.  1.
          2    1    1    2  501    0 -0.14212795584E+03 -0.13346613369E+03 -0.87970245390E+03  0.90104937272E+03  0.00000000000E+00 0. -1.
<scales pt_clust_3="85.37012" pt_clust_4="30.91917" pt_clust_5="30.91917" pt_clust_6="120.60040"></scales>
<clustering>
<clus scale="   30.919">  4  5 -1 -1</clus>
<clus scale="   85.370">  2  3  1 -1</clus>
<clus scale="  120.600">  2  6  1 -1</clus>
<clus scale="  127.876">  1  3  2 -1</clus>
</clustering>
</event>
<event>
 6    0  0.5775861E+002  0.1175098E+03  0.7546771E-02  0.1247263E+00
          1   -1    0    0  504    0 -0.00000000000E+00  0.00000000000E+00  0.13637762913E+04  0.13637762913E+04  0.00000000000E+00 0.  1.
         21   -1    0    0  503  502  0.00000000000E+00 -0.00000000000E+00 -0.96836914891E+02  0.96836914891E+02  0.00000000000E+00 0.  1.
         21    1    1    2  503  505 -0.27733305595E+02 -0.17756782138E+02 -0.74811255111E+01  0.33769909536E+02  0.00000000000E+00 0.  1.
         21    1    1    2  504  502  0.42385491126E+01  0.12013652977E+03  0.31538338771E+03  0.33751656601E+03  0.00000000000E+00 0.  1.
         21    1    1    2  505  501  0.90199311416E+02 -0.86118812698E+02 -0.30954692166E+01  0.12474753549E+03  0.00000000000E+00 0.  1.
          1    1    1    2  501    0 -0.66704554933E+02 -0.16260934932E+02  0.96213258338E+03  0.96457919511E+03  0.00000000000E+00 0.  1.
<scales pt_clust_3="32.93083" pt_clust_4="14000.00000" pt_clust_5="117.50983" pt_clust_6="69.15817"></scales>
<clustering>
<clus scale="   32.931">  2  3  1 -1</clus>
<clus scale="   69.158">  1  6  2 -1</clus>
<clus scale="  117.510">  2  5  1 -1</clus>
<clus scale="   32.931">  2  3  1 -1</clus>
</clustering>
</event>
<event>
 6    0  0.5775861E+002  0.1106740E+03  0.7546771E-02  0.1259327E+00
          1   -1    0    0  505    0 -0.00000000000E+00  0.00000000000E+00  0.22580647055E+03  0.22580647055E+03  0.00000000000E+00 0.  1.
         21   -1    0    0  501  502  0.00000000000E+00 -0.00000000000E+00 -0.12767769814E+03  0.12767769814E+03  0.00000000000E+00 0. -1.
         21    1    1    2  503  502  0.76698206753E+02  0.38178075539E+02 -0.51318478549E+02  0.99868746921E+02  0.00000000000E+00 0. -1.
         21    1    1    2  504  503 -0.18159278982E+02 -0.33288929638E+02  0.15888955990E+02  0.41114123754E+02  0.00000000000E+00 0. -1.
         21    1    1    2  505  504 -0.10329226637E+03 -0.89587069451E+01  0.44658415018E+02  0.11288899306E+03  0.00000000000E+00 0. -1.
          1    1    1    2  501    0  0.44753338602E+02  0.40695610441E+01  0.88899879946E+02  0.99612304950E+02  0.00000000000E+00 0.  1.
<scales pt_clust_3="93.45101" pt_clust_4="35.85811" pt_clust_5="35.85811" pt_clust_6="44.93799"></scales>
<clustering>
<clus scale="   35.858">  4  5 -1 -1</clus>
<clus scale="   44.938">  1  6  2 -1</clus>
<clus scale="   93.451">  2  3  1 -1</clus>
<clus scale="   93.451">  2  3  1 -1</clus>
</clustering>
</event>
<event>
 6    0  0.5775861E+002  0.1205504E+03  0.7546771E-02  0.1242192E+00
         21   -1    0    0  505  502  0.00000000000E+00  0.00000000000E+00  0.87761693989E+02  0.87761693989E+02  0.00000000000E+00 0.  1.
         -1   -1    0    0    0  501 -0.00000000000E+00 -0.00000000000E+00 -0.19230633108E+04  0.19230633108E+04  0.00000000000E+00 0. -1.
         21    1    1    2  503  504  0.19263220093E+02 -0.27124970927E+02 -0.26226861320E+02  0.42363710306E+02  0.00000000000E+00 0.  1.
         21    1    1    2  504  502 -0.51100829761E+01 -0.31754690694E+02  0.43999722767E+02  0.54501825040E+02  0.00000000000E+00 0.  1.
         21    1    1    2  505  501 -0.13366274634E+03  0.58664754075E+02 -0.15964731263E+03  0.21632047420E+03  0.00000000000E+00 0.  1.
         -1    1    1    2    0  503  0.11950960922E+03  0.21490754613E+00 -0.16934271657E+04  0.16976389953E+04  0.00000000000E+00 0. -1.
<scales pt_clust_3="38.36557" pt_clust_4="32.16323" pt_clust_5="14000.00000" pt_clust_6="120.55043"></scales>
<clustering>
<clus scale="   32.163">  1  4  2 -1</clus>
<clus scale="   38.366">  1  3  2 -1</clus>
<clus scale="  120.550">  2  6  1 -1</clus>
<clus scale="   32.163">  1  3  2 -1</clus>
</clustering>
</event>
<event>
 6    0  0.5775861E+002  0.1430609E+03  0.7546771E-02  0.1209269E+00
         -1   -1    0    0    0  501 -0.00000000000E+00  0.00000000000E+00  0.42808177228E+03  0.42808177228E+03  0.00000000000E+00 0.  1.
         21   -1    0    0  505  502  0.00000000000E+00 -0.00000000000E+00 -0.14421371179E+04  0.14421371179E+04  0.00000000000E+00 0.  1.
         21    1    1    2  503  502 -0.45187136614E+02 -0.12853229492E+02 -0.76732660219E+03  0.76876342086E+03  0.00000000000E+00 0.  1.
         21    1    1    2  504  503 -0.10137229705E+03 -0.61887710955E+02 -0.23909738833E+03  0.26697189456E+03  0.00000000000E+00 0.  1.
         21    1    1    2  505  501  0.47656309293E+01  0.10991236316E+03 -0.40049793784E+03  0.41533364544E+03  0.00000000000E+00 0.  1.
         -1    1    1    2    0  504  0.14179380274E+03 -0.35171422715E+02  0.39286658272E+03  0.41914992936E+03  0.00000000000E+00 0.  1.
<scales pt_clust_3="46.97960" pt_clust_4="14000.00000" pt_clust_5="104.60038" pt_clust_6="143.06090"></scales>
<clustering>
<clus scale="   46.980">  2  3  1 -1</clus>
<clus scale="  104.600">  2  5  1 -1</clus>
<clus scale="  143.061">  1  6  2 -1</clus>
<clus scale="   46.980">  2  3  1 -1</clus>
</clustering>
</event>
<event>
 6    0  0.5775861E+002  0.1170614E+03  0.7546771E-02  0.1248025E+00
         21   -1    0    0  504  502  0.00000000000E+00  0.00000000000E+00  0.98108725905E+03  0.98108725905E+03  0.00000000000E+00 0. -1.
          2   -1    0    0  503    0 -0.00000000000E+00 -0.00000000000E+00 -0.18667604033E+03  0.18667604033E+03  0.00000000000E+00 0. -1.
         21    1    1    2  503  502 -0.74914969610E+02  0.69866486408E+02  0.21243192674E+03  0.23584084060E+03  0.00000000000E+00 0. -1.
         21    1    1    2  504  505  0.13432204790E+03 -0.69217960715E+01  0.70362430982E+03  0.71636407865E+03  0.00000000000E+00 0. -1.
         21    1    1    2  505  501 -0.69056584506E+01 -0.99833127998E+02 -0.31506377917E+02  0.10491421931E+03  0.00000000000E+00 0.  1.
          2    1    1    2  501    0 -0.52501419839E+02  0.36888437662E+02 -0.90138639912E+02  0.11064416082E+03  0.00000000000E+00 0. -1.
<scales pt_clust_3="117.06135" pt_clust_4="14000.00000" pt_clust_5="85.66202" pt_clust_6="64.16507"></scales>
<clustering>
<clus scale="   64.165">  2  6  1 -1</clus>
<clus scale="   85.662">  2  5  1 -1</clus>
<clus scale="  117.061">  2  3  1 -1</clus>
<clus scale="  117.061">  1  3  2 -1</clus>
</clustering>
</event>
<event>
 6    0  0.5775861E+002  0.1694531E+03  0.7546771E-02  0.1178419E+00
         21   -1    0    0  504  502  0.00000000000E+00  0.00000000000E+00  0.11839397891E+03  0.11839397891E+03  0.00000000000E+00 0. -1.
          2   -1    0    0  502    0 -0.00000000000E+00 -0.00000000000E+00 -0.86146013336E+03  0.86146013336E+03  0.00000000000E+00 0.  1.
         21    1    1    2  503  505 -0.75267323558E+02 -0.12950619879E+03 -0.56590050805E+02  0.16012326305E+03  0.00000000000E+00 0. -1.
         21    1    1    2  504  503 -0.45933554600E+02  0.18640116010E+02  0.45739999875E+02  0.67449929219E+02  0.00000000000E+00 0. -1.
         21    1    1    2  505  501  0.13307427235E+02  0.43262744196E+02 -0.19143492716E+03  0.19671320238E+03  0.00000000000E+00 0. -1.
          2    1    1    2  501    0  0.10789345092E+03  0.67603338586E+02 -0.54078117636E+03  0.55556771761E+03  0.00000000000E+00 0.  1.
<scales pt_clust_3="160.96311" pt_clust_4="49.57162" pt_clust_5="31.57926" pt_clust_6="31.57926"></scales>
<clustering>
<clus scale="   31.579">  5  6 -1 -1</clus>
<clus scale="   49.572">  1  4  2 -1</clus>
<clus scale="  160.963">  1  3  2 -1</clus>
<clus scale="   49.572">  1  3  2 -1</clus>
</clustering>
</event>
<event>
 6    0  0.5775861E+002  0.7187334E+02  0.7546771E-02  0.1353836E+00
          2   -1    0    0  504    0 -0.00000000000E+00  0.00000000000E+00  0.10572511846E+04  0.10572511846E+04  0.00000000000E+00 0.  1.
         21   -1    0    0  505  502  0.00000000000E+00 -0.00000000000E+00 -0.28724088667E+03  0.28724088667E+03  0.00000000000E+00 0.  1.
         21    1    1    2  503  502 -0.42290319174E+02  0.30398340802E+02  0.16085800613E+02  0.54509478081E+02  0.00000000000E+00 0.  1.
         21    1    1    2  504  503  0.75511688082E+02 -0.30061489947E+02  0.67054164023E+03  0.67544933155E+03  0.00000000000E+00 0.  1.
         21    1    1    2  505  501 -0.42079760339E+01 -0.65105996723E+02 -0.25786150694E+03  0.26598694448E+03  0.00000000000E+00 0.  1.
          2    1    1    2  501    0 -0.29013392874E+02  0.64769145869E+02  0.34124436408E+03  0.34854631720E+03  0.00000000000E+00 0.  1.
<scales pt_clust_3="52.08196" pt_clust_4="71.87334" pt_clust_5="57.67672" pt_clust_6="14000.00000"></scales>
<clustering>
<clus scale="   52.082">  2  3  1 -1</clus>
<clus scale="   57.677">  2  5  1 -1</clus>
<clus scale="   71.873">  1  4  2 -1</clus>
<clus scale="   52.082">  2  3  1 -1</clus>
</clustering>
</event>
<event>
 6    0  0.5775861E+002  0.1781199E+03  0.7546771E-02  0.1169635E+00
         21   -1    0    0  505  502  0.00000000000E+00  0.00000000000E+00  0.72800256408E+03  0.72800256408E+03  0.00000000000E+00 0.  1.
          2   -1    0    0  503    0 -0.00000000000E+00 -0.00000000000E+00 -0.26517317813E+03  0.26517317813E+03  0.00000000000E+00 0. -1.
         21    1    1    2  503  504 -0.14712574801E+03  0.50395442517E+02  0.33378714827E+03  0.36823843730E+03  0.00000000000E+00 0.  1.
         21    1    1    2  504  502  0.17514979475E+02  0.60394950283E+02  0.13418027343E+03  0.14818458187E+03  0.00000000000E+00 0.  1.
         21    1    1    2  505  501  0.20125878210E+03 -0.90845803745E+02  0.17507489146E+03  0.28179651355E+03  0.00000000000E+00 0.  1.
          2    1    1    2  501    0 -0.71648013564E+02 -0.19944589055E+02 -0.18021292722E+03  0.19495620948E+03  0.00000000000E+00 0. -1.
<scales pt_clust_3="178.11986" pt_clust_4="62.88342" pt_clust_5="14000.00000" pt_clust_6="73.95983"></scales>
<clustering>
<clus scale="   62.883">  1  4  2 -1</clus>
<clus scale="   73.960">  2  6  1 -1</clus>
<clus scale="  178.120">  1  3  2 -1</clus>
<clus scale="   62.883">  1  3  2 -1</clus>
</clustering>
</event>
<event>
 6    0  0.5775861E+002  0.1957737E+03  0.7546771E-02  0.1153355E+00
          1   -1    0    0  503    0 -0.00000000000E+00  0.00000000000E+00  0.12939280778E+04  0.12939280778E+04  0.00000000000E+00 0.  1.
         21   -1    0    0  505  502  0.00000000000E+00 -0.00000000000E+00 -0.19259661325E+04  0.19259661325E+04  0.00000000000E+00 0.  1.
         21    1    1    2  503  502  0.63487617871E+02 -0.56535967804E+02 -0.31978223377E+03  0.33088921154E+03  0.00000000000E+00 0.  1.
         21    1    1    2  504  501 -0.14328229866E+03 -0.12090449542E+03  0.41208981925E+02  0.19195284398E+03  0.00000000000E+00 0.  1.
         21    1    1    2  505  504  0.31358192833E+02 -0.17016221311E+02 -0.15164791771E+04  0.15168988044E+04  0.00000000000E+00 0.  1.
          1    1    1    2  501    0  0.48436487958E+02  0.19445668453E+03  0.11630143743E+04  0.11801533504E+04  0.00000000000E+00 0.  1.
<scales pt_clust_3="112.80874" pt_clust_4="14000.00000" pt_clust_5="35.67756" pt_clust_6="195.77367"></scales>
<clustering>
<clus scale="   35.678">  2  5  1 -1</clus>
<clus scale="  112.809">  2  3  1 -1</clus>
<clus scale="  195.774">  1  6  2 -1</clus>
<clus scale="   35.678">  2  3  1 -1</clus>
</clustering>
</event>
<event>
 6    0  0.5775861E+002  0.8086409E+02  0.7546771E-02  0.1326617E+00
          2   -1    0    0  504    0 -0.00000000000E+00  0.00000000000E+00  0.14419599579E+04  0.14419599579E+04  0.00000000000E+00 0.  1.
         21   -1    0    0  505  502  0.00000000000E+00 -0.00000000000E+00 -0.88984383810E+02  0.88984383810E+02  0.00000000000E+00 0. -1.
         21    1    1    2  503  501 -0.46492199700E+02  0.19589058283E+02  0.26907352788E+03  0.27376234081E+03  0.00000000000E+00 0. -1.
         21    1    1    2  504  502  0.89257943580E+02 -0.34513906635E+02 -0.14508887690E+02  0.96792035134E+02  0.00000000000E+00 0. -1.
         21    1    1    2  505  503 -0.70835421334E+02 -0.15923654942E+02  0.12491554552E+02  0.73669930348E+02  0.00000000000E+00 0. -1.
          2    1    1    2  501    0  0.28069677455E+02  0.30848503294E+02  0.10859193793E+04  0.10867200354E+04  0.00000000000E+00 0.  1.
<scales pt_clust_3="49.88864" pt_clust_4="14000.00000" pt_clust_5="80.86409" pt_clust_6="41.70776"></scales>
<clustering>
<clus scale="   41.708">  1  6  2 -1</clus>
<clus scale="   49.889">  1  3  2 -1</clus>
<clus scale="   80.864">  1  5  2 -1</clus>
<clus scale="   80.864">  2  3  1 -1</clus>
</clustering>
</event>
<event>
 6    0  0.5775861E+002  0.9644219E+02  0.7546771E-02  0.1287961E+00
         21   -1    0    0  503  502  0.00000000000E+00  0.00000000000E+00  0.37960603361E+03  0.37960603361E+03  0.00000000000E+00 0. -1.
          2   -1    0    0  505    0 -0.00000000000E+00 -0.00000000000E+00 -0.31582381590E+03  0.31582381590E+03  0.00000000000E+00 0. -1.
         21    1    1    2  503  504 -0.60309765842E+01  0.31772172018E+02  0.85776148278E+02  0.91670012582E+02  0.00000000000E+00 0. -1.
         21    1    1    2  504  501  0.77320571616E+02  0.10070295877E+03  0.13150865784E+03  0.18279519629E+03  0.00000000000E+00 0. -1.
         21    1    1    2  505  502 -0.54610435145E+02 -0.38391831616E+02  0.11665656079E+03  0.13440604724E+03  0.00000000000E+00 0. -1.
          2    1    1    2  501    0 -0.16679159887E+02 -0.94083299173E+02 -0.27015914919E+03  0.28655859339E+03  0.00000000000E+00 0. -1.
<scales pt_clust_3="32.33951" pt_clust_4="14000.00000" pt_clust_5="62.30944" pt_clust_6="96.44219"></scales>
<clustering>
<clus scale="   32.340">  1  3  2 -1</clus>
<clus scale="   62.309">  1  5  2 -1</clus>
<clus scale="   96.442">  2  6  1 -1</clus>
<clus scale="   32.340">  1  3  2 -1</clus>
</clustering>
</event>
<event>
 6    0  0.5775861E+002  0.1719348E+03  0.7546771E-02  0.1175845E+00
          1   -1    0    0  504    0 -0.00000000000E+00  0.00000000000E+00  0.24987957736E+04  0.24987957736E+04  0.00000000000E+00 0. -1.
         21   -1    0    0  505  502  0.00000000000E+00 -0.00000000000E+00 -0.25733838355E+03  0.25733838355E+03  0.00000000000E+00 0. -1.
         21    1    1    2  503  501  0.13625741719E+03  0.16911402150E+03 -0.65554641213E+02  0.22685468254E+03  0.00000000000E+00 0. -1.
         21    1    1    2  504  502 -0.18561872637E+02 -0.77561276649E+02  0.26529048692E+03  0.27701865858E+03  0.00000000000E+00 0. -1.
         21    1    1    2  505  503 -0.62601600850E+01 -0.56758446896E+02 -0.95814197581E+02  0.11153955064E+03  0.00000000000E+00 0. -1.
          1    1    1    2  501    0 -0.11143538447E+03 -0.34794297953E+02  0.21375357420E+04  0.21407212654E+04  0.00000000000E+00 0. -1.
<scales pt_clust_3="14000.00000" pt_clust_4="81.91406" pt_clust_5="57.10263" pt_clust_6="171.93477"></scales>
<clustering>
<clus scale="   57.103">  2  5  1 -1</clus>
<clus scale="   81.914">  1  4  2 -1</clus>
<clus scale="  171.935">  1  6  2 -1</clus>
<clus scale="   57.103">  2  3  1 -1</clus>
</clustering>
</event>
<event>
 6    0  0.5775861E+002  0.1752856E+03  0.7546771E-02  0.1172445E+00
          1   -1    0    0  504    0 -0.00000000000E+00  0.00000000000E+00  0.87378103352E+03  0.87378103352E+03  0.00000000000E+00 0.  1.
         21   -1    0    0  505  502  0.00000000000E+00 -0.00000000000E+00 -0.64833985801E+03  0.64833985801E+03  0.00000000000E+00 0.  1.
         21    1    1    2  503  501  0.16528333293E+03  0.65723053039E+02 -0.19798184539E+03  0.26614828752E+03  0.00000000000E+00 0.  1.
         21    1    1    2  504  502 -0.86527198073E+02 -0.17779520309E+02  0.71666498191E+02  0.11375040357E+03  0.00000000000E+00 0.  1.
         21    1    1    2  505  503 -0.16162562554E+02  0.34459112208E+02 -0.39071989934E+03  0.39256935513E+03  0.00000000000E+00 0.  1.
          1    1    1    2  501    0 -0.62593572303E+02 -0.82402644938E+02  0.74247642205E+03  0.74965284532E+03  0.00000000000E+00 0.  1.
<scales pt_clust_3="175.28555" pt_clust_4="89.11585" pt_clust_5="38.06125" pt_clust_6="14000.00000"></scales>
<clustering>
<clus scale="   38.061">  2  5  1 -1</clus>
<clus scale="   89.116">  1  4  2 -1</clus>
<clus scale="  175.286">  2  3  1 -1</clus>
<clus scale="   38.061">  2  3  1 -1</clus>
</clustering>
</event>
<event>
 6    0  0.5775861E+002  0.1143859E+03  0.7546771E-02  0.1252657E+00
          2   -1    0    0  505    0 -0.00000000000E+00  0.00000000000E+00  0.11671855390E+04  0.11671855390E+04  0.00000000000E+00 0.  1.
         21   -1    0    0  504  502  0.00000000000E+00 -0.00000000000E+00 -0.73320303068E+02  0.73320303068E+02  0.00000000000E+00 0. -1.
         21    1    1    2  503  501  0.71174221727E+02 -0.83153045529E+02  0.94064197618E+02  0.14432003358E+03  0.00000000000E+00 0. -1.
         21    1    1    2  504  503  0.52484290048E+02 -0.15119259558E+02 -0.79323230680E+00  0.54624371199E+02  0.00000000000E+00 0. -1.
         21    1    1    2  505  502 -0.10619059196E+03  0.61009266554E+02  0.16773655642E+03  0.20768756532E+03  0.00000000000E+00 0. -1.
          2    1    1    2  501    0 -0.17467919819E+02  0.37263038533E+02  0.83285771421E+03  0.83387387199E+03  0.00000000000E+00 0.  1.
<scales pt_clust_3="114.38588" pt_clust_4="52.49297" pt_clust_5="14000.00000" pt_clust_6="41.15413"></scales>
<clustering>
<clus scale="   41.154">  1  6  2 -1</clus>
<clus scale="   52.493">  2  4  1 -1</clus>
<clus scale="  114.386">  1  3  2 -1</clus>
<clus scale="   52.493">  2  3  1 -1</clus>
</clustering>
</event>
<event>
 6    0  0.5775861E+002  0.1222555E+03  0.7546771E-02  0.1239422E+00
         21   -1    0    0  504  502  0.00000000000E+00  0.00000000000E+00  0.40304195570E+02  0.40304195570E+02  0.00000000000E+00 0. -1.
          2   -1    0    0  503    0 -0.00000000000E+00 -0.00000000000E+00 -0.20139415877E+04  0.20139415877E+04  0.00000000000E+00 0. -1.
         21    1    1    2  503  502  0.74809401496E+02  0.87555129941E+02 -0.16906831339E+03  0.20456402891E+03  0.00000000000E+00 0. -1.
         21    1    1    2  504  505 -0.15422942655E+02  0.39264947285E+02 -0.49244569892E+02  0.64843125381E+02  0.00000000000E+00 0. -1.
         21    1    1    2  505  501 -0.85138889390E+02 -0.94457303985E+02 -0.26491125488E+03  0.29385163896E+03  0.00000000000E+00 0. -1.
          2    1    1    2  501    0  0.25752430549E+02 -0.32362773240E+02 -0.14904132539E+04  0.14909869900E+04  0.00000000000E+00 0. -1.
<scales pt_clust_3="14000.00000" pt_clust_4="37.89808" pt_clust_5="122.25547" pt_clust_6="41.35864"></scales>
<clustering>
<clus scale="   41.359">  2  6  1 -1</clus>
<clus scale="   37.898">  1  4  2 -1</clus>
<clus scale="  122.255">  2  5  1 -1</clus>
<clus scale="   37.898">  1  3  2 -1</clus>
</clustering>
</event>
<event>
 6    0  0.5775861E+002  0.1207718E+03  0.7546771E-02  0.1241829E+00
         21   -1    0    0  503  502  0.00000000000E+00  0.00000000000E+00  0.12503997288E+04  0.12503997288E+04  0.00000000000E+00 0. -1.
          1   -1    0    0  504    0 -0.00000000000E+00 -0.00000000000E+00 -0.69484230240E+03  0.69484230240E+03  0.00000000000E+00 0. -1.
         21    1    1    2  503  505 -0.27325414250E+02  0.42176528294E+02  0.81035240653E+03  0.81190920710E+03  0.00000000000E+00 0. -1.
         21    1    1    2  504  502  0.35402232906E+02 -0.16284651699E+03  0.40860892219E+03  0.44128625345E+03  0.00000000000E+00 0. -1.
         21    1    1    2  505  501 -0.67402768156E+02  0.78580929353E+02 -0.22533618185E+03  0.24798082680E+03  0.00000000000E+00 0.  1.
          1    1    1    2  501    0  0.59325949500E+02  0.42089059347E+02 -0.43806772043E+03  0.44406574388E+03  0.00000000000E+00 0. -1.
<scales pt_clust_3="50.25473" pt_clust_4="120.77176" pt_clust_5="14000.00000" pt_clust_6="72.75492"></scales>
<clustering>
<clus scale="   50.255">  1  3  2 -1</clus>
<clus scale="   72.755">  2  6  1 -1</clus>
<clus scale="  120.772">  1  4  2 -1</clus>
<clus scale="   50.255">  1  3  2 -1</clus>
</clustering>
</event>
<event>
 6    0  0.5775861E+002  0.1510223E+03  0.7546771E-02  0.1199222E+00
         21   -1    0    0  504  502  0.00000000000E+00  0.00000000000E+00  0.12168316426E+03  0.12168316426E+03  0.00000000000E+00 0. -1.
         -1   -1    0    0    0  501 -0.00000000000E+00 -0.00000000000E+00 -0.28796462640E+04  0.28796462640E+04  0.00000000000E+00 0.  1.
         21    1    1    2  503  505  0.54623949394E+02 -0.68247230613E+02 -0.13133307556E+02  0.88396516340E+02  0.00000000000E+00 0. -1.
         21    1    1    2  504  501  0.13019013313E+03  0.53032152845E+02 -0.26258580483E+02  0.14300836706E+03  0.00000000000E+00 0. -1.
         21    1    1    2  505  502 -0.35697124139E+02 -0.15465004006E+02  0.74883595699E+01  0.39617250658E+02  0.00000000000E+00 0. -1.
         -1    1    1    2    0  503 -0.14911695839E+03  0.30680081774E+02 -0.27260595713E+04  0.27303072943E+04  0.00000000000E+00 0.  1.
<scales pt_clust_3="84.72304" pt_clust_4="14000.00000" pt_clust_5="38.90310" pt_clust_6="151.02228"></scales>
<clustering>
<clus scale="   38.903">  1  5  2 -1</clus>
<clus scale="   84.723">  1  3  2 -1</clus>
<clus scale="  151.022">  2  6  1 -1</clus>
<clus scale="   38.903">  1  3  2 -1</clus>
</clustering>
</event>
<event>
 6    0  0.5775861E+002  0.9771940E+02  0.7546771E-02  0.1285166E+00
         21   -1    0    0  504  502  0.00000000000E+00  0.00000000000E+00  0.60892947303E+03  0.60892947303E+03  0.00000000000E+00 0. -1.
          1   -1    0    0  505    0 -0.00000000000E+00 -0.00000000000E+00 -0.72870113041E+03  0.72870113041E+03  0.00000000000E+00 0. -1.
         21    1    1    2  503  502 -0.28592483764E+02 -0.10929006474E+02  0.47686682651E+03  0.47784824321E+03  0.00000000000E+00 0. -1.
         21    1    1    2  504  501 -0.68096103562E+02  0.14439580562E+02  0.50766362874E+02  0.86155698631E+02  0.00000000000E+00 0. -1.
         21    1    1    2  505  503  0.15256236987E+03 -0.42797040294E+02 -0.41380986456E+02  0.16376583709E+03  0.00000000000E+00 0. -1.
          1    1    1    2  501    0 -0.55873782542E+02  0.39286466206E+02 -0.60602386031E+03  0.60986082451E+03  0.00000000000E+00 0. -1.
<scales pt_clust_3="30.61002" pt_clust_4="14000.00000" pt_clust_5="97.71940" pt_clust_6="68.55343"></scales>
<clustering>
<clus scale="   30.610">  1  3  2 -1</clus>
<clus scale="   68.553">  2  6  1 -1</clus>
<clus scale="   97.719">  2  5  1 -1</clus>
<clus scale="   30.610">  1  3  2 -1</clus>
</clustering>
</event>
<event>
 6    0  0.5775861E+002  0.9024664E+02  0.7546771E-02  0.1302256E+00
          2   -1    0    0  504    0 -0.00000000000E+00  0.00000000000E+00  0.10986521774E+04  0.10986521774E+04  0.00000000000E+00 0. -1.
         21   -1    0    0  505  502  0.00000000000E+00 -0.00000000000E+00 -0.12905549942E+04  0.12905549942E+04  0.00000000000E+00 0.  1.
         21    1    1    2  503  502 -0.39827720777E+02  0.73980933032E+02 -0.87658249844E+03  0.88059996727E+03  0.00000000000E+00 0.  1.
         21    1    1    2  504  503 -0.39194366667E+02 -0.11195009725E+03 -0.26512674465E+03  0.29045001873E+03  0.00000000000E+00 0.  1.
         21    1    1    2  505  501  0.43255147383E+02  0.10272994145E+02 -0.13000600958E+03  0.13739761538E+03  0.00000000000E+00 0.  1.
          2    1    1    2  501    0  0.35766940060E+02  0.27696170067E+02  0.10798124359E+04  0.10807595702E+04  0.00000000000E+00 0. -1.
<scales pt_clust_3="14000.00000" pt_clust_4="90.24664" pt_clust_5="44.45832" pt_clust_6="45.25320"></scales>
<clustering>
<clus scale="   44.458">  2  5  1 -1</clus>
<clus scale="   45.253">  1  6  2 -1</clus>
<clus scale="   90.247">  1  4  2 -1</clus>
<clus scale="   44.458">  2  3  1 -1</clus>
</clustering>
</event>
<event>
 6    0  0.5775861E+002  0.1431207E+03  0.7546771E-02  0.1209190E+00
         -1   -1    0    0    0  501 -0.00000000000E+00  0.00000000000E+00  0.89902270172E+03  0.89902270172E+03  0.00000000000E+00 0. -1.
         21   -1    0    0  503  502  0.00000000000E+00 -0.00000000000E+00 -0.35449482227E+03  0.35449482227E+03  0.00000000000E+00 0. -1.
         21    1    1    2  503  501 -0.40500616413E+02 -0.11750727811E+03  0.30999552662E+02  0.12809852694E+03  0.00000000000E+00 0. -1.
         21    1    1    2  504  505 -0.16148733837E+02  0.53843334717E+02  0.25221039193E+03  0.25839885467E+03  0.00000000000E+00 0. -1.
         21    1    1    2  505  502  0.29726427081E+02 -0.18421510715E+02 -0.29851734417E+03  0.30055884166E+03  0.00000000000E+00 0. -1.
         -1    1    1    2    0  504  0.26922923169E+02  0.82085454111E+02  0.55983527903E+03  0.56646130072E+03  0.00000000000E+00 0. -1.
<scales pt_clust_3="134.53681" pt_clust_4="38.97352" pt_clust_5="34.97160" pt_clust_6="38.97352"></scales>
<clustering>
<clus scale="   34.972">  2  5  1 -1</clus>
<clus scale="   38.974">  4  6 -1 -1</clus>
<clus scale="  134.537">  2  3  1 -1</clus>
<clus scale="   34.972">  2  3  1 -1</clus>
</clustering>
</event>
<event>
 6    0  0.5775861E+002  0.1148837E+03  0.7546771E-02  0.1251784E+00
          2   -1    0    0  505    0 -0.00000000000E+00  0.00000000000E+00  0.80895435730E+03  0.80895435730E+03  0.00000000000E+00 0.  1.
         21   -1    0    0  503  502  0.00000000000E+00 -0.00000000000E+00 -0.12619218834E+03  0.12619218834E+03  0.00000000000E+00 0.  1.
         21    1    1    2  503  501  0.22817915368E+02 -0.21961982394E+02  0.76661290061E+01  0.32584589399E+02  0.00000000000E+00 0. -1.
         21    1    1    2  504  502  0.30692509671E+02 -0.84563771525E+02 -0.83446994811E+02  0.12270477801E+03  0.00000000000E+00 0.  1.
         21    1    1    2  505  504 -0.75679537079E+02  0.83363413750E+02  0.30392464845E+03  0.32410961574E+03  0.00000000000E+00 0. -1.
          2    1    1    2  501    0  0.22169112040E+02  0.23162340168E+02  0.45461838632E+03  0.45574756248E+03  0.00000000000E+00 0.  1.
<scales pt_clust_3="31.66995" pt_clust_4="114.88365" pt_clust_5="14000.00000" pt_clust_6="32.06182"></scales>
<clustering>
<clus scale="   31.670">  2  3  1 -1</clus>
<clus scale="   32.062">  1  6  2 -1</clus>
<clus scale="  114.884">  2  4  1 -1</clus>
<clus scale="   31.670">  2  3  1 -1</clus>
</clustering>
</event>
<event>
 6    0  0.5775861E+002  0.1146089E+03  0.7546771E-02  0.1252265E+00
         21   -1    0    0  505  502  0.00000000000E+00  0.00000000000E+00  0.31774481278E+03  0.31774481278E+03  0.00000000000E+00 0.  1.
          1   -1    0    0  504    0 -0.00000000000E+00 -0.00000000000E+00 -0.11586647275E+04  0.11586647275E+04  0.00000000000E+00 0. -1.
         21    1    1    2  503  502  0.37800441478E+02 -0.26801525977E+02  0.19514832500E+03  0.20057433515E+03  0.00000000000E+00 0.  1.
         21    1    1    2  504  503 -0.13729494665E+02 -0.41803862387E+02 -0.11916159953E+03  0.12702577981E+03  0.00000000000E+00 0. -1.
         21    1    1    2  505  501  0.35369633271E+02 -0.64620370578E+02  0.98486826083E+02  0.12298966690E+03  0.00000000000E+00 0.  1.
          1    1    1    2  501    0 -0.59440580083E+02  0.13322575894E+03 -0.10153934663E+04  0.10258197584E+04  0.00000000000E+00 0. -1.
<scales pt_clust_3="46.37197" pt_clust_4="44.00070" pt_clust_5="14000.00000" pt_clust_6="114.60888"></scales>
<clustering>
<clus scale="   44.001">  2  4  1 -1</clus>
<clus scale="   46.372">  1  3  2 -1</clus>
<clus scale="  114.609">  2  6  1 -1</clus>
<clus scale="   46.372">  1  3  2 -1</clus>
</clustering>
</event>
<event>
 6    0  0.5775861E+002  0.1604840E+03  0.7546771E-02  0.1188151E+00
         21   -1    0    0  503  502  0.00000000000E+00  0.00000000000E+00  0.37703830098E+03  0.37703830098E+03  0.00000000000E+00 0.  1.
         -1   -1    0    0    0  501 -0.00000000000E+00 -0.00000000000E+00 -0.19350449784E+03  0.19350449784E+03  0.00000000000E+00 0. -1.
         21    1    1    2  503  504 -0.86147846301E+02 -0.11142231016E+03  0.11978803275E+03  0.18489336228E+03  0.00000000000E+00 0.  1.
         21    1    1    2  504  501 -0.14886889086E+02 -0.50714259544E+02  0.12415506383E+03  0.13493715375E+03  0.00000000000E+00 0.  1.
         21    1    1    2  505  502  0.36766588704E+02  0.90765419235E+02  0.45290617381E+02  0.10789524270E+03  0.00000000000E+00 0. -1.
         -1    1    1    2    0  505  0.64268146683E+02  0.71371150468E+02 -0.10569991082E+03  0.14281704011E+03  0.00000000000E+00 0. -1.
<scales pt_clust_3="48.57321" pt_clust_4="48.57321" pt_clust_5="139.52807" pt_clust_6="96.04289"></scales>
<clustering>
<clus scale="   48.573">  3  4 -1 -1</clus>
<clus scale="   96.043">  2  6  1 -1</clus>
<clus scale="  139.528">  1  5  2 -1</clus>
<clus scale="  139.528">  1  3  2 -1</clus>
</clustering>
</event>
<event>
 6    0  0.5775861E+002  0.9940593E+02  0.7546771E-02  0.1281550E+00
         21   -1    0    0  503  502  0.00000000000E+00  0.00000000000E+00  0.95906225694E+02  0.95906225694E+02  0.00000000000E+00 0.  1.
          2   -1    0    0  505    0 -0.00000000000E+00 -0.00000000000E+00 -0.16313386053E+04  0.16313386053E+04  0.00000000000E+00 0.  1.
         21    1    1    2  503  501  0.45186747798E+02 -0.11065536072E+03 -0.51848975252E+03  0.53208840854E+03  0.00000000000E+00 0.  1.
         21    1    1    2  504  502  0.85671889172E-02  0.98779085883E+02  0.59173364287E+02  0.11514684070E+03  0.00000000000E+00 0.  1.
         21    1    1    2  505  504 -0.23945427874E+02  0.36628522967E+02 -0.29656560612E+03  0.29977690195E+03  0.00000000000E+00 0.  1.
          2    1    1    2  501    0 -0.21249887112E+02 -0.24752248132E+02 -0.77955038530E+03  0.78023267986E+03  0.00000000000E+00 0.  1.
<scales pt_clust_3="14000.00000" pt_clust_4="99.40593" pt_clust_5="42.03487" pt_clust_6="32.62256"></scales>
<clustering>
<clus scale="   32.623">  2  6  1 -1</clus>
<clus scale="   42.035">  2  5  1 -1</clus>
<clus scale="   99.406">  1  4  2 -1</clus>
<clus scale="   99.406">  1  3  2 -1</clus>
</clustering>
</event>
<event>
 6    0  0.5775861E+002  0.8294741E+02  0.7546771E-02  0.1320889E+00
         21   -1    0    0  503  502  0.00000000000E+00  0.00000000000E+00  0.14496482064E+04  0.14496482064E+04  0.00000000000E+00 0. -1.
          3   -1    0    0  504    0 -0.00000000000E+00 -0.00000000000E+00 -0.83056341946E+03  0.83056341946E+03  0.00000000000E+00 0. -1.
         21    1    1    2  503  505  0.50489586834E+02 -0.64217028132E+02  0.27979340408E+03  0.29147448267E+03  0.00000000000E+00 0. -1.
         21    1    1    2  504  502  0.89200735120E+01  0.47671880029E+02  0.11204170450E+04  0.11214662413E+04  0.00000000000E+00 0. -1.
         21    1    1    2  505  501  0.44879758874E+01  0.72125453068E+02  0.88176717705E+01  0.72800921994E+02  0.00000000000E+00 0. -1.
          3    1    1    2  501    0 -0.63897636233E+02 -0.55580304964E+02 -0.78994333385E+03  0.79446997987E+03  0.00000000000E+00 0. -1.
<scales pt_clust_3="62.54169" pt_clust_4="48.49924" pt_clust_5="82.94741" pt_clust_6="14000.00000"></scales>
<clustering>
<clus scale="   48.499">  1  4  2 -1</clus>
<clus scale="   62.542">  1  3  2 -1</clus>
<clus scale="   82.947">  1  5  2 -1</clus>
<clus scale="   48.499">  1  3  2 -1</clus>
</clustering>
</event>
<event>
 6    0  0.5775861E+002  0.1031209E+03  0.7546771E-02  0.1273867E+00
          2   -1    0    0  504    0 -0.00000000000E+00  0.00000000000E+00  0.82223699252E+03  0.82223699252E+03  0.00000000000E+00 0.  1.
         21   -1    0    0  503  502  0.00000000000E+00 -0.00000000000E+00 -0.15676198569E+03  0.15676198569E+03  0.00000000000E+00 0. -1.
         21    1    1    2  503  501  0.21933058992E+02  0.41661205822E+02  0.26345183074E+02  0.53951680405E+02  0.00000000000E+00 0.  1.
         21    1    1    2  504  505  0.54010530856E+02 -0.16608409466E+02  0.13299896023E+03  0.14450501767E+03  0.00000000000E+00 0.  1.
         21    1    1    2  505  502 -0.38648027825E+02  0.64720500949E+02 -0.12282810133E+03  0.14411507824E+03  0.00000000000E+00 0. -1.
          2    1    1    2  501    0 -0.37295562023E+02 -0.89773297304E+02  0.62895896485E+03  0.63642720190E+03  0.00000000000E+00 0.  1.
<scales pt_clust_3="47.08200" pt_clust_4="56.88779" pt_clust_5="14000.00000" pt_clust_6="103.12089"></scales>
<clustering>
<clus scale="   47.082">  2  3  1 -1</clus>
<clus scale="   56.888">  1  4  2 -1</clus>
<clus scale="  103.121">  1  6  2 -1</clus>
<clus scale="   47.082">  2  3  1 -1</clus>
</clustering>
</event>
<event>
 6    0  0.5775861E+002  0.8724550E+02  0.7546771E-02  0.1309663E+00
          2   -1    0    0  503    0 -0.00000000000E+00  0.00000000000E+00  0.24777624006E+04  0.24777624006E+04  0.00000000000E+00 0. -1.
         21   -1    0    0  505  502  0.00000000000E+00 -0.00000000000E+00 -0.45559197860E+02  0.45559197860E+02  0.00000000000E+00 0. -1.
         21    1    1    2  503  502  0.24864622877E+02  0.50521037536E+02  0.12602348680E+02  0.57701333579E+02  0.00000000000E+00 0. -1.
         21    1    1    2  504  501  0.12857497074E+03 -0.32744499952E+02  0.74028941415E+03  0.75208519602E+03  0.00000000000E+00 0. -1.
         21    1    1    2  505  504 -0.77692811434E+02  0.16423639143E+02  0.82306386292E+02  0.11436892102E+03  0.00000000000E+00 0. -1.
          2    1    1    2  501    0 -0.75746782179E+02 -0.34200176727E+02  0.15970050536E+04  0.15991661478E+04  0.00000000000E+00 0. -1.
<scales pt_clust_3="56.30830" pt_clust_4="87.24550" pt_clust_5="79.43126" pt_clust_6="14000.00000"></scales>
<clustering>
<clus scale="   56.308">  2  3  1 -1</clus>
<clus scale="   79.431">  2  5  1 -1</clus>
<clus scale="   87.245">  2  4  1 -1</clus>
<clus scale="   56.308">  2  3  1 -1</clus>
</clustering>
</event>
<event>
 6    0  0.5775861E+002  0.1041766E+03  0.7546771E-02  0.1271750E+00
         21   -1    0    0  503  502  0.00000000000E+00  0.00000000000E+00  0.76060963510E+03  0.76060963510E+03  0.00000000000E+00 0. -1.
         -4   -1    0    0    0  501 -0.00000000000E+00 -0.00000000000E+00 -0.28670634250E+03  0.28670634250E+03  0.00000000000E+00 0. -1.
         21    1    1    2  503  501  0.23997766262E+02 -0.24224709685E+02  0.23508812102E+03  0.23754821403E+03  0.00000000000E+00 0. -1.
         21    1    1    2  504  505 -0.13150836889E+02 -0.75141335622E+02 -0.12939417275E+03  0.15020658032E+03  0.00000000000E+00 0. -1.
         21    1    1    2  505  502 -0.58215302924E+02  0.12363204233E+03  0.49951997999E+03  0.51787461204E+03  0.00000000000E+00 0. -1.
         -4    1    1    2    0  504  0.47368373551E+02 -0.24265997027E+02 -0.13131063566E+03  0.14168657121E+03  0.00000000000E+00 0. -1.
<scales pt_clust_3="34.09882" pt_clust_4="104.17660" pt_clust_5="14000.00000" pt_clust_6="53.54293"></scales>
<clustering>
<clus scale="   34.099">  1  3  2 -1</clus>
<clus scale="   53.543">  2  6  1 -1</clus>
<clus scale="  104.177">  2  4  1 -1</clus>
<clus scale="   34.099">  1  3  2 -1</clus>
</clustering>
</event>
<event>
 6    0  0.5775861E+002  0.1831030E+03  0.7546771E-02  0.1164833E+00
          2   -1    0    0  503    0 -0.00000000000E+00  0.00000000000E+00  0.77406735776E+03  0.77406735776E+03  0.00000000000E+00 0. -1.
         21   -1    0    0  501  502  0.00000000000E+00 -0.00000000000E+00 -0.56417581906E+03  0.56417581906E+03  0.00000000000E+00 0. -1.
         21    1    1    2  503  505 -0.96575687642E+02  0.15939180559E+03  0.32760775402E+02  0.18922441580E+03  0.00000000000E+00 0. -1.
         21    1    1    2  504  502 -0.12555052768E+02 -0.32351445772E+02 -0.33120234517E+03  0.33301537328E+03  0.00000000000E+00 0. -1.
         21    1    1    2  505  504  0.83962411126E+02 -0.14870592365E+03 -0.10585447110E+03  0.20091865833E+03  0.00000000000E+00 0. -1.
          2    1    1    2  501    0  0.25168329284E+02  0.21665563835E+02  0.61418757957E+03  0.61508472941E+03  0.00000000000E+00 0. -1.
<scales pt_clust_3="14000.00000" pt_clust_4="34.53573" pt_clust_5="183.10299" pt_clust_6="33.20906"></scales>
<clustering>
<clus scale="   33.209">  1  6  2 -1</clus>
<clus scale="   34.536">  2  4  1 -1</clus>
<clus scale="  183.103">  2  5  1 -1</clus>
<clus scale="   34.536">  2  3  1 -1</clus>
</clustering>
</event>
<event>
 6    0  0.5775861E+002  0.1222901E+03  0.7546771E-02  0.1239366E+00
          2   -1    0    0  503    0 -0.00000000000E+00  0.00000000000E+00  0.20942951179E+04  0.20942951179E+04  0.00000000000E+00 0.  1.
         21   -1    0    0  505  502  0.00000000000E+00 -0.00000000000E+00 -0.12050792875E+03  0.12050792875E+03  0.00000000000E+00 0.  1.
         21    1    1    2  503  502  0.53010400014E+02  0.10746003815E+03 -0.75642183853E+02  0.14170216049E+03  0.00000000000E+00 0.  1.
         21    1    1    2  504  501 -0.54430224273E+02 -0.21119465808E+02  0.19468988792E+03  0.20325558691E+03  0.00000000000E+00 0.  1.
         21    1    1    2  505  504 -0.36874348275E+02 -0.21656720070E+02  0.60806653785E+02  0.74338282395E+02  0.00000000000E+00 0.  1.
          2    1    1    2  501    0  0.38294172534E+02 -0.64683852273E+02  0.17939328313E+04  0.17955070168E+04  0.00000000000E+00 0.  1.
<scales pt_clust_3="115.50465" pt_clust_4="34.37808" pt_clust_5="34.37808" pt_clust_6="75.16944"></scales>
<clustering>
<clus scale="   34.378">  4  5 -1 -1</clus>
<clus scale="   75.169">  1  6  2 -1</clus>
<clus scale="  115.505">  2  3  1 -1</clus>
<clus scale="  115.505">  2  3  1 -1</clus>
</clustering>
</event>
<event>
 6    0  0.5775861E+002  0.1147673E+03  0.7546771E-02  0.1251988E+00
         21   -1    0    0  501  502  0.00000000000E+00  0.00000000000E+00  0.40652951682E+03  0.40652951682E+03  0.00000000000E+00 0.  1.
          2   -1    0    0  505    0 -0.00000000000E+00 -0.00000000000E+00 -0.17816265311E+04  0.17816265311E+04  0.00000000000E+00 0.  1.
         21    1    1    2  503  504  0.40897533422E+02  0.72796895653E+02  0.53225326474E+02  0.99019854751E+02  0.00000000000E+00 0.  1.
         21    1    1    2  504  502 -0.28570414431E+02 -0.14058889868E+02  0.29298675087E+03  0.29471199017E+03  0.00000000000E+00 0.  1.
         21    1    1    2  505  503  0.51497115311E+02  0.21034755002E+02  0.12985621313E+02  0.57123026568E+02  0.00000000000E+00 0.  1.
          2    1    1    2  501    0 -0.63824234302E+02 -0.79772760787E+02 -0.17342947130E+04  0.17373011765E+04  0.00000000000E+00 0.  1.
<scales pt_clust_3="42.62083" pt_clust_4="31.84213" pt_clust_5="42.62083" pt_clust_6="102.54747"></scales>
<clustering>
<clus scale="   31.842">  1  4  2 -1</clus>
<clus scale="   42.621">  3  5 -1 -1</clus>
<clus scale="  102.547">  2  6  1 -1</clus>
<clus scale="   31.842">  1  3  2 -1</clus>
</clustering>
</event>
<event>
 6    0  0.5775861E+002  0.6256862E+02  0.7546771E-02  0.1387358E+00
         21   -1    0    0  503  502  0.00000000000E+00  0.00000000000E+00  0.24609122129E+03  0.24609122129E+03  0.00000000000E+00 0. -1.
          2   -1    0    0  504    0 -0.00000000000E+00 -0.00000000000E+00 -0.13857118258E+04  0.13857118258E+04  0.00000000000E+00 0.  1.
         21    1    1    2  503  501 -0.54893040583E+02  0.24886403408E+02  0.19892318466E+03  0.20785334343E+03  0.00000000000E+00 0. -1.
         21    1    1    2  504  505  0.29869578387E+02 -0.23707995027E+02 -0.16249781826E+03  0.16691255698E+03  0.00000000000E+00 0. -1.
         21    1    1    2  505  502  0.90214301075E+02 -0.18955919569E+02 -0.14251630760E+02  0.93279451030E+02  0.00000000000E+00 0.  1.
          2    1    1    2  501    0 -0.65190838878E+02  0.17777511189E+02 -0.11617943401E+04  0.11637576956E+04  0.00000000000E+00 0.  1.
<scales pt_clust_3="62.56862" pt_clust_4="38.13477" pt_clust_5="14000.00000" pt_clust_6="37.05792"></scales>
<clustering>
<clus scale="   38.135">  2  4  1 -1</clus>
<clus scale="   37.058">  2  6  1 -1</clus>
<clus scale="   62.569">  1  3  2 -1</clus>
<clus scale="   62.569">  1  3  2 -1</clus>
</clustering>
</event>
<event>
 6    0  0.5775861E+002  0.1346152E+03  0.7546771E-02  0.1220764E+00
         21   -1    0    0  505  502  0.00000000000E+00  0.00000000000E+00  0.21521498154E+04  0.21521498154E+04  0.00000000000E+00 0. -1.
         -1   -1    0    0    0  501 -0.00000000000E+00 -0.00000000000E+00 -0.76322841698E+02  0.76322841698E+02  0.00000000000E+00 0.  1.
         21    1    1    2  503  504  0.10387840777E+03 -0.24520089492E+02  0.17089873953E+04  0.17123171072E+04  0.00000000000E+00 0. -1.
         21    1    1    2  504  501 -0.12903276649E+03 -0.59618172953E+02  0.11547370474E+03  0.18313371579E+03  0.00000000000E+00 0.  1.
         21    1    1    2  505  503  0.33137121199E+02  0.42666895003E+02  0.27792843538E+03  0.28313026670E+03  0.00000000000E+00 0. -1.
         -1    1    1    2    0  502 -0.79827624815E+01  0.41471367443E+02 -0.26562561691E+02  0.49891567404E+02  0.00000000000E+00 0.  1.
<scales pt_clust_3="14000.00000" pt_clust_4="134.61517" pt_clust_5="55.96730" pt_clust_6="42.23267"></scales>
<clustering>
<clus scale="   42.233">  2  6  1 -1</clus>
<clus scale="   55.967">  1  5  2 -1</clus>
<clus scale="  134.615">  2  4  1 -1</clus>
<clus scale="   55.967">  1  3  2 -1</clus>
</clustering>
</event>
<event>
 6    0  0.5775861E+002  0.1088983E+03  0.7546771E-02  0.1262624E+00
         21   -1    0    0  505  502  0.00000000000E+00  0.00000000000E+00  0.18370923131E+02  0.18370923131E+02  0.00000000000E+00 0. -1.
          2   -1    0    0  504    0 -0.00000000000E+00 -0.00000000000E+00 -0.20788103474E+04  0.20788103474E+04  0.00000000000E+00 0.  1.
         21    1    1    2  503  502  0.50960436537E+02 -0.76891833715E+02 -0.24162031000E+03  0.25863042047E+03  0.00000000000E+00 0. -1.
         21    1    1    2  504  503  0.42592316070E+02 -0.73365692772E+01 -0.97797004936E+02  0.10692139548E+03  0.00000000000E+00 0. -1.
         21    1    1    2  505  501 -0.74617582155E+01  0.46966088473E+02 -0.14057805623E+03  0.14840377756E+03  0.00000000000E+00 0. -1.
          2    1    1    2  501    0 -0.86090994391E+02  0.37262314520E+02 -0.15804440531E+04  0.15832256770E+04  0.00000000000E+00 0.  1.
<scales pt_clust_3="34.75071" pt_clust_4="34.75071" pt_clust_5="47.55514" pt_clust_6="96.33980"></scales>
<clustering>
<clus scale="   34.751">  3  4 -1 -1</clus>
<clus scale="   47.555">  1  5  2 -1</clus>
<clus scale="   96.340">  2  6  1 -1</clus>
<clus scale="   47.555">  1  3  2 -1</clus>
</clustering>
</event>
<event>
 6    0  0.5775861E+002  0.9638258E+02  0.7546771E-02  0.1288092E+00
         21   -1    0    0  503  502  0.00000000000E+00  0.00000000000E+00  0.63305689514E+03  0.63305689514E+03  0.00000000000E+00 0.  1.
          1   -1    0    0  504    0 -0.00000000000E+00 -0.00000000000E+00 -0.66934310975E+03  0.66934310975E+03  0.00000000000E+00 0. -1.
         21    1    1    2  503  505  0.12114341916E+03 -0.58524349800E+01  0.25572760653E+03  0.28303107204E+03  0.00000000000E+00 0.  1.
         21    1    1    2  504  502 -0.72749944540E+02  0.44079220274E+02  0.19264020249E+03  0.21058437669E+03  0.00000000000E+00 0.  1.
         21    1    1    2  505  501 -0.31228149879E+02 -0.70674900238E+02  0.15229721160E+03  0.17077640214E+03  0.00000000000E+00 0.  1.
          1    1    1    2  501    0 -0.17165324743E+02  0.32448114944E+02 -0.63695123523E+03  0.63800815402E+03  0.00000000000E+00 0. -1.
<scales pt_clust_3="96.38258" pt_clust_4="14000.00000" pt_clust_5="71.16420" pt_clust_6="36.70870"></scales>
<clustering>
<clus scale="   36.709">  2  6  1 -1</clus>
<clus scale="   71.164">  2  5  1 -1</clus>
<clus scale="   96.383">  2  3  1 -1</clus>
<clus scale="   96.383">  1  3  2 -1</clus>
</clustering>
</event>
<event>
 6    0  0.5775861E+002  0.9045057E+02  0.7546771E-02  0.1301764E+00
         21   -1    0    0  503  502  0.00000000000E+00  0.00000000000E+00  0.37848872123E+03  0.37848872123E+03  0.00000000000E+00 0.  1.
          2   -1    0    0  505    0 -0.00000000000E+00 -0.00000000000E+00 -0.27900533801E+04  0.27900533801E+04  0.00000000000E+00 0.  1.
         21    1    1    2  503  501  0.83401959407E+02  0.35721451772E+02  0.36188256252E+03  0.37308296397E+03  0.00000000000E+00 0.  1.
         21    1    1    2  504  502 -0.85300719637E+02 -0.22887584349E+01 -0.21235817437E+03  0.22886119245E+03  0.00000000000E+00 0.  1.
         21    1    1    2  505  504 -0.32075609934E+02 -0.48515035131E+02 -0.32262759965E+03  0.32782788387E+03  0.00000000000E+00 0.  1.
          2    1    1    2  501    0  0.33974370163E+02  0.15082341794E+02 -0.22384614474E+04  0.22387700611E+04  0.00000000000E+00 0.  1.
<scales pt_clust_3="90.45057" pt_clust_4="14000.00000" pt_clust_5="41.40823" pt_clust_6="37.17169"></scales>
<clustering>
<clus scale="   37.172">  2  6  1 -1</clus>
<clus scale="   41.408">  2  5  1 -1</clus>
<clus scale="   90.451">  1  3  2 -1</clus>
<clus scale="   90.451">  1  3  2 -1</clus>
</clustering>
</event>
<event>
 6    0  0.5775861E+002  0.1059189E+03  0.7546771E-02  0.1268320E+00
         21   -1    0    0  505  502  0.00000000000E+00  0.00000000000E+00  0.20301860064E+04  0.20301860064E+04  0.00000000000E+00 0. -1.
          4   -1    0    0  503    0 -0.00000000000E+00 -0.00000000000E+00 -0.21620136262E+03  0.21620136262E+03  0.00000000000E+00 0.  1.
         21    1    1    2  503  502 -0.51010240410E+02 -0.23310997086E+02  0.26305976803E+03  0.26897191074E+03  0.00000000000E+00 0. -1.
         21    1    1    2  504  501 -0.84985827133E+02  0.28990915295E+02  0.12765298282E+03  0.15607161179E+03  0.00000000000E+00 0. -1.
         21    1    1    2  505  504  0.10587758202E+03 -0.78829754857E+02  0.16116410784E+04  0.16170377726E+04  0.00000000000E+00 0. -1.
          4    1    1    2  501    0  0.30118485523E+02  0.73149836648E+02 -0.18836918547E+03  0.20430607384E+03  0.00000000000E+00 0.  1.
<scales pt_clust_3="56.08429" pt_clust_4="14000.00000" pt_clust_5="105.91890" pt_clust_6="78.92277"></scales>
<clustering>
<clus scale="   56.084">  1  3  2 -1</clus>
<clus scale="   78.923">  2  6  1 -1</clus>
<clus scale="  105.919">  1  5  2 -1</clus>
<clus scale="   56.084">  1  3  2 -1</clus>
</clustering>
</event>
<event>
 6    0  0.5775861E+002  0.2959765E+03  0.7546771E-02  0.1087269E+00
         21   -1    0    0  505  502  0.00000000000E+00  0.00000000000E+00  0.32384140551E+03  0.32384140551E+03  0.00000000000E+00 0. -1.
          4   -1    0    0  503    0 -0.00000000000E+00 -0.00000000000E+00 -0.34553480278E+04  0.34553480278E+04  0.00000000000E+00 0.  1.
         21    1    1    2  503  504  0.45123612180E+02  0.47165024211E+02 -0.64306767780E+03  0.64637196576E+03  0.00000000000E+00 0. -1.
         21    1    1    2  504  502  0.48969073691E+02  0.79047237769E+02 -0.27923568943E+03  0.29431107052E+03  0.00000000000E+00 0.  1.
         21    1    1    2  505  501  0.14268576235E+03 -0.26142393145E+03  0.23485417309E+03  0.37928641069E+03  0.00000000000E+00 0. -1.
          4    1    1    2  501    0 -0.23677844823E+03  0.13521166947E+03 -0.24440574281E+04  0.24592199863E+04  0.00000000000E+00 0.  1.
<scales pt_clust_3="65.27388" pt_clust_4="99.51134" pt_clust_5="14000.00000" pt_clust_6="295.97653"></scales>
<clustering>
<clus scale="   65.274">  2  3  1 -1</clus>
<clus scale="   99.511">  2  4  1 -1</clus>
<clus scale="  295.977">  2  6  1 -1</clus>
<clus scale="  295.977">  1  3  2 -1</clus>
</clustering>
</event>
<event>
 6    0  0.5775861E+002  0.1170314E+03  0.7546771E-02  0.1248076E+00
         -2   -1    0    0    0  501 -0.00000000000E+00  0.00000000000E+00  0.34051269024E+04  0.34051269024E+04  0.00000000000E+00 0. -1.
         21   -1    0    0  503  502  0.00000000000E+00 -0.00000000000E+00 -0.58641715634E+02  0.58641715634E+02  0.00000000000E+00 0.  1.
         21    1    1    2  503  504 -0.43649981093E+02  0.13579766549E+02  0.85846627980E+02  0.97259315464E+02  0.00000000000E+00 0. -1.
         21    1    1    2  504  501  0.99236727451E+02 -0.11406502442E+03  0.25191300690E+04  0.25236630247E+04  0.00000000000E+00 0. -1.
         21    1    1    2  505  502  0.17789480249E+02  0.10133678448E+03  0.53350809973E+01  0.10302462126E+03  0.00000000000E+00 0.  1.
         -2    1    1    2    0  505 -0.73376226607E+02 -0.85152660926E+00  0.73617340881E+03  0.73982165660E+03  0.00000000000E+00 0. -1.
<scales pt_clust_3="45.71357" pt_clust_4="117.03145" pt_clust_5="14000.00000" pt_clust_6="74.88136"></scales>
<clustering>
<clus scale="   45.714">  2  3  1 -1</clus>
<clus scale="   74.881">  1  6  2 -1</clus>
<clus scale="  117.031">  1  4  2 -1</clus>
<clus scale="   45.714">  2  3  1 -1</clus>
</clustering>
</event>
<event>
 6    0  0.5775861E+002  0.1191532E+03  0.7546771E-02  0.1244501E+00
         -1   -1    0    0    0  501 -0.00000000000E+00  0.00000000000E+00  0.38244821567E+03  0.38244821567E+03  0.00000000000E+00 0.  1.
         21   -1    0    0  503  502  0.00000000000E+00 -0.00000000000E+00 -0.49703809371E+03  0.49703809371E+03  0.00000000000E+00 0. -1.
         21    1    1    2  503  501 -0.62264537273E+02  0.32367396804E+01 -0.94117457070E+01  0.63054976353E+02  0.00000000000E+00 0. -1.
         21    1    1    2  504  502 -0.56206407004E+02  0.10503267678E+03 -0.40402309858E+03  0.42121928680E+03  0.00000000000E+00 0. -1.
         21    1    1    2  505  504  0.10534324605E+03 -0.77796882513E+02  0.43902420795E+02  0.13811943009E+03  0.00000000000E+00 0.  1.
         -1    1    1    2    0  505  0.13127698228E+02 -0.30472533944E+02  0.25494254546E+03  0.25709261614E+03  0.00000000000E+00 0.  1.
<scales pt_clust_3="59.56708" pt_clust_4="14000.00000" pt_clust_5="119.15316" pt_clust_6="33.17999"></scales>
<clustering>
<clus scale="   33.180">  1  6  2 -1</clus>
<clus scale="   59.567">  1  3  2 -1</clus>
<clus scale="  119.153">  1  5  2 -1</clus>
<clus scale="  119.153">  2  3  1 -1</clus>
</clustering>
</event>
<event>
 6    0  0.5775861E+002  0.7707535E+02  0.7546771E-02  0.1337562E+00
          2   -1    0    0  504    0 -0.00000000000E+00  0.00000000000E+00  0.28144365300E+04  0.28144365300E+04  0.00000000000E+00 0.  1.
         21   -1    0    0  505  502  0.00000000000E+00 -0.00000000000E+00 -0.26682974439E+02  0.26682974439E+02  0.00000000000E+00 0. -1.
         21    1    1    2  503  501  0.50779870886E+02  0.27251500393E+02  0.54586588482E+03  0.54889962996E+03  0.00000000000E+00 0.  1.
         21    1    1    2  504  502 -0.97293977197E+02  0.53638878460E+02  0.13873621888E+03  0.17773853186E+03  0.00000000000E+00 0. -1.
         21    1    1    2  505  503  0.10301741657E+02 -0.51868497471E+02  0.12424328509E+03  0.13502911094E+03  0.00000000000E+00 0. -1.
          2    1    1    2  501    0  0.36212364654E+02 -0.29021881383E+02  0.19789081668E+04  0.19794522317E+04  0.00000000000E+00 0.  1.
<scales pt_clust_3="14000.00000" pt_clust_4="77.07535" pt_clust_5="58.57825" pt_clust_6="46.40695"></scales>
<clustering>
<clus scale="   46.407">  1  6  2 -1</clus>
<clus scale="   58.578">  2  5  1 -1</clus>
<clus scale="   77.075">  2  4  1 -1</clus>
<clus scale="   58.578">  2  3  1 -1</clus>
</clustering>
</event>
<event>
 6    0  0.5775861E+002  0.1355349E+03  0.7546771E-02  0.1219467E+00
         -2   -1    0    0    0  501 -0.00000000000E+00  0.00000000000E+00  0.27086688903E+03  0.27086688903E+03  0.00000000000E+00 0. -1.
         21   -1    0    0  503  502  0.00000000000E+00 -0.00000000000E+00 -0.40358367811E+03  0.40358367811E+03  0.00000000000E+00 0.  1.
         21    1    1    2  503  501 -0.45075426294E+02  0.27145469252E+02 -0.21562582294E+03  0.22195307179E+03  0.00000000000E+00 0.  1.
         21    1    1    2  504  505 -0.16941513500E+02  0.69749721915E+02 -0.10133749583E+03  0.12418263424E+03  0.00000000000E+00 0.  1.
         21    1    1    2  505  502 -0.47368472427E+02 -0.39164221751E+01 -0.39952034068E+02  0.62090865422E+02  0.00000000000E+00 0.  1.
         -2    1    1    2    0  504  0.10938541222E+03 -0.92978768992E+02  0.22419856376E+03  0.26622399569E+03  0.00000000000E+00 0. -1.
<scales pt_clust_3="135.53492" pt_clust_4="75.64201" pt_clust_5="47.53010" pt_clust_6="14000.00000"></scales>
<clustering>
<clus scale="   47.530">  2  5  1 -1</clus>
<clus scale="   75.642">  2  4  1 -1</clus>
<clus scale="  135.535">  2  3  1 -1</clus>
<clus scale="   47.530">  2  3  1 -1</clus>
</clustering>
</event>
<event>
 6    0  0.5775861E+002  0.2470675E+03  0.7546771E-02  0.1115172E+00
          1   -1    0    0  505    0 -0.00000000000E+00  0.00000000000E+00  0.13696602629E+04  0.13696602629E+04  0.00000000000E+00 0.  1.
         21   -1    0    0  504  502  0.00000000000E+00 -0.00000000000E+00 -0.62955405898E+03  0.62955405898E+03  0.00000000000E+00 0. -1.
         21    1    1    2  503  502  0.22395371363E+02  0.20928491292E+03 -0.49162621068E+03  0.53478786304E+03  0.00000000000E+00 0. -1.
         21    1    1    2  504  501 -0.86301612185E+02  0.31625324176E+02 -0.63065147364E+02  0.11146901905E+03  0.00000000000E+00 0. -1.
         21    1    1    2  505  503  0.13676705873E+03 -0.22967914056E+03  0.63386761108E+03  0.68792869132E+03  0.00000000000E+00 0.  1.
          1    1    1    2  501    0 -0.72860817908E+02 -0.11231096534E+02  0.66092995087E+03  0.66502874846E+03  0.00000000000E+00 0.  1.
<scales pt_clust_3="14000.00000" pt_clust_4="94.13220" pt_clust_5="247.06754" pt_clust_6="73.72134"></scales>
<clustering>
<clus scale="   73.721">  1  6  2 -1</clus>
<clus scale="   94.132">  2  4  1 -1</clus>
<clus scale="  247.068">  1  5  2 -1</clus>
<clus scale="   94.132">  2  3  1 -1</clus>
</clustering>
</event>
<event>
 6    0  0.5775861E+002  0.1269326E+03  0.7546771E-02  0.1232079E+00
          1   -1    0    0  503    0 -0.00000000000E+00  0.00000000000E+00  0.13581175820E+04  0.13581175820E+04  0.00000000000E+00 0. -1.
         21   -1    0    0  504  502  0.00000000000E+00 -0.00000000000E+00 -0.14111496215E+03  0.14111496215E+03  0.00000000000E+00 0. -1.
         21    1    1    2  503  505 -0.44627221401E+02 -0.12952044694E+03  0.17891017836E+03  0.22533527683E+03  0.00000000000E+00 0. -1.
         21    1    1    2  504  501  0.40376024016E+01  0.91380330426E+02 -0.78498050519E+02  0.12053468778E+03  0.00000000000E+00 0. -1.
         21    1    1    2  505  502  0.64902904323E+01  0.44274669145E+02  0.95190567049E+01  0.45749127187E+02  0.00000000000E+00 0. -1.
          1    1    1    2  501    0  0.34099328567E+02 -0.61345526300E+01  0.11070714353E+04  0.11076134523E+04  0.00000000000E+00 0. -1.
<scales pt_clust_3="126.93260" pt_clust_4="14000.00000" pt_clust_5="44.78686" pt_clust_6="34.64675"></scales>
<clustering>
<clus scale="   34.647">  1  6  2 -1</clus>
<clus scale="   44.787">  2  5  1 -1</clus>
<clus scale="  126.933">  1  3  2 -1</clus>
<clus scale="   44.787">  2  3  1 -1</clus>
</clustering>
</event>
<event>
 6    0  0.5775861E+002  0.7188742E+02  0.7546771E-02  0.1353790E+00
         21   -1    0    0  504  502  0.00000000000E+00  0.00000000000E+00  0.98496691643E+02  0.98496691643E+02  0.00000000000E+00 0. -1.
          2   -1    0    0  502    0 -0.00000000000E+00 -0.00000000000E+00 -0.17957301306E+04  0.17957301306E+04  0.00000000000E+00 0. -1.
         21    1    1    2  503  505  0.54393651767E+02 -0.13797021173E+02 -0.11229939730E+02  0.57228827457E+02  0.00000000000E+00 0. -1.
         21    1    1    2  504  503  0.15110848774E+02  0.28274895772E+02  0.60934172267E+02  0.68853328398E+02  0.00000000000E+00 0. -1.
         21    1    1    2  505  501 -0.11608648150E+03 -0.45163096277E+02 -0.37646129826E+03  0.39653358690E+03  0.00000000000E+00 0. -1.
          2    1    1    2  501    0  0.46581980960E+02  0.30685221678E+02 -0.13704763732E+04  0.13716110795E+04  0.00000000000E+00 0. -1.
<scales pt_clust_3="71.88742" pt_clust_4="32.05944" pt_clust_5="14000.00000" pt_clust_6="56.25677"></scales>
<clustering>
<clus scale="   32.059">  1  4  2 -1</clus>
<clus scale="   56.257">  2  6  1 -1</clus>
<clus scale="   71.887">  1  3  2 -1</clus>
<clus scale="   32.059">  1  3  2 -1</clus>
</clustering>
</event>
<event>
 6    0  0.5775861E+002  0.1430506E+03  0.7546771E-02  0.1209282E+00
          1   -1    0    0  503    0 -0.00000000000E+00  0.00000000000E+00  0.15076405404E+04  0.15076405404E+04  0.00000000000E+00 0. -1.
         21   -1    0    0  504  502  0.00000000000E+00 -0.00000000000E+00 -0.23245233644E+03  0.23245233644E+03  0.00000000000E+00 0. -1.
         21    1    1    2  503  505 -0.16640884426E+03  0.32037348857E+02  0.65333331238E+03  0.67495385933E+03  0.00000000000E+00 0. -1.
         21    1    1    2  504  501  0.15774460355E+03 -0.26653666601E+02 -0.69592331745E+02  0.17446165920E+03  0.00000000000E+00 0. -1.
         21    1    1    2  505  502 -0.17957614558E+02  0.33327210170E+02 -0.95292023551E+02  0.10253657206E+03  0.00000000000E+00 0. -1.
          1    1    1    2  501    0  0.26621855262E+02 -0.38710892426E+02  0.78673924684E+03  0.78814078621E+03  0.00000000000E+00 0. -1.
<scales pt_clust_3="14000.00000" pt_clust_4="143.05060" pt_clust_5="37.85735" pt_clust_6="46.78395"></scales>
<clustering>
<clus scale="   37.857">  2  5  1 -1</clus>
<clus scale="   46.784">  1  6  2 -1</clus>
<clus scale="  143.051">  2  4  1 -1</clus>
<clus scale="   37.857">  2  3  1 -1</clus>
</clustering>
</event>
<event>
 6    0  0.5775861E+002  0.1316949E+03  0.7546771E-02  0.1224962E+00
         21   -1    0    0  504  502  0.00000000000E+00  0.00000000000E+00  0.54941200878E+03  0.54941200878E+03  0.00000000000E+00 0. -1.
          2   -1    0    0  503    0 -0.00000000000E+00 -0.00000000000E+00 -0.71873743688E+03  0.71873743688E+03  0.00000000000E+00 0.  1.
         21    1    1    2  503  505 -0.53224844722E+02  0.76727893557E+02  0.11148208222E+02  0.94044331525E+02  0.00000000000E+00 0. -1.
         21    1    1    2  504  501  0.14492928859E+03 -0.12273659659E+03 -0.37606171491E+03  0.42129702616E+03  0.00000000000E+00 0.  1.
         21    1    1    2  505  502 -0.10469043084E+03  0.77729184601E+02  0.46412462745E+03  0.48209291869E+03  0.00000000000E+00 0. -1.
          2    1    1    2  501    0  0.12985986975E+02 -0.31720481570E+02 -0.26853654886E+03  0.27071516928E+03  0.00000000000E+00 0.  1.
<scales pt_clust_3="90.29535" pt_clust_4="131.69493" pt_clust_5="14000.00000" pt_clust_6="34.27572"></scales>
<clustering>
<clus scale="   34.276">  2  6  1 -1</clus>
<clus scale="   90.295">  2  3  1 -1</clus>
<clus scale="  131.695">  2  4  1 -1</clus>
<clus scale="  131.695">  1  3  2 -1</clus>
</clustering>
</event>
<event>
 6    0  0.5775861E+002  0.8723542E+02  0.7546771E-02  0.1309688E+00
          3   -1    0    0  502    0 -0.00000000000E+00  0.00000000000E+00  0.39927989248E+03  0.39927989248E+03  0.00000000000E+00 0. -1.
         21   -1    0    0  504  502  0.00000000000E+00 -0.00000000000E+00 -0.46221087865E+03  0.46221087865E+03  0.00000000000E+00 0.  1.
         21    1    1    2  503  505 -0.24116971635E+02  0.81451224605E+02 -0.94639786778E+02  0.12717161457E+03  0.00000000000E+00 0.  1.
         21    1    1    2  504  503 -0.10056236490E+02 -0.90250150671E+02 -0.23255585276E+03  0.24965664870E+03  0.00000000000E+00 0.  1.
         21    1    1    2  505  501  0.85376244032E+02  0.41135595212E+02 -0.86739969525E+02  0.12847203023E+03  0.00000000000E+00 0.  1.
          3    1    1    2  501    0 -0.51203035907E+02 -0.32336669147E+02  0.35100462289E+03  0.35619047763E+03  0.00000000000E+00 0. -1.
<scales pt_clust_3="14000.00000" pt_clust_4="87.23542" pt_clust_5="67.36257" pt_clust_6="60.55915"></scales>
<clustering>
<clus scale="   60.559">  1  6  2 -1</clus>
<clus scale="   67.363">  1  5  2 -1</clus>
<clus scale="   87.235">  2  4  1 -1</clus>
<clus scale="   87.235">  2  3  1 -1</clus>
</clustering>
</event>
<event>
 6    0  0.5775861E+002  0.1123096E+03  0.7546771E-02  0.1256352E+00
         21   -1    0    0  505  502  0.00000000000E+00  0.00000000000E+00  0.47062731937E+02  0.47062731937E+02  0.00000000000E+00 0. -1.
          2   -1    0    0  504    0 -0.00000000000E+00 -0.00000000000E+00 -0.37333866394E+04  0.37333866394E+04  0.00000000000E+00 0. -1.
         21    1    1    2  503  502 -0.27214605008E+02 -0.22570189739E+02 -0.14399932750E+03  0.14827627764E+03  0.00000000000E+00 0. -1.
         21    1    1    2  504  503 -0.53813977416E+02  0.89149300948E+02 -0.12709048335E+04  0.12751637690E+04  0.00000000000E+00 0.  1.
         21    1    1    2  505  501  0.55327680489E+02  0.51718085584E+02  0.63716111214E+01  0.76003355407E+02  0.00000000000E+00 0. -1.
          2    1    1    2  501    0  0.25700901934E+02 -0.11829719679E+03 -0.22777913576E+04  0.22810059693E+04  0.00000000000E+00 0. -1.
<scales pt_clust_3="35.35602" pt_clust_4="112.30964" pt_clust_5="43.42022" pt_clust_6="14000.00000"></scales>
<clustering>
<clus scale="   35.356">  1  3  2 -1</clus>
<clus scale="   43.420">  1  5  2 -1</clus>
<clus scale="  112.310">  1  4  2 -1</clus>
<clus scale="   35.356">  1  3  2 -1</clus>
</clustering>
</event>
<event>
 6    0  0.5775861E+002  0.9899873E+02  0.7546771E-02  0.1282416E+00
          2   -1    0    0  505    0 -0.00000000000E+00  0.00000000000E+00  0.30290837963E+04  0.30290837963E+04  0.00000000000E+00 0.  1.
         21   -1    0    0  504  502  0.00000000000E+00 -0.00000000000E+00 -0.61817830390E+02  0.61817830390E+02  0.00000000000E+00 0.  1.
         21    1    1    2  503  502 -0.21504547429E+02  0.23919885451E+02 -0.41241145206E+02  0.52301420039E+02  0.00000000000E+00 0.  1.
         21    1    1    2  504  501 -0.21397851545E+02  0.60409023716E+02  0.91362555679E+02  0.11159854290E+03  0.00000000000E+00 0.  1.
         21    1    1    2  505  503 -0.52634403053E+02 -0.41910639986E+02  0.28701293982E+03  0.29479367319E+03  0.00000000000E+00 0.  1.
          2    1    1    2  501    0  0.95536802028E+02 -0.42418269180E+02  0.26301316156E+04  0.26322079905E+04  0.00000000000E+00 0.  1.
<scales pt_clust_3="32.16530" pt_clust_4="98.99873" pt_clust_5="68.28580" pt_clust_6="14000.00000"></scales>
<clustering>
<clus scale="   32.165">  2  3  1 -1</clus>
<clus scale="   68.286">  2  5  1 -1</clus>
<clus scale="   98.999">  2  4  1 -1</clus>
<clus scale="   32.165">  2  3  1 -1</clus>
</clustering>
</event>
<event>
 6    0  0.5775861E+002  0.1354067E+03  0.7546771E-02  0.1219647E+00
         21   -1    0    0  505  502  0.00000000000E+00  0.00000000000E+00  0.91617066177E+02  0.91617066177E+02  0.00000000000E+00 0. -1.
          2   -1    0    0  504    0 -0.00000000000E+00 -0.00000000000E+00 -0.54294471780E+03  0.54294471780E+03  0.00000000000E+00 0.  1.
         21    1    1    2  503  502 -0.27533375999E+02  0.20305575210E+02 -0.22219685451E+02  0.40793597538E+02  0.00000000000E+00 0.  1.
         21    1    1    2  504  503 -0.74560112572E+02  0.67580215248E+02  0.27750749659E+02  0.10438582273E+03  0.00000000000E+00 0. -1.
         21    1    1    2  505  501  0.90506712410E+02 -0.44091659575E+02 -0.15965887880E+03  0.18874982653E+03  0.00000000000E+00 0.  1.
          2    1    1    2  501    0  0.11586776161E+02 -0.43794130883E+02 -0.29719983704E+03  0.30063253719E+03  0.00000000000E+00 0.  1.
<scales pt_clust_3="31.39650" pt_clust_4="31.39650" pt_clust_5="124.23964" pt_clust_6="45.30099"></scales>
<clustering>
<clus scale="   31.396">  3  4 -1 -1</clus>
<clus scale="   45.301">  2  6  1 -1</clus>
<clus scale="  124.240">  2  5  1 -1</clus>
<clus scale="  135.407">  1  3  2 -1</clus>
</clustering>
</event>
<event>
 6    0  0.5775861E+002  0.1408898E+03  0.7546771E-02  0.1212137E+00
          1   -1    0    0  503    0 -0.00000000000E+00  0.00000000000E+00  0.46745654699E+03  0.46745654699E+03  0.00000000000E+00 0. -1.
         21   -1    0    0  505  502  0.00000000000E+00 -0.00000000000E+00 -0.73443128840E+03  0.73443128840E+03  0.00000000000E+00 0.  1.
         21    1    1    2  503  502  0.69047663230E+02 -0.20794768595E+03 -0.99608052961E+02  0.24068980889E+03  0.00000000000E+00 0. -1.
         21    1    1    2  504  501  0.19874319989E+02  0.76696714374E+02 -0.52014828008E+02  0.94778251322E+02  0.00000000000E+00 0. -1.
         21    1    1    2  505  504  0.66861881772E+01  0.33644871609E+02 -0.47782302714E+03  0.47905274007E+03  0.00000000000E+00 0.  1.
          1    1    1    2  501    0 -0.95608171396E+02  0.97606099969E+02  0.36247116670E+03  0.38736703510E+03  0.00000000000E+00 0. -1.
<scales pt_clust_3="14000.00000" pt_clust_4="89.05053" pt_clust_5="34.30281" pt_clust_6="140.88976"></scales>
<clustering>
<clus scale="   34.303">  2  5  1 -1</clus>
<clus scale="   89.051">  2  4  1 -1</clus>
<clus scale="  140.890">  1  6  2 -1</clus>
<clus scale="   34.303">  2  3  1 -1</clus>
</clustering>
</event>
<event>
 6    0  0.5775861E+002  0.1187863E+03  0.7546771E-02  0.1245113E+00
         21   -1    0    0  503  502  0.00000000000E+00  0.00000000000E+00  0.40695995193E+03  0.40695995193E+03  0.00000000000E+00 0. -1.
         -3   -1    0    0    0  501 -0.00000000000E+00 -0.00000000000E+00 -0.26692528555E+03  0.26692528555E+03  0.00000000000E+00 0. -1.
         21    1    1    2  503  501 -0.91477201258E+02 -0.11471790478E+03  0.93837174233E+02  0.17416570069E+03  0.00000000000E+00 0. -1.
         21    1    1    2  504  502  0.29836378251E+02  0.16628268048E+02  0.23733515300E+03  0.23978049048E+03  0.00000000000E+00 0. -1.
         21    1    1    2  505  504  0.76861462192E+02  0.71190473864E+02 -0.51159276196E+02  0.11658919110E+03  0.00000000000E+00 0. -1.
         -3    1    1    2    0  505 -0.15220639186E+02  0.26899162871E+02 -0.13997838466E+03  0.14334985522E+03  0.00000000000E+00 0. -1.
<scales pt_clust_3="14000.00000" pt_clust_4="34.15650" pt_clust_5="118.78635" pt_clust_6="30.90684"></scales>
<clustering>
<clus scale="   30.907">  2  6  1 -1</clus>
<clus scale="   34.156">  1  4  2 -1</clus>
<clus scale="  118.786">  2  5  1 -1</clus>
<clus scale="   34.156">  1  3  2 -1</clus>
</clustering>
</event>
<event>
 6    0  0.5775861E+002  0.1062448E+03  0.7546771E-02  0.1267686E+00
         -4   -1    0    0    0  501 -0.00000000000E+00  0.00000000000E+00  0.16921570333E+03  0.16921570333E+03  0.00000000000E+00 0. -1.
         21   -1    0    0  505  502  0.00000000000E+00 -0.00000000000E+00 -0.10013089744E+04  0.10013089744E+04  0.00000000000E+00 0. -1.
         21    1    1    2  503  502 -0.58313590788E+02 -0.52336186374E+02 -0.96332119237E+02  0.12417499133E+03  0.00000000000E+00 0. -1.
         21    1    1    2  504  503  0.10907429998E+03  0.90604353264E+02 -0.10524693194E+03  0.17658784904E+03  0.00000000000E+00 0. -1.
         21    1    1    2  505  501 -0.45391355021E+02 -0.31881736619E+01 -0.74679812995E+03  0.74818312362E+03  0.00000000000E+00 0. -1.
         -4    1    1    2    0  504 -0.53693541666E+01 -0.35079993228E+02  0.11628391007E+03  0.12157871373E+03  0.00000000000E+00 0. -1.
<scales pt_clust_3="14000.00000" pt_clust_4="106.24476" pt_clust_5="45.61329" pt_clust_6="35.48853"></scales>
<clustering>
<clus scale="   35.489">  1  6  2 -1</clus>
<clus scale="   45.613">  2  5  1 -1</clus>
<clus scale="  106.245">  1  4  2 -1</clus>
<clus scale="   45.613">  2  3  1 -1</clus>
</clustering>
</event>
<event>
 6    0  0.5775861E+002  0.8807754E+02  0.7546771E-02  0.1307575E+00
          2   -1    0    0  504    0 -0.00000000000E+00  0.00000000000E+00  0.15694451448E+04  0.15694451448E+04  0.00000000000E+00 0. -1.
         21   -1    0    0  505  502  0.00000000000E+00 -0.00000000000E+00 -0.12852235505E+03  0.12852235505E+03  0.00000000000E+00 0. -1.
         21    1    1    2  503  501 -0.90918356198E+02 -0.14499440914E+02  0.10361258335E+03  0.13860717409E+03  0.00000000000E+00 0.  1.
         21    1    1    2  504  502  0.84566770778E+02  0.30840505556E+02  0.89753738360E+02  0.12711573094E+03  0.00000000000E+00 0.  1.
         21    1    1    2  505  503  0.24954066140E+02  0.18813146541E+02 -0.89395811571E+02  0.94700850187E+02  0.00000000000E+00 0. -1.
          2    1    1    2  501    0 -0.18602480720E+02 -0.35154211183E+02  0.13369522796E+04  0.13375437446E+04  0.00000000000E+00 0. -1.
<scales pt_clust_3="14000.00000" pt_clust_4="88.07754" pt_clust_5="31.25124" pt_clust_6="39.54343"></scales>
<clustering>
<clus scale="   31.251">  2  5  1 -1</clus>
<clus scale="   39.543">  1  6  2 -1</clus>
<clus scale="   88.078">  1  4  2 -1</clus>
<clus scale="   31.251">  2  3  1 -1</clus>
</clustering>
</event>
<event>
 6    0  0.5775861E+002  0.7572777E+02  0.7546771E-02  0.1341632E+00
         -2   -1    0    0    0  501 -0.00000000000E+00  0.00000000000E+00  0.30558199477E+04  0.30558199477E+04  0.00000000000E+00 0.  1.
         21   -1    0    0  503  502  0.00000000000E+00 -0.00000000000E+00 -0.86018696853E+02  0.86018696853E+02  0.00000000000E+00 0. -1.
         21    1    1    2  503  501 -0.22800608358E+02  0.64593937882E+02  0.54813681877E+02  0.87731318659E+02  0.00000000000E+00 0. -1.
         21    1    1    2  504  502  0.33337965905E+02 -0.29021913488E+02 -0.19535421594E+02  0.48325191465E+02  0.00000000000E+00 0. -1.
         21    1    1    2  505  504 -0.79197040920E+02 -0.34498402589E+01  0.95707297149E+01  0.79847802447E+02  0.00000000000E+00 0. -1.
         -2    1    1    2    0  505  0.68659683373E+02 -0.32122184135E+02  0.29249522608E+04  0.29259343319E+04  0.00000000000E+00 0.  1.
<scales pt_clust_3="56.76484" pt_clust_4="44.20058" pt_clust_5="75.72777" pt_clust_6="14000.00000"></scales>
<clustering>
<clus scale="   44.201">  2  4  1 -1</clus>
<clus scale="   56.765">  2  3  1 -1</clus>
<clus scale="   75.728">  2  5  1 -1</clus>
<clus scale="   44.201">  2  3  1 -1</clus>
</clustering>
</event>
<event>
 6    0  0.5775861E+002  0.7041571E+02  0.7546771E-02  0.1358685E+00
          2   -1    0    0  504    0 -0.00000000000E+00  0.00000000000E+00  0.20900844589E+04  0.20900844589E+04  0.00000000000E+00 0.  1.
         21   -1    0    0  505  502  0.00000000000E+00 -0.00000000000E+00 -0.16869150127E+03  0.16869150127E+03  0.00000000000E+00 0.  1.
         21    1    1    2  503  502 -0.37836432877E+02 -0.85155295430E+01 -0.15917906416E+02  0.41922424082E+02  0.00000000000E+00 0.  1.
         21    1    1    2  504  503 -0.11057387650E+03 -0.33256028670E+01  0.28257686280E+03  0.30345893493E+03  0.00000000000E+00 0.  1.
         21    1    1    2  505  501  0.10165467206E+03  0.15137653628E+02 -0.10855127931E+03  0.14948645807E+03  0.00000000000E+00 0.  1.
          2    1    1    2  501    0  0.46755637315E+02 -0.32965212175E+01  0.17632852806E+04  0.17639081431E+04  0.00000000000E+00 0.  1.
<scales pt_clust_3="38.78286" pt_clust_4="70.41571" pt_clust_5="14000.00000" pt_clust_6="46.78895"></scales>
<clustering>
<clus scale="   38.783">  2  3  1 -1</clus>
<clus scale="   46.789">  1  6  2 -1</clus>
<clus scale="   70.416">  1  4  2 -1</clus>
<clus scale="   38.783">  2  3  1 -1</clus>
</clustering>
</event>
<event>
 6    0  0.5775861E+002  0.8333493E+02  0.7546771E-02  0.1319845E+00
          2   -1    0    0  504    0 -0.00000000000E+00  0.00000000000E+00  0.53180191000E+03  0.53180191000E+03  0.00000000000E+00 0. -1.
         21   -1    0    0  505  502  0.00000000000E+00 -0.00000000000E+00 -0.27501037424E+03  0.27501037424E+03  0.00000000000E+00 0.  1.
         21    1    1    2  503  502 -0.52001940277E+02 -0.39444497796E+02 -0.56251894897E+02  0.86164644016E+02  0.00000000000E+00 0.  1.
         21    1    1    2  504  503 -0.21769591015E+02  0.11909072951E+03  0.55591769265E+02  0.13321772314E+03  0.00000000000E+00 0.  1.
         21    1    1    2  505  501  0.70327886409E+02 -0.36501944552E+02 -0.15427557745E+03  0.17343401443E+03  0.00000000000E+00 0.  1.
          2    1    1    2  501    0  0.34436448825E+01 -0.43144287162E+02  0.41172723885E+03  0.41399590266E+03  0.00000000000E+00 0. -1.
<scales pt_clust_3="68.35677" pt_clust_4="83.33493" pt_clust_5="14000.00000" pt_clust_6="43.28150"></scales>
<clustering>
<clus scale="   43.281">  1  6  2 -1</clus>
<clus scale="   68.357">  2  3  1 -1</clus>
<clus scale="   83.335">  1  4  2 -1</clus>
<clus scale="   68.357">  2  3  1 -1</clus>
</clustering>
</event>
<event>
 6    0  0.5775861E+002  0.7769662E+02  0.7546771E-02  0.1335718E+00
         21   -1    0    0  505  502  0.00000000000E+00  0.00000000000E+00  0.10344346415E+03  0.10344346415E+03  0.00000000000E+00 0.  1.
          2   -1    0    0  503    0 -0.00000000000E+00 -0.00000000000E+00 -0.14260673443E+04  0.14260673443E+04  0.00000000000E+00 0. -1.
         21    1    1    2  503  504  0.24896819149E+01  0.40111273135E+02 -0.75909434413E+02  0.85891530324E+02  0.00000000000E+00 0. -1.
         21    1    1    2  504  502 -0.46309788811E+01  0.97953332271E+02  0.33408707938E+02  0.10359750496E+03  0.00000000000E+00 0.  1.
         21    1    1    2  505  501  0.20101488653E+02 -0.57167887798E+02 -0.34872262778E+01  0.60699242075E+02  0.00000000000E+00 0.  1.
          2    1    1    2  501    0 -0.17960191687E+02 -0.80896717608E+02 -0.12766359274E+04  0.12793225311E+04  0.00000000000E+00 0. -1.
<scales pt_clust_3="40.18847" pt_clust_4="77.69662" pt_clust_5="14000.00000" pt_clust_6="45.54217"></scales>
<clustering>
<clus scale="   40.188">  2  3  1 -1</clus>
<clus scale="   45.542">  2  6  1 -1</clus>
<clus scale="   77.697">  2  4  1 -1</clus>
<clus scale="   77.697">  1  3  2 -1</clus>
</clustering>
</event>
<event>
 6    0  0.5775861E+002  0.8418803E+02  0.7546771E-02  0.1317570E+00
         21   -1    0    0  505  502  0.00000000000E+00  0.00000000000E+00  0.12023199642E+03  0.12023199642E+03  0.00000000000E+00 0.  1.
          2   -1    0    0  503    0 -0.00000000000E+00 -0.00000000000E+00 -0.99040760877E+03  0.99040760877E+03  0.00000000000E+00 0. -1.
         21    1    1    2  503  502 -0.21717307576E+02  0.56349240561E+02 -0.97837729921E+02  0.11497434390E+03  0.00000000000E+00 0.  1.
         21    1    1    2  504  501  0.98038147897E+02 -0.78480025693E+02 -0.27720555199E+03  0.30432468012E+03  0.00000000000E+00 0.  1.
         21    1    1    2  505  504 -0.37261016741E+02  0.12978690057E+02  0.93426188642E+02  0.10141638176E+03  0.00000000000E+00 0.  1.
          2    1    1    2  501    0 -0.39059823580E+02  0.91520950744E+01 -0.58855851908E+03  0.58992419941E+03  0.00000000000E+00 0. -1.
<scales pt_clust_3="14000.00000" pt_clust_4="84.18803" pt_clust_5="39.45668" pt_clust_6="41.29253"></scales>
<clustering>
<clus scale="   39.457">  1  5  2 -1</clus>
<clus scale="   41.293">  2  6  1 -1</clus>
<clus scale="   84.188">  2  4  1 -1</clus>
<clus scale="   39.457">  1  3  2 -1</clus>
</clustering>
</event>
<event>
 6    0  0.5775861E+002  0.1489731E+03  0.7546771E-02  0.1201741E+00
         21   -1    0    0  505  502  0.00000000000E+00  0.00000000000E+00  0.37014794269E+03  0.37014794269E+03  0.00000000000E+00 0. -1.
          1   -1    0    0  504    0 -0.00000000000E+00 -0.00000000000E+00 -0.14383410202E+04  0.14383410202E+04  0.00000000000E+00 0. -1.
         21    1    1    2  503  502 -0.90355863540E+01 -0.70386846097E+02  0.73481201316E+02  0.10215398608E+03  0.00000000000E+00 0.  1.
         21    1    1    2  504  503  0.74732804477E+02  0.17901916307E+03  0.23149953579E+03  0.30203458061E+03  0.00000000000E+00 0. -1.
         21    1    1    2  505  501  0.33747438561E+02  0.15931890646E+01 -0.13238513961E+02  0.36286169717E+02  0.00000000000E+00 0. -1.
          1    1    1    2  501    0 -0.99444656684E+02 -0.11022550604E+03 -0.13599353006E+04  0.13680142265E+04  0.00000000000E+00 0. -1.
<scales pt_clust_3="70.00097" pt_clust_4="148.97313" pt_clust_5="33.78502" pt_clust_6="14000.00000"></scales>
<clustering>
<clus scale="   33.785">  1  5  2 -1</clus>
<clus scale="   70.001">  1  3  2 -1</clus>
<clus scale="  148.973">  1  4  2 -1</clus>
<clus scale="   33.785">  1  3  2 -1</clus>
</clustering>
</event>
<event>
 6    0  0.5775861E+002  0.9093740E+02  0.7546771E-02  0.1300597E+00
         21   -1    0    0  505  502  0.00000000000E+00  0.00000000000E+00  0.14288604544E+03  0.14288604544E+03  0.00000000000E+00 0.  1.
          2   -1    0    0  503    0 -0.00000000000E+00 -0.00000000000E+00 -0.21518545629E+04  0.21518545629E+04  0.00000000000E+00 0. -1.
         21    1    1    2  503  504 -0.96972710534E+01  0.33581049483E+02 -0.78093460169E+03  0.78171642944E+03  0.00000000000E+00 0. -1.
         21    1    1    2  504  502 -0.13026134865E+01 -0.59122703932E+02  0.77059237646E+01  0.59637003473E+02  0.00000000000E+00 0.  1.
         21    1    1    2  505  501  0.89820984085E+02  0.34710104357E+02  0.86096437235E+02  0.12917119273E+03  0.00000000000E+00 0.  1.
          2    1    1    2  501    0 -0.78821099545E+02 -0.91684499086E+01 -0.13218362767E+04  0.13242159826E+04  0.00000000000E+00 0. -1.
<scales pt_clust_3="34.95317" pt_clust_4="58.50537" pt_clust_5="90.93740" pt_clust_6="14000.00000"></scales>
<clustering>
<clus scale="   34.953">  2  3  1 -1</clus>
<clus scale="   58.505">  1  4  2 -1</clus>
<clus scale="   90.937">  1  5  2 -1</clus>
<clus scale="   58.505">  1  3  2 -1</clus>
</clustering>
</event>
<event>
 6    0  0.5775861E+002  0.8962267E+02  0.7546771E-02  0.1303768E+00
          2   -1    0    0  505    0 -0.00000000000E+00  0.00000000000E+00  0.30441962342E+04  0.30441962342E+04  0.00000000000E+00 0. -1.
         21   -1    0    0  503  502  0.00000000000E+00 -0.00000000000E+00 -0.23143864659E+03  0.23143864659E+03  0.00000000000E+00 0. -1.
         21    1    1    2  503  504 -0.26537115767E+02  0.18049461666E+02 -0.18372274913E+03  0.18650482602E+03  0.00000000000E+00 0. -1.
         21    1    1    2  504  501 -0.42587962970E+02  0.44503801347E+02 -0.19460025774E+02  0.64598881782E+02  0.00000000000E+00 0.  1.
         21    1    1    2  505  502  0.77443487587E+02  0.35595084127E+02  0.54465362180E+03  0.55128220679E+03  0.00000000000E+00 0. -1.
          2    1    1    2  501    0 -0.83184088492E+01 -0.98148347140E+02  0.24712867407E+04  0.24732489662E+04  0.00000000000E+00 0. -1.
<scales pt_clust_3="32.09364" pt_clust_4="89.62267" pt_clust_5="84.06926" pt_clust_6="14000.00000"></scales>
<clustering>
<clus scale="   32.094">  2  3  1 -1</clus>
<clus scale="   84.069">  1  5  2 -1</clus>
<clus scale="   89.623">  2  4  1 -1</clus>
<clus scale="   32.094">  2  3  1 -1</clus>
</clustering>
</event>
<event>
 6    0  0.5775861E+002  0.6612250E+02  0.7546771E-02  0.1373798E+00
         21   -1    0    0  505  502  0.00000000000E+00  0.00000000000E+00  0.47496827464E+02  0.47496827464E+02  0.00000000000E+00 0. -1.
          2   -1    0    0  504    0 -0.00000000000E+00 -0.00000000000E+00 -0.10004671613E+04  0.10004671613E+04  0.00000000000E+00 0. -1.
         21    1    1    2  503  501  0.24421342553E+01 -0.50763464048E+02 -0.41894325344E+03  0.42201462404E+03  0.00000000000E+00 0. -1.
         21    1    1    2  504  502 -0.34542852995E+02  0.10658167036E+03 -0.14399937461E+03  0.18245185951E+03  0.00000000000E+00 0. -1.
         21    1    1    2  505  503 -0.67101875903E+01 -0.57936119134E+02 -0.72739522464E+01  0.58775257542E+02  0.00000000000E+00 0.  1.
          2    1    1    2  501    0  0.38810906330E+02  0.21179128218E+01 -0.38275375353E+03  0.38472224766E+03  0.00000000000E+00 0. -1.
<scales pt_clust_3="57.16462" pt_clust_4="66.12250" pt_clust_5="14000.00000" pt_clust_6="38.86865"></scales>
<clustering>
<clus scale="   38.869">  2  6  1 -1</clus>
<clus scale="   57.165">  2  3  1 -1</clus>
<clus scale="   66.123">  2  4  1 -1</clus>
<clus scale="   66.123">  1  3  2 -1</clus>
</clustering>
</event>
<event>
 6    0  0.5775861E+002  0.1879550E+03  0.7546771E-02  0.1160319E+00
         21   -1    0    0  504  502  0.00000000000E+00  0.00000000000E+00  0.12030242070E+04  0.12030242070E+04  0.00000000000E+00 0.  1.
          2   -1    0    0  503    0 -0.00000000000E+00 -0.00000000000E+00 -0.56178236416E+03  0.56178236416E+03  0.00000000000E+00 0.  1.
         21    1    1    2  503  505 -0.17296650461E+03 -0.13960704522E+03  0.35395433634E+03  0.41796077687E+03  0.00000000000E+00 0.  1.
         21    1    1    2  504  501  0.16831411188E+03  0.31884449804E+02 -0.31621431091E+02  0.17420153071E+03  0.00000000000E+00 0.  1.
         21    1    1    2  505  502  0.44339363482E+01  0.56534767035E+02  0.74315788693E+03  0.74531837799E+03  0.00000000000E+00 0.  1.
          2    1    1    2  501    0  0.21845637983E+00  0.51187828377E+02 -0.42424894932E+03  0.42732588559E+03  0.00000000000E+00 0.  1.
<scales pt_clust_3="187.95501" pt_clust_4="14000.00000" pt_clust_5="57.11387" pt_clust_6="51.18829"></scales>
<clustering>
<clus scale="   51.188">  2  6  1 -1</clus>
<clus scale="   57.114">  1  5  2 -1</clus>
<clus scale="  187.955">  1  3  2 -1</clus>
<clus scale="   57.114">  1  3  2 -1</clus>
</clustering>
</event>
<event>
 6    0  0.5775861E+002  0.9688942E+02  0.7546771E-02  0.1286976E+00
         21   -1    0    0  505  502  0.00000000000E+00  0.00000000000E+00  0.51092732639E+03  0.51092732639E+03  0.00000000000E+00 0.  1.
          2   -1    0    0  503    0 -0.00000000000E+00 -0.00000000000E+00 -0.69621433226E+03  0.69621433226E+03  0.00000000000E+00 0. -1.
         21    1    1    2  503  502  0.72592369661E+01 -0.31556388395E+02 -0.27598906456E+02  0.42546466451E+02  0.00000000000E+00 0. -1.
         21    1    1    2  504  501  0.61517044925E+02  0.72704740775E+02 -0.23049733537E+02  0.97987837835E+02  0.00000000000E+00 0.  1.
         21    1    1    2  505  504 -0.95189194784E+02 -0.24976289925E+02  0.46038139007E+03  0.47078213877E+03  0.00000000000E+00 0.  1.
          2    1    1    2  501    0  0.26412912892E+02 -0.16172062455E+02 -0.59501975594E+03  0.59582521559E+03  0.00000000000E+00 0. -1.
<scales pt_clust_3="40.66010" pt_clust_4="96.88942" pt_clust_5="14000.00000" pt_clust_6="30.97059"></scales>
<clustering>
<clus scale="   30.971">  2  6  1 -1</clus>
<clus scale="   40.660">  2  3  1 -1</clus>
<clus scale="   96.889">  2  4  1 -1</clus>
<clus scale="   96.889">  1  3  2 -1</clus>
</clustering>
</event>
<event>
 6    0  0.5775861E+002  0.9404649E+02  0.7546771E-02  0.1293338E+00
          2   -1    0    0  503    0 -0.00000000000E+00  0.00000000000E+00  0.30234163035E+04  0.30234163035E+04  0.00000000000E+00 0. -1.
         21   -1    0    0  505  502  0.00000000000E+00 -0.00000000000E+00 -0.28229914356E+03  0.28229914356E+03  0.00000000000E+00 0. -1.
         21    1    1    2  503  504 -0.97465813210E+02  0.89321864734E+02  0.93787873128E+03  0.94715072446E+03  0.00000000000E+00 0.  1.
         21    1    1    2  504  502  0.10814688041E+03 -0.20744881809E+02 -0.93807220860E+02  0.14465784649E+03  0.00000000000E+00 0.  1.
         21    1    1    2  505  501 -0.44419311847E+02  0.12916967267E+02 -0.15408577746E+03  0.16087992456E+03  0.00000000000E+00 0. -1.
          2    1    1    2  501    0  0.33738244643E+02 -0.81493950192E+02  0.20511314269E+04  0.20530269515E+04  0.00000000000E+00 0. -1.
<scales pt_clust_3="14000.00000" pt_clust_4="66.25012" pt_clust_5="46.25931" pt_clust_6="94.04649"></scales>
<clustering>
<clus scale="   46.259">  2  5  1 -1</clus>
<clus scale="   66.250">  2  4  1 -1</clus>
<clus scale="   94.046">  1  6  2 -1</clus>
<clus scale="   46.259">  2  3  1 -1</clus>
</clustering>
</event>
<event>
 6    0  0.5775861E+002  0.7402923E+02  0.7546771E-02  0.1346904E+00
          1   -1    0    0  505    0 -0.00000000000E+00  0.00000000000E+00  0.79676616260E+03  0.79676616260E+03  0.00000000000E+00 0.  1.
         21   -1    0    0  503  502  0.00000000000E+00 -0.00000000000E+00 -0.10030674415E+04  0.10030674415E+04  0.00000000000E+00 0.  1.
         21    1    1    2  503  501 -0.81375912716E+02 -0.18927790373E+02 -0.70678935943E+03  0.71171026340E+03  0.00000000000E+00 0.  1.
         21    1    1    2  504  502  0.80092674706E+01  0.33346531012E+02 -0.26582607616E+03  0.26802918174E+03  0.00000000000E+00 0.  1.
         21    1    1    2  505  504  0.66903475368E+02  0.39703992557E+02  0.32589793518E+02  0.84347950081E+02  0.00000000000E+00 0.  1.
          1    1    1    2  501    0  0.64631698774E+01 -0.54122733196E+02  0.73372436316E+03  0.73574620890E+03  0.00000000000E+00 0.  1.
<scales pt_clust_3="74.02923" pt_clust_4="34.29489" pt_clust_5="14000.00000" pt_clust_6="54.46311"></scales>
<clustering>
<clus scale="   34.295">  2  4  1 -1</clus>
<clus scale="   54.463">  1  6  2 -1</clus>
<clus scale="   74.029">  2  3  1 -1</clus>
<clus scale="   34.295">  2  3  1 -1</clus>
</clustering>
</event>
<event>
 6    0  0.5775861E+002  0.1448742E+03  0.7546771E-02  0.1206917E+00
          2   -1    0    0  505    0 -0.00000000000E+00  0.00000000000E+00  0.20439622485E+04  0.20439622485E+04  0.00000000000E+00 0. -1.
         21   -1    0    0  504  502  0.00000000000E+00 -0.00000000000E+00 -0.16154977643E+03  0.16154977643E+03  0.00000000000E+00 0. -1.
         21    1    1    2  503  501 -0.82628348466E+02  0.76513071522E+02  0.32567736640E+03  0.34459750589E+03  0.00000000000E+00 0. -1.
         21    1    1    2  504  503  0.38688266354E+02  0.10998538784E+02 -0.65613865185E+02  0.76960568562E+02  0.00000000000E+00 0. -1.
         21    1    1    2  505  502 -0.66219597445E+02  0.24974601169E+02 -0.60893824923E+02  0.93363931489E+02  0.00000000000E+00 0. -1.
          2    1    1    2  501    0  0.11015967956E+03 -0.11248621148E+03  0.16832427958E+04  0.16905900190E+04  0.00000000000E+00 0. -1.
<scales pt_clust_3="144.87424" pt_clust_4="40.22126" pt_clust_5="47.76107" pt_clust_6="14000.00000"></scales>
<clustering>
<clus scale="   40.221">  2  4  1 -1</clus>
<clus scale="   47.761">  2  5  1 -1</clus>
<clus scale="  144.874">  2  3  1 -1</clus>
<clus scale="   40.221">  2  3  1 -1</clus>
</clustering>
</event>
<event>
 6    0  0.5775861E+002  0.9147580E+02  0.7546771E-02  0.1299317E+00
         -1   -1    0    0    0  501 -0.00000000000E+00  0.00000000000E+00  0.38067383397E+03  0.38067383397E+03  0.00000000000E+00 0.  1.
         21   -1    0    0  505  502  0.00000000000E+00 -0.00000000000E+00 -0.30071724829E+03  0.30071724829E+03  0.00000000000E+00 0. -1.
         21    1    1    2  503  504 -0.31226813225E+02 -0.10033283347E+03 -0.13900535268E+03  0.17425349181E+03  0.00000000000E+00 0. -1.
         21    1    1    2  504  502 -0.40470028714E+02 -0.89920509360E+01 -0.44681210089E+02  0.60951544190E+02  0.00000000000E+00 0.  1.
         21    1    1    2  505  501  0.41741936498E+01  0.47602268171E+02 -0.78567868868E+02  0.91958196188E+02  0.00000000000E+00 0. -1.
         -1    1    1    2    0  503  0.67522648290E+02  0.61722616235E+02  0.34221101732E+03  0.35422785007E+03  0.00000000000E+00 0.  1.
<scales pt_clust_3="91.47580" pt_clust_4="41.45697" pt_clust_5="45.56386" pt_clust_6="14000.00000"></scales>
<clustering>
<clus scale="   41.457">  2  4  1 -1</clus>
<clus scale="   45.564">  2  5  1 -1</clus>
<clus scale="   91.476">  2  3  1 -1</clus>
<clus scale="   41.457">  2  3  1 -1</clus>
</clustering>
</event>
<event>
 6    0  0.5775861E+002  0.1240155E+03  0.7546771E-02  0.1236616E+00
         21   -1    0    0  504  502  0.00000000000E+00  0.00000000000E+00  0.10347395983E+03  0.10347395983E+03  0.00000000000E+00 0.  1.
          2   -1    0    0  503    0 -0.00000000000E+00 -0.00000000000E+00 -0.65145460203E+03  0.65145460203E+03  0.00000000000E+00 0.  1.
         21    1    1    2  503  502  0.42349448731E+02 -0.44834282357E+01 -0.96813681782E+02  0.10576609058E+03  0.00000000000E+00 0.  1.
         21    1    1    2  504  505 -0.72087695324E+02 -0.10230688455E+03  0.74683018407E+01  0.12537587478E+03  0.00000000000E+00 0.  1.
         21    1    1    2  505  501 -0.78578032168E+01  0.14309080583E+03 -0.13809831039E+03  0.19901725331E+03  0.00000000000E+00 0.  1.
          2    1    1    2  501    0  0.37596049810E+02 -0.36300493037E+02 -0.32053695187E+03  0.32476934318E+03  0.00000000000E+00 0.  1.
<scales pt_clust_3="42.58611" pt_clust_4="124.01545" pt_clust_5="14000.00000" pt_clust_6="73.57555"></scales>
<clustering>
<clus scale="   42.586">  2  3  1 -1</clus>
<clus scale="   73.576">  2  6  1 -1</clus>
<clus scale="  124.015">  1  4  2 -1</clus>
<clus scale="  124.015">  1  3  2 -1</clus>
</clustering>
</event>
<event>
 6    0  0.5775861E+002  0.1114664E+03  0.7546771E-02  0.1257878E+00
          1   -1    0    0  505    0 -0.00000000000E+00  0.00000000000E+00  0.13479917187E+04  0.13479917187E+04  0.00000000000E+00 0. -1.
         21   -1    0    0  503  502  0.00000000000E+00 -0.00000000000E+00 -0.19400459234E+03  0.19400459234E+03  0.00000000000E+00 0. -1.
         21    1    1    2  503  501  0.82641434632E+02  0.12840245291E+03 -0.66839305104E+02  0.16668620020E+03  0.00000000000E+00 0. -1.
         21    1    1    2  504  502 -0.66412865279E+02 -0.17918078824E+02 -0.52259490186E+02  0.86387386451E+02  0.00000000000E+00 0. -1.
         21    1    1    2  505  504 -0.36878421380E+02 -0.40007748430E+02  0.10260081890E+03  0.11613598038E+03  0.00000000000E+00 0.  1.
          1    1    1    2  501    0  0.20649852028E+02 -0.70476625658E+02  0.11704851027E+04  0.11727867440E+04  0.00000000000E+00 0. -1.
<scales pt_clust_3="111.46639" pt_clust_4="69.42278" pt_clust_5="54.41174" pt_clust_6="14000.00000"></scales>
<clustering>
<clus scale="   54.412">  1  5  2 -1</clus>
<clus scale="   69.423">  2  4  1 -1</clus>
<clus scale="  111.466">  2  3  1 -1</clus>
<clus scale="   69.423">  2  3  1 -1</clus>
</clustering>
</event>
<event>
 6    0  0.5775861E+002  0.8720630E+02  0.7546771E-02  0.1309762E+00
          2   -1    0    0  503    0 -0.00000000000E+00  0.00000000000E+00  0.13573875318E+04  0.13573875318E+04  0.00000000000E+00 0. -1.
         21   -1    0    0  505  502  0.00000000000E+00 -0.00000000000E+00 -0.16596020488E+03  0.16596020488E+03  0.00000000000E+00 0. -1.
         21    1    1    2  503  502 -0.57947861681E+02 -0.62293782988E+02  0.27183580076E+03  0.28483885382E+03  0.00000000000E+00 0. -1.
         21    1    1    2  504  501  0.68999361686E+02 -0.69317869720E+02  0.20928708236E+02  0.10001944713E+03  0.00000000000E+00 0. -1.
         21    1    1    2  505  504  0.35648749169E+01  0.91168972747E+02 -0.10202921195E+03  0.13687384709E+03  0.00000000000E+00 0. -1.
          2    1    1    2  501    0 -0.14616374922E+02  0.40442679961E+02  0.10006920299E+04  0.10016155887E+04  0.00000000000E+00 0. -1.
<scales pt_clust_3="75.85574" pt_clust_4="14000.00000" pt_clust_5="87.20630" pt_clust_6="43.00289"></scales>
<clustering>
<clus scale="   43.003">  1  6  2 -1</clus>
<clus scale="   75.856">  1  3  2 -1</clus>
<clus scale="   87.206">  2  5  1 -1</clus>
<clus scale="   87.206">  2  3  1 -1</clus>
</clustering>
</event>
<event>
 6    0  0.5775861E+002  0.1188748E+03  0.7546771E-02  0.1244965E+00
         21   -1    0    0  505  502  0.00000000000E+00  0.00000000000E+00  0.17640511145E+03  0.17640511145E+03  0.00000000000E+00 0.  1.
         -3   -1    0    0    0  501 -0.00000000000E+00 -0.00000000000E+00 -0.17608509143E+04  0.17608509143E+04  0.00000000000E+00 0.  1.
         21    1    1    2  503  501  0.16966729775E+02  0.41012248899E+02 -0.41001860410E+03  0.41241378516E+03  0.00000000000E+00 0.  1.
         21    1    1    2  504  502 -0.31546467928E+02  0.66648181418E+01  0.16118111178E+03  0.16437442086E+03  0.00000000000E+00 0.  1.
         21    1    1    2  505  503 -0.99319906808E+02  0.15895325060E+02 -0.29413303853E+03  0.31085583412E+03  0.00000000000E+00 0.  1.
         -3    1    1    2    0  504  0.11389964496E+03 -0.63572392101E+02 -0.10414752720E+04  0.10496119856E+04  0.00000000000E+00 0.  1.
<scales pt_clust_3="43.95305" pt_clust_4="32.24282" pt_clust_5="118.87483" pt_clust_6="14000.00000"></scales>
<clustering>
<clus scale="   32.243">  1  4  2 -1</clus>
<clus scale="   43.953">  2  3  1 -1</clus>
<clus scale="  118.875">  1  5  2 -1</clus>
<clus scale="   32.243">  1  3  2 -1</clus>
</clustering>
</event>
<event>
 6    0  0.5775861E+002  0.5885602E+02  0.7546771E-02  0.1402696E+00
          1   -1    0    0  504    0 -0.00000000000E+00  0.00000000000E+00  0.99964353474E+03  0.99964353474E+03  0.00000000000E+00 0. -1.
         21   -1    0    0  503  502  0.00000000000E+00 -0.00000000000E+00 -0.76290219717E+03  0.76290219717E+03  0.00000000000E+00 0. -1.
         21    1    1    2  503  501  0.97565597099E+02 -0.15395221870E+02 -0.49383716782E+03  0.50361811615E+03  0.00000000000E+00 0. -1.
         21    1    1    2  504  505  0.10787969940E+02 -0.49405199311E+02  0.69120207757E+03  0.69304946869E+03  0.00000000000E+00 0. -1.
         21    1    1    2  505  502 -0.40448445078E+02  0.54370370026E+01 -0.25487073814E+03  0.25811766937E+03  0.00000000000E+00 0.  1.
          1    1    1    2  501    0 -0.67905121961E+02  0.59363384178E+02  0.29424716595E+03  0.30776047771E+03  0.00000000000E+00 0. -1.
<scales pt_clust_3="58.85602" pt_clust_4="50.54392" pt_clust_5="40.81223" pt_clust_6="14000.00000"></scales>
<clustering>
<clus scale="   40.812">  2  5  1 -1</clus>
<clus scale="   50.544">  1  4  2 -1</clus>
<clus scale="   58.856">  2  3  1 -1</clus>
<clus scale="   40.812">  2  3  1 -1</clus>
</clustering>
</event>
<event>
 6    0  0.5775861E+002  0.1314046E+03  0.7546771E-02  0.1225386E+00
          2   -1    0    0  504    0 -0.00000000000E+00  0.00000000000E+00  0.12832418512E+04  0.12832418512E+04  0.00000000000E+00 0.  1.
         21   -1    0    0  505  502  0.00000000000E+00 -0.00000000000E+00 -0.99726144435E+02  0.99726144435E+02  0.00000000000E+00 0.  1.
         21    1    1    2  503  501  0.56992687636E+02 -0.16844251777E+03  0.14835418105E+03  0.23158154346E+03  0.00000000000E+00 0.  1.
         21    1    1    2  504  502 -0.61622410595E+02  0.77810551478E+02  0.12306410079E+03  0.15810305598E+03  0.00000000000E+00 0.  1.
         21    1    1    2  505  503  0.35608568414E+02  0.20800738477E+02 -0.28154488810E+02  0.49933116324E+02  0.00000000000E+00 0.  1.
          2    1    1    2  501    0 -0.30978845455E+02  0.69831227810E+02  0.94025191378E+03  0.94335027992E+03  0.00000000000E+00 0.  1.
<scales pt_clust_3="14000.00000" pt_clust_4="131.40456" pt_clust_5="41.23883" pt_clust_6="76.51823"></scales>
<clustering>
<clus scale="   41.239">  2  5  1 -1</clus>
<clus scale="   76.518">  1  6  2 -1</clus>
<clus scale="  131.405">  2  4  1 -1</clus>
<clus scale="   41.239">  2  3  1 -1</clus>
</clustering>
</event>
<event>
 6    0  0.5775861E+002  0.1102813E+03  0.7546771E-02  0.1260050E+00
          2   -1    0    0  504    0 -0.00000000000E+00  0.00000000000E+00  0.40508903080E+04  0.40508903080E+04  0.00000000000E+00 0. -1.
         21   -1    0    0  503  502  0.00000000000E+00 -0.00000000000E+00 -0.15236837612E+03  0.15236837612E+03  0.00000000000E+00 0.  1.
         21    1    1    2  503  501 -0.42903208534E+02  0.66011545897E+01  0.83603542549E+02  0.94200917571E+02  0.00000000000E+00 0.  1.
         21    1    1    2  504  505  0.10732610936E+03 -0.69419451635E+02  0.19558662912E+04  0.19600384953E+04  0.00000000000E+00 0. -1.
         21    1    1    2  505  502 -0.68371633762E+02 -0.13142585745E+02 -0.13585825764E+03  0.15265933982E+03  0.00000000000E+00 0.  1.
          2    1    1    2  501    0  0.39487329381E+01  0.75960882791E+02  0.19949103558E+04  0.19963599314E+04  0.00000000000E+00 0. -1.
<scales pt_clust_3="43.40807" pt_clust_4="110.28130" pt_clust_5="14000.00000" pt_clust_6="76.08526"></scales>
<clustering>
<clus scale="   43.408">  2  3  1 -1</clus>
<clus scale="   76.085">  1  6  2 -1</clus>
<clus scale="  110.281">  1  4  2 -1</clus>
<clus scale="   43.408">  2  3  1 -1</clus>
</clustering>
</event>
<event>
 6    0  0.5775861E+002  0.9922566E+02  0.7546771E-02  0.1281933E+00
         21   -1    0    0  505  502  0.00000000000E+00  0.00000000000E+00  0.96237821466E+03  0.96237821466E+03  0.00000000000E+00 0. -1.
          2   -1    0    0  504    0 -0.00000000000E+00 -0.00000000000E+00 -0.14153943997E+04  0.14153943997E+04  0.00000000000E+00 0.  1.
         21    1    1    2  503  501 -0.14523655856E+01  0.13265154101E+03 -0.14593243834E+03  0.19721769002E+03  0.00000000000E+00 0. -1.
         21    1    1    2  504  502 -0.28361798263E+02 -0.80662433897E+02  0.84963397606E+03  0.85392547281E+03  0.00000000000E+00 0. -1.
         21    1    1    2  505  503  0.35089573620E+02 -0.17435919443E+02  0.80177903462E+02  0.89240045200E+02  0.00000000000E+00 0. -1.
          2    1    1    2  501    0 -0.52754097717E+01 -0.34553187668E+02 -0.12368956262E+04  0.12373894063E+04  0.00000000000E+00 0.  1.
<scales pt_clust_3="14000.00000" pt_clust_4="99.22566" pt_clust_5="39.46260" pt_clust_6="34.95358"></scales>
<clustering>
<clus scale="   34.954">  2  6  1 -1</clus>
<clus scale="   39.463">  1  5  2 -1</clus>
<clus scale="   99.226">  1  4  2 -1</clus>
<clus scale="   39.463">  1  3  2 -1</clus>
</clustering>
</event>
<event>
 6    0  0.5775861E+002  0.6833016E+02  0.7546771E-02  0.1365865E+00
          2   -1    0    0  505    0 -0.00000000000E+00  0.00000000000E+00  0.28200868888E+04  0.28200868888E+04  0.00000000000E+00 0. -1.
         21   -1    0    0  503  502  0.00000000000E+00 -0.00000000000E+00 -0.60630476355E+02  0.60630476355E+02  0.00000000000E+00 0. -1.
         21    1    1    2  503  501  0.11037685578E+03 -0.88538781284E+00  0.72784203674E+02  0.13221714907E+03  0.00000000000E+00 0. -1.
         21    1    1    2  504  502 -0.48555793840E+02 -0.96674644543E+01 -0.22783621893E+01  0.49561234031E+02  0.00000000000E+00 0. -1.
         21    1    1    2  505  504 -0.49358012341E+02  0.48560530757E+02  0.24328904722E+03  0.25295038847E+03  0.00000000000E+00 0. -1.
          2    1    1    2  501    0 -0.12463049604E+02 -0.38007678490E+02  0.24456615237E+04  0.24459885936E+04  0.00000000000E+00 0. -1.
<scales pt_clust_3="14000.00000" pt_clust_4="50.79747" pt_clust_5="68.33016" pt_clust_6="39.99889"></scales>
<clustering>
<clus scale="   39.999">  1  6  2 -1</clus>
<clus scale="   50.797">  2  4  1 -1</clus>
<clus scale="   68.330">  1  5  2 -1</clus>
<clus scale="   50.797">  2  3  1 -1</clus>
</clustering>
</event>
<event>
 6    0  0.5775861E+002  0.7917672E+02  0.7546771E-02  0.1331404E+00
         21   -1    0    0  501  502  0.00000000000E+00  0.00000000000E+00  0.21254124865E+03  0.21254124865E+03  0.00000000000E+00 0.  1.
          3   -1    0    0  503    0 -0.00000000000E+00 -0.00000000000E+00 -0.92896456930E+03  0.92896456930E+03  0.00000000000E+00 0. -1.
         21    1    1    2  503  504  0.11360749737E+03  0.22613908007E+02 -0.61530748870E+03  0.62611608983E+03  0.00000000000E+00 0. -1.
         21    1    1    2  504  505 -0.51186354564E+02 -0.34919363844E+02  0.10301315229E+02  0.62813389976E+02  0.00000000000E+00 0.  1.
         21    1    1    2  505  502 -0.28020690991E+02  0.23668739189E+02  0.16742235472E+03  0.17139315389E+03  0.00000000000E+00 0.  1.
          3    1    1    2  501    0 -0.34400451817E+02 -0.11363283352E+02 -0.27883950189E+03  0.28118318426E+03  0.00000000000E+00 0. -1.
<scales pt_clust_3="79.17672" pt_clust_4="14000.00000" pt_clust_5="36.73735" pt_clust_6="36.22865"></scales>
<clustering>
<clus scale="   36.229">  2  6  1 -1</clus>
<clus scale="   36.737">  1  5  2 -1</clus>
<clus scale="   79.177">  2  3  1 -1</clus>
<clus scale="   36.737">  1  3  2 -1</clus>
</clustering>
</event>
<event>
 6    0  0.5775861E+002  0.4065164E+03  0.7546771E-02  0.1041546E+00
          1   -1    0    0  503    0 -0.00000000000E+00  0.00000000000E+00  0.38800172513E+04  0.38800172513E+04  0.00000000000E+00 0.  1.
         21   -1    0    0  505  502  0.00000000000E+00 -0.00000000000E+00 -0.26671042966E+03  0.26671042966E+03  0.00000000000E+00 0. -1.
         21    1    1    2  503  502 -0.30797460256E+02  0.16277319237E+02 -0.10060688202E+03  0.10646679947E+03  0.00000000000E+00 0. -1.
         21    1    1    2  504  501  0.61712713039E+02 -0.12370858821E+03  0.97610370368E+03  0.98584517754E+03  0.00000000000E+00 0.  1.
         21    1    1    2  505  504 -0.24890947508E+03  0.25755100827E+03  0.59528150162E+02  0.36308683439E+03  0.00000000000E+00 0. -1.
          1    1    1    2  501    0  0.21799422230E+03 -0.15011973930E+03  0.26782818498E+04  0.26913288696E+04  0.00000000000E+00 0.  1.
<scales pt_clust_3="34.83439" pt_clust_4="85.03774" pt_clust_5="389.09935" pt_clust_6="85.03774"></scales>
<clustering>
<clus scale="   34.834">  2  3  1 -1</clus>
<clus scale="   85.038">  4  6 -1 -1</clus>
<clus scale="  389.099">  2  5  1 -1</clus>
<clus scale="   34.834">  2  3  1 -1</clus>
</clustering>
</event>
<event>
 6    0  0.5775861E+002  0.1586105E+03  0.7546771E-02  0.1190274E+00
         21   -1    0    0  504  502  0.00000000000E+00  0.00000000000E+00  0.82945346540E+03  0.82945346540E+03  0.00000000000E+00 0.  1.
          2   -1    0    0  505    0 -0.00000000000E+00 -0.00000000000E+00 -0.86181929593E+03  0.86181929593E+03  0.00000000000E+00 0.  1.
         21    1    1    2  503  502 -0.13509833500E+03 -0.14398464228E+03  0.27393360331E+02  0.19933272065E+03  0.00000000000E+00 0.  1.
         21    1    1    2  504  501 -0.15445420983E+02  0.83722003127E+02  0.69929380191E+03  0.70445706485E+03  0.00000000000E+00 0.  1.
         21    1    1    2  505  503  0.20722924648E+02  0.30421748302E+02 -0.44272079887E+03  0.44424838562E+03  0.00000000000E+00 0.  1.
          2    1    1    2  501    0  0.12982083134E+03  0.29840890847E+02 -0.31633219390E+03  0.34323459021E+03  0.00000000000E+00 0.  1.
<scales pt_clust_3="158.61052" pt_clust_4="85.29638" pt_clust_5="36.80927" pt_clust_6="14000.00000"></scales>
<clustering>
<clus scale="   36.809">  2  5  1 -1</clus>
<clus scale="   85.296">  1  4  2 -1</clus>
<clus scale="  158.611">  1  3  2 -1</clus>
<clus scale="   85.296">  1  3  2 -1</clus>
</clustering>
</event>
<event>
 6    0  0.5775861E+002  0.9581676E+02  0.7546771E-02  0.1289347E+00
         -2   -1    0    0    0  501 -0.00000000000E+00  0.00000000000E+00  0.15313806928E+04  0.15313806928E+04  0.00000000000E+00 0.  1.
         21   -1    0    0  505  502  0.00000000000E+00 -0.00000000000E+00 -0.45967440159E+02  0.45967440159E+02  0.00000000000E+00 0. -1.
         21    1    1    2  503  504  0.47094357716E+02 -0.51449857967E+02  0.75958528916E+02  0.10312450983E+03  0.00000000000E+00 0.  1.
         21    1    1    2  504  502  0.31861586104E+02  0.16012163975E+02 -0.73685929883E+01  0.36412171411E+02  0.00000000000E+00 0. -1.
         21    1    1    2  505  501  0.21442755597E+02  0.76102726507E+02  0.18438692400E+03  0.20062391306E+03  0.00000000000E+00 0.  1.
         -2    1    1    2    0  503 -0.10039869942E+03 -0.40665032514E+02  0.12324363927E+04  0.12371875386E+04  0.00000000000E+00 0.  1.
<scales pt_clust_3="77.67330" pt_clust_4="35.65880" pt_clust_5="14000.00000" pt_clust_6="95.81676"></scales>
<clustering>
<clus scale="   35.659">  2  4  1 -1</clus>
<clus scale="   77.673">  2  3  1 -1</clus>
<clus scale="   95.817">  1  6  2 -1</clus>
<clus scale="   35.659">  2  3  1 -1</clus>
</clustering>
</event>
<event>
 6    0  0.5775861E+002  0.8204326E+02  0.7546771E-02  0.1323351E+00
          1   -1    0    0  504    0 -0.00000000000E+00  0.00000000000E+00  0.20107981414E+03  0.20107981414E+03  0.00000000000E+00 0.  1.
         21   -1    0    0  503  502  0.00000000000E+00 -0.00000000000E+00 -0.14419172075E+04  0.14419172075E+04  0.00000000000E+00 0. -1.
         21    1    1    2  503  501  0.66327185009E+02 -0.35237408861E+00 -0.37758811706E+03  0.38336954206E+03  0.00000000000E+00 0. -1.
         21    1    1    2  504  505 -0.91528167418E+02 -0.33862581199E+01 -0.38393820034E+03  0.39471181114E+03  0.00000000000E+00 0. -1.
         21    1    1    2  505  502 -0.52568329773E+02  0.29597816469E+02 -0.66196993660E+03  0.66471321410E+03  0.00000000000E+00 0. -1.
          1    1    1    2  501    0  0.77769312182E+02 -0.25859184261E+02  0.18265886066E+03  0.20020245430E+03  0.00000000000E+00 0.  1.
<scales pt_clust_3="43.01824" pt_clust_4="14000.00000" pt_clust_5="60.32794" pt_clust_6="82.04326"></scales>
<clustering>
<clus scale="   60.328">  2  5  1 -1</clus>
<clus scale="   43.018">  2  3  1 -1</clus>
<clus scale="   82.043">  1  6  2 -1</clus>
<clus scale="   60.328">  2  3  1 -1</clus>
</clustering>
</event>
<event>
 6    0  0.5775861E+002  0.1341230E+03  0.7546771E-02  0.1221463E+00
          1   -1    0    0  504    0 -0.00000000000E+00  0.00000000000E+00  0.36167903236E+03  0.36167903236E+03  0.00000000000E+00 0. -1.
         21   -1    0    0  503  502  0.00000000000E+00 -0.00000000000E+00 -0.39110720249E+03  0.39110720249E+03  0.00000000000E+00 0. -1.
         21    1    1    2  503  501  0.61085790110E+02 -0.41520087625E+02  0.93023068604E+02  0.11877997610E+03  0.00000000000E+00 0. -1.
         21    1    1    2  504  505 -0.43920579039E+02  0.33021521076E+02 -0.96706021334E+02  0.11122721196E+03  0.00000000000E+00 0. -1.
         21    1    1    2  505  502 -0.78025581146E+02  0.16203198751E+02 -0.26451295643E+03  0.27625647337E+03  0.00000000000E+00 0. -1.
          1    1    1    2  501    0  0.60860370074E+02 -0.77046322018E+01  0.23876773903E+03  0.24652257341E+03  0.00000000000E+00 0. -1.
<scales pt_clust_3="124.97389" pt_clust_4="40.42970" pt_clust_5="40.42970" pt_clust_6="61.34612"></scales>
<clustering>
<clus scale="   40.430">  4  5 -1 -1</clus>
<clus scale="   61.346">  1  6  2 -1</clus>
<clus scale="  124.974">  1  3  2 -1</clus>
<clus scale="  134.123">  2  3  1 -1</clus>
</clustering>
</event>
<event>
 6    0  0.5775861E+002  0.6977781E+02  0.7546771E-02  0.1360850E+00
         21   -1    0    0  503  502  0.00000000000E+00  0.00000000000E+00  0.33560687618E+02  0.33560687618E+02  0.00000000000E+00 0. -1.
          2   -1    0    0  504    0 -0.00000000000E+00 -0.00000000000E+00 -0.23025855376E+04  0.23025855376E+04  0.00000000000E+00 0. -1.
         21    1    1    2  503  501  0.51900310845E+02 -0.25542515979E+02 -0.51162449053E+03  0.51488414396E+03  0.00000000000E+00 0. -1.
         21    1    1    2  504  505 -0.42235118952E+02 -0.43509736553E+02 -0.57064375128E+03  0.57385642222E+03  0.00000000000E+00 0. -1.
         21    1    1    2  505  502  0.12486037259E+02 -0.32162870871E+02  0.17509770771E+02  0.38690353599E+02  0.00000000000E+00 0. -1.
          2    1    1    2  501    0 -0.22151229152E+02  0.10121512340E+03 -0.12042663789E+04  0.12087153054E+04  0.00000000000E+00 0. -1.
<scales pt_clust_3="14000.00000" pt_clust_4="65.52072" pt_clust_5="34.50147" pt_clust_6="69.77781"></scales>
<clustering>
<clus scale="   34.501">  1  5  2 -1</clus>
<clus scale="   65.521">  2  4  1 -1</clus>
<clus scale="   69.778">  2  6  1 -1</clus>
<clus scale="   34.501">  1  3  2 -1</clus>
</clustering>
</event>
<event>
 6    0  0.5775861E+002  0.1127224E+03  0.7546771E-02  0.1255610E+00
          2   -1    0    0  505    0 -0.00000000000E+00  0.00000000000E+00  0.43746012827E+03  0.43746012827E+03  0.00000000000E+00 0.  1.
         21   -1    0    0  503  502  0.00000000000E+00 -0.00000000000E+00 -0.39663153659E+03  0.39663153659E+03  0.00000000000E+00 0. -1.
         21    1    1    2  503  504 -0.83169451027E+02 -0.90927195594E+02 -0.34662376511E+03  0.36787626592E+03  0.00000000000E+00 0. -1.
         21    1    1    2  504  501  0.53390249710E+02  0.50962746798E+02  0.50425464349E+01  0.73980724516E+02  0.00000000000E+00 0. -1.
         21    1    1    2  505  502  0.47166682993E+02  0.43011973221E+01  0.22127505307E+03  0.22628708623E+03  0.00000000000E+00 0. -1.
          2    1    1    2  501    0 -0.17387481676E+02  0.35663251473E+02  0.16113475728E+03  0.16594758820E+03  0.00000000000E+00 0.  1.
<scales pt_clust_3="112.72237" pt_clust_4="14000.00000" pt_clust_5="46.95201" pt_clust_6="39.67609"></scales>
<clustering>
<clus scale="   39.676">  1  6  2 -1</clus>
<clus scale="   46.952">  1  5  2 -1</clus>
<clus scale="  112.722">  2  3  1 -1</clus>
<clus scale="  112.722">  2  3  1 -1</clus>
</clustering>
</event>
<event>
 6    0  0.5775861E+002  0.9586137E+02  0.7546771E-02  0.1289248E+00
          2   -1    0    0  504    0 -0.00000000000E+00  0.00000000000E+00  0.37560453797E+04  0.37560453797E+04  0.00000000000E+00 0.  1.
         21   -1    0    0  505  502  0.00000000000E+00 -0.00000000000E+00 -0.35358466406E+03  0.35358466406E+03  0.00000000000E+00 0. -1.
         21    1    1    2  503  502  0.93117516155E+02  0.27240757212E+01 -0.23875298604E+03  0.25628359438E+03  0.00000000000E+00 0. -1.
         21    1    1    2  504  503  0.72017412864E+02 -0.30889889705E+02  0.27220480473E+02  0.82955696603E+02  0.00000000000E+00 0. -1.
         21    1    1    2  505  501 -0.10750162654E+03  0.73566221520E+01 -0.40700386372E+02  0.11518351031E+03  0.00000000000E+00 0. -1.
          2    1    1    2  501    0 -0.57633302484E+02  0.20809191832E+02  0.36546936076E+04  0.36552072425E+04  0.00000000000E+00 0.  1.
<scales pt_clust_3="95.86137" pt_clust_4="45.07304" pt_clust_5="14000.00000" pt_clust_6="61.27495"></scales>
<clustering>
<clus scale="   61.275">  1  6  2 -1</clus>
<clus scale="   45.073">  1  4  2 -1</clus>
<clus scale="   95.861">  2  3  1 -1</clus>
<clus scale="   95.861">  2  3  1 -1</clus>
</clustering>
</event>
<event>
 6    0  0.5775861E+002  0.8406214E+02  0.7546771E-02  0.1317904E+00
          1   -1    0    0  505    0 -0.00000000000E+00  0.00000000000E+00  0.11315753572E+04  0.11315753572E+04  0.00000000000E+00 0.  1.
         21   -1    0    0  503  502  0.00000000000E+00 -0.00000000000E+00 -0.76945198742E+02  0.76945198742E+02  0.00000000000E+00 0. -1.
         21    1    1    2  503  501 -0.98378184136E+02  0.49566401843E+02  0.31244894452E+03  0.33129962004E+03  0.00000000000E+00 0.  1.
         21    1    1    2  504  502  0.59454237693E+02 -0.56513865939E+02 -0.26395120138E+02  0.86170330104E+02  0.00000000000E+00 0. -1.
         21    1    1    2  505  504  0.38397304968E+02  0.37464470321E+02  0.55030953579E+02  0.76852751526E+02  0.00000000000E+00 0. -1.
          1    1    1    2  501    0  0.52664147504E+00 -0.30517006225E+02  0.71354538047E+03  0.71419785424E+03  0.00000000000E+00 0.  1.
<scales pt_clust_3="84.06214" pt_clust_4="14000.00000" pt_clust_5="50.46345" pt_clust_6="30.52155"></scales>
<clustering>
<clus scale="   30.522">  1  6  2 -1</clus>
<clus scale="   50.463">  1  5  2 -1</clus>
<clus scale="   84.062">  1  3  2 -1</clus>
<clus scale="   84.062">  2  3  1 -1</clus>
</clustering>
</event>
<event>
 6    0  0.5775861E+002  0.7392420E+02  0.7546771E-02  0.1347235E+00
          2   -1    0    0  505    0 -0.00000000000E+00  0.00000000000E+00  0.14575096196E+04  0.14575096196E+04  0.00000000000E+00 0.  1.
         21   -1    0    0  504  502  0.00000000000E+00 -0.00000000000E+00 -0.37871431983E+03  0.37871431983E+03  0.00000000000E+00 0.  1.
         21    1    1    2  503  502  0.27863294873E+02 -0.18764070225E+02 -0.13222783401E+03  0.13642819950E+03  0.00000000000E+00 0.  1.
         21    1    1    2  504  501 -0.30724525904E+02 -0.51652100750E+02 -0.15915084570E+03  0.17012033297E+03  0.00000000000E+00 0.  1.
         21    1    1    2  505  503  0.26794068403E+02  0.11260258133E+03 -0.37114446405E+02  0.12155141116E+03  0.00000000000E+00 0.  1.
          2    1    1    2  501    0 -0.23932837372E+02 -0.42186410350E+02  0.14072884259E+04  0.14081239958E+04  0.00000000000E+00 0.  1.
<scales pt_clust_3="33.59246" pt_clust_4="14000.00000" pt_clust_5="73.92420" pt_clust_6="48.50674"></scales>
<clustering>
<clus scale="   33.592">  2  3  1 -1</clus>
<clus scale="   48.507">  1  6  2 -1</clus>
<clus scale="   73.924">  1  5  2 -1</clus>
<clus scale="   33.592">  2  3  1 -1</clus>
</clustering>
</event>
<event>
 6    0  0.5775861E+002  0.1089725E+03  0.7546771E-02  0.1262485E+00
          2   -1    0    0  505    0 -0.00000000000E+00  0.00000000000E+00  0.11226641146E+04  0.11226641146E+04  0.00000000000E+00 0.  1.
         21   -1    0    0  501  502  0.00000000000E+00 -0.00000000000E+00 -0.27202317262E+03  0.27202317262E+03  0.00000000000E+00 0. -1.
         21    1    1    2  503  504 -0.36250121347E+02  0.28183464256E+02 -0.52583391389E+02  0.69809684178E+02  0.00000000000E+00 0. -1.
         21    1    1    2  504  502 -0.43853373247E+02  0.26821919401E+02 -0.16403336244E+03  0.17189961518E+03  0.00000000000E+00 0. -1.
         21    1    1    2  505  503  0.39204052719E+02 -0.15245343313E+03  0.11517921973E+03  0.19505194098E+03  0.00000000000E+00 0. -1.
          2    1    1    2  501    0  0.40899441875E+02  0.97448049468E+02  0.95207847607E+03  0.95792604688E+03  0.00000000000E+00 0.  1.
<scales pt_clust_3="42.87928" pt_clust_4="42.87928" pt_clust_5="99.07873" pt_clust_6="105.68295"></scales>
<clustering>
<clus scale="   42.879">  3  4 -1 -1</clus>
<clus scale="  105.683">  1  6  2 -1</clus>
<clus scale="   99.079">  1  5  2 -1</clus>
<clus scale="  108.972">  2  3  1 -1</clus>
</clustering>
</event>
<event>
 6    0  0.5775861E+002  0.7513923E+02  0.7546771E-02  0.1343440E+00
          2   -1    0    0  503    0 -0.00000000000E+00  0.00000000000E+00  0.23895115456E+04  0.23895115456E+04  0.00000000000E+00 0. -1.
         21   -1    0    0  505  502  0.00000000000E+00 -0.00000000000E+00 -0.61970680733E+02  0.61970680733E+02  0.00000000000E+00 0.  1.
         21    1    1    2  503  502 -0.30558768630E+02  0.20803731657E+02  0.17795702389E+03  0.18175625421E+03  0.00000000000E+00 0. -1.
         21    1    1    2  504  501  0.71197784984E+02  0.75879059887E+02  0.11296268646E+03  0.15358165531E+03  0.00000000000E+00 0.  1.
         21    1    1    2  505  504  0.14717543891E+01 -0.57576193089E+02 -0.18290273899E+02  0.60429448044E+02  0.00000000000E+00 0.  1.
          2    1    1    2  501    0 -0.42110770743E+02 -0.39106598455E+02  0.20549114284E+04  0.20557148688E+04  0.00000000000E+00 0. -1.
<scales pt_clust_3="36.96801" pt_clust_4="14000.00000" pt_clust_5="57.38996" pt_clust_6="75.13923"></scales>
<clustering>
<clus scale="   36.968">  1  3  2 -1</clus>
<clus scale="   57.390">  2  5  1 -1</clus>
<clus scale="   75.139">  1  6  2 -1</clus>
<clus scale="   57.390">  2  3  1 -1</clus>
</clustering>
</event>
<event>
 6    0  0.5775861E+002  0.6636415E+02  0.7546771E-02  0.1372912E+00
         -4   -1    0    0    0  501 -0.00000000000E+00  0.00000000000E+00  0.19808630268E+04  0.19808630268E+04  0.00000000000E+00 0.  1.
         21   -1    0    0  504  502  0.00000000000E+00 -0.00000000000E+00 -0.14867724663E+03  0.14867724663E+03  0.00000000000E+00 0.  1.
         21    1    1    2  503  502  0.46286126133E+02 -0.52320854807E+02 -0.51872864872E+02  0.87009605390E+02  0.00000000000E+00 0.  1.
         21    1    1    2  504  505 -0.32109786320E+02  0.29449453687E+02 -0.47284993952E+02  0.64297584348E+02  0.00000000000E+00 0.  1.
         21    1    1    2  505  501 -0.29618406765E+01  0.87774645668E+02  0.61469221461E+02  0.10719900237E+03  0.00000000000E+00 0.  1.
         -4    1    1    2    0  503 -0.11214499137E+02 -0.64903244548E+02  0.18698744176E+04  0.18710340813E+04  0.00000000000E+00 0.  1.
<scales pt_clust_3="37.61391" pt_clust_4="43.56958" pt_clust_5="66.36415" pt_clust_6="14000.00000"></scales>
<clustering>
<clus scale="   43.570">  2  4  1 -1</clus>
<clus scale="   37.614">  2  3  1 -1</clus>
<clus scale="   66.364">  2  5  1 -1</clus>
<clus scale="   43.570">  2  3  1 -1</clus>
</clustering>
</event>
<event>
 6    0  0.5775861E+002  0.6441937E+02  0.7546771E-02  0.1380169E+00
         21   -1    0    0  501  502  0.00000000000E+00  0.00000000000E+00  0.19492090224E+03  0.19492090224E+03  0.00000000000E+00 0.  1.
         -4   -1    0    0    0  501 -0.00000000000E+00 -0.00000000000E+00 -0.42679762104E+03  0.42679762104E+03  0.00000000000E+00 0. -1.
         21    1    1    2  503  504 -0.24789448428E+02  0.84067258834E+02 -0.17144109585E+03  0.19254576107E+03  0.00000000000E+00 0. -1.
         21    1    1    2  504  505  0.76131288458E+02 -0.18555234976E+02  0.20557875393E+02  0.81011703278E+02  0.00000000000E+00 0.  1.
         21    1    1    2  505  502 -0.33477240491E+02 -0.91374315169E+01  0.12713919073E+03  0.13178995449E+03  0.00000000000E+00 0.  1.
         -4    1    1    2    0  503 -0.17864599539E+02 -0.56374592342E+02 -0.20813268906E+03  0.21637110444E+03  0.00000000000E+00 0. -1.
<scales pt_clust_3="14000.00000" pt_clust_4="56.33330" pt_clust_5="34.70185" pt_clust_6="64.41937"></scales>
<clustering>
<clus scale="   34.702">  1  5  2 -1</clus>
<clus scale="   56.333">  1  4  2 -1</clus>
<clus scale="   64.419">  2  6  1 -1</clus>
<clus scale="   34.702">  1  3  2 -1</clus>
</clustering>
</event>
<event>
 6    0  0.5775861E+002  0.6429680E+02  0.7546771E-02  0.1380636E+00
         -1   -1    0    0    0  501 -0.00000000000E+00  0.00000000000E+00  0.19246548454E+04  0.19246548454E+04  0.00000000000E+00 0. -1.
         21   -1    0    0  504  502  0.00000000000E+00 -0.00000000000E+00 -0.72308447624E+03  0.72308447624E+03  0.00000000000E+00 0. -1.
         21    1    1    2  503  502 -0.50986366266E+02 -0.47759330074E+02 -0.15014495368E+03  0.16560214452E+03  0.00000000000E+00 0. -1.
         21    1    1    2  504  505 -0.13732921470E+02  0.47554733703E+02 -0.55448597617E+03  0.55669088694E+03  0.00000000000E+00 0. -1.
         21    1    1    2  505  501  0.71435085716E+02 -0.48554118117E+02  0.19194577792E+03  0.21048433556E+03  0.00000000000E+00 0. -1.
         -1    1    1    2    0  503 -0.67157979799E+01  0.48758714488E+02  0.17142555211E+04  0.17149619546E+04  0.00000000000E+00 0. -1.
<scales pt_clust_3="14000.00000" pt_clust_4="49.75360" pt_clust_5="64.29680" pt_clust_6="49.21904"></scales>
<clustering>
<clus scale="   49.219">  1  6  2 -1</clus>
<clus scale="   49.754">  2  4  1 -1</clus>
<clus scale="   64.297">  1  5  2 -1</clus>
<clus scale="   49.754">  2  3  1 -1</clus>
</clustering>
</event>
<event>
 6    0  0.5775861E+002  0.8381038E+02  0.7546771E-02  0.1318573E+00
         21   -1    0    0  505  502  0.00000000000E+00  0.00000000000E+00  0.59549564866E+02  0.59549564866E+02  0.00000000000E+00 0.  1.
          2   -1    0    0  503    0 -0.00000000000E+00 -0.00000000000E+00 -0.22189164431E+04  0.22189164431E+04  0.00000000000E+00 0.  1.
         21    1    1    2  503  504 -0.19359244953E+02 -0.51950102229E+02 -0.26322839902E+03  0.26900331510E+03  0.00000000000E+00 0. -1.
         21    1    1    2  504  502  0.37540657546E+02 -0.73842382818E+02  0.20213911799E+02  0.85267817490E+02  0.00000000000E+00 0.  1.
         21    1    1    2  505  501 -0.49865478641E+02  0.97411155287E+02 -0.85285729067E+03  0.85984943879E+03  0.00000000000E+00 0. -1.
          2    1    1    2  501    0  0.31684066048E+02  0.28381329760E+02 -0.10634951004E+04  0.10643454366E+04  0.00000000000E+00 0.  1.
<scales pt_clust_3="46.98483" pt_clust_4="83.81038" pt_clust_5="14000.00000" pt_clust_6="42.53681"></scales>
<clustering>
<clus scale="   42.537">  2  6  1 -1</clus>
<clus scale="   46.985">  2  3  1 -1</clus>
<clus scale="   83.810">  1  4  2 -1</clus>
<clus scale="   83.810">  1  3  2 -1</clus>
</clustering>
</event>
<event>
 6    0  0.5775861E+002  0.8263452E+02  0.7546771E-02  0.1321737E+00
          1   -1    0    0  503    0 -0.00000000000E+00  0.00000000000E+00  0.63834830992E+03  0.63834830992E+03  0.00000000000E+00 0. -1.
         21   -1    0    0  504  502  0.00000000000E+00 -0.00000000000E+00 -0.36757736178E+03  0.36757736178E+03  0.00000000000E+00 0. -1.
         21    1    1    2  503  502  0.49960724881E+01 -0.65087824048E+02  0.93458099343E+01  0.65944899294E+02  0.00000000000E+00 0. -1.
         21    1    1    2  504  505  0.59242336542E+02 -0.26353943921E+02 -0.31753897045E+03  0.32409131823E+03  0.00000000000E+00 0. -1.
         21    1    1    2  505  501  0.51090988403E+01  0.91057225160E+02  0.11501211112E+03  0.14678319676E+03  0.00000000000E+00 0.  1.
          1    1    1    2  501    0 -0.69347507871E+02  0.38454280808E+00  0.46395199754E+03  0.46910625741E+03  0.00000000000E+00 0. -1.
<scales pt_clust_3="82.63452" pt_clust_4="64.83969" pt_clust_5="14000.00000" pt_clust_6="66.09121"></scales>
<clustering>
<clus scale="   64.840">  2  4  1 -1</clus>
<clus scale="   66.091">  1  6  2 -1</clus>
<clus scale="   82.635">  2  3  1 -1</clus>
<clus scale="   64.840">  2  3  1 -1</clus>
</clustering>
</event>
<event>
 6    0  0.5775861E+002  0.6131548E+02  0.7546771E-02  0.1392393E+00
         -3   -1    0    0    0  501 -0.00000000000E+00  0.00000000000E+00  0.10213077959E+04  0.10213077959E+04  0.00000000000E+00 0. -1.
         21   -1    0    0  505  502  0.00000000000E+00 -0.00000000000E+00 -0.31018308593E+02  0.31018308593E+02  0.00000000000E+00 0.  1.
         21    1    1    2  503  504 -0.16422832058E+02 -0.66070314251E+02  0.52927078141E+02  0.86233818415E+02  0.00000000000E+00 0.  1.
         21    1    1    2  504  502  0.25605687345E+02  0.51422016479E+02  0.12491661129E+03  0.13749194441E+03  0.00000000000E+00 0.  1.
         21    1    1    2  505  501 -0.61453015911E+02 -0.17190232856E+02  0.14582329063E+03  0.15917414790E+03  0.00000000000E+00 0.  1.
         -3    1    1    2    0  503  0.52270160624E+02  0.31838530627E+02  0.66662250727E+03  0.66942619378E+03  0.00000000000E+00 0. -1.
<scales pt_clust_3="31.45392" pt_clust_4="57.44454" pt_clust_5="14000.00000" pt_clust_6="61.31548"></scales>
<clustering>
<clus scale="   57.445">  2  4  1 -1</clus>
<clus scale="   31.454">  2  3  1 -1</clus>
<clus scale="   61.315">  1  6  2 -1</clus>
<clus scale="   57.445">  2  3  1 -1</clus>
</clustering>
</event>
<event>
 6    0  0.5775861E+002  0.8186269E+02  0.7546771E-02  0.1323847E+00
          2   -1    0    0  504    0 -0.00000000000E+00  0.00000000000E+00  0.10258630378E+04  0.10258630378E+04  0.00000000000E+00 0. -1.
         21   -1    0    0  505  502  0.00000000000E+00 -0.00000000000E+00 -0.16165755184E+03  0.16165755184E+03  0.00000000000E+00 0.  1.
         21    1    1    2  503  501  0.91503621208E+02  0.55888381295E+02  0.40155955189E+02  0.11449421206E+03  0.00000000000E+00 0. -1.
         21    1    1    2  504  502 -0.23377451443E+02  0.23219494089E+02 -0.25812835097E+02  0.41856332824E+02  0.00000000000E+00 0.  1.
         21    1    1    2  505  503  0.61135898320E+01 -0.47412907173E+02 -0.82483808422E+02  0.95335923969E+02  0.00000000000E+00 0.  1.
          2    1    1    2  501    0 -0.74239759598E+02 -0.31694968211E+02  0.93234617432E+03  0.93583412082E+03  0.00000000000E+00 0. -1.
<scales pt_clust_3="14000.00000" pt_clust_4="32.94921" pt_clust_5="32.86766" pt_clust_6="81.86269"></scales>
<clustering>
<clus scale="   32.949">  2  4  1 -1</clus>
<clus scale="   32.868">  2  5  1 -1</clus>
<clus scale="   81.863">  1  6  2 -1</clus>
<clus scale="   32.949">  2  3  1 -1</clus>
</clustering>
</event>
<event>
 6    0  0.5775861E+002  0.2024937E+03  0.7546771E-02  0.1147652E+00
         21   -1    0    0  503  502  0.00000000000E+00  0.00000000000E+00  0.50943313891E+03  0.50943313891E+03  0.00000000000E+00 0. -1.
          2   -1    0    0  505    0 -0.00000000000E+00 -0.00000000000E+00 -0.85074695996E+03  0.85074695996E+03  0.00000000000E+00 0.  1.
         21    1    1    2  503  504 -0.29141793968E+02  0.28732806807E+02  0.38133873861E+03  0.38352842386E+03  0.00000000000E+00 0. -1.
         21    1    1    2  504  501  0.19225139354E+03  0.12278169987E+03 -0.40914423590E+03  0.46843884330E+03  0.00000000000E+00 0.  1.
         21    1    1    2  505  502 -0.57669966063E+02 -0.20762952360E+03 -0.53424458809E+02  0.22201355106E+03  0.00000000000E+00 0. -1.
          2    1    1    2  501    0 -0.10543963351E+03  0.56115016920E+02 -0.26008386495E+03  0.28619928066E+03  0.00000000000E+00 0.  1.
<scales pt_clust_3="40.92454" pt_clust_4="14000.00000" pt_clust_5="202.49375" pt_clust_6="123.48085"></scales>
<clustering>
<clus scale="   40.925">  1  3  2 -1</clus>
<clus scale="  123.481">  2  6  1 -1</clus>
<clus scale="  202.494">  1  5  2 -1</clus>
<clus scale="   40.925">  1  3  2 -1</clus>
</clustering>
</event>
<event>
 6    0  0.5775861E+002  0.3993253E+03  0.7546771E-02  0.1044014E+00
         -3   -1    0    0    0  501 -0.00000000000E+00  0.00000000000E+00  0.17154872456E+03  0.17154872456E+03  0.00000000000E+00 0. -1.
         21   -1    0    0  504  502  0.00000000000E+00 -0.00000000000E+00 -0.13536861098E+04  0.13536861098E+04  0.00000000000E+00 0. -1.
         21    1    1    2  503  502 -0.31900201301E+02 -0.67861065556E+02 -0.91839705268E+02  0.11856339454E+03  0.00000000000E+00 0. -1.
         21    1    1    2  504  505 -0.31961653595E+02  0.63542608492E+01 -0.18810793100E+03  0.19090971069E+03  0.00000000000E+00 0. -1.
         21    1    1    2  505  501  0.22355494604E+03  0.32217449203E+03 -0.80425495287E+03  0.89476211723E+03  0.00000000000E+00 0. -1.
         -3    1    1    2    0  503 -0.15969309115E+03 -0.26066768732E+03 -0.97934796158E+02  0.32099961195E+03  0.00000000000E+00 0. -1.
<scales pt_clust_3="55.60345" pt_clust_4="32.58717" pt_clust_5="383.27348" pt_clust_6="55.60345"></scales>
<clustering>
<clus scale="   32.587">  2  4  1 -1</clus>
<clus scale="   55.603">  3  6 -1 -1</clus>
<clus scale="  383.273">  2  5  1 -1</clus>
<clus scale="   32.587">  2  3  1 -1</clus>
</clustering>
</event>
<event>
 6    0  0.5775861E+002  0.9318856E+02  0.7546771E-02  0.1295309E+00
          1   -1    0    0  503    0 -0.00000000000E+00  0.00000000000E+00  0.27462417315E+02  0.27462417315E+02  0.00000000000E+00 0.  1.
         21   -1    0    0  505  502  0.00000000000E+00 -0.00000000000E+00 -0.11409275999E+04  0.11409275999E+04  0.00000000000E+00 0.  1.
         21    1    1    2  503  504  0.51553283003E+02 -0.68758912777E+02 -0.15651016171E+03  0.17855240069E+03  0.00000000000E+00 0.  1.
         21    1    1    2  504  502  0.65066467142E+02 -0.32228634752E+02 -0.41216806572E+03  0.41851504685E+03  0.00000000000E+00 0.  1.
         21    1    1    2  505  501 -0.81888325580E+02  0.10387730228E+03 -0.47832524185E+03  0.49627737082E+03  0.00000000000E+00 0.  1.
          1    1    1    2  501    0 -0.34731424566E+02 -0.28897547542E+01 -0.66461713306E+02  0.75045198850E+02  0.00000000000E+00 0.  1.
<scales pt_clust_3="93.18856" pt_clust_4="68.56822" pt_clust_5="14000.00000" pt_clust_6="34.85144"></scales>
<clustering>
<clus scale="   34.851">  1  6  2 -1</clus>
<clus scale="   68.568">  2  4  1 -1</clus>
<clus scale="   93.189">  1  3  2 -1</clus>
<clus scale="   68.568">  2  3  1 -1</clus>
</clustering>
</event>
<event>
 6    0  0.5775861E+002  0.5892758E+02  0.7546771E-02  0.1402388E+00
          2   -1    0    0  504    0 -0.00000000000E+00  0.00000000000E+00  0.19966287269E+04  0.19966287269E+04  0.00000000000E+00 0. -1.
         21   -1    0    0  505  502  0.00000000000E+00 -0.00000000000E+00 -0.27226345123E+02  0.27226345123E+02  0.00000000000E+00 0.  1.
         21    1    1    2  503  502 -0.97193345723E+00  0.55598304254E+02  0.57911556427E+02  0.80286141135E+02  0.00000000000E+00 0.  1.
         21    1    1    2  504  503 -0.24601233572E+02 -0.64916886871E+02  0.42952281228E+03  0.43509685032E+03  0.00000000000E+00 0.  1.
         21    1    1    2  505  501  0.47986209982E+02 -0.46266812488E+02  0.75449927394E+02  0.10067763322E+03  0.00000000000E+00 0.  1.
          2    1    1    2  501    0 -0.22413042952E+02  0.55585395105E+02  0.14065180857E+04  0.14077944473E+04  0.00000000000E+00 0. -1.
<scales pt_clust_3="55.60680" pt_clust_4="58.92758" pt_clust_5="47.29019" pt_clust_6="14000.00000"></scales>
<clustering>
<clus scale="   55.607">  2  3  1 -1</clus>
<clus scale="   47.290">  2  5  1 -1</clus>
<clus scale="   58.928">  2  4  1 -1</clus>
<clus scale="   55.607">  2  3  1 -1</clus>
</clustering>
</event>
<event>
 6    0  0.5775861E+002  0.9191380E+02  0.7546771E-02  0.1298282E+00
          2   -1    0    0  504    0 -0.00000000000E+00  0.00000000000E+00  0.83292121059E+03  0.83292121059E+03  0.00000000000E+00 0. -1.
         21   -1    0    0  505  502  0.00000000000E+00 -0.00000000000E+00 -0.17080122738E+03  0.17080122738E+03  0.00000000000E+00 0. -1.
         21    1    1    2  503  502  0.97249496626E+01  0.69282823107E+02  0.74476424486E+00  0.69965983859E+02  0.00000000000E+00 0. -1.
         21    1    1    2  504  503 -0.12662060234E+03 -0.55060220601E+02  0.24985791197E+03  0.28547045558E+03  0.00000000000E+00 0. -1.
         21    1    1    2  505  501  0.63893297974E+02 -0.16250613768E+01 -0.10822909450E+03  0.12569220838E+03  0.00000000000E+00 0. -1.
          2    1    1    2  501    0  0.53002354705E+02 -0.12597541129E+02  0.51974640149E+03  0.52259379015E+03  0.00000000000E+00 0. -1.
<scales pt_clust_3="91.91380" pt_clust_4="14000.00000" pt_clust_5="65.40771" pt_clust_6="54.47887"></scales>
<clustering>
<clus scale="   54.479">  1  6  2 -1</clus>
<clus scale="   65.408">  2  5  1 -1</clus>
<clus scale="   91.914">  2  3  1 -1</clus>
<clus scale="   65.408">  2  3  1 -1</clus>
</clustering>
</event>
<event>
 6    0  0.5775861E+002  0.6668286E+02  0.7546771E-02  0.1371751E+00
          2   -1    0    0  503    0 -0.00000000000E+00  0.00000000000E+00  0.20701941119E+04  0.20701941119E+04  0.00000000000E+00 0.  1.
         21   -1    0    0  505  502  0.00000000000E+00 -0.00000000000E+00 -0.18035481897E+02  0.18035481897E+02  0.00000000000E+00 0.  1.
         21    1    1    2  503  502 -0.92341100392E+02  0.29618709221E+02  0.34190136151E+03  0.35538808050E+03  0.00000000000E+00 0.  1.
         21    1    1    2  504  501  0.85210562592E+02 -0.11371193921E+01  0.75432542029E+03  0.75912381909E+03  0.00000000000E+00 0.  1.
         21    1    1    2  505  504  0.49963807653E+02 -0.26723333896E+02  0.87596738414E+02  0.10432500769E+03  0.00000000000E+00 0.  1.
          2    1    1    2  501    0 -0.42833269853E+02 -0.17582559325E+01  0.86833510979E+03  0.86939268651E+03  0.00000000000E+00 0.  1.
<scales pt_clust_3="14000.00000" pt_clust_4="66.68286" pt_clust_5="53.73874" pt_clust_6="42.86934"></scales>
<clustering>
<clus scale="   42.869">  1  6  2 -1</clus>
<clus scale="   53.739">  2  5  1 -1</clus>
<clus scale="   66.683">  1  4  2 -1</clus>
<clus scale="   53.739">  2  3  1 -1</clus>
</clustering>
</event>
<event>
 6    0  0.5775861E+002  0.1341660E+03  0.7546771E-02  0.1221402E+00
         21   -1    0    0  503  502  0.00000000000E+00  0.00000000000E+00  0.46509638322E+03  0.46509638322E+03  0.00000000000E+00 0.  1.
          2   -1    0    0  504    0 -0.00000000000E+00 -0.00000000000E+00 -0.35662528828E+04  0.35662528828E+04  0.00000000000E+00 0.  1.
         21    1    1    2  503  501 -0.11370720538E+03 -0.37236938753E+02  0.37132819892E+03  0.39012888829E+03  0.00000000000E+00 0.  1.
         21    1    1    2  504  505  0.91846132952E+02 -0.19034227107E+02 -0.27374551088E+03  0.28936934645E+03  0.00000000000E+00 0. -1.
         21    1    1    2  505  502 -0.23695316080E+02  0.32278838788E+02  0.71103335174E+02  0.81603159929E+02  0.00000000000E+00 0. -1.
          2    1    1    2  501    0  0.45556388511E+02  0.23992327072E+02 -0.32698425228E+04  0.32702478713E+04  0.00000000000E+00 0.  1.
<scales pt_clust_3="134.16599" pt_clust_4="14000.00000" pt_clust_5="40.04237" pt_clust_6="51.48494"></scales>
<clustering>
<clus scale="   40.042">  1  5  2 -1</clus>
<clus scale="   51.485">  2  6  1 -1</clus>
<clus scale="  134.166">  1  3  2 -1</clus>
<clus scale="   40.042">  1  3  2 -1</clus>
</clustering>
</event>
<event>
 6    0  0.5775861E+002  0.1186008E+03  0.7546771E-02  0.1245423E+00
          1   -1    0    0  505    0 -0.00000000000E+00  0.00000000000E+00  0.31735616661E+03  0.31735616661E+03  0.00000000000E+00 0.  1.
         21   -1    0    0  504  502  0.00000000000E+00 -0.00000000000E+00 -0.30144096072E+03  0.30144096072E+03  0.00000000000E+00 0.  1.
         21    1    1    2  503  502 -0.46570328463E+01 -0.88705423228E+02 -0.15653331148E+03  0.17998060359E+03  0.00000000000E+00 0.  1.
         21    1    1    2  504  501  0.58274762077E+02  0.16797219051E+02 -0.15284865935E+02  0.62543757400E+02  0.00000000000E+00 0.  1.
         21    1    1    2  505  503 -0.14306385323E+03 -0.62590792685E+01 -0.12193059581E+02  0.14371886751E+03  0.00000000000E+00 0.  1.
          1    1    1    2  501    0  0.89446124002E+02  0.78167283446E+02  0.19992644289E+03  0.23255389884E+03  0.00000000000E+00 0.  1.
<scales pt_clust_3="84.51859" pt_clust_4="60.64730" pt_clust_5="14000.00000" pt_clust_6="118.60081"></scales>
<clustering>
<clus scale="   60.647">  2  4  1 -1</clus>
<clus scale="   84.519">  2  3  1 -1</clus>
<clus scale="  118.601">  1  6  2 -1</clus>
<clus scale="   60.647">  2  3  1 -1</clus>
</clustering>
</event>
<event>
 6    0  0.5775861E+002  0.8031267E+02  0.7546771E-02  0.1328166E+00
         -3   -1    0    0    0  501 -0.00000000000E+00  0.00000000000E+00  0.20220012259E+04  0.20220012259E+04  0.00000000000E+00 0.  1.
         21   -1    0    0  505  502  0.00000000000E+00 -0.00000000000E+00 -0.30249600475E+02  0.30249600475E+02  0.00000000000E+00 0. -1.
         21    1    1    2  503  504 -0.68153993450E+02  0.70218466586E+02  0.33984035977E+03  0.35364822918E+03  0.00000000000E+00 0. -1.
         21    1    1    2  504  502 -0.13375868715E+01  0.41221274154E+02  0.48861202780E+01  0.41531394786E+02  0.00000000000E+00 0. -1.
         21    1    1    2  505  501  0.17829108709E+02 -0.75525240847E+02  0.34905933979E+03  0.35758126604E+03  0.00000000000E+00 0. -1.
         -3    1    1    2    0  503  0.51662471612E+02 -0.35914499893E+02  0.12979658056E+04  0.12994899364E+04  0.00000000000E+00 0.  1.
<scales pt_clust_3="80.31267" pt_clust_4="41.24297" pt_clust_5="14000.00000" pt_clust_6="61.38235"></scales>
<clustering>
<clus scale="   41.243">  2  4  1 -1</clus>
<clus scale="   61.382">  1  6  2 -1</clus>
<clus scale="   80.313">  1  3  2 -1</clus>
<clus scale="   41.243">  2  3  1 -1</clus>
</clustering>
</event>
<event>
 6    0  0.5775861E+002  0.1184621E+03  0.7546771E-02  0.1245656E+00
         21   -1    0    0  501  502  0.00000000000E+00  0.00000000000E+00  0.84543756271E+03  0.84543756271E+03  0.00000000000E+00 0.  1.
          2   -1    0    0  504    0 -0.00000000000E+00 -0.00000000000E+00 -0.30675156370E+03  0.30675156370E+03  0.00000000000E+00 0.  1.
         21    1    1    2  503  502  0.28591266747E+02 -0.93070063139E+01  0.57728696336E+03  0.57806947590E+03  0.00000000000E+00 0.  1.
         21    1    1    2  504  505 -0.43268794449E+02 -0.41887763220E+02 -0.40956757480E+02  0.72830139805E+02  0.00000000000E+00 0.  1.
         21    1    1    2  505  503 -0.26334439196E+02  0.12961105467E+03  0.22539626442E+03  0.26133504203E+03  0.00000000000E+00 0.  1.
          2    1    1    2  501    0  0.41011966899E+02 -0.78416285140E+02 -0.22304047129E+03  0.23995446867E+03  0.00000000000E+00 0.  1.
<scales pt_clust_3="30.06794" pt_clust_4="59.40640" pt_clust_5="14000.00000" pt_clust_6="118.46208"></scales>
<clustering>
<clus scale="   30.068">  1  3  2 -1</clus>
<clus scale="   59.406">  2  4  1 -1</clus>
<clus scale="  118.462">  2  6  1 -1</clus>
<clus scale="   30.068">  1  3  2 -1</clus>
</clustering>
</event>
<event>
 6    0  0.5775861E+002  0.9443100E+02  0.7546771E-02  0.1292463E+00
         21   -1    0    0  505  502  0.00000000000E+00  0.00000000000E+00  0.10408309279E+03  0.10408309279E+03  0.00000000000E+00 0.  1.
          1   -1    0    0  503    0 -0.00000000000E+00 -0.00000000000E+00 -0.17694630475E+04  0.17694630475E+04  0.00000000000E+00 0. -1.
         21    1    1    2  503  502  0.62573633196E+02  0.40568311136E+02 -0.31360404790E+02  0.80899458765E+02  0.00000000000E+00 0. -1.
         21    1    1    2  504  501  0.35758783236E+02 -0.63837643730E+02 -0.57432865767E+02  0.93018650849E+02  0.00000000000E+00 0. -1.
         21    1    1    2  505  504 -0.13434390084E+03  0.19605380849E+02 -0.13849264482E+02  0.13647145041E+03  0.00000000000E+00 0.  1.
          1    1    1    2  501    0  0.36011484407E+02  0.36639517447E+01 -0.15627374197E+04  0.15631565803E+04  0.00000000000E+00 0. -1.
<scales pt_clust_3="94.43100" pt_clust_4="79.34435" pt_clust_5="14000.00000" pt_clust_6="36.19740"></scales>
<clustering>
<clus scale="   36.197">  2  6  1 -1</clus>
<clus scale="   79.344">  2  4  1 -1</clus>
<clus scale="   94.431">  1  3  2 -1</clus>
<clus scale="   94.431">  1  3  2 -1</clus>
</clustering>
</event>
<event>
 6    0  0.5775861E+002  0.1025201E+03  0.7546771E-02  0.1275084E+00
          2   -1    0    0  503    0 -0.00000000000E+00  0.00000000000E+00  0.97473005794E+03  0.97473005794E+03  0.00000000000E+00 0. -1.
         21   -1    0    0  505  502  0.00000000000E+00 -0.00000000000E+00 -0.10727933071E+03  0.10727933071E+03  0.00000000000E+00 0. -1.
         21    1    1    2  503  502 -0.30088980978E+02  0.50730170599E+01  0.66473868079E+03  0.66543864933E+03  0.00000000000E+00 0. -1.
         21    1    1    2  504  501  0.88530371799E+02  0.11422907930E+02  0.11277953996E+02  0.89973895119E+02  0.00000000000E+00 0. -1.
         21    1    1    2  505  504  0.23888649151E+02 -0.47510742140E+02 -0.47921256783E+02  0.71584810042E+02  0.00000000000E+00 0. -1.
          2    1    1    2  501    0 -0.82330039973E+02  0.31014817150E+02  0.23935534923E+03  0.25501203416E+03  0.00000000000E+00 0. -1.
<scales pt_clust_3="30.51364" pt_clust_4="14000.00000" pt_clust_5="52.49711" pt_clust_6="102.52013"></scales>
<clustering>
<clus scale="   30.514">  1  3  2 -1</clus>
<clus scale="   52.497">  2  5  1 -1</clus>
<clus scale="  102.520">  1  6  2 -1</clus>
<clus scale="   52.497">  2  3  1 -1</clus>
</clustering>
</event>
<event>
 6    0  0.5775861E+002  0.1097152E+03  0.7546771E-02  0.1261098E+00
         21   -1    0    0  503  502  0.00000000000E+00  0.00000000000E+00  0.40790924755E+03  0.40790924755E+03  0.00000000000E+00 0.  1.
         -3   -1    0    0    0  501 -0.00000000000E+00 -0.00000000000E+00 -0.17959027595E+03  0.17959027595E+03  0.00000000000E+00 0.  1.
         21    1    1    2  503  505 -0.62012929428E+02 -0.21032204283E+02  0.15873796793E+03  0.17171400495E+03  0.00000000000E+00 0.  1.
         21    1    1    2  504  501  0.18835469819E+02 -0.13002609680E+03  0.45198723375E+01  0.13146098287E+03  0.00000000000E+00 0.  1.
         21    1    1    2  505  504  0.94859629610E+01  0.11133061187E+03  0.14857286014E+03  0.18589885261E+03  0.00000000000E+00 0.  1.
         -3    1    1    2    0  502  0.33691496649E+02  0.39727689210E+02 -0.83511728814E+02  0.98425683060E+02  0.00000000000E+00 0.  1.
<scales pt_clust_3="62.24338" pt_clust_4="14000.00000" pt_clust_5="109.71520" pt_clust_6="52.09037"></scales>
<clustering>
<clus scale="   52.090">  2  6  1 -1</clus>
<clus scale="   62.243">  1  3  2 -1</clus>
<clus scale="  109.715">  1  5  2 -1</clus>
<clus scale="   62.243">  1  3  2 -1</clus>
</clustering>
</event>
<event>
 6    0  0.5775861E+002  0.7098122E+02  0.7546771E-02  0.1356788E+00
         21   -1    0    0  505  502  0.00000000000E+00  0.00000000000E+00  0.20888501760E+03  0.20888501760E+03  0.00000000000E+00 0.  1.
         -1   -1    0    0    0  501 -0.00000000000E+00 -0.00000000000E+00 -0.54622508308E+03  0.54622508308E+03  0.00000000000E+00 0. -1.
         21    1    1    2  503  502 -0.13942064682E+01  0.62005974619E+02 -0.71524452254E+01  0.62432701149E+02  0.00000000000E+00 0.  1.
         21    1    1    2  504  501  0.59008321474E+02 -0.69404807278E+02 -0.32632529696E+02  0.96767201421E+02  0.00000000000E+00 0.  1.
         21    1    1    2  505  504 -0.71191812072E+02 -0.61304162276E+02  0.13125803457E+03  0.16141606506E+03  0.00000000000E+00 0.  1.
         -1    1    1    2    0  503  0.13577697066E+02  0.68702994936E+02 -0.42881312513E+03  0.43449413305E+03  0.00000000000E+00 0. -1.
<scales pt_clust_3="62.02165" pt_clust_4="14000.00000" pt_clust_5="68.97022" pt_clust_6="70.98122"></scales>
<clustering>
<clus scale="   62.022">  1  3  2 -1</clus>
<clus scale="   70.981">  2  6  1 -1</clus>
<clus scale="   68.970">  1  5  2 -1</clus>
<clus scale="   62.022">  1  3  2 -1</clus>
</clustering>
</event>
<event>
 6    0  0.5775861E+002  0.9267767E+02  0.7546771E-02  0.1296494E+00
          2   -1    0    0  503    0 -0.00000000000E+00  0.00000000000E+00  0.67767539027E+03  0.67767539027E+03  0.00000000000E+00 0.  1.
         21   -1    0    0  505  502  0.00000000000E+00 -0.00000000000E+00 -0.97024354609E+03  0.97024354609E+03  0.00000000000E+00 0.  1.
         21    1    1    2  503  504 -0.58413843316E+02 -0.42705913503E+02  0.19717166109E+02  0.74998258503E+02  0.00000000000E+00 0. -1.
         21    1    1    2  504  502 -0.29276693612E+02  0.91795654543E+02 -0.91055449496E+03  0.91563805910E+03  0.00000000000E+00 0.  1.
         21    1    1    2  505  501  0.78398222831E+02  0.65384567466E+01  0.26908395961E+02  0.83145021094E+02  0.00000000000E+00 0.  1.
          2    1    1    2  501    0  0.92923140969E+01 -0.55628197786E+02  0.57136077707E+03  0.57413759767E+03  0.00000000000E+00 0.  1.
<scales pt_clust_3="92.67767" pt_clust_4="14000.00000" pt_clust_5="86.29288" pt_clust_6="56.39897"></scales>
<clustering>
<clus scale="   56.399">  1  6  2 -1</clus>
<clus scale="   86.293">  1  5  2 -1</clus>
<clus scale="   92.678">  1  3  2 -1</clus>
<clus scale="   92.678">  2  3  1 -1</clus>
</clustering>
</event>
<event>
 6    0  0.5775861E+002  0.7652772E+02  0.7546771E-02  0.1339204E+00
          1   -1    0    0  505    0 -0.00000000000E+00  0.00000000000E+00  0.76956410002E+03  0.76956410002E+03  0.00000000000E+00 0.  1.
         21   -1    0    0  504  502  0.00000000000E+00 -0.00000000000E+00 -0.31331210333E+03  0.31331210333E+03  0.00000000000E+00 0.  1.
         21    1    1    2  503  502 -0.73800030606E+01 -0.29792589681E+02 -0.27701875777E+02  0.41345577353E+02  0.00000000000E+00 0.  1.
         21    1    1    2  504  501  0.16623625216E+02 -0.47545583989E+02 -0.26290393876E+03  0.26768527880E+03  0.00000000000E+00 0.  1.
         21    1    1    2  505  503  0.73594704369E+02  0.96777652690E+01  0.14866963144E+03  0.16617009046E+03  0.00000000000E+00 0.  1.
          1    1    1    2  501    0 -0.82838326525E+02  0.67660408401E+02  0.59818817979E+03  0.60767525674E+03  0.00000000000E+00 0.  1.
<scales pt_clust_3="30.69304" pt_clust_4="76.52772" pt_clust_5="73.88217" pt_clust_6="14000.00000"></scales>
<clustering>
<clus scale="   30.693">  2  3  1 -1</clus>
<clus scale="   73.882">  1  5  2 -1</clus>
<clus scale="   76.528">  2  4  1 -1</clus>
<clus scale="   30.693">  2  3  1 -1</clus>
</clustering>
</event>
<event>
 6    0  0.5775861E+002  0.8631007E+02  0.7546771E-02  0.1312042E+00
          1   -1    0    0  503    0 -0.00000000000E+00  0.00000000000E+00  0.25409115966E+04  0.25409115966E+04  0.00000000000E+00 0. -1.
         21   -1    0    0  505  502  0.00000000000E+00 -0.00000000000E+00 -0.82171524943E+02  0.82171524943E+02  0.00000000000E+00 0. -1.
         21    1    1    2  503  502 -0.40414487056E+02  0.11430744835E+03  0.99754333048E+02  0.15700461928E+03  0.00000000000E+00 0. -1.
         21    1    1    2  504  501 -0.28711938751E+02 -0.67664568155E+02  0.41396354830E+03  0.42043868582E+03  0.00000000000E+00 0. -1.
         21    1    1    2  505  504  0.37611131890E+02 -0.27502206747E+02 -0.39312473056E+02  0.60962604569E+02  0.00000000000E+00 0. -1.
          1    1    1    2  501    0  0.31515293917E+02 -0.19140673447E+02  0.19843346634E+04  0.19846772119E+04  0.00000000000E+00 0. -1.
<scales pt_clust_3="14000.00000" pt_clust_4="86.31007" pt_clust_5="47.30844" pt_clust_6="36.87247"></scales>
<clustering>
<clus scale="   36.872">  1  6  2 -1</clus>
<clus scale="   47.308">  2  5  1 -1</clus>
<clus scale="   86.310">  1  4  2 -1</clus>
<clus scale="   47.308">  2  3  1 -1</clus>
</clustering>
</event>
<event>
 6    0  0.5775861E+002  0.1089048E+03  0.7546771E-02  0.1262612E+00
          2   -1    0    0  503    0 -0.00000000000E+00  0.00000000000E+00  0.28149194905E+04  0.28149194905E+04  0.00000000000E+00 0. -1.
         21   -1    0    0  501  502  0.00000000000E+00 -0.00000000000E+00 -0.14600758378E+03  0.14600758378E+03  0.00000000000E+00 0. -1.
         21    1    1    2  503  505  0.92344266745E+02  0.24949955805E+02  0.43944323706E+03  0.44973361281E+03  0.00000000000E+00 0. -1.
         21    1    1    2  504  502 -0.18488465081E+02 -0.10783816049E+03 -0.89276190421E+02  0.14121306730E+03  0.00000000000E+00 0. -1.
         21    1    1    2  505  504 -0.64168282982E+02  0.11391267823E+03  0.14211190136E+03  0.19310478842E+03  0.00000000000E+00 0. -1.
          2    1    1    2  501    0 -0.96875186829E+01 -0.31024473538E+02  0.21766329588E+04  0.21768756058E+04  0.00000000000E+00 0. -1.
<scales pt_clust_3="85.66029" pt_clust_4="14000.00000" pt_clust_5="108.90476" pt_clust_6="32.50178"></scales>
<clustering>
<clus scale="   32.502">  1  6  2 -1</clus>
<clus scale="   85.660">  1  3  2 -1</clus>
<clus scale="  108.905">  1  5  2 -1</clus>
<clus scale="  108.905">  2  3  1 -1</clus>
</clustering>
</event>
<event>
 6    0  0.6807023E+002  0.1202904E+03  0.7546771E-02  0.1242619E+00
         21   -1    0    0  505  502  0.00000000000E+00  0.00000000000E+00  0.17545017510E+03  0.17545017510E+03  0.00000000000E+00 0.  1.
          1   -1    0    0  503    0 -0.00000000000E+00 -0.00000000000E+00 -0.11435633262E+04  0.11435633262E+04  0.00000000000E+00 0. -1.
         21    1    1    2  503  502 -0.59936278279E+02 -0.61950029505E+02  0.11110002521E+02  0.86911424828E+02  0.00000000000E+00 0. -1.
         21    1    1    2  504  501  0.10986310367E+02  0.66731105700E+02 -0.43756162890E+03  0.44275717789E+03  0.00000000000E+00 0. -1.
         21    1    1    2  505  504  0.30645609799E+02 -0.47437146513E+02  0.11654303182E+03  0.12950565445E+03  0.00000000000E+00 0.  1.
          1    1    1    2  501    0  0.18304358112E+02  0.42656070319E+02 -0.65820455657E+03  0.65983924418E+03  0.00000000000E+00 0. -1.
<scales pt_clust_3="110.80584" pt_clust_4="38.78624" pt_clust_5="56.47509" pt_clust_6="38.78624"></scales>
<clustering>
<clus scale="   38.786">  4  6 -1 -1</clus>
<clus scale="   56.475">  1  5  2 -1</clus>
<clus scale="  110.806">  1  3  2 -1</clus>
<clus scale="   56.475">  1  3  2 -1</clus>
</clustering>
</event>
<event>
 6    0  0.5775861E+002  0.3275451E+03  0.7546771E-02  0.1072228E+00
         21   -1    0    0  503  502  0.00000000000E+00  0.00000000000E+00  0.59824443139E+03  0.59824443139E+03  0.00000000000E+00 0. -1.
          1   -1    0    0  504    0 -0.00000000000E+00 -0.00000000000E+00 -0.36188964372E+03  0.36188964372E+03  0.00000000000E+00 0. -1.
         21    1    1    2  503  501 -0.15312465580E+03 -0.23398202969E+02 -0.58571778889E+02  0.16560582537E+03  0.00000000000E+00 0. -1.
         21    1    1    2  504  505  0.31966426475E+03  0.12404036058E+03  0.34043623471E+03  0.48318535068E+03  0.00000000000E+00 0. -1.
         21    1    1    2  505  502 -0.36025777782E+02 -0.88245268432E+01  0.92946726870E+02  0.10007408743E+03  0.00000000000E+00 0.  1.
          1    1    1    2  501    0 -0.13051383117E+03 -0.91817630765E+02 -0.13845639502E+03  0.21126881163E+03  0.00000000000E+00 0. -1.
<scales pt_clust_3="96.43200" pt_clust_4="312.72490" pt_clust_5="37.09082" pt_clust_6="96.43200"></scales>
<clustering>
<clus scale="   37.091">  1  5  2 -1</clus>
<clus scale="   96.432">  3  6 -1 -1</clus>
<clus scale="  312.725">  1  4  2 -1</clus>
<clus scale="   37.091">  1  3  2 -1</clus>
</clustering>
</event>
<event>
 6    0  0.5775861E+002  0.1070482E+03  0.7546771E-02  0.1266136E+00
          2   -1    0    0  505    0 -0.00000000000E+00  0.00000000000E+00  0.11902664363E+04  0.11902664363E+04  0.00000000000E+00 0. -1.
         21   -1    0    0  504  502  0.00000000000E+00 -0.00000000000E+00 -0.19429561151E+04  0.19429561151E+04  0.00000000000E+00 0.  1.
         21    1    1    2  503  501  0.74807824529E+02 -0.34667039321E+02 -0.27191812396E+03  0.28414341513E+03  0.00000000000E+00 0.  1.
         21    1    1    2  504  503 -0.37749785266E+02  0.18826096896E+02 -0.45021967666E+03  0.45219158049E+03  0.00000000000E+00 0.  1.
         21    1    1    2  505  502  0.18557254744E+02  0.10732149714E+03 -0.12088445920E+04  0.12137411269E+04  0.00000000000E+00 0.  1.
          2    1    1    2  501    0 -0.55615294007E+02 -0.91480554713E+02  0.11782927138E+04  0.11831464289E+04  0.00000000000E+00 0. -1.
<scales pt_clust_3="74.59148" pt_clust_4="42.18374" pt_clust_5="14000.00000" pt_clust_6="107.04818"></scales>
<clustering>
<clus scale="   42.184">  2  4  1 -1</clus>
<clus scale="   74.591">  2  3  1 -1</clus>
<clus scale="  107.048">  1  6  2 -1</clus>
<clus scale="   42.184">  2  3  1 -1</clus>
</clustering>
</event>
<event>
 6    0  0.5775861E+002  0.1325092E+03  0.7546771E-02  0.1223779E+00
          2   -1    0    0  503    0 -0.00000000000E+00  0.00000000000E+00  0.25010805735E+04  0.25010805735E+04  0.00000000000E+00 0.  1.
         21   -1    0    0  504  502  0.00000000000E+00 -0.00000000000E+00 -0.33803120481E+02  0.33803120481E+02  0.00000000000E+00 0.  1.
         21    1    1    2  503  505  0.43481995036E+02 -0.29159097201E+02  0.13353118715E+04  0.13363378057E+04  0.00000000000E+00 0.  1.
         21    1    1    2  504  501 -0.11992428479E+03 -0.57866183256E+02  0.13498366622E+03  0.18960727674E+03  0.00000000000E+00 0.  1.
         21    1    1    2  505  502 -0.20304654500E+02  0.29721853652E+02  0.13753891153E+03  0.14217109328E+03  0.00000000000E+00 0. -1.
          2    1    1    2  501    0  0.96746944253E+02  0.57303426805E+02  0.85944300384E+03  0.86676751831E+03  0.00000000000E+00 0.  1.
<scales pt_clust_3="51.81000" pt_clust_4="14000.00000" pt_clust_5="35.99538" pt_clust_6="132.50920"></scales>
<clustering>
<clus scale="   35.995">  2  5  1 -1</clus>
<clus scale="   51.810">  1  3  2 -1</clus>
<clus scale="  132.509">  1  6  2 -1</clus>
<clus scale="   35.995">  2  3  1 -1</clus>
</clustering>
</event>
<event>
 6    0  0.5775861E+002  0.1718114E+03  0.7546771E-02  0.1175972E+00
         21   -1    0    0  503  502  0.00000000000E+00  0.00000000000E+00  0.52382841797E+03  0.52382841797E+03  0.00000000000E+00 0. -1.
          1   -1    0    0  505    0 -0.00000000000E+00 -0.00000000000E+00 -0.16998838100E+04  0.16998838100E+04  0.00000000000E+00 0. -1.
         21    1    1    2  503  504 -0.33463751679E+02  0.71310112575E+01  0.44263518945E+03  0.44395561145E+03  0.00000000000E+00 0. -1.
         21    1    1    2  504  501 -0.20513610514E+02 -0.28564202118E+02  0.53338911390E+02  0.63888663527E+02  0.00000000000E+00 0. -1.
         21    1    1    2  505  502 -0.81077791772E+02 -0.10788608299E+03 -0.27445919449E+03  0.30584451060E+03  0.00000000000E+00 0. -1.
          1    1    1    2  501    0  0.13505515397E+03  0.12931927385E+03 -0.13975702984E+04  0.14100234424E+04  0.00000000000E+00 0. -1.
<scales pt_clust_3="34.21511" pt_clust_4="50.59251" pt_clust_5="14000.00000" pt_clust_6="171.81137"></scales>
<clustering>
<clus scale="   34.215">  1  3  2 -1</clus>
<clus scale="   50.593">  1  4  2 -1</clus>
<clus scale="  171.811">  2  6  1 -1</clus>
<clus scale="   34.215">  1  3  2 -1</clus>
</clustering>
</event>
<event>
 6    0  0.5775861E+002  0.7246376E+02  0.7546771E-02  0.1351910E+00
          1   -1    0    0  503    0 -0.00000000000E+00  0.00000000000E+00  0.96487728069E+03  0.96487728069E+03  0.00000000000E+00 0.  1.
         21   -1    0    0  505  502  0.00000000000E+00 -0.00000000000E+00 -0.72881371748E+03  0.72881371748E+03  0.00000000000E+00 0.  1.
         21    1    1    2  503  502  0.38035734548E+02 -0.81225574401E+01  0.94122180445E+02  0.10184143505E+03  0.00000000000E+00 0. -1.
         21    1    1    2  504  501 -0.90876284675E+02 -0.18771501471E+02  0.20379218801E+03  0.22392437178E+03  0.00000000000E+00 0.  1.
         21    1    1    2  505  504  0.69023678856E+02 -0.21816889740E+02 -0.71204140484E+03  0.71571167877E+03  0.00000000000E+00 0.  1.
          1    1    1    2  501    0 -0.16183128729E+02  0.48710948651E+02  0.65019059960E+03  0.65221351257E+03  0.00000000000E+00 0.  1.
<scales pt_clust_3="38.89335" pt_clust_4="72.46376" pt_clust_5="14000.00000" pt_clust_6="44.37390"></scales>
<clustering>
<clus scale="   38.893">  1  3  2 -1</clus>
<clus scale="   44.374">  1  6  2 -1</clus>
<clus scale="   72.464">  1  4  2 -1</clus>
<clus scale="   72.464">  2  3  1 -1</clus>
</clustering>
</event>
<event>
 6    0  0.5775861E+002  0.1178793E+03  0.7546771E-02  0.1246637E+00
          1   -1    0    0  504    0 -0.00000000000E+00  0.00000000000E+00  0.12911253021E+03  0.12911253021E+03  0.00000000000E+00 0.  1.
         21   -1    0    0  503  502  0.00000000000E+00 -0.00000000000E+00 -0.65724305483E+03  0.65724305483E+03  0.00000000000E+00 0.  1.
         21    1    1    2  503  505  0.98011600504E+02 -0.65483074410E+01 -0.45496840124E+03  0.46545182382E+03  0.00000000000E+00 0.  1.
         21    1    1    2  504  502  0.25419617063E+02  0.34791573775E+02 -0.81796034817E+02  0.92451078140E+02  0.00000000000E+00 0.  1.
         21    1    1    2  505  501 -0.10368890045E+03 -0.68956325865E+02 -0.66181472455E+02  0.14101897124E+03  0.00000000000E+00 0.  1.
          1    1    1    2  501    0 -0.19742317121E+02  0.40713059530E+02  0.74815383886E+02  0.87433711848E+02  0.00000000000E+00 0.  1.
<scales pt_clust_3="117.87932" pt_clust_4="43.08840" pt_clust_5="14000.00000" pt_clust_6="45.47288"></scales>
<clustering>
<clus scale="   43.088">  2  4  1 -1</clus>
<clus scale="   45.473">  1  6  2 -1</clus>
<clus scale="  117.879">  2  3  1 -1</clus>
<clus scale="   43.088">  2  3  1 -1</clus>
</clustering>
</event>
<event>
 6    0  0.5775861E+002  0.1071431E+03  0.7546771E-02  0.1265954E+00
         21   -1    0    0  505  502  0.00000000000E+00  0.00000000000E+00  0.87724946828E+02  0.87724946828E+02  0.00000000000E+00 0. -1.
          1   -1    0    0  503    0 -0.00000000000E+00 -0.00000000000E+00 -0.13724233971E+04  0.13724233971E+04  0.00000000000E+00 0. -1.
         21    1    1    2  503  504 -0.87405537543E+02  0.55182742238E+02 -0.47424072314E+02  0.11372733035E+03  0.00000000000E+00 0. -1.
         21    1    1    2  504  502 -0.58072933272E+01  0.34029525329E+02  0.42799659476E+02  0.54986762963E+02  0.00000000000E+00 0. -1.
         21    1    1    2  505  501  0.65818033321E+02 -0.33292915370E+02 -0.28420535459E+03  0.29362069972E+03  0.00000000000E+00 0. -1.
          1    1    1    2  501    0  0.27394797549E+02 -0.55919352197E+02 -0.99586868284E+03  0.99781355090E+03  0.00000000000E+00 0. -1.
<scales pt_clust_3="107.14313" pt_clust_4="34.52149" pt_clust_5="14000.00000" pt_clust_6="61.44039"></scales>
<clustering>
<clus scale="   34.521">  1  4  2 -1</clus>
<clus scale="   61.440">  2  6  1 -1</clus>
<clus scale="  107.143">  1  3  2 -1</clus>
<clus scale="   34.521">  1  3  2 -1</clus>
</clustering>
</event>
<event>
 6    0  0.5775861E+002  0.1053812E+03  0.7546771E-02  0.1269370E+00
          4   -1    0    0  503    0 -0.00000000000E+00  0.00000000000E+00  0.94232121829E+03  0.94232121829E+03  0.00000000000E+00 0.  1.
         21   -1    0    0  504  502  0.00000000000E+00 -0.00000000000E+00 -0.70565847654E+02  0.70565847654E+02  0.00000000000E+00 0.  1.
         21    1    1    2  503  505 -0.10119949328E+03  0.87522611079E+02  0.45455196715E+03  0.47383439695E+03  0.00000000000E+00 0.  1.
         21    1    1    2  504  501  0.10168503466E+03 -0.18010996555E+02  0.12007823235E+02  0.10396359983E+03  0.00000000000E+00 0.  1.
         21    1    1    2  505  502 -0.47269162428E+02  0.80514697830E+01  0.53175269186E+02  0.71601739751E+02  0.00000000000E+00 0.  1.
          4    1    1    2  501    0  0.46783621044E+02 -0.77563084307E+02  0.35202031106E+03  0.36348732941E+03  0.00000000000E+00 0.  1.
<scales pt_clust_3="14000.00000" pt_clust_4="67.33512" pt_clust_5="47.94997" pt_clust_6="105.38123"></scales>
<clustering>
<clus scale="   47.950">  2  5  1 -1</clus>
<clus scale="   67.335">  2  4  1 -1</clus>
<clus scale="  105.381">  1  6  2 -1</clus>
<clus scale="   47.950">  2  3  1 -1</clus>
</clustering>
</event>
<event>
 6    0  0.5775861E+002  0.1439956E+03  0.7546771E-02  0.1208052E+00
         21   -1    0    0  503  502  0.00000000000E+00  0.00000000000E+00  0.14247946608E+03  0.14247946608E+03  0.00000000000E+00 0.  1.
          1   -1    0    0  504    0 -0.00000000000E+00 -0.00000000000E+00 -0.67616219862E+03  0.67616219862E+03  0.00000000000E+00 0.  1.
         21    1    1    2  503  505 -0.26885453255E+02 -0.39672236915E+02 -0.56743837381E+01  0.48258808619E+02  0.00000000000E+00 0.  1.
         21    1    1    2  504  502  0.61788766135E+02  0.16450612111E+03  0.44075884712E+02  0.18117063535E+03  0.00000000000E+00 0.  1.
         21    1    1    2  505  501 -0.29676986316E+02 -0.74059332792E+02 -0.23238576037E+03  0.24570032543E+03  0.00000000000E+00 0.  1.
          1    1    1    2  501    0 -0.52263265650E+01 -0.50774551399E+02 -0.33969847314E+03  0.34351189530E+03  0.00000000000E+00 0.  1.
<scales pt_clust_3="47.92404" pt_clust_4="132.83745" pt_clust_5="44.45424" pt_clust_6="44.45424"></scales>
<clustering>
<clus scale="   44.454">  5  6 -1 -1</clus>
<clus scale="   47.924">  1  3  2 -1</clus>
<clus scale="  132.837">  1  4  2 -1</clus>
<clus scale="   47.924">  1  3  2 -1</clus>
</clustering>
</event>
<event>
 6    0  0.5775861E+002  0.1102615E+03  0.7546771E-02  0.1260086E+00
         21   -1    0    0  505  502  0.00000000000E+00  0.00000000000E+00  0.14173048668E+03  0.14173048668E+03  0.00000000000E+00 0. -1.
          2   -1    0    0  504    0 -0.00000000000E+00 -0.00000000000E+00 -0.28046079522E+04  0.28046079522E+04  0.00000000000E+00 0. -1.
         21    1    1    2  503  502  0.34470908643E+02  0.10126318906E+03 -0.61204819935E+02  0.12324166092E+03  0.00000000000E+00 0. -1.
         21    1    1    2  504  503 -0.46355250666E+02 -0.60462667539E+02 -0.94515765586E+03  0.94822335863E+03  0.00000000000E+00 0.  1.
         21    1    1    2  505  501  0.30185581005E+02 -0.59801707511E+01  0.10678719167E+03  0.11113251571E+03  0.00000000000E+00 0. -1.
          2    1    1    2  501    0 -0.18301238983E+02 -0.34820350774E+02 -0.17633021814E+04  0.17637409037E+04  0.00000000000E+00 0. -1.
<scales pt_clust_3="14000.00000" pt_clust_4="110.26152" pt_clust_5="30.77226" pt_clust_6="39.27883"></scales>
<clustering>
<clus scale="   30.772">  1  5  2 -1</clus>
<clus scale="   39.279">  2  6  1 -1</clus>
<clus scale="  110.262">  2  4  1 -1</clus>
<clus scale="   30.772">  1  3  2 -1</clus>
</clustering>
</event>
<event>
 6    0  0.5775861E+002  0.1602072E+03  0.7546771E-02  0.1188463E+00
          2   -1    0    0  505    0 -0.00000000000E+00  0.00000000000E+00  0.88148622899E+03  0.88148622899E+03  0.00000000000E+00 0.  1.
         21   -1    0    0  504  502  0.00000000000E+00 -0.00000000000E+00 -0.12223655187E+03  0.12223655187E+03  0.00000000000E+00 0.  1.
         21    1    1    2  503  502  0.21423752773E+02 -0.10617650033E+03 -0.41331446073E+02  0.11593409697E+03  0.00000000000E+00 0.  1.
         21    1    1    2  504  501 -0.39380598804E+02  0.98541762726E+00  0.43363555035E+02  0.58584985409E+02  0.00000000000E+00 0.  1.
         21    1    1    2  505  503  0.13103044628E+03 -0.49588737301E+02  0.24404065065E+03  0.28139626843E+03  0.00000000000E+00 0.  1.
          2    1    1    2  501    0 -0.11307360025E+03  0.15477982001E+03  0.51317691751E+03  0.54780743005E+03  0.00000000000E+00 0.  1.
<scales pt_clust_3="105.64856" pt_clust_4="39.39293" pt_clust_5="14000.00000" pt_clust_6="160.20719"></scales>
<clustering>
<clus scale="   39.393">  2  4  1 -1</clus>
<clus scale="  105.649">  2  3  1 -1</clus>
<clus scale="  160.207">  1  6  2 -1</clus>
<clus scale="   39.393">  2  3  1 -1</clus>
</clustering>
</event>
<event>
 6    0  0.5775861E+002  0.1577646E+03  0.7546771E-02  0.1191244E+00
         21   -1    0    0  504  502  0.00000000000E+00  0.00000000000E+00  0.82728214290E+02  0.82728214290E+02  0.00000000000E+00 0.  1.
          1   -1    0    0  503    0 -0.00000000000E+00 -0.00000000000E+00 -0.32280855274E+04  0.32280855274E+04  0.00000000000E+00 0. -1.
         21    1    1    2  503  505  0.59174786107E+02 -0.12538688101E+03 -0.10748284841E+04  0.10837341904E+04  0.00000000000E+00 0.  1.
         21    1    1    2  504  501 -0.13233024688E+03  0.13379052175E+03 -0.33227137083E+03  0.38185790789E+03  0.00000000000E+00 0.  1.
         21    1    1    2  505  502  0.42661275640E+02 -0.41429582884E+01  0.44740096571E+02  0.61958250329E+02  0.00000000000E+00 0.  1.
          1    1    1    2  501    0  0.30494185138E+02 -0.42606824527E+01 -0.17829975548E+04  0.17832633931E+04  0.00000000000E+00 0. -1.
<scales pt_clust_3="14000.00000" pt_clust_4="157.76462" pt_clust_5="43.04526" pt_clust_6="30.79040"></scales>
<clustering>
<clus scale="   30.790">  2  6  1 -1</clus>
<clus scale="   43.045">  1  5  2 -1</clus>
<clus scale="  157.765">  1  4  2 -1</clus>
<clus scale="   43.045">  1  3  2 -1</clus>
</clustering>
</event>
<event>
 6    0  0.5775861E+002  0.7705002E+02  0.7546771E-02  0.1337638E+00
          1   -1    0    0  504    0 -0.00000000000E+00  0.00000000000E+00  0.16279270276E+04  0.16279270276E+04  0.00000000000E+00 0. -1.
         21   -1    0    0  505  502  0.00000000000E+00 -0.00000000000E+00 -0.26368023281E+02  0.26368023281E+02  0.00000000000E+00 0. -1.
         21    1    1    2  503  502  0.63123099541E+02 -0.37379473827E+01  0.82934135408E+02  0.10429078944E+03  0.00000000000E+00 0. -1.
         21    1    1    2  504  503  0.69918853283E+01 -0.54734492268E+02  0.71361869355E+03  0.71574883227E+03  0.00000000000E+00 0. -1.
         21    1    1    2  505  501 -0.10905041222E+03  0.47687512036E+02  0.24084266999E+03  0.26864713454E+03  0.00000000000E+00 0. -1.
          1    1    1    2  501    0  0.38935427348E+02  0.10784927614E+02  0.56416350537E+03  0.56560829463E+03  0.00000000000E+00 0. -1.
<scales pt_clust_3="14000.00000" pt_clust_4="57.92098" pt_clust_5="77.05002" pt_clust_6="40.40151"></scales>
<clustering>
<clus scale="   40.402">  1  6  2 -1</clus>
<clus scale="   57.921">  1  4  2 -1</clus>
<clus scale="   77.050">  1  5  2 -1</clus>
<clus scale="   77.050">  2  3  1 -1</clus>
</clustering>
</event>
<event>
 6    0  0.5775861E+002  0.1121998E+03  0.7546771E-02  0.1256550E+00
          1   -1    0    0  504    0 -0.00000000000E+00  0.00000000000E+00  0.15466636134E+04  0.15466636134E+04  0.00000000000E+00 0.  1.
         21   -1    0    0  503  502  0.00000000000E+00 -0.00000000000E+00 -0.30615789539E+03  0.30615789539E+03  0.00000000000E+00 0.  1.
         21    1    1    2  503  501 -0.44929048981E+02  0.32250923308E+02 -0.20042696663E+03  0.20791755686E+03  0.00000000000E+00 0.  1.
         21    1    1    2  504  505  0.73276703414E+02  0.33623278032E+02  0.67324391660E+02  0.10503605953E+03  0.00000000000E+00 0.  1.
         21    1    1    2  505  502 -0.88708537382E+02 -0.93979342353E+02 -0.31634061013E+02  0.13304899552E+03  0.00000000000E+00 0.  1.
          1    1    1    2  501    0  0.60360882949E+02  0.28105141013E+02  0.14052423540E+04  0.14068188969E+04  0.00000000000E+00 0.  1.
<scales pt_clust_3="55.30589" pt_clust_4="112.19982" pt_clust_5="14000.00000" pt_clust_6="66.37475"></scales>
<clustering>
<clus scale="   55.306">  2  3  1 -1</clus>
<clus scale="   66.375">  1  6  2 -1</clus>
<clus scale="  112.200">  1  4  2 -1</clus>
<clus scale="   55.306">  2  3  1 -1</clus>
</clustering>
</event>
<event>
 6    0  0.5775861E+002  0.1439307E+03  0.7546771E-02  0.1208136E+00
          2   -1    0    0  503    0 -0.00000000000E+00  0.00000000000E+00  0.18288023758E+04  0.18288023758E+04  0.00000000000E+00 0.  1.
         21   -1    0    0  504  502  0.00000000000E+00 -0.00000000000E+00 -0.18522486126E+03  0.18522486126E+03  0.00000000000E+00 0.  1.
         21    1    1    2  503  502 -0.28822821719E+02 -0.88102023037E+02 -0.68849065929E+02  0.11546824409E+03  0.00000000000E+00 0.  1.
         21    1    1    2  504  505  0.74345248449E+01  0.33771923469E+02 -0.18081088376E+02  0.39022310687E+02  0.00000000000E+00 0.  1.
         21    1    1    2  505  501 -0.10297925877E+03  0.12591817583E+03  0.46161451273E+02  0.16908871732E+03  0.00000000000E+00 0.  1.
          2    1    1    2  501    0  0.12436755565E+03 -0.71588076259E+02  0.16843462175E+04  0.16904479649E+04  0.00000000000E+00 0.  1.
<scales pt_clust_3="72.48464" pt_clust_4="34.58056" pt_clust_5="143.93068" pt_clust_6="14000.00000"></scales>
<clustering>
<clus scale="   34.581">  2  4  1 -1</clus>
<clus scale="   72.485">  2  3  1 -1</clus>
<clus scale="  143.931">  2  5  1 -1</clus>
<clus scale="   34.581">  2  3  1 -1</clus>
</clustering>
</event>
<event>
 6    0  0.5775861E+002  0.9588947E+02  0.7546771E-02  0.1289185E+00
         -2   -1    0    0    0  501 -0.00000000000E+00  0.00000000000E+00  0.29447635412E+03  0.29447635412E+03  0.00000000000E+00 0. -1.
         21   -1    0    0  505  502  0.00000000000E+00 -0.00000000000E+00 -0.14653779763E+03  0.14653779763E+03  0.00000000000E+00 0.  1.
         21    1    1    2  503  502 -0.29699560704E+02  0.47311562318E+02 -0.77794141665E+02  0.95772523787E+02  0.00000000000E+00 0.  1.
         21    1    1    2  504  503 -0.75538270968E+02 -0.32253901994E+02  0.19560452758E+02  0.84433144480E+02  0.00000000000E+00 0. -1.
         21    1    1    2  505  501 -0.50921662376E+01 -0.36394422760E+02  0.16360185315E+02  0.40226108792E+02  0.00000000000E+00 0. -1.
         -2    1    1    2    0  504  0.11032999791E+03  0.21336762436E+02  0.18981206009E+03  0.22058237469E+03  0.00000000000E+00 0. -1.
<scales pt_clust_3="54.91725" pt_clust_4="14000.00000" pt_clust_5="36.74893" pt_clust_6="95.88947"></scales>
<clustering>
<clus scale="   36.749">  1  5  2 -1</clus>
<clus scale="   54.917">  2  3  1 -1</clus>
<clus scale="   95.889">  1  6  2 -1</clus>
<clus scale="   54.917">  2  3  1 -1</clus>
</clustering>
</event>
<event>
 6    0  0.5775861E+002  0.1267712E+03  0.7546771E-02  0.1232327E+00
          1   -1    0    0  505    0 -0.00000000000E+00  0.00000000000E+00  0.70425275144E+03  0.70425275144E+03  0.00000000000E+00 0. -1.
         21   -1    0    0  504  502  0.00000000000E+00 -0.00000000000E+00 -0.20715657796E+03  0.20715657796E+03  0.00000000000E+00 0. -1.
         21    1    1    2  503  501 -0.46804941080E+02 -0.22929383323E+02 -0.69914588276E+00  0.52124350682E+02  0.00000000000E+00 0. -1.
         21    1    1    2  504  503 -0.37755975630E+02  0.17236892431E+02 -0.27738039801E+02  0.49920166350E+02  0.00000000000E+00 0. -1.
         21    1    1    2  505  502 -0.44570288397E+02  0.24680635588E+02 -0.13069940902E+03  0.14027822318E+03  0.00000000000E+00 0. -1.
          1    1    1    2  501    0  0.12913120511E+03 -0.18988144695E+02  0.65623276819E+03  0.66908658918E+03  0.00000000000E+00 0. -1.
<scales pt_clust_3="56.47479" pt_clust_4="41.50451" pt_clust_5="126.77115" pt_clust_6="14000.00000"></scales>
<clustering>
<clus scale="   41.505">  2  4  1 -1</clus>
<clus scale="   56.475">  2  3  1 -1</clus>
<clus scale="  126.771">  2  5  1 -1</clus>
<clus scale="   41.505">  2  3  1 -1</clus>
</clustering>
</event>
<event>
 6    0  0.5775861E+002  0.7502045E+02  0.7546771E-02  0.1343808E+00
         21   -1    0    0  503  502  0.00000000000E+00  0.00000000000E+00  0.49310803432E+03  0.49310803432E+03  0.00000000000E+00 0.  1.
         -1   -1    0    0    0  501 -0.00000000000E+00 -0.00000000000E+00 -0.65533537004E+02  0.65533537004E+02  0.00000000000E+00 0.  1.
         21    1    1    2  503  504 -0.16787671209E+02  0.53862026480E+02  0.66480213083E+02  0.87192674765E+02  0.00000000000E+00 0.  1.
         21    1    1    2  504  501 -0.54892642308E+00  0.31773594916E+02 -0.17746926812E+01  0.31827852397E+02  0.00000000000E+00 0.  1.
         21    1    1    2  505  502  0.76691850072E+02 -0.17666555381E+02  0.33654163819E+03  0.34562121069E+03  0.00000000000E+00 0.  1.
         -1    1    1    2    0  505 -0.59355252440E+02 -0.67969066014E+02  0.26327338721E+02  0.93999833464E+02  0.00000000000E+00 0.  1.
<scales pt_clust_3="62.92736" pt_clust_4="31.77834" pt_clust_5="14000.00000" pt_clust_6="75.02045"></scales>
<clustering>
<clus scale="   31.778">  2  4  1 -1</clus>
<clus scale="   62.927">  2  3  1 -1</clus>
<clus scale="   75.020">  2  6  1 -1</clus>
<clus scale="   75.020">  1  3  2 -1</clus>
</clustering>
</event>
<event>
 6    0  0.5775861E+002  0.9798974E+02  0.7546771E-02  0.1284581E+00
          2   -1    0    0  503    0 -0.00000000000E+00  0.00000000000E+00  0.40072811013E+03  0.40072811013E+03  0.00000000000E+00 0.  1.
         21   -1    0    0  505  502  0.00000000000E+00 -0.00000000000E+00 -0.17416808852E+03  0.17416808852E+03  0.00000000000E+00 0. -1.
         21    1    1    2  503  504 -0.38232813493E+01 -0.50069613148E+02  0.46226731224E+02  0.68253163448E+02  0.00000000000E+00 0. -1.
         21    1    1    2  504  502  0.41852783031E+02 -0.58819018226E+02 -0.99007908122E+02  0.12253121326E+03  0.00000000000E+00 0. -1.
         21    1    1    2  505  501  0.44973968913E+02  0.65733812462E+01 -0.25430237501E+02  0.52082282978E+02  0.00000000000E+00 0.  1.
          2    1    1    2  501    0 -0.83003470595E+02  0.10231525013E+03  0.30477143601E+03  0.33202953897E+03  0.00000000000E+00 0.  1.
<scales pt_clust_3="49.53527" pt_clust_4="97.98974" pt_clust_5="45.45181" pt_clust_6="14000.00000"></scales>
<clustering>
<clus scale="   45.452">  2  5  1 -1</clus>
<clus scale="   49.535">  1  3  2 -1</clus>
<clus scale="   97.990">  2  4  1 -1</clus>
<clus scale="   45.452">  2  3  1 -1</clus>
</clustering>
</event>
<event>
 6    0  0.5775861E+002  0.1263134E+03  0.7546771E-02  0.1233031E+00
          1   -1    0    0  504    0 -0.00000000000E+00  0.00000000000E+00  0.48758275229E+03  0.48758275229E+03  0.00000000000E+00 0.  1.
         21   -1    0    0  503  502  0.00000000000E+00 -0.00000000000E+00 -0.36102169566E+03  0.36102169566E+03  0.00000000000E+00 0.  1.
         21    1    1    2  503  505 -0.72412272561E+02 -0.10374104353E+03 -0.32328279137E+03  0.34715631138E+03  0.00000000000E+00 0.  1.
         21    1    1    2  504  502  0.30736660713E+02 -0.99800889613E+01  0.27480531040E+02  0.42420797655E+02  0.00000000000E+00 0.  1.
         21    1    1    2  505  501  0.82305607524E+02  0.91575748150E+02  0.22683069953E+03  0.25809396918E+03  0.00000000000E+00 0.  1.
          1    1    1    2  501    0 -0.40629995677E+02  0.22145384342E+02  0.19553261743E+03  0.20093336974E+03  0.00000000000E+00 0.  1.
<scales pt_clust_3="14000.00000" pt_clust_4="32.31632" pt_clust_5="126.31341" pt_clust_6="32.46647"></scales>
<clustering>
<clus scale="   32.316">  1  4  2 -1</clus>
<clus scale="   32.466">  1  6  2 -1</clus>
<clus scale="  126.313">  1  5  2 -1</clus>
<clus scale="  126.313">  2  3  1 -1</clus>
</clustering>
</event>
<event>
 6    0  0.5775861E+002  0.1200869E+03  0.7546771E-02  0.1242954E+00
         21   -1    0    0  503  502  0.00000000000E+00  0.00000000000E+00  0.39209836106E+02  0.39209836106E+02  0.00000000000E+00 0.  1.
          2   -1    0    0  504    0 -0.00000000000E+00 -0.00000000000E+00 -0.18987727243E+04  0.18987727243E+04  0.00000000000E+00 0.  1.
         21    1    1    2  503  501  0.14570862389E+03 -0.12748814696E+02 -0.85733797531E+03  0.86972520905E+03  0.00000000000E+00 0.  1.
         21    1    1    2  504  505 -0.91160484965E+02  0.53836064594E+02 -0.54719759034E+03  0.55734527785E+03  0.00000000000E+00 0.  1.
         21    1    1    2  505  502 -0.18172033403E+02 -0.31095616683E+02  0.15259023205E+02  0.39115188406E+02  0.00000000000E+00 0.  1.
          2    1    1    2  501    0 -0.36376105523E+02 -0.99916332155E+01 -0.47028634571E+03  0.47179688506E+03  0.00000000000E+00 0.  1.
<scales pt_clust_3="120.08690" pt_clust_4="14000.00000" pt_clust_5="36.01611" pt_clust_6="39.37335"></scales>
<clustering>
<clus scale="   36.016">  1  5  2 -1</clus>
<clus scale="   39.373">  2  6  1 -1</clus>
<clus scale="  120.087">  2  3  1 -1</clus>
<clus scale="   36.016">  1  3  2 -1</clus>
</clustering>
</event>
<event>
 6    0  0.5775861E+002  0.7037183E+02  0.7546771E-02  0.1358833E+00
          3   -1    0    0  502    0 -0.00000000000E+00  0.00000000000E+00  0.10913632945E+04  0.10913632945E+04  0.00000000000E+00 0. -1.
         21   -1    0    0  505  502  0.00000000000E+00 -0.00000000000E+00 -0.79342203421E+02  0.79342203421E+02  0.00000000000E+00 0. -1.
         21    1    1    2  503  501  0.79078591268E+02  0.75195562772E+01  0.13622893191E+03  0.15769682690E+03  0.00000000000E+00 0. -1.
         21    1    1    2  504  503 -0.83792683165E+02  0.55056356762E+02  0.14120675203E+03  0.17318130093E+03  0.00000000000E+00 0.  1.
         21    1    1    2  505  504  0.60675539169E+02 -0.19553152253E+02 -0.31075727385E+02  0.70919303782E+02  0.00000000000E+00 0. -1.
          3    1    1    2  501    0 -0.55961447272E+02 -0.43022760786E+02  0.76566113452E+03  0.76890806631E+03  0.00000000000E+00 0. -1.
<scales pt_clust_3="14000.00000" pt_clust_4="66.29941" pt_clust_5="63.74831" pt_clust_6="70.37183"></scales>
<clustering>
<clus scale="   63.748">  2  5  1 -1</clus>
<clus scale="   66.299">  2  4  1 -1</clus>
<clus scale="   70.372">  1  6  2 -1</clus>
<clus scale="   63.748">  2  3  1 -1</clus>
</clustering>
</event>
<event>
 6    0  0.5775861E+002  0.9906517E+02  0.7546771E-02  0.1282274E+00
         21   -1    0    0  505  502  0.00000000000E+00  0.00000000000E+00  0.29511805418E+04  0.29511805418E+04  0.00000000000E+00 0. -1.
          2   -1    0    0  503    0 -0.00000000000E+00 -0.00000000000E+00 -0.35613819895E+03  0.35613819895E+03  0.00000000000E+00 0.  1.
         21    1    1    2  503  504 -0.96555428080E+02 -0.63935676339E+01 -0.91700159448E+02  0.13331446899E+03  0.00000000000E+00 0.  1.
         21    1    1    2  504  502  0.90459902796E+02 -0.40635105626E+02  0.28864728296E+04  0.28881758260E+04  0.00000000000E+00 0. -1.
         21    1    1    2  505  501 -0.24085887425E+02  0.38315159901E+02  0.29781487039E+02  0.54176733212E+02  0.00000000000E+00 0.  1.
          2    1    1    2  501    0  0.30181412710E+02  0.87135133582E+01 -0.22951181437E+03  0.23165171254E+03  0.00000000000E+00 0.  1.
<scales pt_clust_3="99.06517" pt_clust_4="14000.00000" pt_clust_5="44.50977" pt_clust_6="31.41406"></scales>
<clustering>
<clus scale="   31.414">  2  6  1 -1</clus>
<clus scale="   44.510">  2  5  1 -1</clus>
<clus scale="   99.065">  2  3  1 -1</clus>
<clus scale="   99.065">  1  3  2 -1</clus>
</clustering>
</event>
<event>
 6    0  0.5775861E+002  0.1576129E+03  0.7546771E-02  0.1191418E+00
          2   -1    0    0  504    0 -0.00000000000E+00  0.00000000000E+00  0.50197331181E+03  0.50197331181E+03  0.00000000000E+00 0. -1.
         21   -1    0    0  503  502  0.00000000000E+00 -0.00000000000E+00 -0.51716649920E+03  0.51716649920E+03  0.00000000000E+00 0.  1.
         21    1    1    2  503  501  0.48426044181E+02  0.64107161441E+01 -0.58893142905E+02  0.76515235854E+02  0.00000000000E+00 0. -1.
         21    1    1    2  504  505  0.38977035811E+01  0.18649828304E+03 -0.31353918745E+02  0.18915567634E+03  0.00000000000E+00 0.  1.
         21    1    1    2  505  502  0.64710735495E+01 -0.49264931797E+02 -0.32270079242E+03  0.32650376679E+03  0.00000000000E+00 0.  1.
          2    1    1    2  501    0 -0.58794821312E+02 -0.14364406739E+03  0.39775466668E+03  0.42696513203E+03  0.00000000000E+00 0. -1.
<scales pt_clust_3="48.84853" pt_clust_4="157.61290" pt_clust_5="60.90922" pt_clust_6="14000.00000"></scales>
<clustering>
<clus scale="   48.849">  2  3  1 -1</clus>
<clus scale="   60.909">  2  5  1 -1</clus>
<clus scale="  157.613">  2  4  1 -1</clus>
<clus scale="   48.849">  2  3  1 -1</clus>
</clustering>
</event>
<event>
 6    0  0.5775861E+002  0.1590097E+03  0.7546771E-02  0.1189819E+00
         -3   -1    0    0    0  501 -0.00000000000E+00  0.00000000000E+00  0.98226290737E+02  0.98226290737E+02  0.00000000000E+00 0.  1.
         21   -1    0    0  505  502  0.00000000000E+00 -0.00000000000E+00 -0.67985265198E+03  0.67985265198E+03  0.00000000000E+00 0. -1.
         21    1    1    2  503  502  0.16651296783E+03  0.12162632901E+02 -0.27783092027E+03  0.32413657361E+03  0.00000000000E+00 0. -1.
         21    1    1    2  504  501 -0.16806661074E+03  0.16670106018E+02 -0.18340108670E+03  0.24931954734E+03  0.00000000000E+00 0. -1.
         21    1    1    2  505  504 -0.42506895093E+02 -0.64062530580E+02 -0.12634310279E+03  0.14789666520E+03  0.00000000000E+00 0. -1.
         -3    1    1    2    0  503  0.44060538012E+02  0.35229791661E+02  0.59487485170E+01  0.56726156571E+02  0.00000000000E+00 0.  1.
<scales pt_clust_3="14000.00000" pt_clust_4="159.00971" pt_clust_5="68.28408" pt_clust_6="56.41338"></scales>
<clustering>
<clus scale="   56.413">  1  6  2 -1</clus>
<clus scale="   68.284">  2  5  1 -1</clus>
<clus scale="  159.010">  1  4  2 -1</clus>
<clus scale="   68.284">  2  3  1 -1</clus>
</clustering>
</event>
<event>
 6    0  0.5775861E+002  0.9775348E+02  0.7546771E-02  0.1285092E+00
          2   -1    0    0  504    0 -0.00000000000E+00  0.00000000000E+00  0.47533917842E+03  0.47533917842E+03  0.00000000000E+00 0. -1.
         21   -1    0    0  505  502  0.00000000000E+00 -0.00000000000E+00 -0.10669553998E+04  0.10669553998E+04  0.00000000000E+00 0.  1.
         21    1    1    2  503  501  0.57213772210E+02  0.40727142915E+02 -0.20473797534E+02  0.73152527544E+02  0.00000000000E+00 0.  1.
         21    1    1    2  504  502  0.41924452844E+02 -0.13519111770E+02 -0.26269213553E+03  0.26635987723E+03  0.00000000000E+00 0.  1.
         21    1    1    2  505  503 -0.11096912739E+03 -0.61894859276E+02 -0.74950913651E+03  0.76020330607E+03  0.00000000000E+00 0.  1.
          2    1    1    2  501    0  0.11830902332E+02  0.34686828130E+02  0.44105884819E+03  0.44257886739E+03  0.00000000000E+00 0. -1.
<scales pt_clust_3="97.75348" pt_clust_4="44.12945" pt_clust_5="14000.00000" pt_clust_6="36.64896"></scales>
<clustering>
<clus scale="   36.649">  1  6  2 -1</clus>
<clus scale="   44.129">  2  4  1 -1</clus>
<clus scale="   97.753">  1  3  2 -1</clus>
<clus scale="   44.129">  2  3  1 -1</clus>
</clustering>
</event>
<event>
 6    0  0.5775861E+002  0.7838893E+02  0.7546771E-02  0.1333687E+00
         21   -1    0    0  505  502  0.00000000000E+00  0.00000000000E+00  0.33159834357E+02  0.33159834357E+02  0.00000000000E+00 0.  1.
          2   -1    0    0  503    0 -0.00000000000E+00 -0.00000000000E+00 -0.32396888366E+04  0.32396888366E+04  0.00000000000E+00 0. -1.
         21    1    1    2  503  502  0.21294538930E+02  0.85148262337E+02 -0.19265336788E+03  0.21170499314E+03  0.00000000000E+00 0.  1.
         21    1    1    2  504  501 -0.27940498787E+02 -0.50226232947E+02 -0.48508845491E+03  0.48848147870E+03  0.00000000000E+00 0. -1.
         21    1    1    2  505  504  0.11079132479E+02  0.42840829940E+02 -0.16043017951E+01  0.44279314252E+02  0.00000000000E+00 0.  1.
          2    1    1    2  501    0 -0.44331726212E+01 -0.77762859330E+02 -0.25271828776E+04  0.25283828848E+04  0.00000000000E+00 0. -1.
<scales pt_clust_3="78.38893" pt_clust_4="51.35440" pt_clust_5="44.25024" pt_clust_6="14000.00000"></scales>
<clustering>
<clus scale="   44.250">  1  5  2 -1</clus>
<clus scale="   51.354">  1  4  2 -1</clus>
<clus scale="   78.389">  1  3  2 -1</clus>
<clus scale="   44.250">  1  3  2 -1</clus>
</clustering>
</event>
<event>
 6    0  0.5775861E+002  0.1078857E+03  0.7546771E-02  0.1264536E+00
          1   -1    0    0  505    0 -0.00000000000E+00  0.00000000000E+00  0.18977301798E+04  0.18977301798E+04  0.00000000000E+00 0. -1.
         21   -1    0    0  503  502  0.00000000000E+00 -0.00000000000E+00 -0.36989419165E+03  0.36989419165E+03  0.00000000000E+00 0. -1.
         21    1    1    2  503  504 -0.43438617734E+02  0.40952280729E+01 -0.24309702016E+03  0.24698146816E+03  0.00000000000E+00 0. -1.
         21    1    1    2  504  501  0.11814112383E+03 -0.39447941921E+02 -0.20405858950E+02  0.12621356639E+03  0.00000000000E+00 0.  1.
         21    1    1    2  505  502 -0.69292283842E+02  0.11259847092E+03  0.35514374461E+02  0.13689816305E+03  0.00000000000E+00 0. -1.
          1    1    1    2  501    0 -0.54102222529E+01 -0.77245757075E+02  0.17558244928E+04  0.17575311738E+04  0.00000000000E+00 0. -1.
<scales pt_clust_3="43.63123" pt_clust_4="107.88568" pt_clust_5="14000.00000" pt_clust_6="77.42838"></scales>
<clustering>
<clus scale="   43.631">  2  3  1 -1</clus>
<clus scale="   77.428">  1  6  2 -1</clus>
<clus scale="  107.886">  2  4  1 -1</clus>
<clus scale="   43.631">  2  3  1 -1</clus>
</clustering>
</event>
<event>
 6    0  0.5775861E+002  0.8037018E+02  0.7546771E-02  0.1328004E+00
          2   -1    0    0  503    0 -0.00000000000E+00  0.00000000000E+00  0.99238515453E+03  0.99238515453E+03  0.00000000000E+00 0. -1.
         21   -1    0    0  504  502  0.00000000000E+00 -0.00000000000E+00 -0.87782133747E+03  0.87782133747E+03  0.00000000000E+00 0.  1.
         21    1    1    2  503  502  0.53917539872E+02  0.10797309294E+03 -0.26000508267E+03  0.28664949489E+03  0.00000000000E+00 0. -1.
         21    1    1    2  504  505 -0.41893629051E+02 -0.20765819529E+02 -0.41211503096E+03  0.41475907966E+03  0.00000000000E+00 0.  1.
         21    1    1    2  505  501  0.16907775362E+00 -0.55670488698E+02 -0.18670184156E+03  0.19482507421E+03  0.00000000000E+00 0.  1.
          2    1    1    2  501    0 -0.12192988575E+02 -0.31536784710E+02  0.97338577225E+03  0.97397284324E+03  0.00000000000E+00 0. -1.
<scales pt_clust_3="14000.00000" pt_clust_4="48.54663" pt_clust_5="80.37018" pt_clust_6="33.81180"></scales>
<clustering>
<clus scale="   33.812">  1  6  2 -1</clus>
<clus scale="   48.547">  2  4  1 -1</clus>
<clus scale="   80.370">  2  5  1 -1</clus>
<clus scale="   48.547">  2  3  1 -1</clus>
</clustering>
</event>
<event>
 6    0  0.5775861E+002  0.1642980E+03  0.7546771E-02  0.1183928E+00
         21   -1    0    0  504  502  0.00000000000E+00  0.00000000000E+00  0.10637959931E+04  0.10637959931E+04  0.00000000000E+00 0.  1.
          2   -1    0    0  502    0 -0.00000000000E+00 -0.00000000000E+00 -0.12457244419E+04  0.12457244419E+04  0.00000000000E+00 0. -1.
         21    1    1    2  503  505 -0.32178896966E+02 -0.19330536582E+03 -0.15300361263E+02  0.19656181450E+03  0.00000000000E+00 0.  1.
         21    1    1    2  504  503 -0.14048037271E+02  0.16199985001E+03  0.95108512122E+03  0.96488559248E+03  0.00000000000E+00 0.  1.
         21    1    1    2  505  501  0.18509171679E+02  0.56561785431E+02 -0.44764789582E+02  0.74469533326E+02  0.00000000000E+00 0.  1.
          2    1    1    2  501    0  0.27717762557E+02 -0.25256269620E+02 -0.10729484192E+04  0.10736034946E+04  0.00000000000E+00 0. -1.
<scales pt_clust_3="164.29798" pt_clust_4="14000.00000" pt_clust_5="55.46965" pt_clust_6="37.49871"></scales>
<clustering>
<clus scale="   37.499">  2  6  1 -1</clus>
<clus scale="   55.470">  2  5  1 -1</clus>
<clus scale="  164.298">  2  3  1 -1</clus>
<clus scale="  164.298">  1  3  2 -1</clus>
</clustering>
</event>
<event>
 6    0  0.5775861E+002  0.1331934E+03  0.7546771E-02  0.1222793E+00
         21   -1    0    0  505  502  0.00000000000E+00  0.00000000000E+00  0.69596080433E+02  0.69596080433E+02  0.00000000000E+00 0.  1.
          2   -1    0    0  504    0 -0.00000000000E+00 -0.00000000000E+00 -0.23521234317E+04  0.23521234317E+04  0.00000000000E+00 0. -1.
         21    1    1    2  503  502  0.15358729939E+02 -0.25954859084E+02  0.26018294613E+02  0.39830854246E+02  0.00000000000E+00 0.  1.
         21    1    1    2  504  503 -0.11414708595E+03  0.13096944983E+03 -0.22497310821E+03  0.28424541058E+03  0.00000000000E+00 0.  1.
         21    1    1    2  505  501  0.64715812564E+02 -0.70232175966E+02 -0.33379554842E+03  0.34718894435E+03  0.00000000000E+00 0. -1.
          2    1    1    2  501    0  0.34072543452E+02 -0.34782414781E+02 -0.17497769892E+04  0.17504543029E+04  0.00000000000E+00 0. -1.
<scales pt_clust_3="30.15867" pt_clust_4="133.19336" pt_clust_5="14000.00000" pt_clust_6="48.96092"></scales>
<clustering>
<clus scale="   30.159">  1  3  2 -1</clus>
<clus scale="   48.961">  2  6  1 -1</clus>
<clus scale="  133.193">  1  4  2 -1</clus>
<clus scale="   30.159">  1  3  2 -1</clus>
</clustering>
</event>
<event>
 6    0  0.5775861E+002  0.1046209E+03  0.7546771E-02  0.1270868E+00
         21   -1    0    0  503  502  0.00000000000E+00  0.00000000000E+00  0.37715382631E+03  0.37715382631E+03  0.00000000000E+00 0.  1.
          1   -1    0    0  504    0 -0.00000000000E+00 -0.00000000000E+00 -0.14725633062E+03  0.14725633062E+03  0.00000000000E+00 0. -1.
         21    1    1    2  503  501 -0.25070074425E+02  0.31443291895E+02  0.12781574313E+02  0.42196657199E+02  0.00000000000E+00 0.  1.
         21    1    1    2  504  505  0.61251908307E+02  0.63798570280E+02  0.23804144591E+03  0.25394051235E+03  0.00000000000E+00 0.  1.
         21    1    1    2  505  502  0.30902484537E+02 -0.12942231067E+02  0.76912134832E+02  0.83892439349E+02  0.00000000000E+00 0.  1.
          1    1    1    2  501    0 -0.67084318419E+02 -0.82299631107E+02 -0.97837659369E+02  0.14438054803E+03  0.00000000000E+00 0. -1.
<scales pt_clust_3="37.52194" pt_clust_4="104.62085" pt_clust_5="33.50321" pt_clust_6="14000.00000"></scales>
<clustering>
<clus scale="   33.503">  1  5  2 -1</clus>
<clus scale="   37.522">  1  3  2 -1</clus>
<clus scale="  104.621">  1  4  2 -1</clus>
<clus scale="   33.503">  1  3  2 -1</clus>
</clustering>
</event>
<event>
 6    0  0.5775861E+002  0.8945722E+02  0.7546771E-02  0.1304171E+00
          2   -1    0    0  503    0 -0.00000000000E+00  0.00000000000E+00  0.68556054731E+03  0.68556054731E+03  0.00000000000E+00 0.  1.
         21   -1    0    0  504  502  0.00000000000E+00 -0.00000000000E+00 -0.64930340989E+02  0.64930340989E+02  0.00000000000E+00 0. -1.
         21    1    1    2  503  505 -0.10854098655E+03 -0.17244497907E+02  0.72701473045E+02  0.13177261724E+03  0.00000000000E+00 0. -1.
         21    1    1    2  504  501  0.40798370291E+02  0.71435584965E+01  0.49672356943E+02  0.64675192235E+02  0.00000000000E+00 0. -1.
         21    1    1    2  505  502 -0.10776582131E+02 -0.28334105007E+02 -0.14700067648E+02  0.33690476664E+02  0.00000000000E+00 0. -1.
          2    1    1    2  501    0  0.78519198395E+02  0.38435044417E+02  0.51295644398E+03  0.52035260216E+03  0.00000000000E+00 0.  1.
<scales pt_clust_3="14000.00000" pt_clust_4="38.86159" pt_clust_5="30.31429" pt_clust_6="89.45722"></scales>
<clustering>
<clus scale="   30.314">  2  5  1 -1</clus>
<clus scale="   38.862">  2  4  1 -1</clus>
<clus scale="   89.457">  1  6  2 -1</clus>
<clus scale="   30.314">  2  3  1 -1</clus>
</clustering>
</event>
<event>
 6    0  0.2464328E+003  0.1275943E+03  0.7546771E-02  0.1231070E+00
          2   -1    0    0  504    0 -0.00000000000E+00  0.00000000000E+00  0.24487628556E+04  0.24487628556E+04  0.00000000000E+00 0. -1.
         21   -1    0    0  505  502  0.00000000000E+00 -0.00000000000E+00 -0.64496339300E+03  0.64496339300E+03  0.00000000000E+00 0. -1.
         21    1    1    2  503  501 -0.65574794494E+02 -0.12593866640E+02  0.37357286034E+02  0.76512913745E+02  0.00000000000E+00 0.  1.
         21    1    1    2  504  502  0.80681382575E+02  0.12435442835E+03 -0.55293572390E+03  0.57246084941E+03  0.00000000000E+00 0. -1.
         21    1    1    2  505  503 -0.37869148258E+02  0.13847272255E+02 -0.54306044249E+02  0.67638493335E+02  0.00000000000E+00 0.  1.
          2    1    1    2  501    0  0.22762560177E+02 -0.12560783397E+03  0.23736839447E+04  0.23771139921E+04  0.00000000000E+00 0. -1.
<scales pt_clust_3="67.93594" pt_clust_4="127.59426" pt_clust_5="40.32145" pt_clust_6="14000.00000"></scales>
<clustering>
<clus scale="   40.321">  2  5  1 -1</clus>
<clus scale="   67.936">  2  3  1 -1</clus>
<clus scale="  127.594">  2  4  1 -1</clus>
<clus scale="   40.321">  2  3  1 -1</clus>
</clustering>
</event>
<event>
 6    0  0.5775861E+002  0.1280171E+03  0.7546771E-02  0.1230428E+00
         21   -1    0    0  505  502  0.00000000000E+00  0.00000000000E+00  0.12494750614E+04  0.12494750614E+04  0.00000000000E+00 0. -1.
          1   -1    0    0  503    0 -0.00000000000E+00 -0.00000000000E+00 -0.58584699121E+03  0.58584699121E+03  0.00000000000E+00 0. -1.
         21    1    1    2  503  504  0.60866176865E+02 -0.89385156228E+02  0.11741773126E+03  0.15962869809E+03  0.00000000000E+00 0. -1.
         21    1    1    2  504  502  0.30693820451E+02  0.53285861087E+01  0.10600600970E+04  0.10605177574E+04  0.00000000000E+00 0. -1.
         21    1    1    2  505  501 -0.12655087754E+03  0.14736096806E+03 -0.15332062791E+03  0.24746230917E+03  0.00000000000E+00 0.  1.
          1    1    1    2  501    0  0.34990880229E+02 -0.63304397944E+02 -0.36052913014E+03  0.36771328801E+03  0.00000000000E+00 0. -1.
<scales pt_clust_3="128.01711" pt_clust_4="31.15292" pt_clust_5="14000.00000" pt_clust_6="72.52678"></scales>
<clustering>
<clus scale="   31.153">  1  4  2 -1</clus>
<clus scale="   72.527">  2  6  1 -1</clus>
<clus scale="  128.017">  1  3  2 -1</clus>
<clus scale="   31.153">  1  3  2 -1</clus>
</clustering>
</event>
<event>
 6    0  0.5775861E+002  0.1116437E+03  0.7546771E-02  0.1257556E+00
         -2   -1    0    0    0  501 -0.00000000000E+00  0.00000000000E+00  0.14901025146E+04  0.14901025146E+04  0.00000000000E+00 0.  1.
         21   -1    0    0  505  502  0.00000000000E+00 -0.00000000000E+00 -0.12811135971E+03  0.12811135971E+03  0.00000000000E+00 0. -1.
         21    1    1    2  503  504  0.67351952019E+02 -0.81686127549E+02  0.30878737464E+03  0.32643307371E+03  0.00000000000E+00 0. -1.
         21    1    1    2  504  501 -0.93141668386E+02  0.55653600116E+02  0.70329660752E+03  0.71161704008E+03  0.00000000000E+00 0.  1.
         21    1    1    2  505  503  0.66183506067E+02  0.42693369463E+02 -0.10047642806E+03  0.12766555082E+03  0.00000000000E+00 0. -1.
         -2    1    1    2    0  502 -0.40393789700E+02 -0.16660842029E+02  0.45038360084E+03  0.45249820973E+03  0.00000000000E+00 0.  1.
<scales pt_clust_3="14000.00000" pt_clust_4="111.64371" pt_clust_5="78.19658" pt_clust_6="43.69487"></scales>
<clustering>
<clus scale="   43.695">  1  6  2 -1</clus>
<clus scale="   78.197">  2  5  1 -1</clus>
<clus scale="  111.644">  1  4  2 -1</clus>
<clus scale="   78.197">  2  3  1 -1</clus>
</clustering>
</event>
<event>
 6    0  0.5775861E+002  0.9972416E+02  0.7546771E-02  0.1280877E+00
          2   -1    0    0  503    0 -0.00000000000E+00  0.00000000000E+00  0.69301759777E+03  0.69301759777E+03  0.00000000000E+00 0.  1.
         21   -1    0    0  504  502  0.00000000000E+00 -0.00000000000E+00 -0.86222140141E+03  0.86222140141E+03  0.00000000000E+00 0.  1.
         21    1    1    2  503  505 -0.47545349686E+02  0.39477176468E+02 -0.64939028896E+03  0.65232411816E+03  0.00000000000E+00 0.  1.
         21    1    1    2  504  501  0.12181616154E+03 -0.13253316810E+02  0.28503765488E+02  0.12580656686E+03  0.00000000000E+00 0.  1.
         21    1    1    2  505  502 -0.35769200002E+02  0.19517939467E+02 -0.15867791561E+03  0.16382633040E+03  0.00000000000E+00 0.  1.
          2    1    1    2  501    0 -0.38501611848E+02 -0.45741799125E+02  0.61036063544E+03  0.61328198376E+03  0.00000000000E+00 0.  1.
<scales pt_clust_3="99.72416" pt_clust_4="14000.00000" pt_clust_5="40.74783" pt_clust_6="59.80562"></scales>
<clustering>
<clus scale="   40.748">  2  5  1 -1</clus>
<clus scale="   59.806">  1  6  2 -1</clus>
<clus scale="   99.724">  2  3  1 -1</clus>
<clus scale="   40.748">  2  3  1 -1</clus>
</clustering>
</event>
<event>
 6    0  0.5775861E+002  0.8334303E+02  0.7546771E-02  0.1319823E+00
          2   -1    0    0  504    0 -0.00000000000E+00  0.00000000000E+00  0.10059797065E+04  0.10059797065E+04  0.00000000000E+00 0.  1.
         21   -1    0    0  503  502  0.00000000000E+00 -0.00000000000E+00 -0.12887964943E+03  0.12887964943E+03  0.00000000000E+00 0.  1.
         21    1    1    2  503  501 -0.32460811372E+02  0.34410756505E+02  0.17595309737E+02  0.50471767979E+02  0.00000000000E+00 0.  1.
         21    1    1    2  504  505 -0.63535680301E+02  0.42371138070E+02  0.14335114075E+03  0.16242427641E+03  0.00000000000E+00 0.  1.
         21    1    1    2  505  502  0.36713963659E+02  0.50808575276E+02 -0.86637800617E+02  0.10693706067E+03  0.00000000000E+00 0.  1.
          2    1    1    2  501    0  0.59282528014E+02 -0.12759046985E+03  0.80279140724E+03  0.81502625091E+03  0.00000000000E+00 0.  1.
<scales pt_clust_3="47.30544" pt_clust_4="80.28298" pt_clust_5="83.34303" pt_clust_6="14000.00000"></scales>
<clustering>
<clus scale="   47.305">  2  3  1 -1</clus>
<clus scale="   80.283">  1  4  2 -1</clus>
<clus scale="   83.343">  2  5  1 -1</clus>
<clus scale="   47.305">  2  3  1 -1</clus>
</clustering>
</event>
<event>
 6    0  0.5775861E+002  0.1181692E+03  0.7546771E-02  0.1246148E+00
         21   -1    0    0  504  502  0.00000000000E+00  0.00000000000E+00  0.50949515087E+03  0.50949515087E+03  0.00000000000E+00 0.  1.
          1   -1    0    0  503    0 -0.00000000000E+00 -0.00000000000E+00 -0.59397652659E+03  0.59397652659E+03  0.00000000000E+00 0. -1.
         21    1    1    2  503  502  0.95207670097E+02 -0.43087503853E+01 -0.35634518336E+03  0.36886983541E+03  0.00000000000E+00 0. -1.
         21    1    1    2  504  505 -0.86151048501E+02  0.82259159369E+02  0.46789742808E+03  0.48282147390E+03  0.00000000000E+00 0.  1.
         21    1    1    2  505  501  0.65663931882E+01 -0.51851641422E+02  0.11361680256E+01  0.52278113159E+02  0.00000000000E+00 0. -1.
          1    1    1    2  501    0 -0.15623014784E+02 -0.26098767562E+02 -0.19716978847E+03  0.19950225499E+03  0.00000000000E+00 0. -1.
<scales pt_clust_3="118.16918" pt_clust_4="14000.00000" pt_clust_5="53.82604" pt_clust_6="30.41750"></scales>
<clustering>
<clus scale="   30.417">  2  6  1 -1</clus>
<clus scale="   53.826">  2  5  1 -1</clus>
<clus scale="  118.169">  2  3  1 -1</clus>
<clus scale="  118.169">  1  3  2 -1</clus>
</clustering>
</event>
<event>
 6    0  0.5775861E+002  0.8691412E+02  0.7546771E-02  0.1310501E+00
          2   -1    0    0  504    0 -0.00000000000E+00  0.00000000000E+00  0.24016090958E+03  0.24016090958E+03  0.00000000000E+00 0. -1.
         21   -1    0    0  505  502  0.00000000000E+00 -0.00000000000E+00 -0.48525429528E+03  0.48525429528E+03  0.00000000000E+00 0.  1.
         21    1    1    2  503  501  0.31053912605E+02 -0.40011684689E+02 -0.31253814268E+02  0.59515387137E+02  0.00000000000E+00 0.  1.
         21    1    1    2  504  502 -0.87337073777E+02  0.11748885892E+03 -0.30233527547E+02  0.14948398782E+03  0.00000000000E+00 0. -1.
         21    1    1    2  505  503  0.16331610242E+02 -0.51328574825E+02 -0.34444904473E+03  0.34863517967E+03  0.00000000000E+00 0.  1.
          2    1    1    2  501    0  0.39951550930E+02 -0.26148599411E+02  0.16084300084E+03  0.16778065023E+03  0.00000000000E+00 0. -1.
<scales pt_clust_3="86.91412" pt_clust_4="14000.00000" pt_clust_5="54.89231" pt_clust_6="47.74804"></scales>
<clustering>
<clus scale="   47.748">  1  6  2 -1</clus>
<clus scale="   54.892">  2  5  1 -1</clus>
<clus scale="   86.914">  2  3  1 -1</clus>
<clus scale="   54.892">  2  3  1 -1</clus>
</clustering>
</event>
<event>
 6    0  0.5775861E+002  0.1594601E+03  0.7546771E-02  0.1189308E+00
         21   -1    0    0  503  502  0.00000000000E+00  0.00000000000E+00  0.71782915467E+02  0.71782915467E+02  0.00000000000E+00 0.  1.
          2   -1    0    0  504    0 -0.00000000000E+00 -0.00000000000E+00 -0.21264473751E+04  0.21264473751E+04  0.00000000000E+00 0. -1.
         21    1    1    2  503  501 -0.28613041107E+02 -0.12773691913E+03 -0.85207999797E+02  0.15619164465E+03  0.00000000000E+00 0.  1.
         21    1    1    2  504  505  0.23479286380E+02 -0.27329363919E+02 -0.43605705137E+03  0.43754305282E+03  0.00000000000E+00 0. -1.
         21    1    1    2  505  502 -0.42486480229E+02 -0.18410276578E+02  0.12661743563E+02  0.48003739812E+02  0.00000000000E+00 0.  1.
          2    1    1    2  501    0  0.47620234956E+02  0.17347655963E+03 -0.15460611520E+04  0.15564918533E+04  0.00000000000E+00 0. -1.
<scales pt_clust_3="159.46014" pt_clust_4="36.03014" pt_clust_5="46.19350" pt_clust_6="14000.00000"></scales>
<clustering>
<clus scale="   36.030">  2  4  1 -1</clus>
<clus scale="   46.194">  1  5  2 -1</clus>
<clus scale="  159.460">  1  3  2 -1</clus>
<clus scale="   46.194">  1  3  2 -1</clus>
</clustering>
</event>
<event>
 6    0  0.5775861E+002  0.2391138E+03  0.7546771E-02  0.1120385E+00
          2   -1    0    0  505    0 -0.00000000000E+00  0.00000000000E+00  0.39598549410E+04  0.39598549410E+04  0.00000000000E+00 0.  1.
         21   -1    0    0  503  502  0.00000000000E+00 -0.00000000000E+00 -0.28079417380E+03  0.28079417380E+03  0.00000000000E+00 0.  1.
         21    1    1    2  503  501 -0.49213690186E+02 -0.23241405066E+03 -0.17765889255E+03  0.29664955814E+03  0.00000000000E+00 0.  1.
         21    1    1    2  504  502  0.14619121100E+03  0.22314919916E+03  0.41304762375E+03  0.49170700091E+03  0.00000000000E+00 0.  1.
         21    1    1    2  505  504 -0.44873625521E+02 -0.85463901323E+00  0.11877573741E+03  0.12697262883E+03  0.00000000000E+00 0. -1.
          2    1    1    2  501    0 -0.52103895291E+02  0.10119490516E+02  0.33248962986E+04  0.33253199269E+04  0.00000000000E+00 0.  1.
<scales pt_clust_3="14000.00000" pt_clust_4="239.11375" pt_clust_5="44.88176" pt_clust_6="91.47324"></scales>
<clustering>
<clus scale="   44.882">  1  5  2 -1</clus>
<clus scale="   91.473">  1  6  2 -1</clus>
<clus scale="  239.114">  1  4  2 -1</clus>
<clus scale="  239.114">  2  3  1 -1</clus>
</clustering>
</event>
<event>
 6    0  0.5775861E+002  0.1888536E+03  0.7546771E-02  0.1159499E+00
          2   -1    0    0  502    0 -0.00000000000E+00  0.00000000000E+00  0.22985011399E+04  0.22985011399E+04  0.00000000000E+00 0. -1.
         21   -1    0    0  503  502  0.00000000000E+00 -0.00000000000E+00 -0.83691061245E+02  0.83691061245E+02  0.00000000000E+00 0. -1.
         21    1    1    2  503  505 -0.68646863842E+01  0.45123965872E+02 -0.47363568809E+02  0.65776925023E+02  0.00000000000E+00 0. -1.
         21    1    1    2  504  501 -0.14282170947E+03 -0.64871361811E+02  0.15211519633E+04  0.15292186337E+04  0.00000000000E+00 0. -1.
         21    1    1    2  505  504  0.17648513117E+03  0.32511415290E+01  0.32377778827E+03  0.36876771499E+03  0.00000000000E+00 0.  1.
          2    1    1    2  501    0 -0.26798735322E+02  0.16496254410E+02  0.41724389591E+03  0.41842892742E+03  0.00000000000E+00 0. -1.
<scales pt_clust_3="45.64314" pt_clust_4="31.16445" pt_clust_5="175.56884" pt_clust_6="31.16445"></scales>
<clustering>
<clus scale="   31.164">  4  6 -1 -1</clus>
<clus scale="   45.643">  2  3  1 -1</clus>
<clus scale="  175.569">  2  5  1 -1</clus>
<clus scale="   45.643">  2  3  1 -1</clus>
</clustering>
</event>
<event>
 6    0  0.5775861E+002  0.1439615E+03  0.7546771E-02  0.1208096E+00
          1   -1    0    0  505    0 -0.00000000000E+00  0.00000000000E+00  0.16506564136E+04  0.16506564136E+04  0.00000000000E+00 0.  1.
         21   -1    0    0  504  502  0.00000000000E+00 -0.00000000000E+00 -0.26611350716E+03  0.26611350716E+03  0.00000000000E+00 0.  1.
         21    1    1    2  503  502 -0.62099493013E+02  0.81863402122E+02 -0.38630225298E+02  0.10977366691E+03  0.00000000000E+00 0.  1.
         21    1    1    2  504  501  0.88818796231E+02  0.67466957759E+02 -0.15907047221E+03  0.19427811015E+03  0.00000000000E+00 0.  1.
         21    1    1    2  505  503  0.71893024638E+02 -0.68335435528E+02  0.18723589342E+03  0.21188586202E+03  0.00000000000E+00 0.  1.
          1    1    1    2  501    0 -0.98612327856E+02 -0.80994924354E+02  0.13950077105E+04  0.14008322817E+04  0.00000000000E+00 0.  1.
<scales pt_clust_3="100.35300" pt_clust_4="14000.00000" pt_clust_5="99.18840" pt_clust_6="143.96149"></scales>
<clustering>
<clus scale="   99.188">  1  5  2 -1</clus>
<clus scale="  100.353">  2  3  1 -1</clus>
<clus scale="  143.961">  1  6  2 -1</clus>
<clus scale="  100.353">  2  3  1 -1</clus>
</clustering>
</event>
<event>
 6    0  0.5775861E+002  0.1050678E+03  0.7546771E-02  0.1269986E+00
         21   -1    0    0  503  502  0.00000000000E+00  0.00000000000E+00  0.65984169344E+02  0.65984169344E+02  0.00000000000E+00 0.  1.
          2   -1    0    0  504    0 -0.00000000000E+00 -0.00000000000E+00 -0.87403029564E+03  0.87403029564E+03  0.00000000000E+00 0.  1.
         21    1    1    2  503  505  0.36849889185E+02 -0.14456920046E+02  0.90000775496E+01  0.40594559562E+02  0.00000000000E+00 0.  1.
         21    1    1    2  504  502 -0.81914569380E+02 -0.81906062717E+02 -0.51872074348E+03  0.53149770413E+03  0.00000000000E+00 0.  1.
         21    1    1    2  505  501 -0.40872700740E+02  0.55469552141E+02 -0.17046861417E+02  0.70979182615E+02  0.00000000000E+00 0.  1.
          2    1    1    2  501    0  0.85937380936E+02  0.40893430623E+02 -0.28127859895E+03  0.29694301867E+03  0.00000000000E+00 0.  1.
<scales pt_clust_3="39.58430" pt_clust_4="105.06784" pt_clust_5="48.95731" pt_clust_6="14000.00000"></scales>
<clustering>
<clus scale="   39.584">  1  3  2 -1</clus>
<clus scale="   48.957">  1  5  2 -1</clus>
<clus scale="  105.068">  2  4  1 -1</clus>
<clus scale="   39.584">  1  3  2 -1</clus>
</clustering>
</event>
<event>
 6    0  0.5775861E+002  0.1306510E+03  0.7546771E-02  0.1226493E+00
         21   -1    0    0  504  502  0.00000000000E+00  0.00000000000E+00  0.22693258604E+03  0.22693258604E+03  0.00000000000E+00 0. -1.
          2   -1    0    0  502    0 -0.00000000000E+00 -0.00000000000E+00 -0.32464142617E+03  0.32464142617E+03  0.00000000000E+00 0.  1.
         21    1    1    2  503  505 -0.11215373723E+03  0.52724361155E+02 -0.17154360109E+03  0.21162591077E+03  0.00000000000E+00 0. -1.
         21    1    1    2  504  503  0.80843405346E+02 -0.11980314546E+02  0.16509034781E+03  0.18421185376E+03  0.00000000000E+00 0. -1.
         21    1    1    2  505  501 -0.97062485302E+01  0.37017522647E+02 -0.26607640129E+02  0.46609813952E+02  0.00000000000E+00 0. -1.
          2    1    1    2  501    0  0.41016580413E+02 -0.77761569256E+02 -0.64647946725E+02  0.10912643373E+03  0.00000000000E+00 0.  1.
<scales pt_clust_3="37.35298" pt_clust_4="81.72628" pt_clust_5="37.35298" pt_clust_6="112.03288"></scales>
<clustering>
<clus scale="   37.353">  3  5 -1 -1</clus>
<clus scale="   81.726">  1  4  2 -1</clus>
<clus scale="  112.033">  2  6  1 -1</clus>
<clus scale="   81.726">  1  3  2 -1</clus>
</clustering>
</event>
<event>
 6    0  0.5775861E+002  0.8787642E+02  0.7546771E-02  0.1308077E+00
         21   -1    0    0  503  502  0.00000000000E+00  0.00000000000E+00  0.18625579101E+02  0.18625579101E+02  0.00000000000E+00 0. -1.
          2   -1    0    0  504    0 -0.00000000000E+00 -0.00000000000E+00 -0.32112712771E+04  0.32112712771E+04  0.00000000000E+00 0.  1.
         21    1    1    2  503  501 -0.60268803314E+02 -0.27938790412E+02 -0.27099274591E+03  0.27901608018E+03  0.00000000000E+00 0. -1.
         21    1    1    2  504  505  0.33389028034E+02 -0.18553747312E+02 -0.13407351997E+03  0.13940867078E+03  0.00000000000E+00 0. -1.
         21    1    1    2  505  502  0.75661950856E+02 -0.81483426999E+01 -0.11505967367E+03  0.13794873976E+03  0.00000000000E+00 0. -1.
          2    1    1    2  501    0 -0.48782175576E+02  0.54640880423E+02 -0.26725197585E+04  0.26735233655E+04  0.00000000000E+00 0.  1.
<scales pt_clust_3="66.42970" pt_clust_4="33.64104" pt_clust_5="33.64104" pt_clust_6="73.94320"></scales>
<clustering>
<clus scale="   33.641">  4  5 -1 -1</clus>
<clus scale="   66.430">  1  3  2 -1</clus>
<clus scale="   73.943">  2  6  1 -1</clus>
<clus scale="   66.430">  1  3  2 -1</clus>
</clustering>
</event>
<event>
 6    0  0.5775861E+002  0.1190064E+03  0.7546771E-02  0.1244745E+00
         21   -1    0    0  503  502  0.00000000000E+00  0.00000000000E+00  0.83288397278E+03  0.83288397278E+03  0.00000000000E+00 0.  1.
          2   -1    0    0  505    0 -0.00000000000E+00 -0.00000000000E+00 -0.12147717556E+04  0.12147717556E+04  0.00000000000E+00 0.  1.
         21    1    1    2  503  501 -0.73524612375E+02  0.71842335409E+02 -0.24164264088E+03  0.26259923015E+03  0.00000000000E+00 0.  1.
         21    1    1    2  504  502  0.37612623742E+02 -0.35257618616E+02  0.69403986070E+03  0.69595196485E+03  0.00000000000E+00 0.  1.
         21    1    1    2  505  504  0.69221540798E+02 -0.31994066896E+02  0.11567510793E+03  0.13854953129E+03  0.00000000000E+00 0. -1.
          2    1    1    2  501    0 -0.33309552165E+02 -0.45906498969E+01 -0.94996011055E+03  0.95055500207E+03  0.00000000000E+00 0.  1.
<scales pt_clust_3="119.00641" pt_clust_4="51.47754" pt_clust_5="14000.00000" pt_clust_6="33.62440"></scales>
<clustering>
<clus scale="   33.624">  2  6  1 -1</clus>
<clus scale="   51.478">  1  4  2 -1</clus>
<clus scale="  119.006">  2  3  1 -1</clus>
<clus scale="   51.478">  1  3  2 -1</clus>
</clustering>
</event>
<event>
 6    0  0.5775861E+002  0.1397629E+03  0.7546771E-02  0.1213648E+00
         21   -1    0    0  504  502  0.00000000000E+00  0.00000000000E+00  0.74434902295E+02  0.74434902295E+02  0.00000000000E+00 0.  1.
          2   -1    0    0  503    0 -0.00000000000E+00 -0.00000000000E+00 -0.23955182501E+04  0.23955182501E+04  0.00000000000E+00 0.  1.
         21    1    1    2  503  505  0.32293075658E+01 -0.59984220213E+02 -0.99924358208E+02  0.11659079065E+03  0.00000000000E+00 0. -1.
         21    1    1    2  504  501 -0.68177147979E+02  0.15088533495E+03 -0.66701368818E+02  0.17850372660E+03  0.00000000000E+00 0.  1.
         21    1    1    2  505  502  0.24437865867E+02 -0.31819305256E+02 -0.32339470932E+02  0.51531726687E+02  0.00000000000E+00 0. -1.
          2    1    1    2  501    0  0.40509974547E+02 -0.59081809478E+02 -0.21221181498E+04  0.21233269084E+04  0.00000000000E+00 0.  1.
<scales pt_clust_3="32.46529" pt_clust_4="133.99841" pt_clust_5="32.46529" pt_clust_6="71.63601"></scales>
<clustering>
<clus scale="   32.465">  3  5 -1 -1</clus>
<clus scale="   71.636">  2  6  1 -1</clus>
<clus scale="  133.998">  1  4  2 -1</clus>
<clus scale="  133.998">  1  3  2 -1</clus>
</clustering>
</event>
<event>
 6    0  0.5775861E+002  0.1130430E+03  0.7546771E-02  0.1255036E+00
         21   -1    0    0  504  502  0.00000000000E+00  0.00000000000E+00  0.41844257479E+03  0.41844257479E+03  0.00000000000E+00 0.  1.
          2   -1    0    0  503    0 -0.00000000000E+00 -0.00000000000E+00 -0.91232190713E+03  0.91232190713E+03  0.00000000000E+00 0.  1.
         21    1    1    2  503  505 -0.46381457434E+02  0.70921096993E+02 -0.56527781404E+03  0.57159430424E+03  0.00000000000E+00 0.  1.
         21    1    1    2  504  501 -0.75804407762E+02 -0.21175708500E+02  0.33593294579E+03  0.34502994498E+03  0.00000000000E+00 0.  1.
         21    1    1    2  505  502  0.79328189896E+02 -0.97825951126E+02  0.15405100309E+02  0.12688654594E+03  0.00000000000E+00 0.  1.
          2    1    1    2  501    0  0.42857675300E+02  0.48080562633E+02 -0.27993956440E+03  0.28725368675E+03  0.00000000000E+00 0.  1.
<scales pt_clust_3="113.04302" pt_clust_4="78.31474" pt_clust_5="14000.00000" pt_clust_6="64.40901"></scales>
<clustering>
<clus scale="   64.409">  2  6  1 -1</clus>
<clus scale="   78.315">  1  4  2 -1</clus>
<clus scale="  113.043">  2  3  1 -1</clus>
<clus scale="   78.315">  1  3  2 -1</clus>
</clustering>
</event>
<event>
 6    0  0.5775861E+002  0.8637596E+02  0.7546771E-02  0.1311873E+00
          2   -1    0    0  505    0 -0.00000000000E+00  0.00000000000E+00  0.33133801007E+04  0.33133801007E+04  0.00000000000E+00 0.  1.
         21   -1    0    0  504  502  0.00000000000E+00 -0.00000000000E+00 -0.38675075870E+02  0.38675075870E+02  0.00000000000E+00 0.  1.
         21    1    1    2  503  502 -0.43451319799E+02  0.27004993828E+02 -0.18666938991E+01  0.51193470580E+02  0.00000000000E+00 0.  1.
         21    1    1    2  504  501  0.42297204281E+02 -0.53314728137E+02  0.42830308489E+03  0.43367619978E+03  0.00000000000E+00 0.  1.
         21    1    1    2  505  503 -0.22901779677E+02 -0.58649480330E+02  0.10453941871E+03  0.12203582720E+03  0.00000000000E+00 0.  1.
          2    1    1    2  501    0  0.24055895195E+02  0.84959214638E+02  0.27437292151E+04  0.27451496790E+04  0.00000000000E+00 0.  1.
<scales pt_clust_3="51.15943" pt_clust_4="57.52837" pt_clust_5="86.37596" pt_clust_6="14000.00000"></scales>
<clustering>
<clus scale="   51.159">  2  3  1 -1</clus>
<clus scale="   57.528">  2  4  1 -1</clus>
<clus scale="   86.376">  2  5  1 -1</clus>
<clus scale="   51.159">  2  3  1 -1</clus>
</clustering>
</event>
<event>
 6    0  0.5775861E+002  0.1017067E+03  0.7546771E-02  0.1276747E+00
         21   -1    0    0  504  502  0.00000000000E+00  0.00000000000E+00  0.26835065779E+02  0.26835065779E+02  0.00000000000E+00 0.  1.
          1   -1    0    0  505    0 -0.00000000000E+00 -0.00000000000E+00 -0.16627989672E+04  0.16627989672E+04  0.00000000000E+00 0.  1.
         21    1    1    2  503  501  0.38169449307E+02 -0.70259887142E+02 -0.16943964767E+03  0.18735835398E+03  0.00000000000E+00 0.  1.
         21    1    1    2  504  503 -0.57217729277E+02 -0.27753049627E+02 -0.15525039876E+03  0.16777004090E+03  0.00000000000E+00 0.  1.
         21    1    1    2  505  502  0.47135435903E+02 -0.60223147038E+01 -0.51278635197E+02  0.69910771844E+02  0.00000000000E+00 0.  1.
          1    1    1    2  501    0 -0.28087155934E+02  0.10403525147E+03 -0.12599952198E+04  0.12645948663E+04  0.00000000000E+00 0.  1.
<scales pt_clust_3="14000.00000" pt_clust_4="50.24424" pt_clust_5="47.51860" pt_clust_6="101.70675"></scales>
<clustering>
<clus scale="   47.519">  1  5  2 -1</clus>
<clus scale="   50.244">  1  4  2 -1</clus>
<clus scale="  101.707">  2  6  1 -1</clus>
<clus scale="   47.519">  1  3  2 -1</clus>
</clustering>
</event>
<event>
 6    0  0.5775861E+002  0.2256242E+03  0.7546771E-02  0.1129758E+00
         21   -1    0    0  505  502  0.00000000000E+00  0.00000000000E+00  0.63030057402E+03  0.63030057402E+03  0.00000000000E+00 0. -1.
          2   -1    0    0  503    0 -0.00000000000E+00 -0.00000000000E+00 -0.50949659654E+03  0.50949659654E+03  0.00000000000E+00 0. -1.
         21    1    1    2  503  502 -0.78056590276E+02  0.74406172899E+02  0.44488811678E+03  0.45777128165E+03  0.00000000000E+00 0. -1.
         21    1    1    2  504  501  0.14906090287E+03 -0.20382486082E+03 -0.19038183687E+03  0.31624194924E+03  0.00000000000E+00 0. -1.
         21    1    1    2  505  504 -0.10337455728E+03  0.12815955655E+03  0.55554866458E+02  0.17377431978E+03  0.00000000000E+00 0. -1.
          2    1    1    2  501    0  0.32370244687E+02  0.12591313678E+01 -0.18925716889E+03  0.19200961989E+03  0.00000000000E+00 0. -1.
<scales pt_clust_3="107.38359" pt_clust_4="14000.00000" pt_clust_5="225.62421" pt_clust_6="32.39472"></scales>
<clustering>
<clus scale="   32.395">  2  6  1 -1</clus>
<clus scale="  107.384">  1  3  2 -1</clus>
<clus scale="  225.624">  1  5  2 -1</clus>
<clus scale="  107.384">  1  3  2 -1</clus>
</clustering>
</event>
<event>
 6    0  0.5775861E+002  0.8750758E+02  0.7546771E-02  0.1309002E+00
         21   -1    0    0  503  502  0.00000000000E+00  0.00000000000E+00  0.73958994661E+03  0.73958994661E+03  0.00000000000E+00 0. -1.
          2   -1    0    0  505    0 -0.00000000000E+00 -0.00000000000E+00 -0.48378573045E+03  0.48378573045E+03  0.00000000000E+00 0.  1.
         21    1    1    2  503  501  0.27730602873E+02  0.19338689916E+02  0.67024131237E+02  0.75068005378E+02  0.00000000000E+00 0. -1.
         21    1    1    2  504  502 -0.59138767814E+02 -0.64427868373E+02  0.64696355812E+03  0.65284775378E+03  0.00000000000E+00 0. -1.
         21    1    1    2  505  504 -0.72361086957E+02  0.40676477629E+02 -0.23667228996E+03  0.25080764656E+03  0.00000000000E+00 0.  1.
          2    1    1    2  501    0  0.10376925190E+03  0.44127008279E+01 -0.22151118324E+03  0.24465227134E+03  0.00000000000E+00 0.  1.
<scales pt_clust_3="33.80786" pt_clust_4="55.83527" pt_clust_5="87.50758" pt_clust_6="14000.00000"></scales>
<clustering>
<clus scale="   33.808">  1  3  2 -1</clus>
<clus scale="   55.835">  1  4  2 -1</clus>
<clus scale="   87.508">  2  5  1 -1</clus>
<clus scale="   33.808">  1  3  2 -1</clus>
</clustering>
</event>
<event>
 6    0  0.5775861E+002  0.1284320E+03  0.7546771E-02  0.1229801E+00
         21   -1    0    0  504  502  0.00000000000E+00  0.00000000000E+00  0.10015362113E+04  0.10015362113E+04  0.00000000000E+00 0.  1.
          2   -1    0    0  503    0 -0.00000000000E+00 -0.00000000000E+00 -0.98038623105E+03  0.98038623105E+03  0.00000000000E+00 0.  1.
         21    1    1    2  503  505  0.10005732979E+03  0.10134398894E+03  0.50812322135E+02  0.15120835102E+03  0.00000000000E+00 0.  1.
         21    1    1    2  504  501 -0.20170106715E+02 -0.30095585833E+02  0.47442285065E+03  0.47580418106E+03  0.00000000000E+00 0.  1.
         21    1    1    2  505  502  0.38555629391E+02 -0.21973091783E+02  0.41981102576E+03  0.42215003336E+03  0.00000000000E+00 0.  1.
          2    1    1    2  501    0 -0.11844285247E+03 -0.49275311321E+02 -0.92389621835E+03  0.93275987686E+03  0.00000000000E+00 0.  1.
<scales pt_clust_3="128.43198" pt_clust_4="36.22951" pt_clust_5="51.21171" pt_clust_6="14000.00000"></scales>
<clustering>
<clus scale="   36.230">  1  4  2 -1</clus>
<clus scale="   51.212">  1  5  2 -1</clus>
<clus scale="  128.432">  1  3  2 -1</clus>
<clus scale="   36.230">  1  3  2 -1</clus>
</clustering>
</event>
<event>
 6    0  0.5775861E+002  0.1165166E+03  0.7546771E-02  0.1248957E+00
         -2   -1    0    0    0  501 -0.00000000000E+00  0.00000000000E+00  0.26016263040E+03  0.26016263040E+03  0.00000000000E+00 0. -1.
         21   -1    0    0  504  502  0.00000000000E+00 -0.00000000000E+00 -0.32522476397E+03  0.32522476397E+03  0.00000000000E+00 0.  1.
         21    1    1    2  503  502 -0.37423663097E+02 -0.17144932510E+02 -0.14920762730E+03  0.15478176674E+03  0.00000000000E+00 0.  1.
         21    1    1    2  504  501  0.11641115284E+03  0.10993128287E+03 -0.10749490743E+03  0.19285123433E+03  0.00000000000E+00 0.  1.
         21    1    1    2  505  503 -0.64679700741E+02 -0.48630331693E+02  0.68037589718E+02  0.10572363247E+03  0.00000000000E+00 0.  1.
         -2    1    1    2    0  505 -0.14307789002E+02 -0.44156018665E+02  0.12360281144E+03  0.13203076083E+03  0.00000000000E+00 0. -1.
<scales pt_clust_3="41.16405" pt_clust_4="14000.00000" pt_clust_5="116.51657" pt_clust_6="47.09938"></scales>
<clustering>
<clus scale="   41.164">  2  3  1 -1</clus>
<clus scale="   47.099">  1  6  2 -1</clus>
<clus scale="  116.517">  1  5  2 -1</clus>
<clus scale="   41.164">  2  3  1 -1</clus>
</clustering>
</event>
<event>
 6    0  0.5775861E+002  0.7287231E+02  0.7546771E-02  0.1350589E+00
          1   -1    0    0  503    0 -0.00000000000E+00  0.00000000000E+00  0.25656510282E+04  0.25656510282E+04  0.00000000000E+00 0.  1.
         21   -1    0    0  504  502  0.00000000000E+00 -0.00000000000E+00 -0.39030597163E+02  0.39030597163E+02  0.00000000000E+00 0. -1.
         21    1    1    2  503  502  0.69513362520E+02 -0.27704960635E+02  0.70418150501E+02  0.10275401857E+03  0.00000000000E+00 0. -1.
         21    1    1    2  504  505 -0.40533599039E+02  0.32299136503E+02  0.21801117910E+02  0.56227178589E+02  0.00000000000E+00 0. -1.
         21    1    1    2  505  501  0.10805435071E+02 -0.67103635382E+02  0.22463733780E+03  0.23469467153E+03  0.00000000000E+00 0. -1.
          1    1    1    2  501    0 -0.39785198552E+02  0.62509459513E+02  0.22097638249E+04  0.22110057567E+04  0.00000000000E+00 0.  1.
<scales pt_clust_3="39.65547" pt_clust_4="51.82863" pt_clust_5="14000.00000" pt_clust_6="72.87231"></scales>
<clustering>
<clus scale="   51.829">  2  4  1 -1</clus>
<clus scale="   39.655">  2  3  1 -1</clus>
<clus scale="   72.872">  1  6  2 -1</clus>
<clus scale="   51.829">  2  3  1 -1</clus>
</clustering>
</event>
<event>
 6    0  0.5775861E+002  0.1152282E+03  0.7546771E-02  0.1251183E+00
          2   -1    0    0  505    0 -0.00000000000E+00  0.00000000000E+00  0.20961454813E+04  0.20961454813E+04  0.00000000000E+00 0. -1.
         21   -1    0    0  504  502  0.00000000000E+00 -0.00000000000E+00 -0.67925978746E+03  0.67925978746E+03  0.00000000000E+00 0.  1.
         21    1    1    2  503  502  0.18878154600E+02  0.23660428954E+02 -0.17176791655E+03  0.17441449990E+03  0.00000000000E+00 0.  1.
         21    1    1    2  504  501 -0.21432293519E+01 -0.15169358131E+03 -0.27356949874E+02  0.15415556671E+03  0.00000000000E+00 0. -1.
         21    1    1    2  505  503 -0.40638570779E+02  0.88572663474E+02 -0.40943084520E+03  0.42086842023E+03  0.00000000000E+00 0.  1.
          2    1    1    2  501    0  0.23903645531E+02  0.39460488877E+02  0.20254414055E+04  0.20259667819E+04  0.00000000000E+00 0. -1.
<scales pt_clust_3="30.26881" pt_clust_4="115.22824" pt_clust_5="14000.00000" pt_clust_6="46.15140"></scales>
<clustering>
<clus scale="   30.269">  2  3  1 -1</clus>
<clus scale="   46.151">  1  6  2 -1</clus>
<clus scale="  115.228">  1  4  2 -1</clus>
<clus scale="   30.269">  2  3  1 -1</clus>
</clustering>
</event>
<event>
 6    0  0.5775861E+002  0.3227455E+03  0.7546771E-02  0.1074393E+00
         21   -1    0    0  501  502  0.00000000000E+00  0.00000000000E+00  0.91511177033E+03  0.91511177033E+03  0.00000000000E+00 0.  1.
          1   -1    0    0  503    0 -0.00000000000E+00 -0.00000000000E+00 -0.40183024734E+03  0.40183024734E+03  0.00000000000E+00 0.  1.
         21    1    1    2  503  505  0.46726707188E+02  0.26591143986E+02 -0.17898081529E+03  0.18688126269E+03  0.00000000000E+00 0. -1.
         21    1    1    2  504  502 -0.32040259718E+03  0.12908587430E+03  0.49607690648E+03  0.60449423849E+03  0.00000000000E+00 0.  1.
         21    1    1    2  505  504  0.28114326772E+03 -0.95181742230E+02  0.28916499944E+03  0.41438810062E+03  0.00000000000E+00 0. -1.
          1    1    1    2  501    0 -0.74673777216E+01 -0.60495276060E+02 -0.92979567640E+02  0.11117841586E+03  0.00000000000E+00 0.  1.
<scales pt_clust_3="53.76313" pt_clust_4="14000.00000" pt_clust_5="322.74549" pt_clust_6="50.18239"></scales>
<clustering>
<clus scale="   53.763">  2  3  1 -1</clus>
<clus scale="   50.182">  2  6  1 -1</clus>
<clus scale="  322.745">  2  5  1 -1</clus>
<clus scale="  322.745">  1  3  2 -1</clus>
</clustering>
</event>
<event>
 6    0  0.5775861E+002  0.7009954E+02  0.7546771E-02  0.1359755E+00
         21   -1    0    0  504  502  0.00000000000E+00  0.00000000000E+00  0.24834089309E+03  0.24834089309E+03  0.00000000000E+00 0. -1.
          1   -1    0    0  505    0 -0.00000000000E+00 -0.00000000000E+00 -0.14174216501E+04  0.14174216501E+04  0.00000000000E+00 0. -1.
         21    1    1    2  503  502 -0.25621303475E+02 -0.65681799093E+02  0.22901358665E+03  0.23962005925E+03  0.00000000000E+00 0. -1.
         21    1    1    2  504  501  0.59291190413E+02 -0.12985719903E+02 -0.84394613420E+02  0.10395443692E+03  0.00000000000E+00 0. -1.
         21    1    1    2  505  503 -0.61798766484E+02  0.60082103352E+02 -0.47146642418E+03  0.47928022681E+03  0.00000000000E+00 0. -1.
          1    1    1    2  501    0  0.28128879545E+02  0.18585415643E+02 -0.84223330605E+03  0.84290782021E+03  0.00000000000E+00 0. -1.
<scales pt_clust_3="70.09954" pt_clust_4="64.66803" pt_clust_5="14000.00000" pt_clust_6="33.71426"></scales>
<clustering>
<clus scale="   33.714">  2  6  1 -1</clus>
<clus scale="   64.668">  2  4  1 -1</clus>
<clus scale="   70.100">  1  3  2 -1</clus>
<clus scale="   70.100">  1  3  2 -1</clus>
</clustering>
</event>
<event>
 6    0  0.5775861E+002  0.1229905E+03  0.7546771E-02  0.1238244E+00
         21   -1    0    0  504  502  0.00000000000E+00  0.00000000000E+00  0.18774077195E+03  0.18774077195E+03  0.00000000000E+00 0.  1.
          2   -1    0    0  503    0 -0.00000000000E+00 -0.00000000000E+00 -0.19335616005E+04  0.19335616005E+04  0.00000000000E+00 0. -1.
         21    1    1    2  503  502  0.92079848652E+01 -0.11019985440E+03 -0.62226352012E+02  0.12688937615E+03  0.00000000000E+00 0. -1.
         21    1    1    2  504  505  0.41067005045E+02  0.39561135383E+02  0.22615688689E+02  0.61343717780E+02  0.00000000000E+00 0.  1.
         21    1    1    2  505  501 -0.58952414947E+02  0.10231839989E+03  0.82504163424E+02  0.14405338999E+03  0.00000000000E+00 0. -1.
          2    1    1    2  501    0  0.86774250369E+01 -0.31679680876E+02 -0.17887143287E+04  0.17890158886E+04  0.00000000000E+00 0. -1.
<scales pt_clust_3="122.99048" pt_clust_4="55.05308" pt_clust_5="14000.00000" pt_clust_6="32.84661"></scales>
<clustering>
<clus scale="   32.847">  2  6  1 -1</clus>
<clus scale="   55.053">  1  4  2 -1</clus>
<clus scale="  122.990">  2  3  1 -1</clus>
<clus scale="   55.053">  1  3  2 -1</clus>
</clustering>
</event>
<event>
 6    0  0.5775861E+002  0.1122719E+03  0.7546771E-02  0.1256420E+00
         21   -1    0    0  505  502  0.00000000000E+00  0.00000000000E+00  0.33132880643E+03  0.33132880643E+03  0.00000000000E+00 0. -1.
          2   -1    0    0  504    0 -0.00000000000E+00 -0.00000000000E+00 -0.85521559664E+03  0.85521559664E+03  0.00000000000E+00 0. -1.
         21    1    1    2  503  502 -0.22688174416E+02  0.35529335829E+02  0.62010329512E+02  0.74982450806E+02  0.00000000000E+00 0. -1.
         21    1    1    2  504  503  0.38731384272E+02  0.95294675604E+02 -0.12207444620E+03  0.15963510185E+03  0.00000000000E+00 0. -1.
         21    1    1    2  505  501 -0.49744098612E+02 -0.12226639783E+03  0.22573376997E+03  0.26149432554E+03  0.00000000000E+00 0. -1.
          2    1    1    2  501    0  0.33700888756E+02 -0.85576136021E+01 -0.68955644348E+03  0.69043252487E+03  0.00000000000E+00 0. -1.
<scales pt_clust_3="41.17093" pt_clust_4="112.27185" pt_clust_5="14000.00000" pt_clust_6="34.77043"></scales>
<clustering>
<clus scale="   34.770">  2  6  1 -1</clus>
<clus scale="   41.171">  1  3  2 -1</clus>
<clus scale="  112.272">  2  4  1 -1</clus>
<clus scale="   41.171">  1  3  2 -1</clus>
</clustering>
</event>
<event>
 6    0  0.5775861E+002  0.8773016E+02  0.7546771E-02  0.1308443E+00
          2   -1    0    0  505    0 -0.00000000000E+00  0.00000000000E+00  0.19585557332E+04  0.19585557332E+04  0.00000000000E+00 0.  1.
         21   -1    0    0  504  502  0.00000000000E+00 -0.00000000000E+00 -0.14284205333E+03  0.14284205333E+03  0.00000000000E+00 0. -1.
         21    1    1    2  503  502  0.67754798162E+02 -0.31905909635E+02 -0.78401064801E+02  0.10842244558E+03  0.00000000000E+00 0. -1.
         21    1    1    2  504  501 -0.32866719572E+02 -0.51731860735E+02 -0.23222190058E+02  0.65541412722E+02  0.00000000000E+00 0. -1.
         21    1    1    2  505  503  0.18884562513E+02  0.54862205755E+02  0.18198317112E+03  0.19100880318E+03  0.00000000000E+00 0.  1.
          2    1    1    2  501    0 -0.53772641102E+02  0.28775564615E+02  0.17353537636E+04  0.17364251251E+04  0.00000000000E+00 0.  1.
<scales pt_clust_3="14000.00000" pt_clust_4="60.61589" pt_clust_5="58.02145" pt_clust_6="87.73016"></scales>
<clustering>
<clus scale="   58.021">  1  5  2 -1</clus>
<clus scale="   60.616">  2  4  1 -1</clus>
<clus scale="   87.730">  1  6  2 -1</clus>
<clus scale="   60.616">  2  3  1 -1</clus>
</clustering>
</event>
<event>
 6    0  0.5775861E+002  0.7986740E+02  0.7546771E-02  0.1329428E+00
         21   -1    0    0  505  502  0.00000000000E+00  0.00000000000E+00  0.15748097485E+04  0.15748097485E+04  0.00000000000E+00 0.  1.
          1   -1    0    0  503    0 -0.00000000000E+00 -0.00000000000E+00 -0.14250372696E+03  0.14250372696E+03  0.00000000000E+00 0. -1.
         21    1    1    2  503  504  0.87709468417E+02 -0.38985460889E+02  0.27791914298E+03  0.29402698353E+03  0.00000000000E+00 0. -1.
         21    1    1    2  504  502 -0.54130934937E+02 -0.28429325826E+02  0.10980107273E+04  0.10997117540E+04  0.00000000000E+00 0.  1.
         21    1    1    2  505  501 -0.58686709967E+02  0.42784118741E+02  0.18050029165E+03  0.19456352698E+03  0.00000000000E+00 0.  1.
          1    1    1    2  501    0  0.25108176486E+02  0.24630667973E+02 -0.12412414036E+03  0.12901121096E+03  0.00000000000E+00 0. -1.
<scales pt_clust_3="14000.00000" pt_clust_4="59.34720" pt_clust_5="79.86740" pt_clust_6="35.17229"></scales>
<clustering>
<clus scale="   35.172">  2  6  1 -1</clus>
<clus scale="   59.347">  1  4  2 -1</clus>
<clus scale="   79.867">  2  5  1 -1</clus>
<clus scale="   59.347">  1  3  2 -1</clus>
</clustering>
</event>
<event>
 6    0  0.5775861E+002  0.1487742E+03  0.7546771E-02  0.1201987E+00
         21   -1    0    0  505  502  0.00000000000E+00  0.00000000000E+00  0.17035846737E+03  0.17035846737E+03  0.00000000000E+00 0.  1.
          1   -1    0    0  503    0 -0.00000000000E+00 -0.00000000000E+00 -0.20843230340E+04  0.20843230340E+04  0.00000000000E+00 0. -1.
         21    1    1    2  503  502  0.16545491622E+03 -0.85247568326E+01 -0.24157662037E+03  0.29292877000E+03  0.00000000000E+00 0. -1.
         21    1    1    2  504  501 -0.11891490568E+03 -0.25687587376E+02  0.50466002819E+02  0.13170962144E+03  0.00000000000E+00 0.  1.
         21    1    1    2  505  504 -0.19016837646E+02 -0.60381869124E+02  0.33025331565E+02  0.71402260174E+02  0.00000000000E+00 0. -1.
          1    1    1    2  501    0 -0.27523172895E+02  0.94594213332E+02 -0.17558792806E+04  0.17586408497E+04  0.00000000000E+00 0. -1.
<scales pt_clust_3="148.77419" pt_clust_4="14000.00000" pt_clust_5="63.30569" pt_clust_6="97.90231"></scales>
<clustering>
<clus scale="   63.306">  1  5  2 -1</clus>
<clus scale="   97.902">  2  6  1 -1</clus>
<clus scale="  148.774">  2  3  1 -1</clus>
<clus scale="   63.306">  1  3  2 -1</clus>
</clustering>
</event>
<event>
 6    0  0.5775861E+002  0.1133290E+03  0.7546771E-02  0.1254526E+00
          2   -1    0    0  503    0 -0.00000000000E+00  0.00000000000E+00  0.21548795676E+04  0.21548795676E+04  0.00000000000E+00 0. -1.
         21   -1    0    0  505  502  0.00000000000E+00 -0.00000000000E+00 -0.11316249444E+04  0.11316249444E+04  0.00000000000E+00 0. -1.
         21    1    1    2  503  504 -0.85300882313E+02 -0.75176619265E+02  0.28825809264E+03  0.30987173569E+03  0.00000000000E+00 0. -1.
         21    1    1    2  504  502 -0.39612262876E+02  0.53622866223E+02 -0.11151093328E+04  0.11171004285E+04  0.00000000000E+00 0. -1.
         21    1    1    2  505  501  0.96931706777E+02  0.48141436646E+02  0.66112231100E+03  0.66992243118E+03  0.00000000000E+00 0. -1.
          2    1    1    2  501    0  0.27981438413E+02 -0.26587683604E+02  0.11889835524E+04  0.11896099166E+04  0.00000000000E+00 0. -1.
<scales pt_clust_3="14000.00000" pt_clust_4="66.62822" pt_clust_5="113.32903" pt_clust_6="38.59878"></scales>
<clustering>
<clus scale="   38.599">  1  6  2 -1</clus>
<clus scale="   66.628">  2  4  1 -1</clus>
<clus scale="  113.329">  1  5  2 -1</clus>
<clus scale="   66.628">  2  3  1 -1</clus>
</clustering>
</event>
<event>
 6    0  0.5775861E+002  0.8078671E+02  0.7546771E-02  0.1326834E+00
          2   -1    0    0  504    0 -0.00000000000E+00  0.00000000000E+00  0.29099480007E+04  0.29099480007E+04  0.00000000000E+00 0. -1.
         21   -1    0    0  505  502  0.00000000000E+00 -0.00000000000E+00 -0.14007623174E+03  0.14007623174E+03  0.00000000000E+00 0.  1.
         21    1    1    2  503  502 -0.28950972143E+02  0.26950535423E+02 -0.91577696159E+01  0.40599937093E+02  0.00000000000E+00 0. -1.
         21    1    1    2  504  503 -0.71563613356E+02 -0.64689407728E+02  0.55763912157E+03  0.56592177917E+03  0.00000000000E+00 0. -1.
         21    1    1    2  505  501  0.62601555182E+02  0.46439731103E+02 -0.97195906178E+02  0.12458991738E+03  0.00000000000E+00 0.  1.
          2    1    1    2  501    0  0.37913030317E+02 -0.87008587981E+01  0.23185863231E+04  0.23189125988E+04  0.00000000000E+00 0. -1.
<scales pt_clust_3="38.66152" pt_clust_4="14000.00000" pt_clust_5="80.78671" pt_clust_6="38.89862"></scales>
<clustering>
<clus scale="   38.899">  1  6  2 -1</clus>
<clus scale="   38.662">  2  3  1 -1</clus>
<clus scale="   80.787">  2  5  1 -1</clus>
<clus scale="   38.662">  2  3  1 -1</clus>
</clustering>
</event>
<event>
 6    0  0.5775861E+002  0.1776007E+03  0.7546771E-02  0.1170146E+00
         21   -1    0    0  504  502  0.00000000000E+00  0.00000000000E+00  0.26560268458E+04  0.26560268458E+04  0.00000000000E+00 0.  1.
          2   -1    0    0  505    0 -0.00000000000E+00 -0.00000000000E+00 -0.25467367534E+04  0.25467367534E+04  0.00000000000E+00 0. -1.
         21    1    1    2  503  501 -0.13365869504E+03 -0.20464468963E+02  0.30676460417E+03  0.33524314105E+03  0.00000000000E+00 0.  1.
         21    1    1    2  504  503  0.18743844230E+03  0.24403116540E+02  0.23259503791E+04  0.23336181881E+04  0.00000000000E+00 0.  1.
         21    1    1    2  505  502 -0.19973393912E+00  0.31198068554E+02 -0.45613376390E+02  0.55262459960E+02  0.00000000000E+00 0.  1.
          2    1    1    2  501    0 -0.53580013319E+02 -0.35136716131E+02 -0.24778115145E+04  0.24786398101E+04  0.00000000000E+00 0. -1.
<scales pt_clust_3="14000.00000" pt_clust_4="177.60067" pt_clust_5="31.19871" pt_clust_6="53.93931"></scales>
<clustering>
<clus scale="   31.199">  2  5  1 -1</clus>
<clus scale="   53.939">  2  6  1 -1</clus>
<clus scale="  177.601">  1  4  2 -1</clus>
<clus scale="  177.601">  1  3  2 -1</clus>
</clustering>
</event>
<event>
 6    0  0.5775861E+002  0.1433688E+03  0.7546771E-02  0.1208867E+00
         -4   -1    0    0    0  501 -0.00000000000E+00  0.00000000000E+00  0.39372935203E+03  0.39372935203E+03  0.00000000000E+00 0. -1.
         21   -1    0    0  503  502  0.00000000000E+00 -0.00000000000E+00 -0.45968823576E+03  0.45968823576E+03  0.00000000000E+00 0. -1.
         21    1    1    2  503  501 -0.80947965101E+02 -0.11967373398E+03 -0.14450340029E+03  0.20434189084E+03  0.00000000000E+00 0. -1.
         21    1    1    2  504  505  0.43060425164E+02  0.28555169365E+02 -0.15086317007E+03  0.15946565147E+03  0.00000000000E+00 0. -1.
         21    1    1    2  505  502  0.59673729590E+02  0.56687053751E+02 -0.11576439601E+03  0.14204144272E+03  0.00000000000E+00 0. -1.
         -4    1    1    2    0  504 -0.21786189652E+02  0.34431510860E+02  0.34517208264E+03  0.34756860277E+03  0.00000000000E+00 0. -1.
<scales pt_clust_3="136.23099" pt_clust_4="35.39522" pt_clust_5="35.39522" pt_clust_6="40.74515"></scales>
<clustering>
<clus scale="   35.395">  4  5 -1 -1</clus>
<clus scale="   40.745">  1  6  2 -1</clus>
<clus scale="  136.231">  1  3  2 -1</clus>
<clus scale="  143.369">  2  3  1 -1</clus>
</clustering>
</event>
<event>
 6    0  0.5775861E+002  0.8499154E+02  0.7546771E-02  0.1315455E+00
          1   -1    0    0  504    0 -0.00000000000E+00  0.00000000000E+00  0.11851659047E+03  0.11851659047E+03  0.00000000000E+00 0.  1.
         21   -1    0    0  503  502  0.00000000000E+00 -0.00000000000E+00 -0.53451587589E+03  0.53451587589E+03  0.00000000000E+00 0. -1.
         21    1    1    2  503  501  0.39816886309E+02 -0.50787595135E+02 -0.13547695563E+03  0.15006255283E+03  0.00000000000E+00 0. -1.
         21    1    1    2  504  505  0.66585130687E+02  0.10472574961E+03 -0.50830948345E+02  0.13410759699E+03  0.00000000000E+00 0. -1.
         21    1    1    2  505  502 -0.55977059361E+02  0.30379285639E+01 -0.27476685107E+03  0.28042732148E+03  0.00000000000E+00 0. -1.
          1    1    1    2  501    0 -0.50424957635E+02 -0.56976083039E+02  0.45075469626E+02  0.88434995070E+02  0.00000000000E+00 0.  1.
<scales pt_clust_3="49.86607" pt_clust_4="84.99154" pt_clust_5="56.05943" pt_clust_6="14000.00000"></scales>
<clustering>
<clus scale="   56.059">  2  5  1 -1</clus>
<clus scale="   49.866">  2  3  1 -1</clus>
<clus scale="   84.992">  2  4  1 -1</clus>
<clus scale="   56.059">  2  3  1 -1</clus>
</clustering>
</event>
<event>
 6    0  0.5775861E+002  0.9637198E+02  0.7546771E-02  0.1288116E+00
          2   -1    0    0  505    0 -0.00000000000E+00  0.00000000000E+00  0.19264542658E+03  0.19264542658E+03  0.00000000000E+00 0. -1.
         21   -1    0    0  504  502  0.00000000000E+00 -0.00000000000E+00 -0.94484707289E+03  0.94484707289E+03  0.00000000000E+00 0. -1.
         21    1    1    2  503  502  0.34836302040E+02  0.76065197099E+02 -0.57646242832E+03  0.58250185701E+03  0.00000000000E+00 0. -1.
         21    1    1    2  504  501 -0.35592772212E+02  0.19845906397E+02 -0.29950999284E+03  0.30226964989E+03  0.00000000000E+00 0. -1.
         21    1    1    2  505  503  0.15344803494E+02 -0.12415331755E+03  0.16997795291E+00  0.12509811407E+03  0.00000000000E+00 0. -1.
          2    1    1    2  501    0 -0.14588333323E+02  0.28242214052E+02  0.12360079690E+03  0.12762287850E+03  0.00000000000E+00 0. -1.
<scales pt_clust_3="96.37198" pt_clust_4="41.29872" pt_clust_5="14000.00000" pt_clust_6="31.78745"></scales>
<clustering>
<clus scale="   31.787">  1  6  2 -1</clus>
<clus scale="   41.299">  2  4  1 -1</clus>
<clus scale="   96.372">  2  3  1 -1</clus>
<clus scale="   41.299">  2  3  1 -1</clus>
</clustering>
</event>
<event>
 6    0  0.5775861E+002  0.8091640E+02  0.7546771E-02  0.1326471E+00
          3   -1    0    0  505    0 -0.00000000000E+00  0.00000000000E+00  0.15197581824E+03  0.15197581824E+03  0.00000000000E+00 0.  1.
         21   -1    0    0  504  502  0.00000000000E+00 -0.00000000000E+00 -0.50093124969E+03  0.50093124969E+03  0.00000000000E+00 0. -1.
         21    1    1    2  503  501  0.51179030504E+02 -0.76689292987E+02 -0.50847835700E+02  0.10529028074E+03  0.00000000000E+00 0. -1.
         21    1    1    2  504  503  0.85433707402E+02  0.16870142642E+02 -0.27219595826E+03  0.28578691321E+03  0.00000000000E+00 0. -1.
         21    1    1    2  505  502 -0.72630975978E+02  0.36027344291E+02 -0.12046725634E+03  0.14520877404E+03  0.00000000000E+00 0.  1.
          3    1    1    2  501    0 -0.63981761928E+02  0.23791806055E+02  0.94555618852E+02  0.11662109994E+03  0.00000000000E+00 0.  1.
<scales pt_clust_3="64.19211" pt_clust_4="80.91640" pt_clust_5="14000.00000" pt_clust_6="68.26211"></scales>
<clustering>
<clus scale="   68.262">  1  6  2 -1</clus>
<clus scale="   64.192">  1  3  2 -1</clus>
<clus scale="   80.916">  2  4  1 -1</clus>
<clus scale="   80.916">  2  3  1 -1</clus>
</clustering>
</event>
<event>
 6    0  0.5775861E+002  0.8873566E+02  0.7546771E-02  0.1305943E+00
          2   -1    0    0  503    0 -0.00000000000E+00  0.00000000000E+00  0.25124962549E+03  0.25124962549E+03  0.00000000000E+00 0. -1.
         21   -1    0    0  501  502  0.00000000000E+00 -0.00000000000E+00 -0.14482769987E+04  0.14482769987E+04  0.00000000000E+00 0. -1.
         21    1    1    2  503  505  0.63001030591E+01 -0.30464727894E+02  0.52308294767E+01  0.31546038122E+02  0.00000000000E+00 0.  1.
         21    1    1    2  504  502 -0.31544682439E+01 -0.40370839594E+02 -0.13600725720E+04  0.13606752575E+04  0.00000000000E+00 0. -1.
         21    1    1    2  505  504 -0.40839913457E+02  0.11578943172E+03 -0.16035858070E+02  0.12382342174E+03  0.00000000000E+00 0. -1.
          2    1    1    2  501    0  0.37694278642E+02 -0.44953864228E+02  0.17385022739E+03  0.18348190678E+03  0.00000000000E+00 0. -1.
<scales pt_clust_3="31.10934" pt_clust_4="40.53256" pt_clust_5="14000.00000" pt_clust_6="88.73566"></scales>
<clustering>
<clus scale="   31.109">  1  3  2 -1</clus>
<clus scale="   40.533">  2  4  1 -1</clus>
<clus scale="   88.736">  1  6  2 -1</clus>
<clus scale="   40.533">  2  3  1 -1</clus>
</clustering>
</event>
<event>
 6    0  0.5775861E+002  0.1661563E+03  0.7546771E-02  0.1181917E+00
         21   -1    0    0  503  502  0.00000000000E+00  0.00000000000E+00  0.17329818865E+04  0.17329818865E+04  0.00000000000E+00 0.  1.
         -1   -1    0    0    0  501 -0.00000000000E+00 -0.00000000000E+00 -0.17260035381E+03  0.17260035381E+03  0.00000000000E+00 0.  1.
         21    1    1    2  503  501 -0.93507677696E+02 -0.14179379548E+03 -0.84934425522E+02  0.18990266682E+03  0.00000000000E+00 0.  1.
         21    1    1    2  504  505 -0.11616712929E+03  0.41613384374E+02  0.29946260443E+03  0.32388937484E+03  0.00000000000E+00 0.  1.
         21    1    1    2  505  502  0.80952587234E+02  0.11944910317E+02  0.10830909689E+04  0.10861777245E+04  0.00000000000E+00 0.  1.
         -1    1    1    2    0  504  0.12872221975E+03  0.88235500788E+02  0.26276238487E+03  0.30561247416E+03  0.00000000000E+00 0.  1.
<scales pt_clust_3="14000.00000" pt_clust_4="90.61079" pt_clust_5="81.82910" pt_clust_6="166.15628"></scales>
<clustering>
<clus scale="   81.829">  1  5  2 -1</clus>
<clus scale="   90.611">  1  4  2 -1</clus>
<clus scale="  166.156">  1  6  2 -1</clus>
<clus scale="   81.829">  1  3  2 -1</clus>
</clustering>
</event>
<event>
 6    0  0.5775861E+002  0.1226221E+03  0.7546771E-02  0.1238833E+00
          2   -1    0    0  502    0 -0.00000000000E+00  0.00000000000E+00  0.21581213829E+04  0.21581213829E+04  0.00000000000E+00 0. -1.
         21   -1    0    0  503  502  0.00000000000E+00 -0.00000000000E+00 -0.51769795436E+02  0.51769795436E+02  0.00000000000E+00 0. -1.
         21    1    1    2  503  505  0.12816918613E+02  0.32285557300E+02 -0.37635204294E+01  0.34939872623E+02  0.00000000000E+00 0. -1.
         21    1    1    2  504  501  0.70761716116E+02 -0.81943317957E+02  0.92982396699E+02  0.14271528973E+03  0.00000000000E+00 0. -1.
         21    1    1    2  505  504  0.40606705440E+02  0.29558124370E+02  0.10960702007E+03  0.12056652144E+03  0.00000000000E+00 0. -1.
          2    1    1    2  501    0 -0.12418534017E+03  0.20099636287E+02  0.19075256911E+04  0.19116694946E+04  0.00000000000E+00 0. -1.
<scales pt_clust_3="34.73659" pt_clust_4="14000.00000" pt_clust_5="55.27775" pt_clust_6="122.62206"></scales>
<clustering>
<clus scale="   34.737">  2  3  1 -1</clus>
<clus scale="   55.278">  2  5  1 -1</clus>
<clus scale="  122.622">  1  6  2 -1</clus>
<clus scale="   34.737">  2  3  1 -1</clus>
</clustering>
</event>
<event>
 6    0  0.5775861E+002  0.1128490E+03  0.7546771E-02  0.1255383E+00
         21   -1    0    0  504  502  0.00000000000E+00  0.00000000000E+00  0.91004489075E+02  0.91004489075E+02  0.00000000000E+00 0. -1.
          2   -1    0    0  503    0 -0.00000000000E+00 -0.00000000000E+00 -0.22937104435E+03  0.22937104435E+03  0.00000000000E+00 0. -1.
         21    1    1    2  503  505  0.66689548950E+02  0.60593775317E+02 -0.78056404740E+02  0.11921368993E+03  0.00000000000E+00 0. -1.
         21    1    1    2  504  501 -0.29940065837E+02 -0.24801510915E+02 -0.18079891627E+01  0.38920320025E+02  0.00000000000E+00 0.  1.
         21    1    1    2  505  502 -0.15885006617E+02  0.46089539056E+02  0.14195020096E+02  0.50774773669E+02  0.00000000000E+00 0. -1.
          2    1    1    2  501    0 -0.20864476495E+02 -0.81881803459E+02 -0.72697181467E+02  0.11146674980E+03  0.00000000000E+00 0. -1.
<scales pt_clust_3="98.14320" pt_clust_4="37.78401" pt_clust_5="48.75017" pt_clust_6="37.78401"></scales>
<clustering>
<clus scale="   37.784">  4  6 -1 -1</clus>
<clus scale="   48.750">  1  5  2 -1</clus>
<clus scale="   98.143">  2  3  1 -1</clus>
<clus scale="   48.750">  1  3  2 -1</clus>
</clustering>
</event>
<event>
 6    0  0.5775861E+002  0.7257440E+02  0.7546771E-02  0.1351551E+00
         21   -1    0    0  504  502  0.00000000000E+00  0.00000000000E+00  0.59668838865E+02  0.59668838865E+02  0.00000000000E+00 0. -1.
          1   -1    0    0  503    0 -0.00000000000E+00 -0.00000000000E+00 -0.21247653319E+04  0.21247653319E+04  0.00000000000E+00 0. -1.
         21    1    1    2  503  505  0.10728263020E+03  0.17689427393E+02 -0.29400375570E+03  0.31346560729E+03  0.00000000000E+00 0. -1.
         21    1    1    2  504  501 -0.18093571166E+02  0.37417523632E+02  0.28199899749E+02  0.50226315196E+02  0.00000000000E+00 0. -1.
         21    1    1    2  505  502 -0.51246103696E+02  0.65736332982E+01 -0.56944578384E+02  0.76889926558E+02  0.00000000000E+00 0. -1.
          1    1    1    2  501    0 -0.37942955337E+02 -0.61680584323E+02 -0.17423480587E+04  0.17438523217E+04  0.00000000000E+00 0. -1.
<scales pt_clust_3="14000.00000" pt_clust_4="41.56258" pt_clust_5="64.99137" pt_clust_6="72.57440"></scales>
<clustering>
<clus scale="   41.563">  1  4  2 -1</clus>
<clus scale="   64.991">  1  5  2 -1</clus>
<clus scale="   72.574">  2  6  1 -1</clus>
<clus scale="   41.563">  1  3  2 -1</clus>
</clustering>
</event>
<event>
 6    0  0.1758332E+003  0.9865056E+02  0.7546771E-02  0.1283159E+00
         21   -1    0    0  505  502  0.00000000000E+00  0.00000000000E+00  0.23903839969E+04  0.23903839969E+04  0.00000000000E+00 0. -1.
          2   -1    0    0  502    0 -0.00000000000E+00 -0.00000000000E+00 -0.18313995560E+04  0.18313995560E+04  0.00000000000E+00 0. -1.
         21    1    1    2  503  501  0.27420236341E+02 -0.74675386587E+02 -0.98680735308E+03  0.99000860340E+03  0.00000000000E+00 0. -1.
         21    1    1    2  504  503 -0.72842412648E+02  0.12701928858E+03  0.29913304689E+03  0.33304728867E+03  0.00000000000E+00 0. -1.
         21    1    1    2  505  504  0.10789154540E+02 -0.50393119465E+02  0.20720085005E+04  0.20726492946E+04  0.00000000000E+00 0. -1.
          2    1    1    2  501    0  0.34633021768E+02 -0.19507825243E+01 -0.82534975342E+03  0.82607836627E+03  0.00000000000E+00 0. -1.
<scales pt_clust_3="14000.00000" pt_clust_4="98.65056" pt_clust_5="51.53808" pt_clust_6="34.68792"></scales>
<clustering>
<clus scale="   34.688">  2  6  1 -1</clus>
<clus scale="   51.538">  1  5  2 -1</clus>
<clus scale="   98.651">  1  4  2 -1</clus>
<clus scale="   51.538">  1  3  2 -1</clus>
</clustering>
</event>
<event>
 6    0  0.5775861E+002  0.7077439E+02  0.7546771E-02  0.1357479E+00
         21   -1    0    0  504  502  0.00000000000E+00  0.00000000000E+00  0.26303022904E+03  0.26303022904E+03  0.00000000000E+00 0. -1.
          1   -1    0    0  503    0 -0.00000000000E+00 -0.00000000000E+00 -0.63492303177E+03  0.63492303177E+03  0.00000000000E+00 0. -1.
         21    1    1    2  503  505 -0.10503334183E+03 -0.95705061017E+02 -0.15059565411E+00  0.14209674268E+03  0.00000000000E+00 0. -1.
         21    1    1    2  504  501  0.64055624266E+02 -0.25794489401E+02  0.50170798501E+02  0.85355654211E+02  0.00000000000E+00 0. -1.
         21    1    1    2  505  502 -0.12939595411E+00  0.66524198517E+02  0.11303968649E+03  0.13116194743E+03  0.00000000000E+00 0. -1.
          1    1    1    2  501    0  0.41107113522E+02  0.54975351901E+02 -0.53495269206E+03  0.53933891649E+03  0.00000000000E+00 0. -1.
<scales pt_clust_3="70.77439" pt_clust_4="64.29232" pt_clust_5="66.52432" pt_clust_6="14000.00000"></scales>
<clustering>
<clus scale="   66.524">  1  5  2 -1</clus>
<clus scale="   64.292">  1  4  2 -1</clus>
<clus scale="   70.774">  1  3  2 -1</clus>
<clus scale="   66.524">  1  3  2 -1</clus>
</clustering>
</event>
<event>
 6    0  0.5775861E+002  0.1459565E+03  0.7546771E-02  0.1205532E+00
          2   -1    0    0  503    0 -0.00000000000E+00  0.00000000000E+00  0.76105814931E+03  0.76105814931E+03  0.00000000000E+00 0.  1.
         21   -1    0    0  505  502  0.00000000000E+00 -0.00000000000E+00 -0.18419097433E+04  0.18419097433E+04  0.00000000000E+00 0.  1.
         21    1    1    2  503  504  0.11057669402E+03 -0.84452742053E+02  0.30094238477E+03  0.33155058415E+03  0.00000000000E+00 0.  1.
         21    1    1    2  504  502 -0.12132963743E+03  0.56315453489E+02 -0.88743483690E+02  0.16052326036E+03  0.00000000000E+00 0. -1.
         21    1    1    2  505  501 -0.26610084996E+02 -0.24273847973E+02 -0.16992474106E+04  0.16996291003E+04  0.00000000000E+00 0.  1.
          2    1    1    2  501    0  0.37363028402E+02  0.52411136537E+02  0.40619691549E+03  0.41126494779E+03  0.00000000000E+00 0.  1.
<scales pt_clust_3="14000.00000" pt_clust_4="145.95650" pt_clust_5="36.01828" pt_clust_6="63.73940"></scales>
<clustering>
<clus scale="   36.018">  2  5  1 -1</clus>
<clus scale="   63.739">  1  6  2 -1</clus>
<clus scale="  145.956">  2  4  1 -1</clus>
<clus scale="   36.018">  2  3  1 -1</clus>
</clustering>
</event>
<event>
 6    0  0.5775861E+002  0.1075152E+03  0.7546771E-02  0.1265242E+00
          2   -1    0    0  502    0 -0.00000000000E+00  0.00000000000E+00  0.17434921247E+04  0.17434921247E+04  0.00000000000E+00 0. -1.
         21   -1    0    0  503  502  0.00000000000E+00 -0.00000000000E+00 -0.12157432886E+04  0.12157432886E+04  0.00000000000E+00 0. -1.
         21    1    1    2  503  504  0.30164243192E+02  0.17106061284E+02 -0.81831711612E+03  0.81905152551E+03  0.00000000000E+00 0. -1.
         21    1    1    2  504  505 -0.13606520729E+03 -0.72054478754E+01 -0.36848831890E+03  0.39287313509E+03  0.00000000000E+00 0. -1.
         21    1    1    2  505  501  0.10015132124E+03 -0.63858643618E+02  0.20607081200E+03  0.23785161986E+03  0.00000000000E+00 0. -1.
          2    1    1    2  501    0  0.57496428600E+01  0.53958030209E+02  0.15084834591E+04  0.15094591328E+04  0.00000000000E+00 0. -1.
<scales pt_clust_3="34.67707" pt_clust_4="14000.00000" pt_clust_5="107.51521" pt_clust_6="54.28834"></scales>
<clustering>
<clus scale="   34.677">  2  3  1 -1</clus>
<clus scale="   54.288">  1  6  2 -1</clus>
<clus scale="  107.515">  1  5  2 -1</clus>
<clus scale="   34.677">  2  3  1 -1</clus>
</clustering>
</event>
<event>
 6    0  0.5775861E+002  0.8526549E+02  0.7546771E-02  0.1314740E+00
         21   -1    0    0  505  502  0.00000000000E+00  0.00000000000E+00  0.91772353552E+03  0.91772353552E+03  0.00000000000E+00 0. -1.
         -1   -1    0    0    0  501 -0.00000000000E+00 -0.00000000000E+00 -0.17477362347E+04  0.17477362347E+04  0.00000000000E+00 0. -1.
         21    1    1    2  503  502  0.87777004281E+02  0.14302182947E+02  0.78988079872E+03  0.79487170733E+03  0.00000000000E+00 0. -1.
         21    1    1    2  504  503 -0.50802957055E+02 -0.57459083556E+02 -0.59967121856E+02  0.97357806222E+02  0.00000000000E+00 0. -1.
         21    1    1    2  505  501 -0.69468411191E+02  0.32012991492E+02  0.92736006017E+02  0.12021089214E+03  0.00000000000E+00 0. -1.
         -1    1    1    2    0  504  0.32494363965E+02  0.11143909116E+02 -0.16526623821E+04  0.16530193646E+04  0.00000000000E+00 0. -1.
<scales pt_clust_3="14000.00000" pt_clust_4="53.80473" pt_clust_5="85.26549" pt_clust_6="34.35215"></scales>
<clustering>
<clus scale="   34.352">  2  6  1 -1</clus>
<clus scale="   53.805">  2  4  1 -1</clus>
<clus scale="   85.265">  2  5  1 -1</clus>
<clus scale="   85.265">  1  3  2 -1</clus>
</clustering>
</event>
<event>
 6    0  0.5775861E+002  0.1385781E+03  0.7546771E-02  0.1215255E+00
         21   -1    0    0  503  502  0.00000000000E+00  0.00000000000E+00  0.21502972337E+02  0.21502972337E+02  0.00000000000E+00 0. -1.
         -2   -1    0    0    0  501 -0.00000000000E+00 -0.00000000000E+00 -0.17790223017E+04  0.17790223017E+04  0.00000000000E+00 0. -1.
         21    1    1    2  503  501 -0.82597684383E+02  0.91113556471E+02 -0.59457252436E+03  0.60715775904E+03  0.00000000000E+00 0. -1.
         21    1    1    2  504  505  0.86756607257E+02  0.17235393960E+02 -0.49285388361E+03  0.50072818804E+03  0.00000000000E+00 0. -1.
         21    1    1    2  505  502  0.55359687798E+02 -0.16809543423E+02 -0.14119777822E+03  0.15259118047E+03  0.00000000000E+00 0. -1.
         -2    1    1    2    0  504 -0.59518610673E+02 -0.91539407008E+02 -0.52889514317E+03  0.54004814649E+03  0.00000000000E+00 0. -1.
<scales pt_clust_3="120.81561" pt_clust_4="54.89708" pt_clust_5="54.89708" pt_clust_6="109.18758"></scales>
<clustering>
<clus scale="   54.897">  4  5 -1 -1</clus>
<clus scale="  109.188">  2  6  1 -1</clus>
<clus scale="  120.816">  2  3  1 -1</clus>
<clus scale="  138.578">  1  3  2 -1</clus>
</clustering>
</event>
<event>
 6    0  0.5775861E+002  0.9649408E+02  0.7546771E-02  0.1287846E+00
          2   -1    0    0  504    0 -0.00000000000E+00  0.00000000000E+00  0.15426200812E+04  0.15426200812E+04  0.00000000000E+00 0. -1.
         21   -1    0    0  505  502  0.00000000000E+00 -0.00000000000E+00 -0.24790412027E+02  0.24790412027E+02  0.00000000000E+00 0. -1.
         21    1    1    2  503  501  0.20166179702E+02 -0.80626283864E+02  0.23275442239E+03  0.24714751383E+03  0.00000000000E+00 0. -1.
         21    1    1    2  504  502  0.11214142817E+02  0.13015601577E+03  0.43950100679E+03  0.45850570380E+03  0.00000000000E+00 0. -1.
         21    1    1    2  505  503 -0.55032903498E+02  0.15511467352E+02  0.12038755558E+03  0.13327561527E+03  0.00000000000E+00 0. -1.
          2    1    1    2  501    0  0.23652580979E+02 -0.65041199257E+02  0.72518668445E+03  0.72848166037E+03  0.00000000000E+00 0. -1.
<scales pt_clust_3="14000.00000" pt_clust_4="96.49408" pt_clust_5="57.17715" pt_clust_6="66.34149"></scales>
<clustering>
<clus scale="   57.177">  2  5  1 -1</clus>
<clus scale="   66.341">  1  6  2 -1</clus>
<clus scale="   96.494">  1  4  2 -1</clus>
<clus scale="   57.177">  2  3  1 -1</clus>
</clustering>
</event>
<event>
 6    0  0.5775861E+002  0.1016772E+03  0.7546771E-02  0.1276808E+00
         21   -1    0    0  505  502  0.00000000000E+00  0.00000000000E+00  0.60289597004E+03  0.60289597004E+03  0.00000000000E+00 0.  1.
          2   -1    0    0  503    0 -0.00000000000E+00 -0.00000000000E+00 -0.84481842839E+03  0.84481842839E+03  0.00000000000E+00 0.  1.
         21    1    1    2  503  502 -0.23448881151E+02  0.20598809021E+02 -0.21150791585E+02  0.37703009761E+02  0.00000000000E+00 0. -1.
         21    1    1    2  504  501 -0.10009875912E+03 -0.53983281440E+02 -0.20798550780E+03  0.23704836576E+03  0.00000000000E+00 0.  1.
         21    1    1    2  505  504  0.42382044190E+02 -0.22912879636E+02  0.57495950858E+03  0.57697458716E+03  0.00000000000E+00 0.  1.
          2    1    1    2  501    0  0.81165596077E+02  0.56297352054E+02 -0.58774566754E+03  0.59598843575E+03  0.00000000000E+00 0.  1.
<scales pt_clust_3="31.21155" pt_clust_4="101.67725" pt_clust_5="48.14163" pt_clust_6="14000.00000"></scales>
<clustering>
<clus scale="   31.212">  2  3  1 -1</clus>
<clus scale="   48.142">  1  5  2 -1</clus>
<clus scale="  101.677">  1  4  2 -1</clus>
<clus scale="   48.142">  1  3  2 -1</clus>
</clustering>
</event>
<event>
 6    0  0.5775861E+002  0.7034503E+02  0.7546771E-02  0.1358924E+00
         21   -1    0    0  505  502  0.00000000000E+00  0.00000000000E+00  0.70087645885E+02  0.70087645885E+02  0.00000000000E+00 0.  1.
          3   -1    0    0  504    0 -0.00000000000E+00 -0.00000000000E+00 -0.85671414986E+03  0.85671414986E+03  0.00000000000E+00 0. -1.
         21    1    1    2  503  501 -0.72407824202E+02  0.77377428837E+02 -0.12923514804E+03  0.16712834286E+03  0.00000000000E+00 0.  1.
         21    1    1    2  504  502  0.49745425428E+02 -0.86142418355E+00 -0.94443202777E+02  0.10674674680E+03  0.00000000000E+00 0.  1.
         21    1    1    2  505  503 -0.27423760957E+02 -0.32213999487E+02  0.32741421713E+02  0.53495842117E+02  0.00000000000E+00 0.  1.
          3    1    1    2  501    0  0.50086159731E+02 -0.44302005166E+02 -0.59568957487E+03  0.59943086396E+03  0.00000000000E+00 0. -1.
<scales pt_clust_3="14000.00000" pt_clust_4="44.25801" pt_clust_5="42.30608" pt_clust_6="70.34503"></scales>
<clustering>
<clus scale="   42.306">  1  5  2 -1</clus>
<clus scale="   44.258">  1  4  2 -1</clus>
<clus scale="   70.345">  2  6  1 -1</clus>
<clus scale="   42.306">  1  3  2 -1</clus>
</clustering>
</event>
<event>
 6    0  0.5775861E+002  0.1356154E+03  0.7546771E-02  0.1219354E+00
          2   -1    0    0  504    0 -0.00000000000E+00  0.00000000000E+00  0.11915975298E+04  0.11915975298E+04  0.00000000000E+00 0.  1.
         21   -1    0    0  505  502  0.00000000000E+00 -0.00000000000E+00 -0.82251383203E+03  0.82251383203E+03  0.00000000000E+00 0.  1.
         21    1    1    2  503  502  0.26789842704E+02 -0.13600909721E+02 -0.34536649415E+03  0.34667087518E+03  0.00000000000E+00 0.  1.
         21    1    1    2  504  503 -0.33926102849E+01  0.48371239917E+02  0.13657944569E+03  0.14493181722E+03  0.00000000000E+00 0.  1.
         21    1    1    2  505  501  0.10218397602E+03 -0.30498135186E+02 -0.46247089424E+03  0.47460618330E+03  0.00000000000E+00 0.  1.
          2    1    1    2  501    0 -0.12558120844E+03 -0.42721950108E+01  0.10403416404E+04  0.10479024861E+04  0.00000000000E+00 0.  1.
<scales pt_clust_3="30.04464" pt_clust_4="48.35526" pt_clust_5="135.61541" pt_clust_6="14000.00000"></scales>
<clustering>
<clus scale="   30.045">  2  3  1 -1</clus>
<clus scale="   48.355">  1  4  2 -1</clus>
<clus scale="  135.615">  2  5  1 -1</clus>
<clus scale="   30.045">  2  3  1 -1</clus>
</clustering>
</event>
<event>
 6    0  0.5775861E+002  0.1000438E+03  0.7546771E-02  0.1280204E+00
         21   -1    0    0  505  502  0.00000000000E+00  0.00000000000E+00  0.96891436416E+03  0.96891436416E+03  0.00000000000E+00 0. -1.
         -1   -1    0    0    0  501 -0.00000000000E+00 -0.00000000000E+00 -0.23157524859E+03  0.23157524859E+03  0.00000000000E+00 0. -1.
         21    1    1    2  503  502 -0.54153778080E+02 -0.98856957334E+01  0.61291257476E+03  0.61537970632E+03  0.00000000000E+00 0. -1.
         21    1    1    2  504  503  0.16030262913E+03 -0.85840543386E+01  0.11368266134E+03  0.19670883657E+03  0.00000000000E+00 0. -1.
         21    1    1    2  505  501 -0.38667764385E+02 -0.52943125942E+02  0.18062416940E+03  0.19215426396E+03  0.00000000000E+00 0. -1.
         -1    1    1    2    0  504 -0.67481086662E+02  0.71412876014E+02 -0.16988028993E+03  0.19624680590E+03  0.00000000000E+00 0. -1.
<scales pt_clust_3="55.04869" pt_clust_4="14000.00000" pt_clust_5="88.79692" pt_clust_6="100.04378"></scales>
<clustering>
<clus scale="   55.049">  1  3  2 -1</clus>
<clus scale="   88.797">  1  5  2 -1</clus>
<clus scale="  100.044">  2  6  1 -1</clus>
<clus scale="   55.049">  1  3  2 -1</clus>
</clustering>
</event>
<event>
 6    0  0.5775861E+002  0.1318622E+03  0.7546771E-02  0.1224718E+00
          4   -1    0    0  504    0 -0.00000000000E+00  0.00000000000E+00  0.19825478300E+03  0.19825478300E+03  0.00000000000E+00 0.  1.
         21   -1    0    0  501  502  0.00000000000E+00 -0.00000000000E+00 -0.70514673609E+03  0.70514673609E+03  0.00000000000E+00 0.  1.
         21    1    1    2  503  502 -0.87797243406E+01  0.31733537259E+02 -0.34804800504E+03  0.34960193758E+03  0.00000000000E+00 0.  1.
         21    1    1    2  504  505  0.37133868765E+02 -0.26653800702E+02 -0.76520457975E+01  0.46345475574E+02  0.00000000000E+00 0.  1.
         21    1    1    2  505  503 -0.12201718402E+03  0.10908870098E+02 -0.30386404300E+03  0.32762868200E+03  0.00000000000E+00 0.  1.
          4    1    1    2  501    0  0.93663039592E+02 -0.15988606655E+02  0.15267214075E+03  0.17982542392E+03  0.00000000000E+00 0.  1.
<scales pt_clust_3="32.92569" pt_clust_4="43.79487" pt_clust_5="131.86222" pt_clust_6="14000.00000"></scales>
<clustering>
<clus scale="   32.926">  2  3  1 -1</clus>
<clus scale="   43.795">  1  4  2 -1</clus>
<clus scale="  131.862">  2  5  1 -1</clus>
<clus scale="   32.926">  2  3  1 -1</clus>
</clustering>
</event>
<event>
 6    0  0.5775861E+002  0.1670798E+03  0.7546771E-02  0.1180928E+00
         21   -1    0    0  504  502  0.00000000000E+00  0.00000000000E+00  0.13568553749E+04  0.13568553749E+04  0.00000000000E+00 0. -1.
          1   -1    0    0  502    0 -0.00000000000E+00 -0.00000000000E+00 -0.10611301668E+03  0.10611301668E+03  0.00000000000E+00 0.  1.
         21    1    1    2  503  501  0.10675633190E+03  0.88876990033E+02  0.10282762463E+03  0.17282810577E+03  0.00000000000E+00 0.  1.
         21    1    1    2  504  505  0.30453428450E+02  0.81530937954E+01  0.85169564651E+03  0.85227892062E+03  0.00000000000E+00 0. -1.
         21    1    1    2  505  503 -0.15795038621E+03 -0.12169646558E+03  0.33351215273E+03  0.38857265762E+03  0.00000000000E+00 0.  1.
          1    1    1    2  501    0  0.20740625852E+02  0.24666381755E+02 -0.37293065639E+02  0.49288707575E+02  0.00000000000E+00 0.  1.
<scales pt_clust_3="14000.00000" pt_clust_4="31.52593" pt_clust_5="167.07985" pt_clust_6="32.53506"></scales>
<clustering>
<clus scale="   31.526">  1  4  2 -1</clus>
<clus scale="   32.535">  2  6  1 -1</clus>
<clus scale="  167.080">  1  5  2 -1</clus>
<clus scale="   31.526">  1  3  2 -1</clus>
</clustering>
</event>
<event>
 6    0  0.5775861E+002  0.1140338E+03  0.7546771E-02  0.1253277E+00
         -1   -1    0    0    0  501 -0.00000000000E+00  0.00000000000E+00  0.30361135781E+03  0.30361135781E+03  0.00000000000E+00 0. -1.
         21   -1    0    0  503  502  0.00000000000E+00 -0.00000000000E+00 -0.14975126052E+03  0.14975126052E+03  0.00000000000E+00 0.  1.
         21    1    1    2  503  504 -0.71143096446E+02 -0.20652476752E+02  0.11371620905E+02  0.74947840062E+02  0.00000000000E+00 0.  1.
         21    1    1    2  504  501  0.14306156922E+03 -0.82912689997E+02  0.33369271131E+01  0.16538519230E+03  0.00000000000E+00 0.  1.
         21    1    1    2  505  502  0.34757832706E+01  0.31582519308E+02 -0.79371499123E+01  0.32749579294E+02  0.00000000000E+00 0.  1.
         -1    1    1    2    0  505 -0.75394256041E+02  0.71982647441E+02  0.14708869918E+03  0.18028000667E+03  0.00000000000E+00 0. -1.
<scales pt_clust_3="71.46224" pt_clust_4="114.03380" pt_clust_5="31.77321" pt_clust_6="14000.00000"></scales>
<clustering>
<clus scale="   31.773">  2  5  1 -1</clus>
<clus scale="   71.462">  2  3  1 -1</clus>
<clus scale="  114.034">  2  4  1 -1</clus>
<clus scale="   31.773">  2  3  1 -1</clus>
</clustering>
</event>
<event>
 6    0  0.5775861E+002  0.9212117E+02  0.7546771E-02  0.1297795E+00
         21   -1    0    0  505  502  0.00000000000E+00  0.00000000000E+00  0.32698336106E+02  0.32698336106E+02  0.00000000000E+00 0. -1.
          2   -1    0    0  503    0 -0.00000000000E+00 -0.00000000000E+00 -0.14890981662E+04  0.14890981662E+04  0.00000000000E+00 0.  1.
         21    1    1    2  503  504 -0.35468780371E+01 -0.37416819109E+02 -0.14448580188E+03  0.14929415810E+03  0.00000000000E+00 0. -1.
         21    1    1    2  504  502  0.36826516713E+02 -0.25409965932E+02 -0.23846803040E+02  0.50700381824E+02  0.00000000000E+00 0. -1.
         21    1    1    2  505  501 -0.48483835895E+02  0.11778499238E+03 -0.23590279544E+03  0.26809348308E+03  0.00000000000E+00 0. -1.
          2    1    1    2  501    0  0.15204197220E+02 -0.54958207341E+02 -0.10521644297E+04  0.10537084793E+04  0.00000000000E+00 0.  1.
<scales pt_clust_3="37.58455" pt_clust_4="45.26035" pt_clust_5="92.12117" pt_clust_6="14000.00000"></scales>
<clustering>
<clus scale="   37.585">  2  3  1 -1</clus>
<clus scale="   45.260">  1  4  2 -1</clus>
<clus scale="   92.121">  1  5  2 -1</clus>
<clus scale="   45.260">  1  3  2 -1</clus>
</clustering>
</event>
<event>
 6    0  0.5775861E+002  0.7618598E+02  0.7546771E-02  0.1340237E+00
         21   -1    0    0  505  502  0.00000000000E+00  0.00000000000E+00  0.37927029834E+02  0.37927029834E+02  0.00000000000E+00 0.  1.
          2   -1    0    0  503    0 -0.00000000000E+00 -0.00000000000E+00 -0.24660942893E+04  0.24660942893E+04  0.00000000000E+00 0.  1.
         21    1    1    2  503  504  0.55816453958E+02 -0.40610845447E+02 -0.50515626043E+03  0.50985053177E+03  0.00000000000E+00 0.  1.
         21    1    1    2  504  502  0.10429771840E+02  0.36653616747E+02 -0.49171992138E+02  0.62210550328E+02  0.00000000000E+00 0.  1.
         21    1    1    2  505  501 -0.90208978544E+02 -0.40399953699E+02 -0.56359110003E+02  0.11378121703E+03  0.00000000000E+00 0.  1.
          2    1    1    2  501    0  0.23962752747E+02  0.44357182400E+02 -0.18174798969E+04  0.18181790200E+04  0.00000000000E+00 0.  1.
<scales pt_clust_3="76.18598" pt_clust_4="38.10863" pt_clust_5="14000.00000" pt_clust_6="50.83018"></scales>
<clustering>
<clus scale="   38.109">  1  4  2 -1</clus>
<clus scale="   50.830">  2  6  1 -1</clus>
<clus scale="   76.186">  2  3  1 -1</clus>
<clus scale="   38.109">  1  3  2 -1</clus>
</clustering>
</event>
<event>
 6    0  0.5775861E+002  0.9514376E+02  0.7546771E-02  0.1290853E+00
          1   -1    0    0  504    0 -0.00000000000E+00  0.00000000000E+00  0.11853386836E+04  0.11853386836E+04  0.00000000000E+00 0. -1.
         21   -1    0    0  505  502  0.00000000000E+00 -0.00000000000E+00 -0.10072168489E+04  0.10072168489E+04  0.00000000000E+00 0. -1.
         21    1    1    2  503  502  0.11652632864E+03 -0.30828285798E+02 -0.11254537941E+03  0.16490976593E+03  0.00000000000E+00 0.  1.
         21    1    1    2  504  503 -0.59944844509E+02  0.57898778856E+02  0.91092250183E+02  0.12346437146E+03  0.00000000000E+00 0. -1.
         21    1    1    2  505  501 -0.28479802074E+02  0.68545527048E+02 -0.84831841982E+03  0.85155958677E+03  0.00000000000E+00 0. -1.
          1    1    1    2  501    0 -0.28101682056E+02 -0.95616020107E+02  0.10478933837E+04  0.10526218083E+04  0.00000000000E+00 0. -1.
<scales pt_clust_3="95.14376" pt_clust_4="90.40059" pt_clust_5="74.22660" pt_clust_6="14000.00000"></scales>
<clustering>
<clus scale="   74.227">  2  5  1 -1</clus>
<clus scale="   90.401">  1  4  2 -1</clus>
<clus scale="   95.144">  2  3  1 -1</clus>
<clus scale="   74.227">  2  3  1 -1</clus>
</clustering>
</event>
<event>
 6    0  0.5775861E+002  0.8944308E+02  0.7546771E-02  0.1304206E+00
         21   -1    0    0  503  502  0.00000000000E+00  0.00000000000E+00  0.88028561810E+03  0.88028561810E+03  0.00000000000E+00 0. -1.
          2   -1    0    0  505    0 -0.00000000000E+00 -0.00000000000E+00 -0.34229116602E+04  0.34229116602E+04  0.00000000000E+00 0. -1.
         21    1    1    2  503  501 -0.56475859221E+02  0.55739564955E+02 -0.85937944953E+03  0.86303502828E+03  0.00000000000E+00 0. -1.
         21    1    1    2  504  502 -0.46805811874E+02  0.48182448603E+02  0.86412063721E+03  0.86672764351E+03  0.00000000000E+00 0. -1.
         21    1    1    2  505  504  0.44285715582E+01 -0.84992365859E+02 -0.13914005444E+03  0.16310508653E+03  0.00000000000E+00 0.  1.
          2    1    1    2  501    0  0.98853099536E+02 -0.18929647700E+02 -0.24082271754E+04  0.24103295200E+04  0.00000000000E+00 0. -1.
<scales pt_clust_3="89.44308" pt_clust_4="67.17390" pt_clust_5="56.91054" pt_clust_6="14000.00000"></scales>
<clustering>
<clus scale="   67.174">  1  4  2 -1</clus>
<clus scale="   56.911">  1  5  2 -1</clus>
<clus scale="   89.443">  1  3  2 -1</clus>
<clus scale="   67.174">  1  3  2 -1</clus>
</clustering>
</event>
<event>
 6    0  0.5775861E+002  0.6587291E+02  0.7546771E-02  0.1374718E+00
          2   -1    0    0  505    0 -0.00000000000E+00  0.00000000000E+00  0.38083983071E+04  0.38083983071E+04  0.00000000000E+00 0. -1.
         21   -1    0    0  501  502  0.00000000000E+00 -0.00000000000E+00 -0.65792948705E+02  0.65792948705E+02  0.00000000000E+00 0.  1.
         21    1    1    2  503  504 -0.68300135361E+02  0.59596919972E+01  0.71013704421E+03  0.71343888875E+03  0.00000000000E+00 0.  1.
         21    1    1    2  504  502 -0.59991042445E+02  0.26881019947E+02 -0.43111859284E+02  0.78613909825E+02  0.00000000000E+00 0.  1.
         21    1    1    2  505  503  0.57658314559E+02  0.20868393032E+02  0.36564334436E+03  0.37074927692E+03  0.00000000000E+00 0.  1.
          2    1    1    2  501    0  0.70632863247E+02 -0.53709104976E+02  0.27099368291E+04  0.27113891803E+04  0.00000000000E+00 0. -1.
<scales pt_clust_3="57.29969" pt_clust_4="65.87291" pt_clust_5="61.31860" pt_clust_6="14000.00000"></scales>
<clustering>
<clus scale="   61.319">  1  5  2 -1</clus>
<clus scale="   57.300">  1  3  2 -1</clus>
<clus scale="   65.873">  2  4  1 -1</clus>
<clus scale="   65.873">  2  3  1 -1</clus>
</clustering>
</event>
<event>
 6    0  0.5775861E+002  0.1024421E+03  0.7546771E-02  0.1275243E+00
         -3   -1    0    0    0  501 -0.00000000000E+00  0.00000000000E+00  0.25108660207E+04  0.25108660207E+04  0.00000000000E+00 0.  1.
         21   -1    0    0  503  502  0.00000000000E+00 -0.00000000000E+00 -0.14823692813E+03  0.14823692813E+03  0.00000000000E+00 0.  1.
         21    1    1    2  503  505 -0.19944035105E+02 -0.31806685445E+02 -0.76147276919E+02  0.84898984431E+02  0.00000000000E+00 0.  1.
         21    1    1    2  504  502 -0.65204398624E+02  0.70873537142E+02 -0.19205548842E+02  0.98201450973E+02  0.00000000000E+00 0.  1.
         21    1    1    2  505  501  0.49025686777E+02  0.57068845427E+02  0.17224127605E+03  0.18795592105E+03  0.00000000000E+00 0.  1.
         -3    1    1    2    0  504  0.36122746951E+02 -0.96135697124E+02  0.22857406423E+04  0.22880465924E+04  0.00000000000E+00 0.  1.
<scales pt_clust_3="37.54237" pt_clust_4="14000.00000" pt_clust_5="70.93080" pt_clust_6="102.44211"></scales>
<clustering>
<clus scale="   37.542">  2  3  1 -1</clus>
<clus scale="   70.931">  2  5  1 -1</clus>
<clus scale="  102.442">  1  6  2 -1</clus>
<clus scale="   37.542">  2  3  1 -1</clus>
</clustering>
</event>
<event>
 6    0  0.5775861E+002  0.1002160E+03  0.7546771E-02  0.1279842E+00
         21   -1    0    0  505  502  0.00000000000E+00  0.00000000000E+00  0.16325301315E+03  0.16325301315E+03  0.00000000000E+00 0.  1.
          2   -1    0    0  503    0 -0.00000000000E+00 -0.00000000000E+00 -0.40507199912E+03  0.40507199912E+03  0.00000000000E+00 0. -1.
         21    1    1    2  503  504  0.89467642670E+02 -0.27159887275E+02 -0.19507792772E+03  0.21632733633E+03  0.00000000000E+00 0. -1.
         21    1    1    2  504  502  0.29564292669E+02  0.53005247663E+02  0.37222187218E+02  0.71197576518E+02  0.00000000000E+00 0.  1.
         21    1    1    2  505  501 -0.62941344781E+02  0.67226993701E+02  0.52773270044E+02  0.10614188427E+03  0.00000000000E+00 0.  1.
          2    1    1    2  501    0 -0.56090590557E+02 -0.93072354089E+02 -0.13673651551E+03  0.17465821515E+03  0.00000000000E+00 0. -1.
<scales pt_clust_3="94.93152" pt_clust_4="60.69270" pt_clust_5="14000.00000" pt_clust_6="100.21604"></scales>
<clustering>
<clus scale="   60.693">  1  4  2 -1</clus>
<clus scale="   94.932">  2  3  1 -1</clus>
<clus scale="  100.216">  2  6  1 -1</clus>
<clus scale="   60.693">  1  3  2 -1</clus>
</clustering>
</event>
<event>
 6    0  0.5775861E+002  0.1098084E+03  0.7546771E-02  0.1260925E+00
         21   -1    0    0  505  502  0.00000000000E+00  0.00000000000E+00  0.89315129595E+03  0.89315129595E+03  0.00000000000E+00 0.  1.
          2   -1    0    0  504    0 -0.00000000000E+00 -0.00000000000E+00 -0.11669800579E+04  0.11669800579E+04  0.00000000000E+00 0. -1.
         21    1    1    2  503  502 -0.13227803127E+02  0.10957551478E+03  0.87650038866E+03  0.88342215250E+03  0.00000000000E+00 0.  1.
         21    1    1    2  504  503 -0.36272929702E+02 -0.18096672365E+02 -0.46581810939E+02  0.61750142431E+02  0.00000000000E+00 0. -1.
         21    1    1    2  505  501  0.33554699417E+02 -0.65210933716E+02 -0.24691850431E+03  0.25757936932E+03  0.00000000000E+00 0. -1.
          2    1    1    2  501    0  0.15946033412E+02 -0.26267908702E+02 -0.85682883536E+03  0.85737968958E+03  0.00000000000E+00 0. -1.
<scales pt_clust_3="109.80844" pt_clust_4="40.44801" pt_clust_5="14000.00000" pt_clust_6="30.72912"></scales>
<clustering>
<clus scale="   30.729">  2  6  1 -1</clus>
<clus scale="   40.448">  2  4  1 -1</clus>
<clus scale="  109.808">  1  3  2 -1</clus>
<clus scale="  109.808">  1  3  2 -1</clus>
</clustering>
</event>
<event>
 6    0  0.5775861E+002  0.1346653E+03  0.7546771E-02  0.1220693E+00
         21   -1    0    0  503  502  0.00000000000E+00  0.00000000000E+00  0.28682261640E+03  0.28682261640E+03  0.00000000000E+00 0.  1.
          1   -1    0    0  504    0 -0.00000000000E+00 -0.00000000000E+00 -0.12422709733E+04  0.12422709733E+04  0.00000000000E+00 0.  1.
         21    1    1    2  503  501  0.12355320150E+03 -0.13772126635E+03  0.18961545701E+03  0.26492746619E+03  0.00000000000E+00 0.  1.
         21    1    1    2  504  505  0.10189539127E+02  0.41426895096E+02  0.10418526129E+02  0.43915373522E+02  0.00000000000E+00 0.  1.
         21    1    1    2  505  502 -0.24632094300E+02  0.18684333256E+02  0.20224318669E+02  0.36944112446E+02  0.00000000000E+00 0.  1.
          1    1    1    2  501    0 -0.10911064633E+03  0.77610037994E+02 -0.11757066588E+04  0.11833066376E+04  0.00000000000E+00 0.  1.
<scales pt_clust_3="14000.00000" pt_clust_4="44.05272" pt_clust_5="30.91673" pt_clust_6="134.66534"></scales>
<clustering>
<clus scale="   30.917">  1  5  2 -1</clus>
<clus scale="   44.053">  1  4  2 -1</clus>
<clus scale="  134.665">  2  6  1 -1</clus>
<clus scale="   30.917">  1  3  2 -1</clus>
</clustering>
</event>
<event>
 6    0  0.5775861E+002  0.1173563E+03  0.7546771E-02  0.1247523E+00
          1   -1    0    0  504    0 -0.00000000000E+00  0.00000000000E+00  0.16369641243E+04  0.16369641243E+04  0.00000000000E+00 0.  1.
         21   -1    0    0  505  502  0.00000000000E+00 -0.00000000000E+00 -0.13053682074E+04  0.13053682074E+04  0.00000000000E+00 0. -1.
         21    1    1    2  503  501 -0.20309639892E+02 -0.11958298335E+03  0.43153939875E+02  0.12874328684E+03  0.00000000000E+00 0. -1.
         21    1    1    2  504  502  0.12060266269E+03  0.64155124067E+02 -0.24524910280E+03  0.28072763422E+03  0.00000000000E+00 0. -1.
         21    1    1    2  505  503 -0.57768688239E+02  0.36299339122E+02 -0.99806577831E+03  0.10003950026E+04  0.00000000000E+00 0. -1.
          1    1    1    2  501    0 -0.42524334556E+02  0.19128520164E+02  0.15317568581E+04  0.15324664080E+04  0.00000000000E+00 0.  1.
<scales pt_clust_3="14000.00000" pt_clust_4="117.35626" pt_clust_5="68.73956" pt_clust_6="46.62852"></scales>
<clustering>
<clus scale="   46.629">  1  6  2 -1</clus>
<clus scale="   68.740">  2  5  1 -1</clus>
<clus scale="  117.356">  2  4  1 -1</clus>
<clus scale="   68.740">  2  3  1 -1</clus>
</clustering>
</event>
<event>
 6    0  0.5775861E+002  0.1442730E+03  0.7546771E-02  0.1207692E+00
         21   -1    0    0  504  502  0.00000000000E+00  0.00000000000E+00  0.33053361212E+03  0.33053361212E+03  0.00000000000E+00 0.  1.
          3   -1    0    0  505    0 -0.00000000000E+00 -0.00000000000E+00 -0.24977502411E+03  0.24977502411E+03  0.00000000000E+00 0.  1.
         21    1    1    2  503  501 -0.38294044493E+02 -0.11546214832E+03  0.19449895509E+03  0.22940746516E+03  0.00000000000E+00 0.  1.
         21    1    1    2  504  503  0.36275100069E+02 -0.38618717925E+02  0.78785031234E+02  0.94944033018E+02  0.00000000000E+00 0. -1.
         21    1    1    2  505  502 -0.22475233796E+02  0.12852424178E+03 -0.13047420208E+03  0.18451865561E+03  0.00000000000E+00 0.  1.
          3    1    1    2  501    0  0.24494178220E+02  0.25556624462E+02 -0.62051196234E+02  0.71438482449E+02  0.00000000000E+00 0.  1.
<scales pt_clust_3="144.27300" pt_clust_4="52.92485" pt_clust_5="14000.00000" pt_clust_6="35.39923"></scales>
<clustering>
<clus scale="   35.399">  2  6  1 -1</clus>
<clus scale="   52.925">  1  4  2 -1</clus>
<clus scale="  144.273">  1  3  2 -1</clus>
<clus scale="   52.925">  1  3  2 -1</clus>
</clustering>
</event>
<event>
 6    0  0.5775861E+002  0.1267566E+03  0.7546771E-02  0.1232349E+00
         21   -1    0    0  503  502  0.00000000000E+00  0.00000000000E+00  0.90038645994E+03  0.90038645994E+03  0.00000000000E+00 0.  1.
          2   -1    0    0  504    0 -0.00000000000E+00 -0.00000000000E+00 -0.38813892624E+03  0.38813892624E+03  0.00000000000E+00 0. -1.
         21    1    1    2  503  505 -0.29082889460E+02  0.10502176944E+03  0.16218152585E+03  0.19539251225E+03  0.00000000000E+00 0. -1.
         21    1    1    2  504  502 -0.52366299298E+02  0.85302131400E+01  0.64214888723E+03  0.64433701369E+03  0.00000000000E+00 0.  1.
         21    1    1    2  505  501  0.11951301570E+03 -0.79387297176E+02  0.86564803830E+01  0.14373809004E+03  0.00000000000E+00 0. -1.
          2    1    1    2  501    0 -0.38063826942E+02 -0.34164685399E+02 -0.30073935977E+03  0.30505777021E+03  0.00000000000E+00 0. -1.
<scales pt_clust_3="126.75659" pt_clust_4="53.47065" pt_clust_5="14000.00000" pt_clust_6="51.14764"></scales>
<clustering>
<clus scale="   51.148">  2  6  1 -1</clus>
<clus scale="   53.471">  1  4  2 -1</clus>
<clus scale="  126.757">  1  3  2 -1</clus>
<clus scale="   53.471">  1  3  2 -1</clus>
</clustering>
</event>
<event>
 6    0  0.6623825E+002  0.1162907E+03  0.7546771E-02  0.1249345E+00
          3   -1    0    0  504    0 -0.00000000000E+00  0.00000000000E+00  0.71200713696E+03  0.71200713696E+03  0.00000000000E+00 0. -1.
         21   -1    0    0  503  502  0.00000000000E+00 -0.00000000000E+00 -0.92770354152E+03  0.92770354152E+03  0.00000000000E+00 0. -1.
         21    1    1    2  503  505 -0.36664032574E+02 -0.28427629523E+02 -0.61512850087E+03  0.61687555794E+03  0.00000000000E+00 0. -1.
         21    1    1    2  504  502 -0.38073592369E+02 -0.67594841321E+02 -0.29687394989E+03  0.30684328758E+03  0.00000000000E+00 0. -1.
         21    1    1    2  505  501  0.60678945607E+02  0.44985273222E+02  0.15841366095E+03  0.17550070433E+03  0.00000000000E+00 0.  1.
          3    1    1    2  501    0  0.14058679336E+02  0.51037197623E+02  0.53789238525E+03  0.54049112862E+03  0.00000000000E+00 0. -1.
<scales pt_clust_3="46.39376" pt_clust_4="14000.00000" pt_clust_5="116.29067" pt_clust_6="52.78338"></scales>
<clustering>
<clus scale="   46.394">  2  3  1 -1</clus>
<clus scale="   52.783">  1  6  2 -1</clus>
<clus scale="  116.291">  1  5  2 -1</clus>
<clus scale="   46.394">  2  3  1 -1</clus>
</clustering>
</event>
<event>
 6    0  0.5775861E+002  0.1128738E+03  0.7546771E-02  0.1255339E+00
         21   -1    0    0  503  502  0.00000000000E+00  0.00000000000E+00  0.11265365245E+03  0.11265365245E+03  0.00000000000E+00 0. -1.
          2   -1    0    0  505    0 -0.00000000000E+00 -0.00000000000E+00 -0.11201474534E+04  0.11201474534E+04  0.00000000000E+00 0.  1.
         21    1    1    2  503  501  0.44891853594E+02  0.22130206620E+02 -0.52745713759E+01  0.50327384865E+02  0.00000000000E+00 0. -1.
         21    1    1    2  504  502 -0.74887170089E+02 -0.53807984157E+01 -0.28233263738E+02  0.80213206001E+02  0.00000000000E+00 0. -1.
         21    1    1    2  505  504 -0.57784990503E+02 -0.88698181060E+02  0.14880918218E+02  0.10690142271E+03  0.00000000000E+00 0. -1.
          2    1    1    2  501    0  0.87780306999E+02  0.71948772856E+02 -0.98886688407E+03  0.99535909230E+03  0.00000000000E+00 0.  1.
<scales pt_clust_3="50.05022" pt_clust_4="61.94980" pt_clust_5="14000.00000" pt_clust_6="112.87380"></scales>
<clustering>
<clus scale="   50.050">  1  3  2 -1</clus>
<clus scale="   61.950">  1  4  2 -1</clus>
<clus scale="  112.874">  2  6  1 -1</clus>
<clus scale="   50.050">  1  3  2 -1</clus>
</clustering>
</event>
<event>
 6    0  0.5775861E+002  0.9022080E+02  0.7546771E-02  0.1302318E+00
         21   -1    0    0  504  502  0.00000000000E+00  0.00000000000E+00  0.16392320104E+04  0.16392320104E+04  0.00000000000E+00 0. -1.
          2   -1    0    0  503    0 -0.00000000000E+00 -0.00000000000E+00 -0.16677175497E+04  0.16677175497E+04  0.00000000000E+00 0. -1.
         21    1    1    2  503  505  0.64236530128E+02  0.10029001778E+02 -0.71771904305E+02  0.96840688386E+02  0.00000000000E+00 0.  1.
         21    1    1    2  504  501 -0.70264862530E+02 -0.91638942029E+02  0.10436586840E+03  0.15565050944E+03  0.00000000000E+00 0.  1.
         21    1    1    2  505  502 -0.19118038726E+02  0.52867399318E+02  0.14959272943E+04  0.14969832768E+04  0.00000000000E+00 0. -1.
          2    1    1    2  501    0  0.25146371129E+02  0.28742540933E+02 -0.15570067977E+04  0.15574750855E+04  0.00000000000E+00 0. -1.
<scales pt_clust_3="14000.00000" pt_clust_4="90.22080" pt_clust_5="56.30652" pt_clust_6="38.18997"></scales>
<clustering>
<clus scale="   38.190">  2  6  1 -1</clus>
<clus scale="   56.307">  1  5  2 -1</clus>
<clus scale="   90.221">  1  4  2 -1</clus>
<clus scale="   56.307">  1  3  2 -1</clus>
</clustering>
</event>
<event>
 6    0  0.5775861E+002  0.1108670E+03  0.7546771E-02  0.1258973E+00
          2   -1    0    0  505    0 -0.00000000000E+00  0.00000000000E+00  0.24319957160E+04  0.24319957160E+04  0.00000000000E+00 0. -1.
         21   -1    0    0  501  502  0.00000000000E+00 -0.00000000000E+00 -0.89831943486E+02  0.89831943486E+02  0.00000000000E+00 0.  1.
         21    1    1    2  503  502 -0.17946229709E+02  0.37524867944E+02 -0.71331608414E+02  0.82573489898E+02  0.00000000000E+00 0.  1.
         21    1    1    2  504  503 -0.90909501149E+02  0.23206830468E+02  0.24681520636E+03  0.26404704215E+03  0.00000000000E+00 0.  1.
         21    1    1    2  505  504  0.83109655692E+02 -0.89266115459E+02  0.93422476458E+03  0.94215262298E+03  0.00000000000E+00 0.  1.
          2    1    1    2  501    0  0.25746075166E+02  0.28534417048E+02  0.12324554100E+04  0.12330545044E+04  0.00000000000E+00 0. -1.
<scales pt_clust_3="41.66439" pt_clust_4="110.86703" pt_clust_5="14000.00000" pt_clust_6="38.43271"></scales>
<clustering>
<clus scale="   38.433">  1  6  2 -1</clus>
<clus scale="   41.664">  2  3  1 -1</clus>
<clus scale="  110.867">  2  4  1 -1</clus>
<clus scale="   41.664">  2  3  1 -1</clus>
</clustering>
</event>
<event>
 6    0  0.5775861E+002  0.8767679E+02  0.7546771E-02  0.1308577E+00
          1   -1    0    0  503    0 -0.00000000000E+00  0.00000000000E+00  0.13781389491E+04  0.13781389491E+04  0.00000000000E+00 0.  1.
         21   -1    0    0  505  502  0.00000000000E+00 -0.00000000000E+00 -0.22448471454E+03  0.22448471454E+03  0.00000000000E+00 0. -1.
         21    1    1    2  503  504  0.44743872147E+02 -0.93579055997E+02  0.95390311102E+02  0.14091971213E+03  0.00000000000E+00 0. -1.
         21    1    1    2  504  502 -0.18694943028E+02 -0.34764308810E+02 -0.91539698898E+02  0.99687384038E+02  0.00000000000E+00 0. -1.
         21    1    1    2  505  501 -0.44110022326E+02  0.42279902836E+02 -0.95629597474E+02  0.11348261614E+03  0.00000000000E+00 0. -1.
          1    1    1    2  501    0  0.18061093206E+02  0.86063461970E+02  0.12454332198E+04  0.12485339513E+04  0.00000000000E+00 0.  1.
<scales pt_clust_3="87.67679" pt_clust_4="39.47224" pt_clust_5="60.92570" pt_clust_6="14000.00000"></scales>
<clustering>
<clus scale="   39.472">  2  4  1 -1</clus>
<clus scale="   60.926">  2  5  1 -1</clus>
<clus scale="   87.677">  2  3  1 -1</clus>
<clus scale="   39.472">  2  3  1 -1</clus>
</clustering>
</event>
<event>
 6    0  0.5775861E+002  0.2336972E+03  0.7546771E-02  0.1124064E+00
          2   -1    0    0  504    0 -0.00000000000E+00  0.00000000000E+00  0.12852138024E+04  0.12852138024E+04  0.00000000000E+00 0.  1.
         21   -1    0    0  503  502  0.00000000000E+00 -0.00000000000E+00 -0.17728006116E+04  0.17728006116E+04  0.00000000000E+00 0.  1.
         21    1    1    2  503  501 -0.11460351190E+03 -0.12654290458E+03 -0.74399162369E+03  0.76332863680E+03  0.00000000000E+00 0.  1.
         21    1    1    2  504  505  0.66548465742E+02  0.95565168033E+02 -0.22122806014E+03  0.25000650837E+03  0.00000000000E+00 0.  1.
         21    1    1    2  505  502  0.12680247159E+03  0.14553367766E+03 -0.76770867386E+03  0.79160313671E+03  0.00000000000E+00 0.  1.
          2    1    1    2  501    0 -0.78747425435E+02 -0.11455594112E+03  0.12453415484E+04  0.12530761321E+04  0.00000000000E+00 0.  1.
<scales pt_clust_3="207.78073" pt_clust_4="83.08278" pt_clust_5="83.08278" pt_clust_6="139.01158"></scales>
<clustering>
<clus scale="   83.083">  4  5 -1 -1</clus>
<clus scale="  139.012">  1  6  2 -1</clus>
<clus scale="  207.781">  2  3  1 -1</clus>
<clus scale="  207.781">  2  3  1 -1</clus>
</clustering>
</event>
<event>
 6    0  0.5775861E+002  0.8024976E+02  0.7546771E-02  0.1328344E+00
          2   -1    0    0  505    0 -0.00000000000E+00  0.00000000000E+00  0.12464629512E+04  0.12464629512E+04  0.00000000000E+00 0.  1.
         21   -1    0    0  503  502  0.00000000000E+00 -0.00000000000E+00 -0.57513589532E+03  0.57513589532E+03  0.00000000000E+00 0.  1.
         21    1    1    2  503  501 -0.75367712510E+02 -0.65719677125E+02 -0.52528438442E+03  0.53471773167E+03  0.00000000000E+00 0.  1.
         21    1    1    2  504  502  0.31091991726E+02  0.16747275741E+01 -0.99069853255E+01  0.32675143766E+02  0.00000000000E+00 0. -1.
         21    1    1    2  505  504  0.11258074804E+03  0.22759338763E+02  0.12503966094E+03  0.16978612763E+03  0.00000000000E+00 0.  1.
          2    1    1    2  501    0 -0.68305027253E+02  0.41285610788E+02  0.10814787647E+04  0.10844198434E+04  0.00000000000E+00 0.  1.
<scales pt_clust_3="78.68709" pt_clust_4="31.13706" pt_clust_5="80.24976" pt_clust_6="14000.00000"></scales>
<clustering>
<clus scale="   31.137">  2  4  1 -1</clus>
<clus scale="   78.687">  2  3  1 -1</clus>
<clus scale="   80.250">  2  5  1 -1</clus>
<clus scale="   31.137">  2  3  1 -1</clus>
</clustering>
</event>
<event>
 6    0  0.5775861E+002  0.8912618E+02  0.7546771E-02  0.1304982E+00
          1   -1    0    0  503    0 -0.00000000000E+00  0.00000000000E+00  0.14576190364E+04  0.14576190364E+04  0.00000000000E+00 0. -1.
         21   -1    0    0  504  502  0.00000000000E+00 -0.00000000000E+00 -0.27124082325E+03  0.27124082325E+03  0.00000000000E+00 0.  1.
         21    1    1    2  503  505  0.76470075810E+02  0.85547482579E+02 -0.83286334680E+02  0.14178384187E+03  0.00000000000E+00 0.  1.
         21    1    1    2  504  501 -0.20676170712E+02 -0.58238219243E+02  0.23766687484E+02  0.66212156360E+02  0.00000000000E+00 0. -1.
         21    1    1    2  505  502 -0.45061479499E+02  0.61099596401E+02 -0.12544659672E+03  0.14663064565E+03  0.00000000000E+00 0.  1.
          1    1    1    2  501    0 -0.10732425600E+02 -0.88408859738E+02  0.13713444571E+04  0.13742332158E+04  0.00000000000E+00 0. -1.
<scales pt_clust_3="14000.00000" pt_clust_4="61.79963" pt_clust_5="63.52977" pt_clust_6="89.12618"></scales>
<clustering>
<clus scale="   61.800">  2  4  1 -1</clus>
<clus scale="   63.530">  2  5  1 -1</clus>
<clus scale="   89.126">  1  6  2 -1</clus>
<clus scale="   61.800">  2  3  1 -1</clus>
</clustering>
</event>
<event>
 6    0  0.5775861E+002  0.1702555E+03  0.7546771E-02  0.1177582E+00
          1   -1    0    0  502    0 -0.00000000000E+00  0.00000000000E+00  0.40001178443E+04  0.40001178443E+04  0.00000000000E+00 0. -1.
         21   -1    0    0  505  502  0.00000000000E+00 -0.00000000000E+00 -0.24340361060E+03  0.24340361060E+03  0.00000000000E+00 0. -1.
         21    1    1    2  503  501 -0.48333817576E+02 -0.15800021301E+03  0.29163562519E+04  0.29210330387E+04  0.00000000000E+00 0. -1.
         21    1    1    2  504  503  0.68979589570E+02  0.17442315142E+03 -0.13896473526E+03  0.23343696617E+03  0.00000000000E+00 0. -1.
         21    1    1    2  505  504 -0.49681019376E+02 -0.52777435868E+01 -0.43204939231E+02  0.66050927605E+02  0.00000000000E+00 0.  1.
          1    1    1    2  501    0  0.29035247382E+02 -0.11145194827E+02  0.10225276563E+04  0.10230005224E+04  0.00000000000E+00 0. -1.
<scales pt_clust_3="14000.00000" pt_clust_4="170.25549" pt_clust_5="49.85434" pt_clust_6="31.10082"></scales>
<clustering>
<clus scale="   31.101">  1  6  2 -1</clus>
<clus scale="   49.854">  2  5  1 -1</clus>
<clus scale="  170.255">  2  4  1 -1</clus>
<clus scale="   49.854">  2  3  1 -1</clus>
</clustering>
</event>
<event>
 6    0  0.5775861E+002  0.1177289E+03  0.7546771E-02  0.1246891E+00
          1   -1    0    0  505    0 -0.00000000000E+00  0.00000000000E+00  0.11272897976E+04  0.11272897976E+04  0.00000000000E+00 0.  1.
         21   -1    0    0  501  502  0.00000000000E+00 -0.00000000000E+00 -0.17319421614E+03  0.17319421614E+03  0.00000000000E+00 0.  1.
         21    1    1    2  503  502 -0.49820414149E+02  0.90625185602E+01 -0.10545656142E+03  0.11698414105E+03  0.00000000000E+00 0.  1.
         21    1    1    2  504  503 -0.53256219496E+02  0.19155422863E+02 -0.36555154450E+02  0.67375325282E+02  0.00000000000E+00 0.  1.
         21    1    1    2  505  504  0.10732888446E+02  0.66682218695E+02  0.22206176901E+03  0.23210588627E+03  0.00000000000E+00 0.  1.
          1    1    1    2  501    0  0.92343745198E+02 -0.94900160119E+02  0.87404552830E+03  0.88401866112E+03  0.00000000000E+00 0.  1.
<scales pt_clust_3="46.33967" pt_clust_4="46.33967" pt_clust_5="67.54046" pt_clust_6="107.05158"></scales>
<clustering>
<clus scale="   46.340">  3  4 -1 -1</clus>
<clus scale="   67.540">  1  5  2 -1</clus>
<clus scale="  107.052">  1  6  2 -1</clus>
<clus scale="  117.729">  2  3  1 -1</clus>
</clustering>
</event>
<event>
 6    0  0.5775861E+002  0.1424989E+03  0.7546771E-02  0.1210006E+00
         21   -1    0    0  505  502  0.00000000000E+00  0.00000000000E+00  0.94009211783E+02  0.94009211783E+02  0.00000000000E+00 0.  1.
          2   -1    0    0  503    0 -0.00000000000E+00 -0.00000000000E+00 -0.23681812980E+04  0.23681812980E+04  0.00000000000E+00 0.  1.
         21    1    1    2  503  502 -0.29849041823E+02 -0.14546721953E+03 -0.50282892217E+03  0.52429819972E+03  0.00000000000E+00 0.  1.
         21    1    1    2  504  501 -0.13307633315E+02  0.13514991430E+03 -0.30779758913E+03  0.33642524922E+03  0.00000000000E+00 0.  1.
         21    1    1    2  505  504  0.36295093461E+02  0.45366998662E+02  0.56476613694E+02  0.81025343389E+02  0.00000000000E+00 0.  1.
          2    1    1    2  501    0  0.68615816775E+01 -0.35049693435E+02 -0.15200221886E+04  0.15204417174E+04  0.00000000000E+00 0.  1.
<scales pt_clust_3="14000.00000" pt_clust_4="142.49885" pt_clust_5="57.76626" pt_clust_6="35.71502"></scales>
<clustering>
<clus scale="   35.715">  2  6  1 -1</clus>
<clus scale="   57.766">  1  5  2 -1</clus>
<clus scale="  142.499">  2  4  1 -1</clus>
<clus scale="   57.766">  1  3  2 -1</clus>
</clustering>
</event>
<event>
 6    0  0.5775861E+002  0.6371262E+02  0.7546771E-02  0.1382881E+00
         21   -1    0    0  503  502  0.00000000000E+00  0.00000000000E+00  0.23444080617E+03  0.23444080617E+03  0.00000000000E+00 0. -1.
         -4   -1    0    0    0  501 -0.00000000000E+00 -0.00000000000E+00 -0.30931688780E+03  0.30931688780E+03  0.00000000000E+00 0.  1.
         21    1    1    2  503  504 -0.76682209329E+02 -0.57198720669E+02  0.16798106832E+03  0.19331190907E+03  0.00000000000E+00 0. -1.
         21    1    1    2  504  501 -0.54747387319E+02  0.32344295572E+02 -0.31731465302E+02  0.71065573694E+02  0.00000000000E+00 0.  1.
         21    1    1    2  505  502  0.50665089074E+02  0.30615458912E+01  0.16153710068E+01  0.50783203301E+02  0.00000000000E+00 0.  1.
         -4    1    1    2    0  505  0.80764507574E+02  0.21792879206E+02 -0.21274105565E+03  0.22859700791E+03  0.00000000000E+00 0.  1.
<scales pt_clust_3="63.71262" pt_clust_4="59.67565" pt_clust_5="50.75751" pt_clust_6="14000.00000"></scales>
<clustering>
<clus scale="   50.758">  1  5  2 -1</clus>
<clus scale="   59.676">  2  4  1 -1</clus>
<clus scale="   63.713">  1  3  2 -1</clus>
<clus scale="   50.758">  1  3  2 -1</clus>
</clustering>
</event>
<event>
 6    0  0.5775861E+002  0.1177137E+03  0.7546771E-02  0.1246917E+00
         21   -1    0    0  504  502  0.00000000000E+00  0.00000000000E+00  0.11427929300E+03  0.11427929300E+03  0.00000000000E+00 0. -1.
          2   -1    0    0  503    0 -0.00000000000E+00 -0.00000000000E+00 -0.28327479969E+03  0.28327479969E+03  0.00000000000E+00 0.  1.
         21    1    1    2  503  502 -0.79767172083E+02  0.59863268649E+02  0.18079767333E+02  0.10135724277E+03  0.00000000000E+00 0. -1.
         21    1    1    2  504  505 -0.24330059632E+02 -0.40079164013E+02  0.24402588195E+02  0.52856196423E+02  0.00000000000E+00 0. -1.
         21    1    1    2  505  501  0.47034694669E+02  0.19327759271E+02 -0.98860518115E+02  0.11117205954E+03  0.00000000000E+00 0. -1.
          2    1    1    2  501    0  0.57062537047E+02 -0.39111863907E+02 -0.11261734411E+03  0.13216859395E+03  0.00000000000E+00 0.  1.
<scales pt_clust_3="102.91925" pt_clust_4="46.88594" pt_clust_5="47.30363" pt_clust_6="47.30363"></scales>
<clustering>
<clus scale="   46.886">  1  4  2 -1</clus>
<clus scale="   47.304">  5  6 -1 -1</clus>
<clus scale="  102.919">  1  3  2 -1</clus>
<clus scale="   46.886">  1  3  2 -1</clus>
</clustering>
</event>
<event>
 6    0  0.5775861E+002  0.1074062E+03  0.7546771E-02  0.1265450E+00
         21   -1    0    0  505  502  0.00000000000E+00  0.00000000000E+00  0.19782924020E+03  0.19782924020E+03  0.00000000000E+00 0. -1.
          1   -1    0    0  504    0 -0.00000000000E+00 -0.00000000000E+00 -0.39850197080E+04  0.39850197080E+04  0.00000000000E+00 0. -1.
         21    1    1    2  503  502  0.97736589644E+02 -0.11789569197E+03 -0.16643590032E+03  0.22616972400E+03  0.00000000000E+00 0. -1.
         21    1    1    2  504  503 -0.20392844251E+01  0.30790059123E+02 -0.92471793416E+02  0.97484455167E+02  0.00000000000E+00 0. -1.
         21    1    1    2  505  501 -0.37420415276E+02  0.33228505638E+02  0.16123532841E+03  0.16882313880E+03  0.00000000000E+00 0. -1.
          1    1    1    2  501    0 -0.58276889943E+02  0.53877127208E+02 -0.36895181025E+04  0.36903716303E+04  0.00000000000E+00 0. -1.
<scales pt_clust_3="14000.00000" pt_clust_4="30.85752" pt_clust_5="50.06562" pt_clust_6="107.40618"></scales>
<clustering>
<clus scale="   30.858">  2  4  1 -1</clus>
<clus scale="   50.066">  1  5  2 -1</clus>
<clus scale="  107.406">  2  6  1 -1</clus>
<clus scale="   50.066">  1  3  2 -1</clus>
</clustering>
</event>
<event>
 6    0  0.5775861E+002  0.7249036E+02  0.7546771E-02  0.1351824E+00
         21   -1    0    0  504  502  0.00000000000E+00  0.00000000000E+00  0.21389513708E+03  0.21389513708E+03  0.00000000000E+00 0. -1.
          1   -1    0    0  503    0 -0.00000000000E+00 -0.00000000000E+00 -0.26613345048E+03  0.26613345048E+03  0.00000000000E+00 0. -1.
         21    1    1    2  503  502 -0.20932646526E+02 -0.10846462089E+03  0.23012095809E+02  0.11283752137E+03  0.00000000000E+00 0. -1.
         21    1    1    2  504  505  0.32249039517E+02  0.12845027917E+02  0.50471581059E+02  0.61256638714E+02  0.00000000000E+00 0. -1.
         21    1    1    2  505  501 -0.22886047400E+02  0.27266756984E+02  0.80688965749E+02  0.88192723031E+02  0.00000000000E+00 0. -1.
          1    1    1    2  501    0  0.11569654409E+02  0.68352835984E+02 -0.20641095602E+03  0.21774170445E+03  0.00000000000E+00 0. -1.
<scales pt_clust_3="72.49036" pt_clust_4="34.71304" pt_clust_5="34.59546" pt_clust_6="14000.00000"></scales>
<clustering>
<clus scale="   34.713">  1  4  2 -1</clus>
<clus scale="   34.595">  1  5  2 -1</clus>
<clus scale="   72.490">  1  3  2 -1</clus>
<clus scale="   34.713">  1  3  2 -1</clus>
</clustering>
</event>
<event>
 6    0  0.5775861E+002  0.1193447E+03  0.7546771E-02  0.1244182E+00
         21   -1    0    0  501  502  0.00000000000E+00  0.00000000000E+00  0.23504617261E+03  0.23504617261E+03  0.00000000000E+00 0. -1.
         -1   -1    0    0    0  501 -0.00000000000E+00 -0.00000000000E+00 -0.85973402478E+03  0.85973402478E+03  0.00000000000E+00 0.  1.
         21    1    1    2  503  502  0.10747599699E+03 -0.38007185426E+02  0.21104660864E+03  0.23986726974E+03  0.00000000000E+00 0. -1.
         21    1    1    2  504  505 -0.75566822787E+02  0.20706484048E+02 -0.28467092735E+03  0.29525690520E+03  0.00000000000E+00 0. -1.
         21    1    1    2  505  503 -0.63693673895E+02  0.16560175248E+02 -0.38253447556E+03  0.38815428439E+03  0.00000000000E+00 0.  1.
         -1    1    1    2    0  504  0.31784499689E+02  0.74052613052E+00 -0.16852905790E+03  0.17150173806E+03  0.00000000000E+00 0.  1.
<scales pt_clust_3="114.61957" pt_clust_4="30.47236" pt_clust_5="30.47236" pt_clust_6="31.79313"></scales>
<clustering>
<clus scale="   30.472">  4  5 -1 -1</clus>
<clus scale="   31.793">  2  6  1 -1</clus>
<clus scale="  114.620">  1  3  2 -1</clus>
<clus scale="  114.620">  1  3  2 -1</clus>
</clustering>
</event>
<event>
 6    0  0.5775861E+002  0.1357738E+03  0.7546771E-02  0.1219131E+00
         21   -1    0    0  501  502  0.00000000000E+00  0.00000000000E+00  0.25258542464E+03  0.25258542464E+03  0.00000000000E+00 0.  1.
         -1   -1    0    0    0  501 -0.00000000000E+00 -0.00000000000E+00 -0.10059221293E+03  0.10059221293E+03  0.00000000000E+00 0.  1.
         21    1    1    2  503  505 -0.60305412530E+01 -0.62219263465E+02  0.41282326849E-01  0.62510846085E+02  0.00000000000E+00 0.  1.
         21    1    1    2  504  502  0.17981113580E+02  0.25270039520E+02  0.60420645613E+02  0.67915754868E+02  0.00000000000E+00 0.  1.
         21    1    1    2  505  504 -0.68273492917E+02  0.91463914031E+02  0.88292013371E+02  0.14429967786E+03  0.00000000000E+00 0.  1.
         -1    1    1    2    0  503  0.56322920590E+02 -0.54514690086E+02  0.32392704052E+01  0.78451358763E+02  0.00000000000E+00 0.  1.
<scales pt_clust_3="52.63900" pt_clust_4="31.01444" pt_clust_5="121.37173" pt_clust_6="52.63900"></scales>
<clustering>
<clus scale="   31.014">  1  4  2 -1</clus>
<clus scale="   52.639">  3  6 -1 -1</clus>
<clus scale="  121.372">  1  5  2 -1</clus>
<clus scale="   31.014">  1  3  2 -1</clus>
</clustering>
</event>
<event>
 6    0  0.5775861E+002  0.8826359E+02  0.7546771E-02  0.1307112E+00
         21   -1    0    0  503  502  0.00000000000E+00  0.00000000000E+00  0.96479503579E+02  0.96479503579E+02  0.00000000000E+00 0. -1.
          2   -1    0    0  505    0 -0.00000000000E+00 -0.00000000000E+00 -0.21153699236E+04  0.21153699236E+04  0.00000000000E+00 0. -1.
         21    1    1    2  503  504 -0.39521065614E+02  0.65163934033E+01  0.56334246831E+02  0.69122538844E+02  0.00000000000E+00 0. -1.
         21    1    1    2  504  501  0.70526021121E+02  0.82161827208E+02 -0.65699111339E+02  0.12665251176E+03  0.00000000000E+00 0. -1.
         21    1    1    2  505  502 -0.14475935200E+01 -0.65633862824E+02 -0.34870887701E+03  0.35483486353E+03  0.00000000000E+00 0.  1.
          2    1    1    2  501    0 -0.29557361987E+02 -0.23044357787E+02 -0.16608166785E+04  0.16612395131E+04  0.00000000000E+00 0. -1.
<scales pt_clust_3="40.41422" pt_clust_4="14000.00000" pt_clust_5="88.26359" pt_clust_6="37.47906"></scales>
<clustering>
<clus scale="   37.479">  2  6  1 -1</clus>
<clus scale="   40.414">  1  3  2 -1</clus>
<clus scale="   88.264">  2  5  1 -1</clus>
<clus scale="   40.414">  1  3  2 -1</clus>
</clustering>
</event>
<event>
 6    0  0.5775861E+002  0.1599866E+03  0.7546771E-02  0.1188712E+00
          2   -1    0    0  503    0 -0.00000000000E+00  0.00000000000E+00  0.31520619130E+04  0.31520619130E+04  0.00000000000E+00 0. -1.
         21   -1    0    0  504  502  0.00000000000E+00 -0.00000000000E+00 -0.72042605021E+03  0.72042605021E+03  0.00000000000E+00 0.  1.
         21    1    1    2  503  502 -0.11442445686E+03 -0.96729701890E+02 -0.48338536219E+02  0.15743635425E+03  0.00000000000E+00 0. -1.
         21    1    1    2  504  505  0.28808016421E+02 -0.15187167328E+02 -0.52054810173E+03  0.52156579458E+03  0.00000000000E+00 0.  1.
         21    1    1    2  505  501  0.94006060938E+02  0.16327175179E+03 -0.40681857101E+01  0.18844456628E+03  0.00000000000E+00 0. -1.
          2    1    1    2  501    0 -0.83896204982E+01 -0.51354882574E+02  0.30045906864E+04  0.30050412481E+04  0.00000000000E+00 0. -1.
<scales pt_clust_3="14000.00000" pt_clust_4="32.56612" pt_clust_5="159.98661" pt_clust_6="52.04736"></scales>
<clustering>
<clus scale="   32.566">  2  4  1 -1</clus>
<clus scale="   52.047">  1  6  2 -1</clus>
<clus scale="  159.987">  1  5  2 -1</clus>
<clus scale="   32.566">  2  3  1 -1</clus>
</clustering>
</event>
<event>
 6    0  0.5775861E+002  0.8303264E+02  0.7546771E-02  0.1320659E+00
          2   -1    0    0  505    0 -0.00000000000E+00  0.00000000000E+00  0.55277048730E+03  0.55277048730E+03  0.00000000000E+00 0.  1.
         21   -1    0    0  504  502  0.00000000000E+00 -0.00000000000E+00 -0.70442088440E+03  0.70442088440E+03  0.00000000000E+00 0. -1.
         21    1    1    2  503  502  0.12290165838E+03  0.13502632970E+02 -0.19824935225E+03  0.23364491092E+03  0.00000000000E+00 0. -1.
         21    1    1    2  504  501 -0.63087506771E+02 -0.45798606427E+02 -0.46803779769E+03  0.47448595968E+03  0.00000000000E+00 0. -1.
         21    1    1    2  505  503 -0.12103856268E+03  0.25258014800E+02  0.27311411510E+03  0.29979930092E+03  0.00000000000E+00 0.  1.
          2    1    1    2  501    0  0.61224411075E+02  0.70379586568E+01  0.24152263774E+03  0.24926120018E+03  0.00000000000E+00 0.  1.
<scales pt_clust_3="14000.00000" pt_clust_4="83.03264" pt_clust_5="71.45585" pt_clust_6="61.62760"></scales>
<clustering>
<clus scale="   61.628">  1  6  2 -1</clus>
<clus scale="   71.456">  1  5  2 -1</clus>
<clus scale="   83.033">  2  4  1 -1</clus>
<clus scale="   83.033">  2  3  1 -1</clus>
</clustering>
</event>
<event>
 6    0  0.5775861E+002  0.9508471E+02  0.7546771E-02  0.1290985E+00
         21   -1    0    0  504  502  0.00000000000E+00  0.00000000000E+00  0.36072620339E+03  0.36072620339E+03  0.00000000000E+00 0.  1.
         -1   -1    0    0    0  501 -0.00000000000E+00 -0.00000000000E+00 -0.18658691707E+03  0.18658691707E+03  0.00000000000E+00 0. -1.
         21    1    1    2  503  505 -0.91559459669E+02  0.69643277664E+02  0.64918272793E+01  0.11521920239E+03  0.00000000000E+00 0.  1.
         21    1    1    2  504  503  0.93202680374E+02 -0.12610706631E+02  0.27298856732E+03  0.28873608614E+03  0.00000000000E+00 0.  1.
         21    1    1    2  505  501 -0.36943794917E+02 -0.23951411914E+02 -0.28147293519E+02  0.52256906223E+02  0.00000000000E+00 0. -1.
         -1    1    1    2    0  502  0.35300574212E+02 -0.33081159119E+02 -0.77193814762E+02  0.91100925714E+02  0.00000000000E+00 0. -1.
<scales pt_clust_3="95.08471" pt_clust_4="14000.00000" pt_clust_5="44.02856" pt_clust_6="48.91474"></scales>
<clustering>
<clus scale="   44.029">  2  5  1 -1</clus>
<clus scale="   48.915">  2  6  1 -1</clus>
<clus scale="   95.085">  2  3  1 -1</clus>
<clus scale="   95.085">  1  3  2 -1</clus>
</clustering>
</event>
<event>
 6    0  0.5775861E+002  0.1225966E+03  0.7546771E-02  0.1238874E+00
         -1   -1    0    0    0  501 -0.00000000000E+00  0.00000000000E+00  0.11894079505E+04  0.11894079505E+04  0.00000000000E+00 0. -1.
         21   -1    0    0  503  502  0.00000000000E+00 -0.00000000000E+00 -0.36217842123E+03  0.36217842123E+03  0.00000000000E+00 0.  1.
         21    1    1    2  503  505  0.24690362148E+02  0.22508571495E+02 -0.24091273652E+03  0.24321841293E+03  0.00000000000E+00 0.  1.
         21    1    1    2  504  502 -0.18932699968E+03  0.39010197063E+02  0.13784077891E+03  0.23741648766E+03  0.00000000000E+00 0. -1.
         21    1    1    2  505  501  0.93692375427E+02  0.10727677537E+01 -0.35743646246E+02  0.10028469619E+03  0.00000000000E+00 0. -1.
         -1    1    1    2    0  504  0.70944262100E+02 -0.62591536312E+02  0.96604513311E+03  0.97066677493E+03  0.00000000000E+00 0. -1.
<scales pt_clust_3="33.41032" pt_clust_4="122.59660" pt_clust_5="14000.00000" pt_clust_6="94.68047"></scales>
<clustering>
<clus scale="   33.410">  2  3  1 -1</clus>
<clus scale="   94.680">  1  6  2 -1</clus>
<clus scale="  122.597">  1  4  2 -1</clus>
<clus scale="   33.410">  2  3  1 -1</clus>
</clustering>
</event>
<event>
 6    0  0.5775861E+002  0.2682166E+03  0.7546771E-02  0.1102305E+00
         21   -1    0    0  503  502  0.00000000000E+00  0.00000000000E+00  0.87502814662E+03  0.87502814662E+03  0.00000000000E+00 0. -1.
          2   -1    0    0  505    0 -0.00000000000E+00 -0.00000000000E+00 -0.15337572919E+04  0.15337572919E+04  0.00000000000E+00 0.  1.
         21    1    1    2  503  504  0.96534680442E+02 -0.25977270083E+03  0.70917708753E+03  0.76140195830E+03  0.00000000000E+00 0. -1.
         21    1    1    2  504  501 -0.28222462874E+03  0.36219511438E+02 -0.32190375230E+03  0.42963312235E+03  0.00000000000E+00 0. -1.
         21    1    1    2  505  502  0.12320010443E+03  0.15774406786E+03 -0.35617484726E+02  0.20329796333E+03  0.00000000000E+00 0. -1.
          2    1    1    2  501    0  0.62489843867E+02  0.65809121528E+02 -0.10103849958E+04  0.10144523945E+04  0.00000000000E+00 0.  1.
<scales pt_clust_3="268.21661" pt_clust_4="14000.00000" pt_clust_5="220.86043" pt_clust_6="90.75142"></scales>
<clustering>
<clus scale="   90.751">  2  6  1 -1</clus>
<clus scale="  220.860">  2  5  1 -1</clus>
<clus scale="  268.217">  1  3  2 -1</clus>
<clus scale="  268.217">  1  3  2 -1</clus>
</clustering>
</event>
<event>
 6    0  0.7511568E+002  0.1197002E+03  0.7546771E-02  0.1243592E+00
         21   -1    0    0  503  502  0.00000000000E+00  0.00000000000E+00  0.15618885471E+04  0.15618885471E+04  0.00000000000E+00 0.  1.
         -2   -1    0    0    0  501 -0.00000000000E+00 -0.00000000000E+00 -0.34899751769E+03  0.34899751769E+03  0.00000000000E+00 0.  1.
         21    1    1    2  503  501  0.35692225120E+02  0.77216015007E+01  0.11031849037E+04  0.11037891510E+04  0.00000000000E+00 0.  1.
         21    1    1    2  504  502 -0.27835846426E+02 -0.48623275724E+02  0.96221209471E+02  0.11134441360E+03  0.00000000000E+00 0.  1.
         21    1    1    2  505  504  0.47221837939E+02 -0.66752486000E+02  0.33888482265E+03  0.34860969492E+03  0.00000000000E+00 0.  1.
         -2    1    1    2    0  505 -0.55078216634E+02  0.10765416022E+03 -0.32539990643E+03  0.34714280529E+03  0.00000000000E+00 0.  1.
<scales pt_clust_3="36.51791" pt_clust_4="50.86784" pt_clust_5="14000.00000" pt_clust_6="119.70025"></scales>
<clustering>
<clus scale="   36.518">  1  3  2 -1</clus>
<clus scale="   50.868">  1  4  2 -1</clus>
<clus scale="  119.700">  2  6  1 -1</clus>
<clus scale="   36.518">  1  3  2 -1</clus>
</clustering>
</event>
<event>
 6    0  0.5775861E+002  0.7838832E+02  0.7546771E-02  0.1333688E+00
         21   -1    0    0  501  502  0.00000000000E+00  0.00000000000E+00  0.62731849252E+03  0.62731849252E+03  0.00000000000E+00 0.  1.
          2   -1    0    0  504    0 -0.00000000000E+00 -0.00000000000E+00 -0.20038204986E+04  0.20038204986E+04  0.00000000000E+00 0.  1.
         21    1    1    2  503  505  0.10204659810E+03 -0.12250033100E+02  0.92559027587E+02  0.13831393669E+03  0.00000000000E+00 0.  1.
         21    1    1    2  504  503 -0.21465950190E+01 -0.68856550173E+02 -0.12895262184E+03  0.14620058499E+03  0.00000000000E+00 0.  1.
         21    1    1    2  505  502 -0.47611272629E+02  0.62746465577E+02  0.49975635799E+03  0.50592526086E+03  0.00000000000E+00 0.  1.
          2    1    1    2  501    0 -0.52288730453E+02  0.18360117696E+02 -0.18398647698E+04  0.18406992085E+04  0.00000000000E+00 0.  1.
<scales pt_clust_3="14000.00000" pt_clust_4="70.57715" pt_clust_5="78.38832" pt_clust_6="55.41846"></scales>
<clustering>
<clus scale="   55.418">  2  6  1 -1</clus>
<clus scale="   70.577">  2  4  1 -1</clus>
<clus scale="   78.388">  1  5  2 -1</clus>
<clus scale="   78.388">  1  3  2 -1</clus>
</clustering>
</event>
<event>
 6    0  0.5775861E+002  0.1611816E+03  0.7546771E-02  0.1187369E+00
          2   -1    0    0  504    0 -0.00000000000E+00  0.00000000000E+00  0.33853947665E+04  0.33853947665E+04  0.00000000000E+00 0.  1.
         21   -1    0    0  505  502  0.00000000000E+00 -0.00000000000E+00 -0.16306230317E+03  0.16306230317E+03  0.00000000000E+00 0. -1.
         21    1    1    2  503  502 -0.20673107423E+03 -0.40564870893E+02  0.72004035245E+02  0.22263833204E+03  0.00000000000E+00 0.  1.
         21    1    1    2  504  503  0.17768911414E+03  0.70008645598E+02  0.74129695175E+03  0.76550362665E+03  0.00000000000E+00 0.  1.
         21    1    1    2  505  501  0.89384875735E+02 -0.52257257544E+02 -0.39585150214E+02  0.11084882089E+03  0.00000000000E+00 0. -1.
          2    1    1    2  501    0 -0.60342915641E+02  0.22813482839E+02  0.24486166266E+04  0.24494662901E+04  0.00000000000E+00 0.  1.
<scales pt_clust_3="14000.00000" pt_clust_4="161.18159" pt_clust_5="101.12005" pt_clust_6="64.51141"></scales>
<clustering>
<clus scale="   64.511">  1  6  2 -1</clus>
<clus scale="  101.120">  2  5  1 -1</clus>
<clus scale="  161.182">  1  4  2 -1</clus>
<clus scale="  101.120">  2  3  1 -1</clus>
</clustering>
</event>
<event>
 6    0  0.5775861E+002  0.1884272E+03  0.7546771E-02  0.1159888E+00
         21   -1    0    0  503  502  0.00000000000E+00  0.00000000000E+00  0.64736428627E+03  0.64736428627E+03  0.00000000000E+00 0. -1.
          1   -1    0    0  504    0 -0.00000000000E+00 -0.00000000000E+00 -0.79711909148E+03  0.79711909148E+03  0.00000000000E+00 0. -1.
         21    1    1    2  503  505 -0.35893699220E+02  0.19731397247E+02  0.28908242280E+03  0.29196974647E+03  0.00000000000E+00 0. -1.
         21    1    1    2  504  502  0.10539496100E+03 -0.12496983669E+03 -0.16812083338E+03  0.23449983476E+03  0.00000000000E+00 0. -1.
         21    1    1    2  505  501 -0.68859843830E+02  0.14669703465E+03  0.30256726145E+03  0.34323264089E+03  0.00000000000E+00 0. -1.
          1    1    1    2  501    0 -0.64141795213E+00 -0.41458595202E+02 -0.57328365608E+03  0.57478115562E+03  0.00000000000E+00 0. -1.
<scales pt_clust_3="40.95956" pt_clust_4="14000.00000" pt_clust_5="188.42721" pt_clust_6="41.42339"></scales>
<clustering>
<clus scale="   40.960">  1  3  2 -1</clus>
<clus scale="   41.423">  2  6  1 -1</clus>
<clus scale="  188.427">  1  5  2 -1</clus>
<clus scale="   40.960">  1  3  2 -1</clus>
</clustering>
</event>
<event>
 6    0  0.5775861E+002  0.1022269E+03  0.7546771E-02  0.1275682E+00
         21   -1    0    0  503  502  0.00000000000E+00  0.00000000000E+00  0.19365188432E+03  0.19365188432E+03  0.00000000000E+00 0. -1.
          1   -1    0    0  504    0 -0.00000000000E+00 -0.00000000000E+00 -0.21805539149E+04  0.21805539149E+04  0.00000000000E+00 0. -1.
         21    1    1    2  503  501 -0.71570896488E+02  0.70195872835E+01  0.12676008554E+02  0.73022934908E+02  0.00000000000E+00 0. -1.
         21    1    1    2  504  505 -0.56440533403E+02 -0.45592903158E+02 -0.77266937262E+03  0.77606842869E+03  0.00000000000E+00 0.  1.
         21    1    1    2  505  502  0.17035531886E+03  0.24583241297E+02  0.98930259778E+02  0.19852573313E+03  0.00000000000E+00 0. -1.
          1    1    1    2  501    0 -0.42343888966E+02  0.13990074578E+02 -0.13258389263E+04  0.13265887025E+04  0.00000000000E+00 0. -1.
<scales pt_clust_3="73.45171" pt_clust_4="102.22689" pt_clust_5="14000.00000" pt_clust_6="44.59515"></scales>
<clustering>
<clus scale="   44.595">  2  6  1 -1</clus>
<clus scale="   73.452">  1  3  2 -1</clus>
<clus scale="  102.227">  2  4  1 -1</clus>
<clus scale="   73.452">  1  3  2 -1</clus>
</clustering>
</event>
<event>
 6    0  0.5775861E+002  0.1308163E+03  0.7546771E-02  0.1226250E+00
         21   -1    0    0  501  502  0.00000000000E+00  0.00000000000E+00  0.39702107114E+03  0.39702107114E+03  0.00000000000E+00 0.  1.
          1   -1    0    0  503    0 -0.00000000000E+00 -0.00000000000E+00 -0.58230711434E+03  0.58230711434E+03  0.00000000000E+00 0.  1.
         21    1    1    2  503  504 -0.15088462684E+02  0.40453039865E+02 -0.37280754130E+03  0.37529931121E+03  0.00000000000E+00 0.  1.
         21    1    1    2  504  505 -0.89416053343E+02  0.50644313031E+02 -0.16112668108E+03  0.19110699724E+03  0.00000000000E+00 0.  1.
         21    1    1    2  505  502  0.78159755973E+02 -0.10803668516E+03  0.35650842741E+03  0.38062991423E+03  0.00000000000E+00 0.  1.
          1    1    1    2  501    0  0.26344760054E+02  0.16939332260E+02 -0.78602482180E+01  0.32291962805E+02  0.00000000000E+00 0.  1.
<scales pt_clust_3="51.78027" pt_clust_4="14000.00000" pt_clust_5="130.81626" pt_clust_6="31.32072"></scales>
<clustering>
<clus scale="   31.321">  2  6  1 -1</clus>
<clus scale="   51.780">  2  3  1 -1</clus>
<clus scale="  130.816">  1  5  2 -1</clus>
<clus scale="  130.816">  1  3  2 -1</clus>
</clustering>
</event>
<event>
 6    0  0.5775861E+002  0.1316402E+03  0.7546771E-02  0.1225042E+00
         21   -1    0    0  504  502  0.00000000000E+00  0.00000000000E+00  0.28870200344E+03  0.28870200344E+03  0.00000000000E+00 0.  1.
          2   -1    0    0  505    0 -0.00000000000E+00 -0.00000000000E+00 -0.11076070637E+04  0.11076070637E+04  0.00000000000E+00 0.  1.
         21    1    1    2  503  501  0.54796257213E+02 -0.56748242646E+02 -0.28353647961E+02  0.83826739175E+02  0.00000000000E+00 0. -1.
         21    1    1    2  504  503  0.18081898974E+01 -0.43364457175E+02  0.13748796229E+02  0.45527739835E+02  0.00000000000E+00 0.  1.
         21    1    1    2  505  502  0.75041466970E+02  0.11485081112E+03  0.20627605027E+03  0.24773320224E+03  0.00000000000E+00 0.  1.
          2    1    1    2  501    0 -0.13164591408E+03 -0.14738111295E+02 -0.10105762588E+04  0.10192213859E+04  0.00000000000E+00 0.  1.
<scales pt_clust_3="128.52735" pt_clust_4="42.56272" pt_clust_5="14000.00000" pt_clust_6="131.64016"></scales>
<clustering>
<clus scale="   42.563">  3  4 -1 -1</clus>
<clus scale="  128.527">  1  3  2 -1</clus>
<clus scale="  131.640">  2  6  1 -1</clus>
<clus scale="  128.527">  1  3  2 -1</clus>
</clustering>
</event>
<event>
 6    0  0.5775861E+002  0.9002151E+02  0.7546771E-02  0.1302800E+00
          2   -1    0    0  504    0 -0.00000000000E+00  0.00000000000E+00  0.22092995656E+04  0.22092995656E+04  0.00000000000E+00 0. -1.
         21   -1    0    0  505  502  0.00000000000E+00 -0.00000000000E+00 -0.33246810636E+04  0.33246810636E+04  0.00000000000E+00 0.  1.
         21    1    1    2  503  502 -0.56203913365E+02 -0.98602863825E+02 -0.89923414187E+03  0.90636827313E+03  0.00000000000E+00 0. -1.
         21    1    1    2  504  503  0.39284606415E+02  0.62862177589E+02  0.51964749193E+03  0.52490803913E+03  0.00000000000E+00 0.  1.
         21    1    1    2  505  501 -0.27520754032E+01  0.87673263186E+02 -0.24179961358E+04  0.24195866358E+04  0.00000000000E+00 0.  1.
          2    1    1    2  501    0  0.19671382353E+02 -0.51932576950E+02  0.16822012879E+04  0.16831176812E+04  0.00000000000E+00 0. -1.
<scales pt_clust_3="90.02151" pt_clust_4="59.88044" pt_clust_5="14000.00000" pt_clust_6="55.53338"></scales>
<clustering>
<clus scale="   55.533">  1  6  2 -1</clus>
<clus scale="   59.880">  1  4  2 -1</clus>
<clus scale="   90.022">  1  3  2 -1</clus>
<clus scale="   90.022">  2  3  1 -1</clus>
</clustering>
</event>
<event>
 6    0  0.5775861E+002  0.1591830E+03  0.7546771E-02  0.1189622E+00
         -2   -1    0    0    0  501 -0.00000000000E+00  0.00000000000E+00  0.94664826582E+03  0.94664826582E+03  0.00000000000E+00 0. -1.
         21   -1    0    0  504  502  0.00000000000E+00 -0.00000000000E+00 -0.17115437164E+03  0.17115437164E+03  0.00000000000E+00 0. -1.
         21    1    1    2  503  502 -0.35380733128E+02  0.64625468858E+01 -0.46340899163E+02  0.58660376100E+02  0.00000000000E+00 0. -1.
         21    1    1    2  504  501 -0.45857817989E+02 -0.16261499982E+03 -0.52070828829E+01  0.16903754420E+03  0.00000000000E+00 0. -1.
         21    1    1    2  505  503  0.52766075106E+02  0.12713392049E+03  0.12212283174E+03  0.18401434306E+03  0.00000000000E+00 0. -1.
         -2    1    1    2    0  505  0.28472476012E+02  0.29018532448E+02  0.70491904449E+03  0.70609037410E+03  0.00000000000E+00 0. -1.
<scales pt_clust_3="35.96611" pt_clust_4="14000.00000" pt_clust_5="159.18305" pt_clust_6="40.55484"></scales>
<clustering>
<clus scale="   35.966">  2  3  1 -1</clus>
<clus scale="   40.555">  1  6  2 -1</clus>
<clus scale="  159.183">  1  5  2 -1</clus>
<clus scale="   35.966">  2  3  1 -1</clus>
</clustering>
</event>
<event>
 6    0  0.5775861E+002  0.8310243E+02  0.7546771E-02  0.1320471E+00
         21   -1    0    0  504  502  0.00000000000E+00  0.00000000000E+00  0.14940077081E+04  0.14940077081E+04  0.00000000000E+00 0.  1.
          1   -1    0    0  505    0 -0.00000000000E+00 -0.00000000000E+00 -0.80290777195E+02  0.80290777195E+02  0.00000000000E+00 0.  1.
         21    1    1    2  503  501  0.10035905855E+03  0.53925849939E+02  0.61012627277E+03  0.62067222158E+03  0.00000000000E+00 0.  1.
         21    1    1    2  504  503 -0.50456407113E+02 -0.26708377649E+02  0.78573004731E+03  0.78780130344E+03  0.00000000000E+00 0.  1.
         21    1    1    2  505  502 -0.36778499776E+01 -0.33122927304E+02  0.80862833667E+02  0.87461150017E+02  0.00000000000E+00 0.  1.
          1    1    1    2  501    0 -0.46224801457E+02  0.59054550136E+01 -0.63002222862E+02  0.78363810232E+02  0.00000000000E+00 0.  1.
<scales pt_clust_3="14000.00000" pt_clust_4="83.10243" pt_clust_5="33.32649" pt_clust_6="46.59786"></scales>
<clustering>
<clus scale="   33.326">  1  5  2 -1</clus>
<clus scale="   46.598">  2  6  1 -1</clus>
<clus scale="   83.102">  1  4  2 -1</clus>
<clus scale="   33.326">  1  3  2 -1</clus>
</clustering>
</event>
<event>
 6    0  0.5775861E+002  0.8563933E+02  0.7546771E-02  0.1313769E+00
          1   -1    0    0  505    0 -0.00000000000E+00  0.00000000000E+00  0.24000136555E+04  0.24000136555E+04  0.00000000000E+00 0. -1.
         21   -1    0    0  503  502  0.00000000000E+00 -0.00000000000E+00 -0.38049053733E+02  0.38049053733E+02  0.00000000000E+00 0. -1.
         21    1    1    2  503  501 -0.43149321144E+02  0.41508636989E+02  0.73417047566E+01  0.60321898915E+02  0.00000000000E+00 0. -1.
         21    1    1    2  504  502 -0.58795037694E+01  0.35014888496E+02  0.36413183110E+02  0.50857948102E+02  0.00000000000E+00 0. -1.
         21    1    1    2  505  504 -0.61536517303E+02 -0.59110549572E+02  0.79488778005E+03  0.79945442828E+03  0.00000000000E+00 0. -1.
          1    1    1    2  501    0  0.11056534222E+03 -0.17412975913E+02  0.15233219338E+04  0.15274284339E+04  0.00000000000E+00 0. -1.
<scales pt_clust_3="14000.00000" pt_clust_4="35.50508" pt_clust_5="83.87313" pt_clust_6="85.63933"></scales>
<clustering>
<clus scale="   35.505">  2  4  1 -1</clus>
<clus scale="   83.873">  1  5  2 -1</clus>
<clus scale="   85.639">  1  6  2 -1</clus>
<clus scale="   35.505">  2  3  1 -1</clus>
</clustering>
</event>
<event>
 6    0  0.5775861E+002  0.1656487E+03  0.7546771E-02  0.1182463E+00
          4   -1    0    0  505    0 -0.00000000000E+00  0.00000000000E+00  0.66684931194E+03  0.66684931194E+03  0.00000000000E+00 0.  1.
         21   -1    0    0  503  502  0.00000000000E+00 -0.00000000000E+00 -0.64899817255E+03  0.64899817255E+03  0.00000000000E+00 0. -1.
         21    1    1    2  503  504  0.10037329640E+03 -0.10858161235E+03 -0.35006605266E+03  0.38001448182E+03  0.00000000000E+00 0. -1.
         21    1    1    2  504  501  0.60059443987E+02 -0.40722355938E+02 -0.35688547943E+02  0.80864822633E+02  0.00000000000E+00 0.  1.
         21    1    1    2  505  502 -0.19192185784E+03  0.15868742716E+03 -0.15635437953E+03  0.29404487932E+03  0.00000000000E+00 0. -1.
          4    1    1    2  501    0  0.31489117460E+02 -0.93834588736E+01  0.55996011952E+03  0.56092330071E+03  0.00000000000E+00 0.  1.
<scales pt_clust_3="165.64869" pt_clust_4="79.24179" pt_clust_5="14000.00000" pt_clust_6="32.85748"></scales>
<clustering>
<clus scale="   32.857">  1  6  2 -1</clus>
<clus scale="   79.242">  1  4  2 -1</clus>
<clus scale="  165.649">  2  3  1 -1</clus>
<clus scale="  165.649">  2  3  1 -1</clus>
</clustering>
</event>
<event>
 6    0  0.5775861E+002  0.1108580E+03  0.7546771E-02  0.1258989E+00
         21   -1    0    0  504  502  0.00000000000E+00  0.00000000000E+00  0.56991281861E+02  0.56991281861E+02  0.00000000000E+00 0.  1.
          2   -1    0    0  503    0 -0.00000000000E+00 -0.00000000000E+00 -0.39160202012E+04  0.39160202012E+04  0.00000000000E+00 0. -1.
         21    1    1    2  503  502  0.29385430699E+02 -0.24305759212E+02 -0.61348458657E+02  0.72235080451E+02  0.00000000000E+00 0. -1.
         21    1    1    2  504  505  0.47826724654E+02 -0.54941033281E+02  0.20726387973E+02  0.75733056768E+02  0.00000000000E+00 0.  1.
         21    1    1    2  505  501 -0.92881758129E+02  0.11538114995E+03 -0.17487549421E+04  0.17550167173E+04  0.00000000000E+00 0. -1.
          2    1    1    2  501    0  0.15669602777E+02 -0.36134357459E+02 -0.20696519066E+04  0.20700266286E+04  0.00000000000E+00 0. -1.
<scales pt_clust_3="38.13494" pt_clust_4="110.85799" pt_clust_5="14000.00000" pt_clust_6="39.50923"></scales>
<clustering>
<clus scale="   38.135">  1  3  2 -1</clus>
<clus scale="   39.509">  2  6  1 -1</clus>
<clus scale="  110.858">  1  4  2 -1</clus>
<clus scale="   38.135">  1  3  2 -1</clus>
</clustering>
</event>
<event>
 6    0  0.5775861E+002  0.1376692E+03  0.7546771E-02  0.1216500E+00
          1   -1    0    0  502    0 -0.00000000000E+00  0.00000000000E+00  0.93615968606E+03  0.93615968606E+03  0.00000000000E+00 0. -1.
         21   -1    0    0  504  502  0.00000000000E+00 -0.00000000000E+00 -0.58783503675E+02  0.58783503675E+02  0.00000000000E+00 0.  1.
         21    1    1    2  503  501 -0.78676258199E+02  0.47110450283E+02  0.26709441585E+03  0.28239825620E+03  0.00000000000E+00 0.  1.
         21    1    1    2  504  505  0.38171504209E+02 -0.36775724055E+02  0.22112031034E+01  0.53050985217E+02  0.00000000000E+00 0.  1.
         21    1    1    2  505  503  0.62976573458E+02 -0.70479985627E+02  0.70024224858E+02  0.11763022250E+03  0.00000000000E+00 0.  1.
          1    1    1    2  501    0 -0.22471819467E+02  0.60145259399E+02  0.53804633858E+03  0.54186372582E+03  0.00000000000E+00 0. -1.
<scales pt_clust_3="129.51226" pt_clust_4="34.95996" pt_clust_5="34.95996" pt_clust_6="64.20619"></scales>
<clustering>
<clus scale="   34.960">  4  5 -1 -1</clus>
<clus scale="   64.206">  1  6  2 -1</clus>
<clus scale="  129.512">  1  3  2 -1</clus>
<clus scale="  137.669">  2  3  1 -1</clus>
</clustering>
</event>
<event>
 6    0  0.5775861E+002  0.9644614E+02  0.7546771E-02  0.1287952E+00
         21   -1    0    0  503  502  0.00000000000E+00  0.00000000000E+00  0.33702007708E+03  0.33702007708E+03  0.00000000000E+00 0.  1.
          1   -1    0    0  504    0 -0.00000000000E+00 -0.00000000000E+00 -0.10119124671E+04  0.10119124671E+04  0.00000000000E+00 0. -1.
         21    1    1    2  503  501  0.48356334152E+02  0.32102936083E+00  0.34517197391E+02  0.59412751394E+02  0.00000000000E+00 0. -1.
         21    1    1    2  504  505 -0.28627909093E+02 -0.53572937928E+02  0.56953669944E+01  0.61008639245E+02  0.00000000000E+00 0.  1.
         21    1    1    2  505  502 -0.58246574095E+02 -0.38151173911E+02  0.24939089774E+03  0.25892855258E+03  0.00000000000E+00 0.  1.
          1    1    1    2  501    0  0.38518149037E+02  0.91403082478E+02 -0.96449585215E+03  0.96958260097E+03  0.00000000000E+00 0. -1.
<scales pt_clust_3="48.35740" pt_clust_4="96.44614" pt_clust_5="41.06248" pt_clust_6="14000.00000"></scales>
<clustering>
<clus scale="   48.357">  1  3  2 -1</clus>
<clus scale="   41.062">  1  5  2 -1</clus>
<clus scale="   96.446">  1  4  2 -1</clus>
<clus scale="   48.357">  1  3  2 -1</clus>
</clustering>
</event>
<event>
 6    0  0.5775861E+002  0.1407977E+03  0.7546771E-02  0.1212260E+00
         -1   -1    0    0    0  501 -0.00000000000E+00  0.00000000000E+00  0.89824957995E+03  0.89824957995E+03  0.00000000000E+00 0. -1.
         21   -1    0    0  504  502  0.00000000000E+00 -0.00000000000E+00 -0.33478689939E+03  0.33478689939E+03  0.00000000000E+00 0.  1.
         21    1    1    2  503  501 -0.77619978420E+02 -0.46124639591E+02  0.18583856708E+03  0.20661151091E+03  0.00000000000E+00 0. -1.
         21    1    1    2  504  505 -0.64500937362E+01  0.46041749180E+02 -0.20859466402E+03  0.21371284527E+03  0.00000000000E+00 0.  1.
         21    1    1    2  505  503  0.13979152992E+03  0.40883489580E+02 -0.63819173972E+02  0.15901578074E+03  0.00000000000E+00 0.  1.
         -1    1    1    2    0  502 -0.55721457762E+02 -0.40800599169E+02  0.65003795146E+03  0.65369634242E+03  0.00000000000E+00 0. -1.
<scales pt_clust_3="14000.00000" pt_clust_4="46.49136" pt_clust_5="140.79766" pt_clust_6="68.73930"></scales>
<clustering>
<clus scale="   46.491">  2  4  1 -1</clus>
<clus scale="   68.739">  1  6  2 -1</clus>
<clus scale="  140.798">  2  5  1 -1</clus>
<clus scale="   46.491">  2  3  1 -1</clus>
</clustering>
</event>
<event>
 6    0  0.5775861E+002  0.8436909E+02  0.7546771E-02  0.1317091E+00
         21   -1    0    0  505  502  0.00000000000E+00  0.00000000000E+00  0.91848002451E+02  0.91848002451E+02  0.00000000000E+00 0. -1.
          2   -1    0    0  504    0 -0.00000000000E+00 -0.00000000000E+00 -0.19068806879E+04  0.19068806879E+04  0.00000000000E+00 0.  1.
         21    1    1    2  503  501 -0.19539150198E+01  0.75088009754E+02 -0.45711702465E+03  0.46324723553E+03  0.00000000000E+00 0.  1.
         21    1    1    2  504  502  0.56786374184E+01 -0.47352357510E+02 -0.12705806823E+03  0.13571383639E+03  0.00000000000E+00 0.  1.
         21    1    1    2  505  503 -0.49908770994E+02 -0.69430571988E+02  0.61870132567E+02  0.10554337048E+03  0.00000000000E+00 0. -1.
          2    1    1    2  501    0  0.46184048596E+02  0.41694919744E+02 -0.12927277251E+04  0.12942242480E+04  0.00000000000E+00 0.  1.
<scales pt_clust_3="14000.00000" pt_clust_4="47.69164" pt_clust_5="84.36909" pt_clust_6="50.83322"></scales>
<clustering>
<clus scale="   47.692">  2  4  1 -1</clus>
<clus scale="   50.833">  2  6  1 -1</clus>
<clus scale="   84.369">  1  5  2 -1</clus>
<clus scale="   84.369">  1  3  2 -1</clus>
</clustering>
</event>
<event>
 6    0  0.5775861E+002  0.1198310E+03  0.7546771E-02  0.1243376E+00
          2   -1    0    0  503    0 -0.00000000000E+00  0.00000000000E+00  0.14947920321E+04  0.14947920321E+04  0.00000000000E+00 0.  1.
         21   -1    0    0  504  502  0.00000000000E+00 -0.00000000000E+00 -0.53304912199E+02  0.53304912199E+02  0.00000000000E+00 0.  1.
         21    1    1    2  503  505  0.18824148880E+01  0.15144517012E+03  0.13916292666E+03  0.20568301630E+03  0.00000000000E+00 0.  1.
         21    1    1    2  504  501  0.82682352321E+01 -0.54272822111E+02  0.49927804097E+02  0.74207065403E+02  0.00000000000E+00 0.  1.
         21    1    1    2  505  502  0.33751245837E+02  0.12219971173E+02  0.59414194017E+02  0.69415565557E+02  0.00000000000E+00 0. -1.
          2    1    1    2  501    0 -0.43901895957E+02 -0.10939231918E+03  0.11929821952E+04  0.11987912971E+04  0.00000000000E+00 0.  1.
<scales pt_clust_3="119.83101" pt_clust_4="53.87204" pt_clust_5="35.89532" pt_clust_6="14000.00000"></scales>
<clustering>
<clus scale="   35.895">  2  5  1 -1</clus>
<clus scale="   53.872">  2  4  1 -1</clus>
<clus scale="  119.831">  2  3  1 -1</clus>
<clus scale="   35.895">  2  3  1 -1</clus>
</clustering>
</event>
<event>
 6    0  0.5775861E+002  0.1188532E+03  0.7546771E-02  0.1245001E+00
          2   -1    0    0  505    0 -0.00000000000E+00  0.00000000000E+00  0.12458183737E+04  0.12458183737E+04  0.00000000000E+00 0.  1.
         21   -1    0    0  503  502  0.00000000000E+00 -0.00000000000E+00 -0.11808071014E+04  0.11808071014E+04  0.00000000000E+00 0.  1.
         21    1    1    2  503  504 -0.27400986134E+02  0.20336277319E+02 -0.49115594516E+03  0.49233986298E+03  0.00000000000E+00 0.  1.
         21    1    1    2  504  501  0.12005099308E+03  0.55870251207E+02 -0.67431453275E+03  0.68719270586E+03  0.00000000000E+00 0.  1.
         21    1    1    2  505  502 -0.73475854722E+02 -0.33460549139E+02  0.20188992981E+03  0.21743471051E+03  0.00000000000E+00 0.  1.
          2    1    1    2  501    0 -0.19174152221E+02 -0.42745979387E+02  0.10285918204E+04  0.10296581957E+04  0.00000000000E+00 0.  1.
<scales pt_clust_3="34.12299" pt_clust_4="14000.00000" pt_clust_5="118.85322" pt_clust_6="46.84373"></scales>
<clustering>
<clus scale="   34.123">  2  3  1 -1</clus>
<clus scale="   46.844">  1  6  2 -1</clus>
<clus scale="  118.853">  1  5  2 -1</clus>
<clus scale="   34.123">  2  3  1 -1</clus>
</clustering>
</event>
<event>
 6    0  0.5775861E+002  0.7037076E+02  0.7546771E-02  0.1358837E+00
          1   -1    0    0  503    0 -0.00000000000E+00  0.00000000000E+00  0.88479849123E+03  0.88479849123E+03  0.00000000000E+00 0. -1.
         21   -1    0    0  505  502  0.00000000000E+00 -0.00000000000E+00 -0.21565580773E+04  0.21565580773E+04  0.00000000000E+00 0.  1.
         21    1    1    2  503  504 -0.11550908677E+03 -0.59470438910E+02  0.53007538787E+03  0.54576460040E+03  0.00000000000E+00 0. -1.
         21    1    1    2  504  502  0.64924280661E+02 -0.51152767910E+01 -0.14735549141E+03  0.16110545964E+03  0.00000000000E+00 0. -1.
         21    1    1    2  505  501 -0.14632705189E+02  0.55076967402E+02 -0.19908775422E+04  0.19916929925E+04  0.00000000000E+00 0.  1.
          1    1    1    2  501    0  0.65217511293E+02  0.95087482981E+01  0.33639805965E+03  0.34279351600E+03  0.00000000000E+00 0. -1.
<scales pt_clust_3="14000.00000" pt_clust_4="70.37076" pt_clust_5="56.98762" pt_clust_6="65.78977"></scales>
<clustering>
<clus scale="   56.988">  2  5  1 -1</clus>
<clus scale="   65.790">  1  6  2 -1</clus>
<clus scale="   70.371">  2  4  1 -1</clus>
<clus scale="   56.988">  2  3  1 -1</clus>
</clustering>
</event>
<event>
 6    0  0.5775861E+002  0.1105023E+03  0.7546771E-02  0.1259643E+00
         21   -1    0    0  501  502  0.00000000000E+00  0.00000000000E+00  0.78637001882E+02  0.78637001882E+02  0.00000000000E+00 0.  1.
          1   -1    0    0  505    0 -0.00000000000E+00 -0.00000000000E+00 -0.98924746419E+03  0.98924746419E+03  0.00000000000E+00 0. -1.
         21    1    1    2  503  502  0.14696312116E+02 -0.65566816747E+02  0.30671490445E+02  0.73862909327E+02  0.00000000000E+00 0.  1.
         21    1    1    2  504  503 -0.12183494764E+03 -0.28095257815E+02 -0.20984608506E+03  0.24427131922E+03  0.00000000000E+00 0.  1.
         21    1    1    2  505  504  0.43884413133E+02  0.15937959386E+02 -0.42004669185E+03  0.42263350980E+03  0.00000000000E+00 0. -1.
          1    1    1    2  501    0  0.63254222392E+02  0.77724115176E+02 -0.31138917585E+03  0.32711672774E+03  0.00000000000E+00 0. -1.
<scales pt_clust_3="66.99041" pt_clust_4="110.50229" pt_clust_5="46.68897" pt_clust_6="14000.00000"></scales>
<clustering>
<clus scale="   46.689">  2  5  1 -1</clus>
<clus scale="   66.990">  1  3  2 -1</clus>
<clus scale="  110.502">  1  4  2 -1</clus>
<clus scale="   66.990">  1  3  2 -1</clus>
</clustering>
</event>
<event>
 6    0  0.5775861E+002  0.7842166E+02  0.7546771E-02  0.1333591E+00
         -2   -1    0    0    0  501 -0.00000000000E+00  0.00000000000E+00  0.18719474320E+03  0.18719474320E+03  0.00000000000E+00 0. -1.
         21   -1    0    0  505  502  0.00000000000E+00 -0.00000000000E+00 -0.56528136457E+03  0.56528136457E+03  0.00000000000E+00 0.  1.
         21    1    1    2  503  501  0.98771014514E+02 -0.34734518690E+02  0.19504850331E+02  0.10650182761E+03  0.00000000000E+00 0.  1.
         21    1    1    2  504  502 -0.36448465056E+02 -0.67765345032E+02 -0.18139157941E+03  0.19703689420E+03  0.00000000000E+00 0.  1.
         21    1    1    2  505  503 -0.34359839573E+02  0.88574487160E+02 -0.32351065029E+03  0.33717232864E+03  0.00000000000E+00 0.  1.
         -2    1    1    2    0  504 -0.27962709885E+02  0.13925376562E+02  0.10731075800E+03  0.11176505732E+03  0.00000000000E+00 0. -1.
<scales pt_clust_3="78.42166" pt_clust_4="77.10871" pt_clust_5="14000.00000" pt_clust_6="31.23827"></scales>
<clustering>
<clus scale="   31.238">  1  6  2 -1</clus>
<clus scale="   77.109">  2  4  1 -1</clus>
<clus scale="   78.422">  1  3  2 -1</clus>
<clus scale="   77.109">  2  3  1 -1</clus>
</clustering>
</event>
<event>
 6    0  0.6018140E+002  0.8574733E+02  0.7546771E-02  0.1313490E+00
         21   -1    0    0  505  502  0.00000000000E+00  0.00000000000E+00  0.71740477147E+03  0.71740477147E+03  0.00000000000E+00 0. -1.
          2   -1    0    0  504    0 -0.00000000000E+00 -0.00000000000E+00 -0.11998957495E+04  0.11998957495E+04  0.00000000000E+00 0. -1.
         21    1    1    2  503  502 -0.53295854215E+02  0.35337535011E+00  0.68457742459E+03  0.68664898108E+03  0.00000000000E+00 0. -1.
         21    1    1    2  504  503  0.55912325754E+02 -0.91606922419E+02 -0.70154917391E+02  0.12821750598E+03  0.00000000000E+00 0.  1.
         21    1    1    2  505  501  0.15027417957E+02  0.60230706767E+02 -0.41813184554E+03  0.42271479934E+03  0.00000000000E+00 0. -1.
          2    1    1    2  501    0 -0.17643889497E+02  0.31022840302E+02 -0.67878163970E+03  0.67971923458E+03  0.00000000000E+00 0. -1.
<scales pt_clust_3="53.33257" pt_clust_4="85.74733" pt_clust_5="14000.00000" pt_clust_6="35.68926"></scales>
<clustering>
<clus scale="   35.689">  2  6  1 -1</clus>
<clus scale="   53.333">  1  3  2 -1</clus>
<clus scale="   85.747">  1  4  2 -1</clus>
<clus scale="   53.333">  1  3  2 -1</clus>
</clustering>
</event>
<event>
 6    0  0.5775861E+002  0.9506421E+02  0.7546771E-02  0.1291032E+00
         -2   -1    0    0    0  501 -0.00000000000E+00  0.00000000000E+00  0.69104151215E+03  0.69104151215E+03  0.00000000000E+00 0.  1.
         21   -1    0    0  504  502  0.00000000000E+00 -0.00000000000E+00 -0.34482708682E+03  0.34482708682E+03  0.00000000000E+00 0.  1.
         21    1    1    2  503  502 -0.52710303105E+02  0.70813807786E+02  0.63357693188E+02  0.10866079658E+03  0.00000000000E+00 0.  1.
         21    1    1    2  504  505 -0.45653747317E+02  0.67946276204E+01 -0.29974680615E+03  0.30327970490E+03  0.00000000000E+00 0.  1.
         21    1    1    2  505  501  0.60801796195E+02 -0.81730537721E+02  0.11040447679E+03  0.15021946516E+03  0.00000000000E+00 0.  1.
         -2    1    1    2    0  503  0.37562254227E+02  0.41221023150E+01  0.47219906150E+03  0.47370863234E+03  0.00000000000E+00 0.  1.
<scales pt_clust_3="14000.00000" pt_clust_4="45.86065" pt_clust_5="95.06421" pt_clust_6="37.78776"></scales>
<clustering>
<clus scale="   37.788">  1  6  2 -1</clus>
<clus scale="   45.861">  2  4  1 -1</clus>
<clus scale="   95.064">  2  5  1 -1</clus>
<clus scale="   45.861">  2  3  1 -1</clus>
</clustering>
</event>
<event>
 6    0  0.6105724E+002  0.1709150E+03  0.7546771E-02  0.1176897E+00
         21   -1    0    0  501  502  0.00000000000E+00  0.00000000000E+00  0.45872140886E+02  0.45872140886E+02  0.00000000000E+00 0. -1.
          2   -1    0    0  503    0 -0.00000000000E+00 -0.00000000000E+00 -0.20935522405E+04  0.20935522405E+04  0.00000000000E+00 0.  1.
         21    1    1    2  503  504  0.33084186137E+02  0.10597371037E+02 -0.13443571930E+03  0.13885182847E+03  0.00000000000E+00 0.  1.
         21    1    1    2  504  505 -0.42556011529E+02  0.93911163626E+01 -0.40681528726E+02  0.59617061009E+02  0.00000000000E+00 0.  1.
         21    1    1    2  505  502 -0.10037340785E+03 -0.82671883705E+02 -0.10039924932E+03  0.16428472425E+03  0.00000000000E+00 0. -1.
          2    1    1    2  501    0  0.10984523324E+03  0.62683396306E+02 -0.17721636023E+04  0.17766707677E+04  0.00000000000E+00 0.  1.
<scales pt_clust_3="34.74000" pt_clust_4="38.51186" pt_clust_5="38.51186" pt_clust_6="157.42489"></scales>
<clustering>
<clus scale="   34.740">  2  3  1 -1</clus>
<clus scale="   38.512">  4  5 -1 -1</clus>
<clus scale="  157.425">  2  6  1 -1</clus>
<clus scale="  170.915">  1  3  2 -1</clus>
</clustering>
</event>
<event>
 6    0  0.5775861E+002  0.8574620E+02  0.7546771E-02  0.1313493E+00
         21   -1    0    0  505  502  0.00000000000E+00  0.00000000000E+00  0.25734854768E+03  0.25734854768E+03  0.00000000000E+00 0.  1.
          1   -1    0    0  503    0 -0.00000000000E+00 -0.00000000000E+00 -0.42378444734E+03  0.42378444734E+03  0.00000000000E+00 0. -1.
         21    1    1    2  503  504  0.11637883585E+03 -0.33590749984E+02  0.26038167551E+01  0.12115754941E+03  0.00000000000E+00 0.  1.
         21    1    1    2  504  502 -0.82264300093E+02 -0.23306163138E+02  0.10982178102E+03  0.13918123399E+03  0.00000000000E+00 0.  1.
         21    1    1    2  505  501  0.12267389089E+02  0.44788493713E+02  0.61505785645E+02  0.77067890018E+02  0.00000000000E+00 0.  1.
          1    1    1    2  501    0 -0.46381924843E+02  0.12108419409E+02 -0.34036728308E+03  0.34372632160E+03  0.00000000000E+00 0. -1.
<scales pt_clust_3="85.74620" pt_clust_4="14000.00000" pt_clust_5="46.43811" pt_clust_6="47.93321"></scales>
<clustering>
<clus scale="   46.438">  1  5  2 -1</clus>
<clus scale="   47.933">  2  6  1 -1</clus>
<clus scale="   85.746">  2  3  1 -1</clus>
<clus scale="   46.438">  1  3  2 -1</clus>
</clustering>
</event>
<event>
 6    0  0.5775861E+002  0.1141475E+03  0.7546771E-02  0.1253077E+00
          1   -1    0    0  505    0 -0.00000000000E+00  0.00000000000E+00  0.91033424309E+03  0.91033424309E+03  0.00000000000E+00 0.  1.
         21   -1    0    0  503  502  0.00000000000E+00 -0.00000000000E+00 -0.76953815727E+03  0.76953815727E+03  0.00000000000E+00 0.  1.
         21    1    1    2  503  501  0.56099645583E+02 -0.30555480145E+02 -0.38708616555E+03  0.39232194326E+03  0.00000000000E+00 0.  1.
         21    1    1    2  504  502 -0.44778284657E+01 -0.38847119137E+02 -0.23870614571E+03  0.24188793606E+03  0.00000000000E+00 0. -1.
         21    1    1    2  505  504 -0.15905090888E+03  0.10201470718E+03 -0.70052002208E+02  0.20152288979E+03  0.00000000000E+00 0. -1.
          1    1    1    2  501    0  0.10742909176E+03 -0.32612107895E+02  0.83664039929E+03  0.84413963126E+03  0.00000000000E+00 0.  1.
<scales pt_clust_3="79.29719" pt_clust_4="39.10434" pt_clust_5="114.14749" pt_clust_6="14000.00000"></scales>
<clustering>
<clus scale="   39.104">  2  4  1 -1</clus>
<clus scale="   79.297">  2  3  1 -1</clus>
<clus scale="  114.147">  2  5  1 -1</clus>
<clus scale="   39.104">  2  3  1 -1</clus>
</clustering>
</event>
<event>
 6    0  0.5775861E+002  0.1404298E+03  0.7546771E-02  0.1212752E+00
          2   -1    0    0  502    0 -0.00000000000E+00  0.00000000000E+00  0.42595143962E+04  0.42595143962E+04  0.00000000000E+00 0.  1.
         21   -1    0    0  504  502  0.00000000000E+00 -0.00000000000E+00 -0.14680894209E+02  0.14680894209E+02  0.00000000000E+00 0. -1.
         21    1    1    2  503  501  0.80349825939E+02 -0.39696007317E+01  0.14374062232E+04  0.14396556890E+04  0.00000000000E+00 0. -1.
         21    1    1    2  504  505  0.46232297041E+02  0.17057703303E+02  0.13449587554E+03  0.14323941870E+03  0.00000000000E+00 0. -1.
         21    1    1    2  505  503 -0.16822449046E+03 -0.23103158269E+02  0.79736671219E+03  0.81524653254E+03  0.00000000000E+00 0. -1.
          2    1    1    2  501    0  0.41642367481E+02  0.10015055698E+02  0.18755646910E+04  0.18760536502E+04  0.00000000000E+00 0.  1.
<scales pt_clust_3="41.49083" pt_clust_4="49.27870" pt_clust_5="128.40182" pt_clust_6="41.49083"></scales>
<clustering>
<clus scale="   41.491">  3  6 -1 -1</clus>
<clus scale="   49.279">  2  4  1 -1</clus>
<clus scale="  128.402">  2  5  1 -1</clus>
<clus scale="   49.279">  2  3  1 -1</clus>
</clustering>
</event>
<event>
 6    0  0.5775861E+002  0.1015682E+03  0.7546771E-02  0.1277032E+00
          2   -1    0    0  504    0 -0.00000000000E+00  0.00000000000E+00  0.33587988263E+03  0.33587988263E+03  0.00000000000E+00 0.  1.
         21   -1    0    0  503  502  0.00000000000E+00 -0.00000000000E+00 -0.14966053970E+03  0.14966053970E+03  0.00000000000E+00 0.  1.
         21    1    1    2  503  505 -0.13079197892E+03 -0.84016193251E+01 -0.85993668775E+01  0.13134335944E+03  0.00000000000E+00 0.  1.
         21    1    1    2  504  502  0.48349180333E+02  0.10066425412E+02 -0.43193142892E+02  0.65609631552E+02  0.00000000000E+00 0.  1.
         21    1    1    2  505  501  0.11482454284E+03  0.16405176707E+02  0.12918481519E+03  0.17361601866E+03  0.00000000000E+00 0.  1.
          2    1    1    2  501    0 -0.32381744255E+02 -0.18069982795E+02  0.10882703751E+03  0.11497141268E+03  0.00000000000E+00 0.  1.
<scales pt_clust_3="101.56816" pt_clust_4="47.61851" pt_clust_5="14000.00000" pt_clust_6="37.08236"></scales>
<clustering>
<clus scale="   37.082">  1  6  2 -1</clus>
<clus scale="   47.619">  2  4  1 -1</clus>
<clus scale="  101.568">  2  3  1 -1</clus>
<clus scale="   47.619">  2  3  1 -1</clus>
</clustering>
</event>
<event>
 6    0  0.5775861E+002  0.2063644E+03  0.7546771E-02  0.1144478E+00
         21   -1    0    0  505  502  0.00000000000E+00  0.00000000000E+00  0.31934954666E+03  0.31934954666E+03  0.00000000000E+00 0. -1.
          1   -1    0    0  504    0 -0.00000000000E+00 -0.00000000000E+00 -0.39552587668E+03  0.39552587668E+03  0.00000000000E+00 0. -1.
         21    1    1    2  503  502  0.71863287591E+02  0.30525478714E+02  0.11377304320E+03  0.13798710923E+03  0.00000000000E+00 0. -1.
         21    1    1    2  504  503  0.40910542559E+02  0.18200014692E+03  0.69098045191E+02  0.19892779046E+03  0.00000000000E+00 0. -1.
         21    1    1    2  505  501 -0.57457302323E+02 -0.18776571961E+03 -0.13029286882E+03  0.23565555100E+03  0.00000000000E+00 0. -1.
          1    1    1    2  501    0 -0.55316527828E+02 -0.24759906015E+02 -0.12875454959E+03  0.14230497263E+03  0.00000000000E+00 0. -1.
<scales pt_clust_3="75.25615" pt_clust_4="206.36443" pt_clust_5="14000.00000" pt_clust_6="60.60504"></scales>
<clustering>
<clus scale="   60.605">  2  6  1 -1</clus>
<clus scale="   75.256">  1  3  2 -1</clus>
<clus scale="  206.364">  1  4  2 -1</clus>
<clus scale="   75.256">  1  3  2 -1</clus>
</clustering>
</event>
<event>
 6    0  0.5775861E+002  0.1290058E+03  0.7546771E-02  0.1228938E+00
         21   -1    0    0  504  502  0.00000000000E+00  0.00000000000E+00  0.52152403020E+03  0.52152403020E+03  0.00000000000E+00 0. -1.
          2   -1    0    0  505    0 -0.00000000000E+00 -0.00000000000E+00 -0.13218460678E+04  0.13218460678E+04  0.00000000000E+00 0.  1.
         21    1    1    2  503  501 -0.14501846732E+02 -0.10541251642E+03  0.17790811641E+03  0.20730026547E+03  0.00000000000E+00 0. -1.
         21    1    1    2  504  503  0.21591688517E+02 -0.42189565079E+02  0.26173324788E+03  0.26598957397E+03  0.00000000000E+00 0. -1.
         21    1    1    2  505  502 -0.53397084721E+02  0.11976015248E+03 -0.22054037398E+01  0.13114345803E+03  0.00000000000E+00 0.  1.
          2    1    1    2  501    0  0.46307242937E+02  0.27841929020E+02 -0.12377579982E+04  0.12389368006E+04  0.00000000000E+00 0.  1.
<scales pt_clust_3="129.00577" pt_clust_4="47.39367" pt_clust_5="14000.00000" pt_clust_6="54.02542"></scales>
<clustering>
<clus scale="   47.394">  1  4  2 -1</clus>
<clus scale="   54.025">  2  6  1 -1</clus>
<clus scale="  129.006">  1  3  2 -1</clus>
<clus scale="   47.394">  1  3  2 -1</clus>
</clustering>
</event>
<event>
 6    0  0.5775861E+002  0.1627805E+03  0.7546771E-02  0.1185593E+00
         21   -1    0    0  504  502  0.00000000000E+00  0.00000000000E+00  0.27226053279E+03  0.27226053279E+03  0.00000000000E+00 0. -1.
          4   -1    0    0  505    0 -0.00000000000E+00 -0.00000000000E+00 -0.28109657587E+03  0.28109657587E+03  0.00000000000E+00 0.  1.
         21    1    1    2  503  502 -0.48077578264E+02  0.60705269484E+02  0.69256380402E+02  0.10388950621E+03  0.00000000000E+00 0. -1.
         21    1    1    2  504  501  0.48024822214E+02 -0.92538641841E+01  0.63204457261E+02  0.79917588607E+02  0.00000000000E+00 0. -1.
         21    1    1    2  505  503 -0.69239987977E+02 -0.17983187247E+03 -0.56518984220E+02  0.20081850978E+03  0.00000000000E+00 0. -1.
          4    1    1    2  501    0  0.69292744027E+02  0.12838046717E+03 -0.84777896520E+02  0.16873150407E+03  0.00000000000E+00 0.  1.
<scales pt_clust_3="62.96900" pt_clust_4="48.90826" pt_clust_5="14000.00000" pt_clust_6="162.78050"></scales>
<clustering>
<clus scale="   48.908">  1  4  2 -1</clus>
<clus scale="   62.969">  1  3  2 -1</clus>
<clus scale="  162.780">  2  6  1 -1</clus>
<clus scale="   48.908">  1  3  2 -1</clus>
</clustering>
</event>
<event>
 6    0  0.5775861E+002  0.1888081E+03  0.7546771E-02  0.1159541E+00
         21   -1    0    0  503  502  0.00000000000E+00  0.00000000000E+00  0.17930046198E+03  0.17930046198E+03  0.00000000000E+00 0. -1.
          2   -1    0    0  505    0 -0.00000000000E+00 -0.00000000000E+00 -0.12005771005E+04  0.12005771005E+04  0.00000000000E+00 0.  1.
         21    1    1    2  503  504  0.11187302182E+03 -0.38702830818E+02  0.98434629135E+02  0.15395732635E+03  0.00000000000E+00 0. -1.
         21    1    1    2  504  501 -0.12186089351E+03 -0.13028646027E+03 -0.31024818763E+03  0.35788067428E+03  0.00000000000E+00 0.  1.
         21    1    1    2  505  502  0.45591380803E+02  0.22278669660E+03 -0.46546396991E+03  0.51804362120E+03  0.00000000000E+00 0. -1.
          2    1    1    2  501    0 -0.35603509115E+02 -0.53797405512E+02 -0.34399911010E+03  0.34999594062E+03  0.00000000000E+00 0.  1.
<scales pt_clust_3="117.87380" pt_clust_4="188.80810" pt_clust_5="14000.00000" pt_clust_6="64.51179"></scales>
<clustering>
<clus scale="   64.512">  2  6  1 -1</clus>
<clus scale="  117.874">  1  3  2 -1</clus>
<clus scale="  188.808">  1  4  2 -1</clus>
<clus scale="  117.874">  1  3  2 -1</clus>
</clustering>
</event>
<event>
 6    0  0.5775861E+002  0.1162390E+03  0.7546771E-02  0.1249434E+00
         21   -1    0    0  505  502  0.00000000000E+00  0.00000000000E+00  0.26264003784E+03  0.26264003784E+03  0.00000000000E+00 0.  1.
         -1   -1    0    0    0  501 -0.00000000000E+00 -0.00000000000E+00 -0.15279594642E+04  0.15279594642E+04  0.00000000000E+00 0.  1.
         21    1    1    2  503  502  0.11294202439E+03  0.30188994691E+02  0.23913188788E+03  0.26617914283E+03  0.00000000000E+00 0.  1.
         21    1    1    2  504  503 -0.76013918651E+02  0.18326357113E+02 -0.95883858189E+03  0.96202151603E+03  0.00000000000E+00 0.  1.
         21    1    1    2  505  501 -0.43855774349E+02  0.33737637669E+01 -0.62319336746E+02  0.76278509150E+02  0.00000000000E+00 0.  1.
         -1    1    1    2    0  504  0.69276686073E+01 -0.51889115571E+02 -0.48329339565E+03  0.48612033406E+03  0.00000000000E+00 0.  1.
<scales pt_clust_3="14000.00000" pt_clust_4="116.23896" pt_clust_5="43.98535" pt_clust_6="51.34048"></scales>
<clustering>
<clus scale="   43.985">  2  5  1 -1</clus>
<clus scale="   51.340">  2  6  1 -1</clus>
<clus scale="  116.239">  2  4  1 -1</clus>
<clus scale="  116.239">  1  3  2 -1</clus>
</clustering>
</event>
<event>
 6    0  0.5775861E+002  0.9837420E+02  0.7546771E-02  0.1283752E+00
         21   -1    0    0  504  502  0.00000000000E+00  0.00000000000E+00  0.51360469865E+03  0.51360469865E+03  0.00000000000E+00 0.  1.
         -1   -1    0    0    0  501 -0.00000000000E+00 -0.00000000000E+00 -0.14843554583E+04  0.14843554583E+04  0.00000000000E+00 0. -1.
         21    1    1    2  503  501  0.12882460698E+03  0.29561930054E+02 -0.42039789831E+03  0.44068591988E+03  0.00000000000E+00 0. -1.
         21    1    1    2  504  503 -0.73191607376E+01  0.86672739227E+02  0.45893714151E+03  0.46710709018E+03  0.00000000000E+00 0.  1.
         21    1    1    2  505  502 -0.41262377629E+02 -0.70787333981E+02 -0.54677298340E+01  0.82117760133E+02  0.00000000000E+00 0. -1.
         -1    1    1    2    0  505 -0.80243068617E+02 -0.45447335299E+02 -0.10038222730E+04  0.10080493868E+04  0.00000000000E+00 0. -1.
<scales pt_clust_3="14000.00000" pt_clust_4="50.71076" pt_clust_5="81.93553" pt_clust_6="98.37420"></scales>
<clustering>
<clus scale="   81.936">  1  5  2 -1</clus>
<clus scale="   50.711">  1  4  2 -1</clus>
<clus scale="   98.374">  2  6  1 -1</clus>
<clus scale="   81.936">  1  3  2 -1</clus>
</clustering>
</event>
<event>
 6    0  0.5775861E+002  0.9751929E+02  0.7546771E-02  0.1285601E+00
         21   -1    0    0  503  502  0.00000000000E+00  0.00000000000E+00  0.54826075305E+02  0.54826075305E+02  0.00000000000E+00 0.  1.
          2   -1    0    0  504    0 -0.00000000000E+00 -0.00000000000E+00 -0.28428781207E+04  0.28428781207E+04  0.00000000000E+00 0.  1.
         21    1    1    2  503  501 -0.76135669259E+02  0.62067879896E+02 -0.26372138085E+03  0.28142144297E+03  0.00000000000E+00 0. -1.
         21    1    1    2  504  505 -0.19589941779E+02 -0.25260414786E+02 -0.11940469455E+03  0.12360960907E+03  0.00000000000E+00 0.  1.
         21    1    1    2  505  502  0.10231070669E+03  0.13618159250E+02 -0.17476583188E+02  0.10468221398E+03  0.00000000000E+00 0.  1.
          2    1    1    2  501    0 -0.65850956509E+01 -0.50425624360E+02 -0.23874493868E+04  0.23879909299E+04  0.00000000000E+00 0.  1.
<scales pt_clust_3="97.51929" pt_clust_4="31.96646" pt_clust_5="14000.00000" pt_clust_6="76.38280"></scales>
<clustering>
<clus scale="   31.966">  2  4  1 -1</clus>
<clus scale="   76.383">  2  6  1 -1</clus>
<clus scale="   97.519">  2  3  1 -1</clus>
<clus scale="   97.519">  1  3  2 -1</clus>
</clustering>
</event>
<event>
 6    0  0.5775861E+002  0.1054437E+03  0.7546771E-02  0.1269248E+00
          2   -1    0    0  505    0 -0.00000000000E+00  0.00000000000E+00  0.18430582407E+04  0.18430582407E+04  0.00000000000E+00 0.  1.
         21   -1    0    0  504  502  0.00000000000E+00 -0.00000000000E+00 -0.91171725932E+02  0.91171725932E+02  0.00000000000E+00 0. -1.
         21    1    1    2  503  501 -0.85831627534E+02 -0.28141163605E+02  0.11038823784E+03  0.14263434519E+03  0.00000000000E+00 0. -1.
         21    1    1    2  504  503  0.17644767993E+02 -0.49662411553E+02 -0.32084278411E+02  0.61701652166E+02  0.00000000000E+00 0. -1.
         21    1    1    2  505  502 -0.39047830088E+02  0.71835271946E+02  0.36920095671E+02  0.89711386091E+02  0.00000000000E+00 0. -1.
          2    1    1    2  501    0  0.10723468963E+03  0.59683032128E+01  0.16366624597E+04  0.16401825832E+04  0.00000000000E+00 0.  1.
<scales pt_clust_3="14000.00000" pt_clust_4="52.70382" pt_clust_5="50.96393" pt_clust_6="105.44368"></scales>
<clustering>
<clus scale="   52.704">  2  4  1 -1</clus>
<clus scale="   50.964">  2  5  1 -1</clus>
<clus scale="  105.444">  1  6  2 -1</clus>
<clus scale="   52.704">  2  3  1 -1</clus>
</clustering>
</event>
<event>
 6    0  0.5775861E+002  0.1312769E+03  0.7546771E-02  0.1225573E+00
         21   -1    0    0  504  502  0.00000000000E+00  0.00000000000E+00  0.37510859954E+02  0.37510859954E+02  0.00000000000E+00 0.  1.
          2   -1    0    0  503    0 -0.00000000000E+00 -0.00000000000E+00 -0.22866199866E+04  0.22866199866E+04  0.00000000000E+00 0.  1.
         21    1    1    2  503  505  0.16105564617E+02  0.49873577911E+02 -0.63971639190E+03  0.64185966149E+03  0.00000000000E+00 0.  1.
         21    1    1    2  504  501 -0.63833525993E+02  0.55617997521E+02 -0.41341707729E+03  0.42199734654E+03  0.00000000000E+00 0. -1.
         21    1    1    2  505  502  0.12023416118E+03 -0.93481509531E+02 -0.15711006988E+03  0.21881183743E+03  0.00000000000E+00 0.  1.
          2    1    1    2  501    0 -0.72506199805E+02 -0.12010065901E+02 -0.10388655876E+04  0.10414620011E+04  0.00000000000E+00 0.  1.
<scales pt_clust_3="52.40957" pt_clust_4="14000.00000" pt_clust_5="131.27690" pt_clust_6="65.30970"></scales>
<clustering>
<clus scale="   52.410">  2  3  1 -1</clus>
<clus scale="   65.310">  2  6  1 -1</clus>
<clus scale="  131.277">  1  5  2 -1</clus>
<clus scale="  131.277">  1  3  2 -1</clus>
</clustering>
</event>
<event>
 6    0  0.5775861E+002  0.6929201E+02  0.7546771E-02  0.1362517E+00
          2   -1    0    0  503    0 -0.00000000000E+00  0.00000000000E+00  0.12768960982E+04  0.12768960982E+04  0.00000000000E+00 0. -1.
         21   -1    0    0  504  502  0.00000000000E+00 -0.00000000000E+00 -0.58881696853E+03  0.58881696853E+03  0.00000000000E+00 0. -1.
         21    1    1    2  503  505 -0.13230036723E+03 -0.41626441415E+02  0.26543965130E+03  0.29949016057E+03  0.00000000000E+00 0. -1.
         21    1    1    2  504  501  0.52793326709E+02 -0.12497695404E+02  0.47220226775E+02  0.71924109672E+02  0.00000000000E+00 0. -1.
         21    1    1    2  505  502  0.47161394562E+02  0.50232761016E+02 -0.55703265764E+03  0.56127792500E+03  0.00000000000E+00 0. -1.
          2    1    1    2  501    0  0.32345645957E+02  0.38913758030E+01  0.93245190923E+03  0.93302087149E+03  0.00000000000E+00 0. -1.
<scales pt_clust_3="14000.00000" pt_clust_4="59.57732" pt_clust_5="69.29201" pt_clust_6="32.57888"></scales>
<clustering>
<clus scale="   32.579">  1  6  2 -1</clus>
<clus scale="   59.577">  1  4  2 -1</clus>
<clus scale="   69.292">  2  5  1 -1</clus>
<clus scale="   69.292">  2  3  1 -1</clus>
</clustering>
</event>
<event>
 6    0  0.5775861E+002  0.1140742E+03  0.7546771E-02  0.1253206E+00
         21   -1    0    0  501  502  0.00000000000E+00  0.00000000000E+00  0.30549606924E+03  0.30549606924E+03  0.00000000000E+00 0.  1.
          2   -1    0    0  504    0 -0.00000000000E+00 -0.00000000000E+00 -0.36434320860E+03  0.36434320860E+03  0.00000000000E+00 0. -1.
         21    1    1    2  503  502 -0.49614921623E+02  0.74804294223E+02  0.43839655297E+02  0.99896137355E+02  0.00000000000E+00 0.  1.
         21    1    1    2  504  505 -0.18469279326E+02 -0.32419727500E+02 -0.10383865306E+02  0.38729545165E+02  0.00000000000E+00 0. -1.
         21    1    1    2  505  503  0.94977197472E+02  0.39887979102E+02  0.20075418246E+03  0.22564122117E+03  0.00000000000E+00 0.  1.
          2    1    1    2  501    0 -0.26892996523E+02 -0.82272545825E+02 -0.29305711182E+03  0.30557237415E+03  0.00000000000E+00 0. -1.
<scales pt_clust_3="88.41879" pt_clust_4="37.31157" pt_clust_5="114.07424" pt_clust_6="14000.00000"></scales>
<clustering>
<clus scale="   37.312">  2  4  1 -1</clus>
<clus scale="   88.419">  1  3  2 -1</clus>
<clus scale="  114.074">  1  5  2 -1</clus>
<clus scale="   88.419">  1  3  2 -1</clus>
</clustering>
</event>
<event>
 6    0  0.5775861E+002  0.7966307E+02  0.7546771E-02  0.1330010E+00
         21   -1    0    0  503  502  0.00000000000E+00  0.00000000000E+00  0.24497406315E+02  0.24497406315E+02  0.00000000000E+00 0. -1.
          1   -1    0    0  504    0 -0.00000000000E+00 -0.00000000000E+00 -0.19589918558E+04  0.19589918558E+04  0.00000000000E+00 0. -1.
         21    1    1    2  503  505 -0.15012425471E+02  0.36182233115E+02 -0.57224715283E+02  0.69348359396E+02  0.00000000000E+00 0. -1.
         21    1    1    2  504  502  0.67082889548E+01 -0.98709280637E+02 -0.16807100464E+03  0.19502919224E+03  0.00000000000E+00 0. -1.
         21    1    1    2  505  501 -0.15630013277E+02  0.10531157881E+03 -0.64041919405E+03  0.64920841804E+03  0.00000000000E+00 0. -1.
          1    1    1    2  501    0  0.23934149793E+02 -0.42784531287E+02 -0.10687795355E+04  0.10699032925E+04  0.00000000000E+00 0. -1.
<scales pt_clust_3="39.17304" pt_clust_4="79.66307" pt_clust_5="14000.00000" pt_clust_6="47.83849"></scales>
<clustering>
<clus scale="   39.173">  1  3  2 -1</clus>
<clus scale="   47.838">  2  6  1 -1</clus>
<clus scale="   79.663">  1  4  2 -1</clus>
<clus scale="   39.173">  1  3  2 -1</clus>
</clustering>
</event>
<event>
 6    0  0.5775861E+002  0.1133671E+03  0.7546771E-02  0.1254459E+00
         21   -1    0    0  503  502  0.00000000000E+00  0.00000000000E+00  0.26143179093E+04  0.26143179093E+04  0.00000000000E+00 0.  1.
          2   -1    0    0  504    0 -0.00000000000E+00 -0.00000000000E+00 -0.48283281630E+03  0.48283281630E+03  0.00000000000E+00 0. -1.
         21    1    1    2  503  505  0.39512784235E+02 -0.98159909785E+01  0.22876561355E+04  0.22880184021E+04  0.00000000000E+00 0.  1.
         21    1    1    2  504  502 -0.84916981821E+02 -0.37232706770E+02 -0.12964451775E+03  0.15938904993E+03  0.00000000000E+00 0. -1.
         21    1    1    2  505  501  0.30707032329E+02  0.10355055708E+03  0.29957823568E+03  0.31845369993E+03  0.00000000000E+00 0. -1.
          2    1    1    2  501    0  0.14697165257E+02 -0.56501859329E+02 -0.32610476050E+03  0.33128957362E+03  0.00000000000E+00 0. -1.
<scales pt_clust_3="40.71380" pt_clust_4="113.36709" pt_clust_5="14000.00000" pt_clust_6="58.53718"></scales>
<clustering>
<clus scale="   40.714">  1  3  2 -1</clus>
<clus scale="   58.537">  2  6  1 -1</clus>
<clus scale="  113.367">  2  4  1 -1</clus>
<clus scale="   40.714">  1  3  2 -1</clus>
</clustering>
</event>
<event>
 6    0  0.5775861E+002  0.1352263E+03  0.7546771E-02  0.1219901E+00
          2   -1    0    0  504    0 -0.00000000000E+00  0.00000000000E+00  0.10700498124E+04  0.10700498124E+04  0.00000000000E+00 0. -1.
         21   -1    0    0  501  502  0.00000000000E+00 -0.00000000000E+00 -0.63988353866E+02  0.63988353866E+02  0.00000000000E+00 0. -1.
         21    1    1    2  503  502 -0.53036172935E+02 -0.16081166827E+02  0.66549202479E+02  0.86603902434E+02  0.00000000000E+00 0. -1.
         21    1    1    2  504  505 -0.17801446256E+02  0.69822374532E+02  0.16388210817E+03  0.17902346453E+03  0.00000000000E+00 0. -1.
         21    1    1    2  505  503  0.12882265835E+03 -0.11062091512E+03  0.12037464682E+03  0.20814014452E+03  0.00000000000E+00 0. -1.
          2    1    1    2  501    0 -0.57985039157E+02  0.56879707418E+02  0.65525550105E+03  0.66027065476E+03  0.00000000000E+00 0. -1.
<scales pt_clust_3="55.42057" pt_clust_4="72.12745" pt_clust_5="135.22627" pt_clust_6="14000.00000"></scales>
<clustering>
<clus scale="   55.421">  2  3  1 -1</clus>
<clus scale="   72.127">  1  4  2 -1</clus>
<clus scale="  135.226">  2  5  1 -1</clus>
<clus scale="   55.421">  2  3  1 -1</clus>
</clustering>
</event>
<event>
 6    0  0.5775861E+002  0.7184075E+02  0.7546771E-02  0.1353943E+00
         21   -1    0    0  505  502  0.00000000000E+00  0.00000000000E+00  0.16830046248E+03  0.16830046248E+03  0.00000000000E+00 0.  1.
          2   -1    0    0  503    0 -0.00000000000E+00 -0.00000000000E+00 -0.14844335378E+04  0.14844335378E+04  0.00000000000E+00 0.  1.
         21    1    1    2  503  504  0.69499102477E+02  0.62724384249E+02 -0.18240278947E+03  0.20502500148E+03  0.00000000000E+00 0.  1.
         21    1    1    2  504  502 -0.48481012295E+02 -0.90082948789E+02  0.98866652625E+02  0.14226721765E+03  0.00000000000E+00 0.  1.
         21    1    1    2  505  501 -0.10066546037E+02  0.60430866012E+02  0.10242739607E+02  0.62113916562E+02  0.00000000000E+00 0.  1.
          2    1    1    2  501    0 -0.10951544146E+02 -0.33072301472E+02 -0.12428396781E+04  0.12433278646E+04  0.00000000000E+00 0.  1.
<scales pt_clust_3="71.84075" pt_clust_4="14000.00000" pt_clust_5="57.97754" pt_clust_6="34.83839"></scales>
<clustering>
<clus scale="   34.838">  2  6  1 -1</clus>
<clus scale="   57.978">  1  5  2 -1</clus>
<clus scale="   71.841">  2  3  1 -1</clus>
<clus scale="   57.978">  1  3  2 -1</clus>
</clustering>
</event>
<event>
 6    0  0.5775861E+002  0.1287644E+03  0.7546771E-02  0.1229301E+00
         21   -1    0    0  504  502  0.00000000000E+00  0.00000000000E+00  0.65655537618E+02  0.65655537618E+02  0.00000000000E+00 0. -1.
          1   -1    0    0  503    0 -0.00000000000E+00 -0.00000000000E+00 -0.74423414442E+03  0.74423414442E+03  0.00000000000E+00 0. -1.
         21    1    1    2  503  502 -0.98815870400E+02  0.10954939322E+03 -0.11459822058E+03  0.18681112911E+03  0.00000000000E+00 0. -1.
         21    1    1    2  504  505  0.39612638797E+02  0.32182549110E+02 -0.28651125916E+02  0.58530031915E+02  0.00000000000E+00 0. -1.
         21    1    1    2  505  501  0.23124500968E+02 -0.10571026309E+03 -0.22053341172E+03  0.24565094739E+03  0.00000000000E+00 0. -1.
          1    1    1    2  501    0  0.36078730635E+02 -0.36021679238E+02 -0.31479584858E+03  0.31889757363E+03  0.00000000000E+00 0. -1.
<scales pt_clust_3="128.76444" pt_clust_4="51.83602" pt_clust_5="14000.00000" pt_clust_6="50.98270"></scales>
<clustering>
<clus scale="   50.983">  2  6  1 -1</clus>
<clus scale="   51.836">  1  4  2 -1</clus>
<clus scale="  128.764">  1  3  2 -1</clus>
<clus scale="   51.836">  1  3  2 -1</clus>
</clustering>
</event>
<event>
 6    0  0.5775861E+002  0.1112818E+03  0.7546771E-02  0.1258214E+00
         21   -1    0    0  504  502  0.00000000000E+00  0.00000000000E+00  0.34507723875E+03  0.34507723875E+03  0.00000000000E+00 0.  1.
          1   -1    0    0  503    0 -0.00000000000E+00 -0.00000000000E+00 -0.23606982712E+04  0.23606982712E+04  0.00000000000E+00 0.  1.
         21    1    1    2  503  505  0.44946064134E+02 -0.78492650564E+02 -0.21736498906E+03  0.23543318233E+03  0.00000000000E+00 0. -1.
         21    1    1    2  504  501  0.52014297223E+02  0.50503544924E+01  0.14877413474E+01  0.52280078141E+02  0.00000000000E+00 0. -1.
         21    1    1    2  505  502  0.31039502872E+02  0.71640374520E+02  0.30225145375E+03  0.31217260497E+03  0.00000000000E+00 0.  1.
          1    1    1    2  501    0 -0.12799986423E+03  0.18019215514E+01 -0.21019952385E+04  0.21058896445E+04  0.00000000000E+00 0.  1.
<scales pt_clust_3="91.06968" pt_clust_4="52.25891" pt_clust_5="111.28184" pt_clust_6="14000.00000"></scales>
<clustering>
<clus scale="   52.259">  1  4  2 -1</clus>
<clus scale="   91.070">  2  3  1 -1</clus>
<clus scale="  111.282">  1  5  2 -1</clus>
<clus scale="   52.259">  1  3  2 -1</clus>
</clustering>
</event>
<event>
 6    0  0.5775861E+002  0.1416172E+03  0.7546771E-02  0.1211169E+00
         -2   -1    0    0    0  501 -0.00000000000E+00  0.00000000000E+00  0.13327439998E+04  0.13327439998E+04  0.00000000000E+00 0. -1.
         21   -1    0    0  504  502  0.00000000000E+00 -0.00000000000E+00 -0.45439699505E+03  0.45439699505E+03  0.00000000000E+00 0.  1.
         21    1    1    2  503  505  0.12604986849E+03 -0.14513601240E+03 -0.64691263339E+02  0.20282502556E+03  0.00000000000E+00 0.  1.
         21    1    1    2  504  501 -0.23521865572E+02  0.35992473651E+02 -0.10613426409E+03  0.11451296142E+03  0.00000000000E+00 0.  1.
         21    1    1    2  505  502  0.21739388347E+02  0.43587038392E+02 -0.20351425890E+03  0.20926176071E+03  0.00000000000E+00 0.  1.
         -2    1    1    2    0  503 -0.12426739126E+03  0.65556500353E+02  0.12526867911E+04  0.12605412472E+04  0.00000000000E+00 0. -1.
<scales pt_clust_3="141.61723" pt_clust_4="42.99693" pt_clust_5="65.62176" pt_clust_6="14000.00000"></scales>
<clustering>
<clus scale="   42.997">  2  4  1 -1</clus>
<clus scale="   65.622">  2  5  1 -1</clus>
<clus scale="  141.617">  2  3  1 -1</clus>
<clus scale="   42.997">  2  3  1 -1</clus>
</clustering>
</event>
<event>
 6    0  0.5775861E+002  0.9102102E+02  0.7546771E-02  0.1300398E+00
          4   -1    0    0  505    0 -0.00000000000E+00  0.00000000000E+00  0.34045596157E+02  0.34045596157E+02  0.00000000000E+00 0.  1.
         21   -1    0    0  503  502  0.00000000000E+00 -0.00000000000E+00 -0.77769119506E+03  0.77769119506E+03  0.00000000000E+00 0.  1.
         21    1    1    2  503  501  0.61405328539E+02  0.87314586203E+02 -0.30728300300E+03  0.32529570435E+03  0.00000000000E+00 0.  1.
         21    1    1    2  504  502 -0.31521529543E+02  0.17020703570E+02 -0.14959979046E+03  0.15382915354E+03  0.00000000000E+00 0.  1.
         21    1    1    2  505  504 -0.31472761470E+02 -0.74293006794E+02 -0.29122793350E+03  0.30219810526E+03  0.00000000000E+00 0.  1.
          4    1    1    2  501    0  0.15889624741E+01 -0.30042282979E+02  0.44651280612E+01  0.30413828054E+02  0.00000000000E+00 0.  1.
<scales pt_clust_3="91.02102" pt_clust_4="33.98529" pt_clust_5="14000.00000" pt_clust_6="30.08427"></scales>
<clustering>
<clus scale="   30.084">  1  6  2 -1</clus>
<clus scale="   33.985">  2  4  1 -1</clus>
<clus scale="   91.021">  1  3  2 -1</clus>
<clus scale="   33.985">  2  3  1 -1</clus>
</clustering>
</event>
<event>
 6    0  0.5775861E+002  0.1637564E+03  0.7546771E-02  0.1184520E+00
         21   -1    0    0  501  502  0.00000000000E+00  0.00000000000E+00  0.60046051085E+02  0.60046051085E+02  0.00000000000E+00 0. -1.
          2   -1    0    0  505    0 -0.00000000000E+00 -0.00000000000E+00 -0.20666530199E+04  0.20666530199E+04  0.00000000000E+00 0.  1.
         21    1    1    2  503  504 -0.16819656070E+03 -0.70964193519E+02 -0.30698392037E+03  0.35716260605E+03  0.00000000000E+00 0. -1.
         21    1    1    2  504  502  0.41083194415E+02  0.96937685013E+02 -0.96560660005E+02  0.14285903786E+03  0.00000000000E+00 0. -1.
         21    1    1    2  505  503 -0.13719801605E+02 -0.30729003233E+02 -0.23985604581E+02  0.41325704143E+02  0.00000000000E+00 0. -1.
          2    1    1    2  501    0  0.14083316789E+03  0.47555117398E+01 -0.15790767839E+04  0.15853517230E+04  0.00000000000E+00 0.  1.
<scales pt_clust_3="32.74652" pt_clust_4="105.28411" pt_clust_5="32.74652" pt_clust_6="144.91077"></scales>
<clustering>
<clus scale="   32.747">  3  5 -1 -1</clus>
<clus scale="  105.284">  1  4  2 -1</clus>
<clus scale="  144.911">  2  6  1 -1</clus>
<clus scale="  105.284">  1  3  2 -1</clus>
</clustering>
</event>
<event>
 6    0  0.5775861E+002  0.9132739E+02  0.7546771E-02  0.1299669E+00
          1   -1    0    0  504    0 -0.00000000000E+00  0.00000000000E+00  0.21834260287E+03  0.21834260287E+03  0.00000000000E+00 0. -1.
         21   -1    0    0  503  502  0.00000000000E+00 -0.00000000000E+00 -0.10017029278E+04  0.10017029278E+04  0.00000000000E+00 0. -1.
         21    1    1    2  503  505  0.40023126693E+02 -0.42311784078E+01 -0.12656333624E+03  0.13280825133E+03  0.00000000000E+00 0.  1.
         21    1    1    2  504  502  0.51524384802E+02 -0.19538218232E+01 -0.81585004813E+03  0.81747775547E+03  0.00000000000E+00 0. -1.
         21    1    1    2  505  501 -0.12286622073E+03 -0.30497360162E+02  0.27368212940E+02  0.12951917331E+03  0.00000000000E+00 0. -1.
          1    1    1    2  501    0  0.31318709238E+02  0.36682360393E+02  0.13168484653E+03  0.14024035054E+03  0.00000000000E+00 0. -1.
<scales pt_clust_3="40.24616" pt_clust_4="91.32739" pt_clust_5="14000.00000" pt_clust_6="48.34533"></scales>
<clustering>
<clus scale="   40.246">  2  3  1 -1</clus>
<clus scale="   48.345">  1  6  2 -1</clus>
<clus scale="   91.327">  2  4  1 -1</clus>
<clus scale="   40.246">  2  3  1 -1</clus>
</clustering>
</event>
<event>
 6    0  0.5775861E+002  0.1482415E+03  0.7546771E-02  0.1202651E+00
         21   -1    0    0  501  502  0.00000000000E+00  0.00000000000E+00  0.10927871529E+03  0.10927871529E+03  0.00000000000E+00 0.  1.
          2   -1    0    0  505    0 -0.00000000000E+00 -0.00000000000E+00 -0.25838540618E+04  0.25838540618E+04  0.00000000000E+00 0.  1.
         21    1    1    2  503  504 -0.23222718012E+02  0.14701626491E+03 -0.24314217013E+03  0.28508102651E+03  0.00000000000E+00 0.  1.
         21    1    1    2  504  502 -0.11418019872E+03 -0.45219548920E+02  0.39143785923E+02  0.12889593229E+03  0.00000000000E+00 0.  1.
         21    1    1    2  505  503  0.80558970864E+02 -0.46825220107E+01 -0.72189725634E+03  0.72639336624E+03  0.00000000000E+00 0.  1.
          2    1    1    2  501    0  0.56843945869E+02 -0.97114193975E+02 -0.15486797060E+04  0.15527624521E+04  0.00000000000E+00 0.  1.
<scales pt_clust_3="148.24154" pt_clust_4="121.04551" pt_clust_5="80.69494" pt_clust_6="14000.00000"></scales>
<clustering>
<clus scale="   80.695">  2  5  1 -1</clus>
<clus scale="  121.046">  1  4  2 -1</clus>
<clus scale="  148.242">  1  3  2 -1</clus>
<clus scale="  121.046">  1  3  2 -1</clus>
</clustering>
</event>
<event>
 6    0  0.5775861E+002  0.9508903E+02  0.7546771E-02  0.1290976E+00
         -1   -1    0    0    0  501 -0.00000000000E+00  0.00000000000E+00  0.54802013315E+03  0.54802013315E+03  0.00000000000E+00 0. -1.
         21   -1    0    0  505  502  0.00000000000E+00 -0.00000000000E+00 -0.16815557705E+03  0.16815557705E+03  0.00000000000E+00 0. -1.
         21    1    1    2  503  502 -0.49887408778E+02  0.39007653861E+01 -0.52873332098E+02  0.72798068466E+02  0.00000000000E+00 0. -1.
         21    1    1    2  504  503 -0.49282590318E+02  0.44421064870E+02 -0.20175807255E+01  0.66378274643E+02  0.00000000000E+00 0. -1.
         21    1    1    2  505  501  0.86163591766E+02 -0.10673805458E+03 -0.97401264983E+00  0.13717917314E+03  0.00000000000E+00 0. -1.
         -1    1    1    2    0  504  0.13006407331E+02  0.58416224326E+02  0.43572948157E+03  0.43982019395E+03  0.00000000000E+00 0. -1.
<scales pt_clust_3="50.03968" pt_clust_4="95.08903" pt_clust_5="14000.00000" pt_clust_6="59.71779"></scales>
<clustering>
<clus scale="   50.040">  2  3  1 -1</clus>
<clus scale="   59.718">  1  6  2 -1</clus>
<clus scale="   95.089">  1  4  2 -1</clus>
<clus scale="   50.040">  2  3  1 -1</clus>
</clustering>
</event>
<event>
 6    0  0.5775861E+002  0.1920863E+03  0.7546771E-02  0.1156593E+00
         21   -1    0    0  504  502  0.00000000000E+00  0.00000000000E+00  0.49190541975E+03  0.49190541975E+03  0.00000000000E+00 0.  1.
          4   -1    0    0  505    0 -0.00000000000E+00 -0.00000000000E+00 -0.45200226296E+03  0.45200226296E+03  0.00000000000E+00 0.  1.
         21    1    1    2  503  501 -0.16515904903E+03  0.12272360430E+03  0.37236025141E+03  0.42543007811E+03  0.00000000000E+00 0.  1.
         21    1    1    2  504  503  0.42178142649E+02  0.16104768981E+02  0.28097279191E+02  0.53177216919E+02  0.00000000000E+00 0.  1.
         21    1    1    2  505  502 -0.35653288022E+02  0.40200314679E+02 -0.50858917504E+02  0.73985483284E+02  0.00000000000E+00 0.  1.
          4    1    1    2  501    0  0.15863419440E+03 -0.17902868796E+03 -0.30969545631E+03  0.39131490440E+03  0.00000000000E+00 0.  1.
<scales pt_clust_3="14000.00000" pt_clust_4="45.14819" pt_clust_5="53.33548" pt_clust_6="192.08635"></scales>
<clustering>
<clus scale="   45.148">  1  4  2 -1</clus>
<clus scale="   53.335">  2  5  1 -1</clus>
<clus scale="  192.086">  2  6  1 -1</clus>
<clus scale="   45.148">  1  3  2 -1</clus>
</clustering>
</event>
<event>
 6    0  0.5775861E+002  0.1062726E+03  0.7546771E-02  0.1267632E+00
         -2   -1    0    0    0  501 -0.00000000000E+00  0.00000000000E+00  0.92683347029E+03  0.92683347029E+03  0.00000000000E+00 0. -1.
         21   -1    0    0  504  502  0.00000000000E+00 -0.00000000000E+00 -0.40673712686E+03  0.40673712686E+03  0.00000000000E+00 0. -1.
         21    1    1    2  503  502 -0.51178873535E+02 -0.42646770896E+01 -0.14566180124E+02  0.53382002308E+02  0.00000000000E+00 0. -1.
         21    1    1    2  504  505  0.37761785496E+02 -0.27142371426E+02 -0.35841394678E+03  0.36141834212E+03  0.00000000000E+00 0. -1.
         21    1    1    2  505  501  0.81554117865E+02  0.92671730029E+02  0.54836135998E+03  0.56208478436E+03  0.00000000000E+00 0. -1.
         -2    1    1    2    0  503 -0.68137029826E+02 -0.61264681513E+02  0.34471511036E+03  0.35668546836E+03  0.00000000000E+00 0. -1.
<scales pt_clust_3="33.75605" pt_clust_4="46.50442" pt_clust_5="14000.00000" pt_clust_6="106.27263"></scales>
<clustering>
<clus scale="   46.504">  2  4  1 -1</clus>
<clus scale="   33.756">  2  3  1 -1</clus>
<clus scale="  106.273">  1  6  2 -1</clus>
<clus scale="   46.504">  2  3  1 -1</clus>
</clustering>
</event>
<event>
 6    0  0.5775861E+002  0.1319331E+03  0.7546771E-02  0.1224615E+00
         21   -1    0    0  504  502  0.00000000000E+00  0.00000000000E+00  0.10932992964E+03  0.10932992964E+03  0.00000000000E+00 0. -1.
          1   -1    0    0  502    0 -0.00000000000E+00 -0.00000000000E+00 -0.15672924147E+04  0.15672924147E+04  0.00000000000E+00 0. -1.
         21    1    1    2  503  501 -0.69157495872E+02 -0.98972136613E+02 -0.52859242310E+02  0.13180418263E+03  0.00000000000E+00 0. -1.
         21    1    1    2  504  505  0.50050802647E+02  0.18968367001E+02 -0.18385954982E+01  0.53556159549E+02  0.00000000000E+00 0. -1.
         21    1    1    2  505  503  0.25626546543E+02 -0.54586173398E+02  0.18538758297E+02  0.63087683212E+02  0.00000000000E+00 0. -1.
          1    1    1    2  501    0 -0.65198533170E+01  0.13458994301E+03 -0.14218034055E+04  0.14281743189E+04  0.00000000000E+00 0. -1.
<scales pt_clust_3="14000.00000" pt_clust_4="53.52459" pt_clust_5="67.55027" pt_clust_6="131.93306"></scales>
<clustering>
<clus scale="   53.525">  1  4  2 -1</clus>
<clus scale="   67.550">  1  5  2 -1</clus>
<clus scale="  131.933">  2  6  1 -1</clus>
<clus scale="   53.525">  1  3  2 -1</clus>
</clustering>
</event>
<event>
 6    0  0.5775861E+002  0.1135163E+03  0.7546771E-02  0.1254193E+00
         21   -1    0    0  504  502  0.00000000000E+00  0.00000000000E+00  0.10154293254E+03  0.10154293254E+03  0.00000000000E+00 0.  1.
          2   -1    0    0  503    0 -0.00000000000E+00 -0.00000000000E+00 -0.13974067582E+04  0.13974067582E+04  0.00000000000E+00 0.  1.
         21    1    1    2  503  505  0.14765853432E+03  0.37303893374E+02 -0.36315632489E+03  0.39379834881E+03  0.00000000000E+00 0.  1.
         21    1    1    2  504  501 -0.74818565151E+02 -0.45789595569E+02 -0.14685656339E+03  0.17105950708E+03  0.00000000000E+00 0.  1.
         21    1    1    2  505  502 -0.31347541991E+02  0.41486262602E+01  0.70216732987E+02  0.77008240339E+02  0.00000000000E+00 0.  1.
          2    1    1    2  501    0 -0.41492427174E+02  0.43370759345E+01 -0.85606767039E+03  0.85708359454E+03  0.00000000000E+00 0.  1.
<scales pt_clust_3="113.51635" pt_clust_4="14000.00000" pt_clust_5="31.62087" pt_clust_6="42.29335"></scales>
<clustering>
<clus scale="   31.621">  1  5  2 -1</clus>
<clus scale="   42.293">  2  6  1 -1</clus>
<clus scale="  113.516">  2  3  1 -1</clus>
<clus scale="   31.621">  1  3  2 -1</clus>
</clustering>
</event>
<event>
 6    0  0.5775861E+002  0.9746732E+02  0.7546771E-02  0.1285714E+00
         21   -1    0    0  505  502  0.00000000000E+00  0.00000000000E+00  0.58305243064E+02  0.58305243064E+02  0.00000000000E+00 0.  1.
          2   -1    0    0  504    0 -0.00000000000E+00 -0.00000000000E+00 -0.13262008020E+04  0.13262008020E+04  0.00000000000E+00 0.  1.
         21    1    1    2  503  501 -0.68579027999E+02 -0.77900050489E+02 -0.45244445423E+03  0.46419552466E+03  0.00000000000E+00 0.  1.
         21    1    1    2  504  502  0.84897112318E+02  0.71313967332E+02 -0.34612704497E+03  0.36345169263E+03  0.00000000000E+00 0.  1.
         21    1    1    2  505  503 -0.42121430333E+02 -0.11416892010E+02  0.32271692460E+02  0.54277273796E+02  0.00000000000E+00 0.  1.
          2    1    1    2  501    0  0.25803346014E+02  0.18002975168E+02 -0.50159575219E+03  0.50258155397E+03  0.00000000000E+00 0.  1.
<scales pt_clust_3="14000.00000" pt_clust_4="97.46732" pt_clust_5="43.24612" pt_clust_6="31.46299"></scales>
<clustering>
<clus scale="   31.463">  2  6  1 -1</clus>
<clus scale="   43.246">  1  5  2 -1</clus>
<clus scale="   97.467">  1  4  2 -1</clus>
<clus scale="   43.246">  1  3  2 -1</clus>
</clustering>
</event>
<event>
 6    0  0.5775861E+002  0.8520254E+02  0.7546771E-02  0.1314904E+00
          1   -1    0    0  503    0 -0.00000000000E+00  0.00000000000E+00  0.27589388485E+03  0.27589388485E+03  0.00000000000E+00 0. -1.
         21   -1    0    0  501  502  0.00000000000E+00 -0.00000000000E+00 -0.26552901024E+04  0.26552901024E+04  0.00000000000E+00 0.  1.
         21    1    1    2  503  505  0.56975924954E+02  0.47746795483E+02  0.30567703119E+02  0.80376594710E+02  0.00000000000E+00 0. -1.
         21    1    1    2  504  502 -0.28201390328E+02  0.24058410321E+02 -0.23189743684E+04  0.23192706282E+04  0.00000000000E+00 0.  1.
         21    1    1    2  505  504 -0.43764726730E+01 -0.10442332876E+03 -0.30047232758E+03  0.31813048383E+03  0.00000000000E+00 0.  1.
          1    1    1    2  501    0 -0.24398061952E+02  0.32618122955E+02  0.20948277536E+03  0.21340628047E+03  0.00000000000E+00 0. -1.
<scales pt_clust_3="85.20254" pt_clust_4="37.06920" pt_clust_5="14000.00000" pt_clust_6="40.94440"></scales>
<clustering>
<clus scale="   37.069">  2  4  1 -1</clus>
<clus scale="   40.944">  1  6  2 -1</clus>
<clus scale="   85.203">  1  3  2 -1</clus>
<clus scale="   37.069">  2  3  1 -1</clus>
</clustering>
</event>
<event>
 6    0  0.5775861E+002  0.1090217E+03  0.7546771E-02  0.1262392E+00
         21   -1    0    0  505  502  0.00000000000E+00  0.00000000000E+00  0.22065808514E+03  0.22065808514E+03  0.00000000000E+00 0.  1.
         -1   -1    0    0    0  501 -0.00000000000E+00 -0.00000000000E+00 -0.34841257124E+03  0.34841257124E+03  0.00000000000E+00 0. -1.
         21    1    1    2  503  501 -0.63519480207E+02  0.11585137020E+03 -0.47838178339E+02  0.14051603342E+03  0.00000000000E+00 0.  1.
         21    1    1    2  504  502  0.20764983893E+02 -0.46446042415E+02  0.11628247088E+03  0.12692530263E+03  0.00000000000E+00 0.  1.
         21    1    1    2  505  503  0.32895101388E+02  0.35376497653E+02  0.26655603663E+02  0.55173412874E+02  0.00000000000E+00 0.  1.
         -1    1    1    2    0  504  0.98593949260E+01 -0.10478182544E+03 -0.22285438231E+03  0.24645590746E+03  0.00000000000E+00 0. -1.
<scales pt_clust_3="109.02170" pt_clust_4="48.55427" pt_clust_5="48.30719" pt_clust_6="14000.00000"></scales>
<clustering>
<clus scale="   48.307">  1  5  2 -1</clus>
<clus scale="   48.554">  1  4  2 -1</clus>
<clus scale="  109.022">  1  3  2 -1</clus>
<clus scale="   48.307">  1  3  2 -1</clus>
</clustering>
</event>
<event>
 6    0  0.5775861E+002  0.8627777E+02  0.7546771E-02  0.1312124E+00
         21   -1    0    0  504  502  0.00000000000E+00  0.00000000000E+00  0.13817437178E+03  0.13817437178E+03  0.00000000000E+00 0. -1.
         -2   -1    0    0    0  501 -0.00000000000E+00 -0.00000000000E+00 -0.12120912161E+04  0.12120912161E+04  0.00000000000E+00 0. -1.
         21    1    1    2  503  502 -0.85872511132E+02  0.54764720039E+02  0.73547385687E+02  0.12562834342E+03  0.00000000000E+00 0. -1.
         21    1    1    2  504  501  0.26289659232E+02  0.20616816449E+02  0.16164208141E+02  0.37114430183E+02  0.00000000000E+00 0.  1.
         21    1    1    2  505  503  0.17829165480E+01 -0.68731286637E+02 -0.94777088237E+02  0.11708913275E+03  0.00000000000E+00 0.  1.
         -2    1    1    2    0  505  0.57799935353E+02 -0.66502498506E+01 -0.10688513499E+04  0.10704336816E+04  0.00000000000E+00 0. -1.
<scales pt_clust_3="14000.00000" pt_clust_4="33.40957" pt_clust_5="86.27777" pt_clust_6="58.35004"></scales>
<clustering>
<clus scale="   33.410">  1  4  2 -1</clus>
<clus scale="   58.350">  2  6  1 -1</clus>
<clus scale="   86.278">  2  5  1 -1</clus>
<clus scale="   33.410">  1  3  2 -1</clus>
</clustering>
</event>
<event>
 6    0  0.5775861E+002  0.8711311E+02  0.7546771E-02  0.1309997E+00
         -3   -1    0    0    0  501 -0.00000000000E+00  0.00000000000E+00  0.10657347665E+04  0.10657347665E+04  0.00000000000E+00 0.  1.
         21   -1    0    0  504  502  0.00000000000E+00 -0.00000000000E+00 -0.16825595455E+03  0.16825595455E+03  0.00000000000E+00 0.  1.
         21    1    1    2  503  505  0.18448275084E+02 -0.96902368511E+02 -0.23160751226E+02  0.10132535849E+03  0.00000000000E+00 0.  1.
         21    1    1    2  504  501  0.16814066443E+02  0.82271914258E+02  0.10832298862E+03  0.13705929581E+03  0.00000000000E+00 0.  1.
         21    1    1    2  505  502 -0.34154727015E+02  0.75031266801E+02 -0.71863562625E+02  0.10936456468E+03  0.00000000000E+00 0.  1.
         -3    1    1    2    0  503 -0.11076145116E+01 -0.60400812548E+02  0.88418013715E+03  0.88624150202E+03  0.00000000000E+00 0.  1.
<scales pt_clust_3="14000.00000" pt_clust_4="44.23967" pt_clust_5="87.11311" pt_clust_6="60.41097"></scales>
<clustering>
<clus scale="   60.411">  1  6  2 -1</clus>
<clus scale="   44.240">  1  4  2 -1</clus>
<clus scale="   87.113">  2  5  1 -1</clus>
<clus scale="   87.113">  2  3  1 -1</clus>
</clustering>
</event>
<event>
 6    0  0.5775861E+002  0.8558998E+02  0.7546771E-02  0.1313897E+00
         21   -1    0    0  505  502  0.00000000000E+00  0.00000000000E+00  0.58929405887E+03  0.58929405887E+03  0.00000000000E+00 0. -1.
          2   -1    0    0  502    0 -0.00000000000E+00 -0.00000000000E+00 -0.26978359156E+04  0.26978359156E+04  0.00000000000E+00 0. -1.
         21    1    1    2  503  501 -0.81236965720E+00  0.50593365906E+02 -0.18324521585E+03  0.19010301878E+03  0.00000000000E+00 0. -1.
         21    1    1    2  504  503  0.50983298031E+02 -0.85972252492E+02  0.33486817172E+02  0.10541295841E+03  0.00000000000E+00 0. -1.
         21    1    1    2  505  504 -0.87704722085E+02  0.77879503198E+01  0.51244099494E+03  0.51995052048E+03  0.00000000000E+00 0. -1.
          2    1    1    2  501    0  0.37533793711E+02  0.27590936266E+02 -0.24712244530E+04  0.24716634768E+04  0.00000000000E+00 0. -1.
<scales pt_clust_3="79.29391" pt_clust_4="85.58998" pt_clust_5="14000.00000" pt_clust_6="46.58375"></scales>
<clustering>
<clus scale="   46.584">  2  6  1 -1</clus>
<clus scale="   79.294">  2  3  1 -1</clus>
<clus scale="   85.590">  2  4  1 -1</clus>
<clus scale="   85.590">  1  3  2 -1</clus>
</clustering>
</event>
<event>
 6    0  0.5775861E+002  0.1270002E+03  0.7546771E-02  0.1231976E+00
         21   -1    0    0  504  502  0.00000000000E+00  0.00000000000E+00  0.23858185385E+02  0.23858185385E+02  0.00000000000E+00 0. -1.
          2   -1    0    0  505    0 -0.00000000000E+00 -0.00000000000E+00 -0.50447270695E+04  0.50447270695E+04  0.00000000000E+00 0.  1.
         21    1    1    2  503  501 -0.77809786691E+02 -0.13078044909E+03 -0.21170736938E+04  0.21225359629E+04  0.00000000000E+00 0.  1.
         21    1    1    2  504  503 -0.60080322525E+02  0.97384447182E+02 -0.28395216402E+03  0.30614082897E+03  0.00000000000E+00 0. -1.
         21    1    1    2  505  502 -0.28074580260E+01  0.32622011884E+02 -0.24852168802E+02  0.41106055200E+02  0.00000000000E+00 0.  1.
          2    1    1    2  501    0  0.14069756724E+03  0.77399001943E+00 -0.25949908575E+04  0.25988024079E+04  0.00000000000E+00 0.  1.
<scales pt_clust_3="127.00016" pt_clust_4="135.44532" pt_clust_5="32.74259" pt_clust_6="14000.00000"></scales>
<clustering>
<clus scale="   32.743">  1  5  2 -1</clus>
<clus scale="  135.445">  1  4  2 -1</clus>
<clus scale="  127.000">  1  3  2 -1</clus>
<clus scale="   32.743">  1  3  2 -1</clus>
</clustering>
</event>
<event>
 6    0  0.5775861E+002  0.1820218E+03  0.7546771E-02  0.1165861E+00
          2   -1    0    0  505    0 -0.00000000000E+00  0.00000000000E+00  0.10437647828E+04  0.10437647828E+04  0.00000000000E+00 0.  1.
         21   -1    0    0  503  502  0.00000000000E+00 -0.00000000000E+00 -0.11668608916E+03  0.11668608916E+03  0.00000000000E+00 0.  1.
         21    1    1    2  503  501 -0.13601650001E+03 -0.50211728120E+02  0.10284886342E+03  0.17776274813E+03  0.00000000000E+00 0. -1.
         21    1    1    2  504  502  0.78416459896E+02  0.53680258764E+02  0.10038838983E+02  0.95558828225E+02  0.00000000000E+00 0.  1.
         21    1    1    2  505  504  0.98398438137E+02 -0.22042589921E+02  0.35132425161E+02  0.10678209445E+03  0.00000000000E+00 0.  1.
          2    1    1    2  501    0 -0.40798398022E+02  0.18574059277E+02  0.77905856606E+03  0.78034720113E+03  0.00000000000E+00 0.  1.
<scales pt_clust_3="162.77281" pt_clust_4="80.72823" pt_clust_5="80.72823" pt_clust_6="44.82750"></scales>
<clustering>
<clus scale="   44.828">  1  6  2 -1</clus>
<clus scale="   80.728">  4  5 -1 -1</clus>
<clus scale="  162.773">  1  3  2 -1</clus>
<clus scale="  182.022">  2  3  1 -1</clus>
</clustering>
</event>
<event>
 6    0  0.5775861E+002  0.1240751E+03  0.7546771E-02  0.1236522E+00
          1   -1    0    0  503    0 -0.00000000000E+00  0.00000000000E+00  0.40137151876E+04  0.40137151876E+04  0.00000000000E+00 0.  1.
         21   -1    0    0  504  502  0.00000000000E+00 -0.00000000000E+00 -0.49219691986E+03  0.49219691986E+03  0.00000000000E+00 0. -1.
         21    1    1    2  503  505 -0.16197520155E+02  0.43478935844E+02 -0.24997985485E+02  0.52703669698E+02  0.00000000000E+00 0. -1.
         21    1    1    2  504  501 -0.49225303874E+02  0.56315582770E+02 -0.44257468779E+03  0.44885067637E+03  0.00000000000E+00 0. -1.
         21    1    1    2  505  502 -0.26020069641E+02 -0.15772060828E+02  0.28090391934E+02  0.41411013582E+02  0.00000000000E+00 0. -1.
          1    1    1    2  501    0  0.91442893669E+02 -0.84022457787E+02  0.39610005490E+04  0.39629467478E+04  0.00000000000E+00 0.  1.
<scales pt_clust_3="46.00445" pt_clust_4="124.07508" pt_clust_5="30.42699" pt_clust_6="14000.00000"></scales>
<clustering>
<clus scale="   30.427">  2  5  1 -1</clus>
<clus scale="   46.004">  2  3  1 -1</clus>
<clus scale="  124.075">  2  4  1 -1</clus>
<clus scale="   30.427">  2  3  1 -1</clus>
</clustering>
</event>
<event>
 6    0  0.5775861E+002  0.1235590E+03  0.7546771E-02  0.1237339E+00
          2   -1    0    0  504    0 -0.00000000000E+00  0.00000000000E+00  0.10728719332E+04  0.10728719332E+04  0.00000000000E+00 0.  1.
         21   -1    0    0  503  502  0.00000000000E+00 -0.00000000000E+00 -0.98892177817E+03  0.98892177817E+03  0.00000000000E+00 0.  1.
         21    1    1    2  503  505  0.51869425535E+02  0.54171515294E+02 -0.81449262478E+03  0.81793840000E+03  0.00000000000E+00 0.  1.
         21    1    1    2  504  502  0.23840321582E+02  0.76591204162E+02  0.20937832020E+03  0.22421831874E+03  0.00000000000E+00 0.  1.
         21    1    1    2  505  501 -0.14675487877E+03 -0.13885723888E+03 -0.10132471736E+03  0.22601996722E+03  0.00000000000E+00 0.  1.
          2    1    1    2  501    0  0.71045131658E+02  0.80945194192E+01  0.79038917698E+03  0.79361702544E+03  0.00000000000E+00 0.  1.
<scales pt_clust_3="75.33772" pt_clust_4="14000.00000" pt_clust_5="123.55904" pt_clust_6="71.50477"></scales>
<clustering>
<clus scale="   71.505">  1  6  2 -1</clus>
<clus scale="   75.338">  2  3  1 -1</clus>
<clus scale="  123.559">  2  5  1 -1</clus>
<clus scale="   75.338">  2  3  1 -1</clus>
</clustering>
</event>
<event>
 6    0  0.5775861E+002  0.9847845E+02  0.7546771E-02  0.1283528E+00
         21   -1    0    0  505  502  0.00000000000E+00  0.00000000000E+00  0.12785269347E+03  0.12785269347E+03  0.00000000000E+00 0. -1.
          4   -1    0    0  504    0 -0.00000000000E+00 -0.00000000000E+00 -0.78160370084E+03  0.78160370084E+03  0.00000000000E+00 0. -1.
         21    1    1    2  503  501  0.82501456828E+02  0.39387377472E+02 -0.42128967766E+02  0.10066134217E+03  0.00000000000E+00 0. -1.
         21    1    1    2  504  502 -0.49426494697E+02 -0.10640181931E+03 -0.91803493110E+02  0.14897048996E+03  0.00000000000E+00 0. -1.
         21    1    1    2  505  503 -0.91764184744E+01  0.48389345642E+02  0.60895937359E+02  0.78320180123E+02  0.00000000000E+00 0. -1.
          4    1    1    2  501    0 -0.23898543656E+02  0.18625096199E+02 -0.58071448385E+03  0.58150438206E+03  0.00000000000E+00 0. -1.
<scales pt_clust_3="98.47845" pt_clust_4="14000.00000" pt_clust_5="50.24791" pt_clust_6="30.29909"></scales>
<clustering>
<clus scale="   30.299">  2  6  1 -1</clus>
<clus scale="   50.248">  1  5  2 -1</clus>
<clus scale="   98.478">  2  3  1 -1</clus>
<clus scale="   50.248">  1  3  2 -1</clus>
</clustering>
</event>
<event>
 6    0  0.5775861E+002  0.1195465E+03  0.7546771E-02  0.1243847E+00
          1   -1    0    0  505    0 -0.00000000000E+00  0.00000000000E+00  0.15840145009E+04  0.15840145009E+04  0.00000000000E+00 0. -1.
         21   -1    0    0  504  502  0.00000000000E+00 -0.00000000000E+00 -0.11914749504E+03  0.11914749504E+03  0.00000000000E+00 0. -1.
         21    1    1    2  503  502 -0.13342984568E+03  0.92597355752E+02  0.13721092123E+03  0.21261380698E+03  0.00000000000E+00 0. -1.
         21    1    1    2  504  501  0.32133253123E+02  0.94426693424E+01 -0.64305914304E+02  0.72504900352E+02  0.00000000000E+00 0. -1.
         21    1    1    2  505  503  0.49440702436E+02 -0.70194977537E+02  0.13749094308E+03  0.16209712322E+03  0.00000000000E+00 0. -1.
          1    1    1    2  501    0  0.51855890124E+02 -0.31845047557E+02  0.12544710559E+04  0.12559461654E+04  0.00000000000E+00 0. -1.
<scales pt_clust_3="119.54651" pt_clust_4="33.49194" pt_clust_5="14000.00000" pt_clust_6="61.18069"></scales>
<clustering>
<clus scale="   33.492">  2  4  1 -1</clus>
<clus scale="   61.181">  1  6  2 -1</clus>
<clus scale="  119.547">  2  3  1 -1</clus>
<clus scale="   33.492">  2  3  1 -1</clus>
</clustering>
</event>
<event>
 6    0  0.5775861E+002  0.7115816E+02  0.7546771E-02  0.1356198E+00
         21   -1    0    0  503  502  0.00000000000E+00  0.00000000000E+00  0.39836722463E+03  0.39836722463E+03  0.00000000000E+00 0.  1.
          2   -1    0    0  505    0 -0.00000000000E+00 -0.00000000000E+00 -0.17967885233E+03  0.17967885233E+03  0.00000000000E+00 0.  1.
         21    1    1    2  503  504  0.18933220932E+02  0.30731841235E+02  0.25414933987E+03  0.25669982446E+03  0.00000000000E+00 0.  1.
         21    1    1    2  504  501 -0.29947344933E+02 -0.82507863534E+02  0.63025979753E+02  0.10805861899E+03  0.00000000000E+00 0.  1.
         21    1    1    2  505  502  0.74683077439E+02  0.49685441997E+02  0.70903235737E+01  0.89980430598E+02  0.00000000000E+00 0.  1.
          2    1    1    2  501    0 -0.63668953438E+02  0.20905803025E+01 -0.10557727090E+03  0.12330720291E+03  0.00000000000E+00 0.  1.
<scales pt_clust_3="36.09589" pt_clust_4="14000.00000" pt_clust_5="71.15816" pt_clust_6="62.62242"></scales>
<clustering>
<clus scale="   36.096">  1  3  2 -1</clus>
<clus scale="   62.622">  2  6  1 -1</clus>
<clus scale="   71.158">  2  5  1 -1</clus>
<clus scale="   36.096">  1  3  2 -1</clus>
</clustering>
</event>
<event>
 6    0  0.5775861E+002  0.1019308E+03  0.7546771E-02  0.1276287E+00
          2   -1    0    0  505    0 -0.00000000000E+00  0.00000000000E+00  0.32240820175E+04  0.32240820175E+04  0.00000000000E+00 0.  1.
         21   -1    0    0  503  502  0.00000000000E+00 -0.00000000000E+00 -0.26643096863E+03  0.26643096863E+03  0.00000000000E+00 0.  1.
         21    1    1    2  503  501  0.11976480861E+03  0.38022608944E+02  0.12896257008E+03  0.18005741488E+03  0.00000000000E+00 0. -1.
         21    1    1    2  504  502  0.29849442076E+02  0.64934218671E+01 -0.22406089221E+03  0.22613367095E+03  0.00000000000E+00 0.  1.
         21    1    1    2  505  504 -0.51155646833E+02 -0.21316033628E+02  0.36460511945E+02  0.66337338082E+02  0.00000000000E+00 0.  1.
          2    1    1    2  501    0 -0.98458603849E+02 -0.23199997183E+02  0.30162888591E+04  0.30179845622E+04  0.00000000000E+00 0.  1.
<scales pt_clust_3="14000.00000" pt_clust_4="30.54756" pt_clust_5="44.60256" pt_clust_6="101.93081"></scales>
<clustering>
<clus scale="   30.548">  2  4  1 -1</clus>
<clus scale="   44.603">  2  5  1 -1</clus>
<clus scale="  101.931">  1  6  2 -1</clus>
<clus scale="   30.548">  2  3  1 -1</clus>
</clustering>
</event>
<event>
 6    0  0.5775861E+002  0.3009592E+03  0.7546771E-02  0.1084762E+00
         21   -1    0    0  503  502  0.00000000000E+00  0.00000000000E+00  0.45737175866E+03  0.45737175866E+03  0.00000000000E+00 0. -1.
         -1   -1    0    0    0  501 -0.00000000000E+00 -0.00000000000E+00 -0.82154670904E+03  0.82154670904E+03  0.00000000000E+00 0. -1.
         21    1    1    2  503  504 -0.70822150629E+02 -0.88074216593E+02  0.16714000720E+03  0.20176378926E+03  0.00000000000E+00 0.  1.
         21    1    1    2  504  501 -0.18055438540E+03 -0.45773744641E+02  0.20892514709E+03  0.27990148065E+03  0.00000000000E+00 0. -1.
         21    1    1    2  505  502  0.17112102065E+03  0.11538236148E+03 -0.44129189311E+03  0.48716940378E+03  0.00000000000E+00 0. -1.
         -1    1    1    2    0  505  0.80255515381E+02  0.18465599755E+02 -0.29894821155E+03  0.31008379402E+03  0.00000000000E+00 0. -1.
<scales pt_clust_3="75.80582" pt_clust_4="75.80582" pt_clust_5="51.13026" pt_clust_6="296.06967"></scales>
<clustering>
<clus scale="   51.130">  5  6 -1 -1</clus>
<clus scale="   75.806">  3  4 -1 -1</clus>
<clus scale="  296.070">  2  5  1 -1</clus>
<clus scale="  300.959">  1  3  2 -1</clus>
</clustering>
</event>
<event>
 6    0  0.5775861E+002  0.7425889E+02  0.7546771E-02  0.1346181E+00
          2   -1    0    0  502    0 -0.00000000000E+00  0.00000000000E+00  0.16096599895E+04  0.16096599895E+04  0.00000000000E+00 0. -1.
         21   -1    0    0  503  502  0.00000000000E+00 -0.00000000000E+00 -0.76369965781E+02  0.76369965781E+02  0.00000000000E+00 0.  1.
         21    1    1    2  503  504 -0.40685847134E+02 -0.31785811662E+02 -0.41944743040E+02  0.66520954960E+02  0.00000000000E+00 0.  1.
         21    1    1    2  504  505  0.11887363625E+03  0.75756705305E+01  0.15443627863E+03  0.19503562838E+03  0.00000000000E+00 0.  1.
         21    1    1    2  505  501 -0.37459560100E+02  0.22721675017E+02  0.32774735739E+03  0.33066270342E+03  0.00000000000E+00 0.  1.
          2    1    1    2  501    0 -0.40728229013E+02  0.14884661151E+01  0.10930511308E+04  0.10938106686E+04  0.00000000000E+00 0. -1.
<scales pt_clust_3="52.37607" pt_clust_4="14000.00000" pt_clust_5="74.25889" pt_clust_6="40.75542"></scales>
<clustering>
<clus scale="   40.755">  1  6  2 -1</clus>
<clus scale="   52.376">  2  3  1 -1</clus>
<clus scale="   74.259">  1  5  2 -1</clus>
<clus scale="   52.376">  2  3  1 -1</clus>
</clustering>
</event>
<event>
 6    0  0.5775861E+002  0.1513374E+03  0.7546771E-02  0.1198839E+00
         21   -1    0    0  501  502  0.00000000000E+00  0.00000000000E+00  0.18781328052E+04  0.18781328052E+04  0.00000000000E+00 0.  1.
          3   -1    0    0  503    0 -0.00000000000E+00 -0.00000000000E+00 -0.81792784423E+02  0.81792784423E+02  0.00000000000E+00 0.  1.
         21    1    1    2  503  504 -0.93991768365E+02  0.71803863053E+02  0.55863625354E+02  0.13080899016E+03  0.00000000000E+00 0.  1.
         21    1    1    2  504  505  0.13668213197E+03 -0.50475956302E+02  0.96062463810E+03  0.97161181687E+03  0.00000000000E+00 0.  1.
         21    1    1    2  505  502 -0.19387308495E+01 -0.35414985810E+02  0.80619610281E+03  0.80697592039E+03  0.00000000000E+00 0.  1.
          3    1    1    2  501    0 -0.40751632756E+02  0.14087079059E+02 -0.26344345534E+02  0.50528862152E+02  0.00000000000E+00 0.  1.
<scales pt_clust_3="14000.00000" pt_clust_4="151.33738" pt_clust_5="35.46801" pt_clust_6="43.00959"></scales>
<clustering>
<clus scale="   35.468">  1  5  2 -1</clus>
<clus scale="   43.010">  2  6  1 -1</clus>
<clus scale="  151.337">  1  4  2 -1</clus>
<clus scale="   35.468">  1  3  2 -1</clus>
</clustering>
</event>
<event>
 6    0  0.5775861E+002  0.7837986E+02  0.7546771E-02  0.1333713E+00
         21   -1    0    0  505  502  0.00000000000E+00  0.00000000000E+00  0.17864250379E+03  0.17864250379E+03  0.00000000000E+00 0.  1.
          2   -1    0    0  504    0 -0.00000000000E+00 -0.00000000000E+00 -0.84657781492E+03  0.84657781492E+03  0.00000000000E+00 0.  1.
         21    1    1    2  503  502  0.10734824411E+02 -0.40489453390E+02  0.11831776769E+03  0.12551384961E+03  0.00000000000E+00 0.  1.
         21    1    1    2  504  503 -0.26288949359E+02 -0.16801262888E+02 -0.13517864687E+03  0.13873232451E+03  0.00000000000E+00 0.  1.
         21    1    1    2  505  501 -0.24767023280E+02  0.11553150512E+03 -0.12875284111E+02  0.11885582467E+03  0.00000000000E+00 0.  1.
          2    1    1    2  501    0  0.40321148229E+02 -0.58240788839E+02 -0.63819914785E+03  0.64211831993E+03  0.00000000000E+00 0.  1.
<scales pt_clust_3="41.93679" pt_clust_4="31.19922" pt_clust_5="78.37986" pt_clust_6="14000.00000"></scales>
<clustering>
<clus scale="   31.199">  2  4  1 -1</clus>
<clus scale="   41.937">  1  3  2 -1</clus>
<clus scale="   78.380">  1  5  2 -1</clus>
<clus scale="   41.937">  1  3  2 -1</clus>
</clustering>
</event>
<event>
 6    0  0.5775861E+002  0.1816509E+03  0.7546771E-02  0.1166215E+00
         21   -1    0    0  504  502  0.00000000000E+00  0.00000000000E+00  0.13021215315E+04  0.13021215315E+04  0.00000000000E+00 0. -1.
          1   -1    0    0  505    0 -0.00000000000E+00 -0.00000000000E+00 -0.91282866561E+02  0.91282866561E+02  0.00000000000E+00 0.  1.
         21    1    1    2  503  502  0.48442015345E+02 -0.15055401067E+03  0.46277109662E+03  0.48905033160E+03  0.00000000000E+00 0. -1.
         21    1    1    2  504  501 -0.84850071567E+02  0.18789211977E+03  0.78042584892E+03  0.80719730487E+03  0.00000000000E+00 0. -1.
         21    1    1    2  505  503  0.34441659160E+02  0.67388985609E+01  0.94804838616E+01  0.36352719482E+02  0.00000000000E+00 0.  1.
          1    1    1    2  501    0  0.19663970616E+01 -0.44077007659E+02 -0.41838764479E+02  0.60804042091E+02  0.00000000000E+00 0.  1.
<scales pt_clust_3="14000.00000" pt_clust_4="181.65093" pt_clust_5="35.09474" pt_clust_6="46.68629"></scales>
<clustering>
<clus scale="   35.095">  2  5  1 -1</clus>
<clus scale="   46.686">  2  6  1 -1</clus>
<clus scale="  181.651">  2  4  1 -1</clus>
<clus scale="  181.651">  1  3  2 -1</clus>
</clustering>
</event>
<event>
 6    0  0.5775861E+002  0.1119592E+03  0.7546771E-02  0.1256984E+00
         21   -1    0    0  503  502  0.00000000000E+00  0.00000000000E+00  0.25208535856E+03  0.25208535856E+03  0.00000000000E+00 0. -1.
          2   -1    0    0  505    0 -0.00000000000E+00 -0.00000000000E+00 -0.19427543136E+04  0.19427543136E+04  0.00000000000E+00 0.  1.
         21    1    1    2  503  504  0.26267883214E+02  0.45167906697E+02  0.21468536126E+03  0.22095236098E+03  0.00000000000E+00 0. -1.
         21    1    1    2  504  501  0.92570927404E+00  0.89994048415E+02 -0.25717072408E+03  0.27246388203E+03  0.00000000000E+00 0. -1.
         21    1    1    2  505  502 -0.55021250167E+02 -0.14759512981E+03 -0.20797912106E+03  0.26089648351E+03  0.00000000000E+00 0. -1.
          2    1    1    2  501    0  0.27827657679E+02  0.12433174700E+02 -0.14402044712E+04  0.14405269457E+04  0.00000000000E+00 0.  1.
<scales pt_clust_3="52.40517" pt_clust_4="14000.00000" pt_clust_5="111.95921" pt_clust_6="30.47888"></scales>
<clustering>
<clus scale="   30.479">  2  6  1 -1</clus>
<clus scale="   52.405">  1  3  2 -1</clus>
<clus scale="  111.959">  1  5  2 -1</clus>
<clus scale="   52.405">  1  3  2 -1</clus>
</clustering>
</event>
<event>
 6    0  0.5775861E+002  0.8398321E+02  0.7546771E-02  0.1318113E+00
          1   -1    0    0  503    0 -0.00000000000E+00  0.00000000000E+00  0.19152525064E+03  0.19152525064E+03  0.00000000000E+00 0.  1.
         21   -1    0    0  505  502  0.00000000000E+00 -0.00000000000E+00 -0.68370715937E+03  0.68370715937E+03  0.00000000000E+00 0.  1.
         21    1    1    2  503  502 -0.59380038258E+02 -0.55570520201E+02 -0.34122032238E+03  0.35077824913E+03  0.00000000000E+00 0.  1.
         21    1    1    2  504  501 -0.23717487490E+02  0.76431479297E+02  0.17596862910E+02  0.81938634505E+02  0.00000000000E+00 0.  1.
         21    1    1    2  505  504  0.29842782583E+02 -0.28468662039E+02 -0.29878344335E+03  0.30161664810E+03  0.00000000000E+00 0.  1.
          1    1    1    2  501    0  0.53254743165E+02  0.76077029431E+01  0.13022499409E+03  0.14089887828E+03  0.00000000000E+00 0.  1.
<scales pt_clust_3="14000.00000" pt_clust_4="83.98321" pt_clust_5="41.24386" pt_clust_6="54.15237"></scales>
<clustering>
<clus scale="   41.244">  2  5  1 -1</clus>
<clus scale="   54.152">  1  6  2 -1</clus>
<clus scale="   83.983">  1  4  2 -1</clus>
<clus scale="   41.244">  2  3  1 -1</clus>
</clustering>
</event>
<event>
 6    0  0.5775861E+002  0.1328108E+03  0.7546771E-02  0.1223344E+00
          1   -1    0    0  503    0 -0.00000000000E+00  0.00000000000E+00  0.12030537434E+04  0.12030537434E+04  0.00000000000E+00 0. -1.
         21   -1    0    0  504  502  0.00000000000E+00 -0.00000000000E+00 -0.67645976775E+03  0.67645976775E+03  0.00000000000E+00 0.  1.
         21    1    1    2  503  505 -0.35229727935E+02  0.10399934582E+02  0.12612448964E+02  0.38837690953E+02  0.00000000000E+00 0. -1.
         21    1    1    2  504  501 -0.52751996399E+02  0.26861645060E+02 -0.64459257590E+03  0.64730511353E+03  0.00000000000E+00 0.  1.
         21    1    1    2  505  502  0.15642767755E+03  0.58414025390E+02  0.73799292855E+03  0.75664746035E+03  0.00000000000E+00 0. -1.
          1    1    1    2  501    0 -0.68445953215E+02 -0.95675605032E+02  0.42058117406E+03  0.43672324633E+03  0.00000000000E+00 0. -1.
<scales pt_clust_3="36.73272" pt_clust_4="59.23891" pt_clust_5="14000.00000" pt_clust_6="132.81077"></scales>
<clustering>
<clus scale="   36.733">  1  3  2 -1</clus>
<clus scale="   59.239">  2  4  1 -1</clus>
<clus scale="  132.811">  2  6  1 -1</clus>
<clus scale="   59.239">  2  3  1 -1</clus>
</clustering>
</event>
<event>
 6    0  0.5775861E+002  0.9008222E+02  0.7546771E-02  0.1302653E+00
          1   -1    0    0  505    0 -0.00000000000E+00  0.00000000000E+00  0.20833543546E+03  0.20833543546E+03  0.00000000000E+00 0. -1.
         21   -1    0    0  503  502  0.00000000000E+00 -0.00000000000E+00 -0.23699363172E+03  0.23699363172E+03  0.00000000000E+00 0.  1.
         21    1    1    2  503  504  0.57245080419E+01  0.51742910042E+02 -0.10847758146E+03  0.12032241857E+03  0.00000000000E+00 0.  1.
         21    1    1    2  504  501 -0.60500075299E+02  0.44177760051E+02 -0.84652539888E+02  0.11303975453E+03  0.00000000000E+00 0.  1.
         21    1    1    2  505  502  0.58287857571E+02 -0.44010327564E+02  0.57293774255E+02  0.92827581251E+02  0.00000000000E+00 0. -1.
          1    1    1    2  501    0 -0.35122903145E+01 -0.51910342528E+02  0.10717815084E+03  0.11913931283E+03  0.00000000000E+00 0. -1.
<scales pt_clust_3="48.82421" pt_clust_4="14000.00000" pt_clust_5="90.08222" pt_clust_6="52.02903"></scales>
<clustering>
<clus scale="   52.029">  1  6  2 -1</clus>
<clus scale="   48.824">  2  3  1 -1</clus>
<clus scale="   90.082">  1  5  2 -1</clus>
<clus scale="   48.824">  2  3  1 -1</clus>
</clustering>
</event>
<event>
 6    0  0.5775861E+002  0.1938267E+03  0.7546771E-02  0.1155055E+00
         21   -1    0    0  504  502  0.00000000000E+00  0.00000000000E+00  0.75345969621E+02  0.75345969621E+02  0.00000000000E+00 0.  1.
          2   -1    0    0  503    0 -0.00000000000E+00 -0.00000000000E+00 -0.30980075770E+04  0.30980075770E+04  0.00000000000E+00 0. -1.
         21    1    1    2  503  505 -0.18226434060E+03 -0.56808290428E+02 -0.74737953439E+03  0.77137775450E+03  0.00000000000E+00 0. -1.
         21    1    1    2  504  501  0.28613728106E+01  0.37000508312E+02 -0.62782077505E+02  0.72930201739E+02  0.00000000000E+00 0.  1.
         21    1    1    2  505  502  0.19507598171E+03 -0.41951246858E+02 -0.11445143568E+03  0.23002973043E+03  0.00000000000E+00 0.  1.
          2    1    1    2  501    0 -0.15673013922E+02  0.61759028974E+02 -0.20980485598E+04  0.20990158599E+04  0.00000000000E+00 0. -1.
<scales pt_clust_3="193.82667" pt_clust_4="37.11098" pt_clust_5="14000.00000" pt_clust_6="63.95877"></scales>
<clustering>
<clus scale="   37.111">  1  4  2 -1</clus>
<clus scale="   63.959">  2  6  1 -1</clus>
<clus scale="  193.827">  2  3  1 -1</clus>
<clus scale="   37.111">  1  3  2 -1</clus>
</clustering>
</event>
<event>
 6    0  0.5775861E+002  0.9645959E+02  0.7546771E-02  0.1287922E+00
         21   -1    0    0  503  502  0.00000000000E+00  0.00000000000E+00  0.22214702371E+03  0.22214702371E+03  0.00000000000E+00 0.  1.
          1   -1    0    0  505    0 -0.00000000000E+00 -0.00000000000E+00 -0.31695840054E+04  0.31695840054E+04  0.00000000000E+00 0.  1.
         21    1    1    2  503  501 -0.32735476643E+02 -0.69625098866E+02 -0.36429739807E+03  0.37233299621E+03  0.00000000000E+00 0.  1.
         21    1    1    2  504  502  0.78150021133E+01  0.40407414650E+02  0.14519288471E+03  0.15091324391E+03  0.00000000000E+00 0.  1.
         21    1    1    2  505  504  0.89643971577E+02 -0.63804708364E+01  0.40565441378E+02  0.98601760037E+02  0.00000000000E+00 0.  1.
          1    1    1    2  501    0 -0.64723497047E+02  0.35598155052E+02 -0.27688979097E+04  0.27698830289E+04  0.00000000000E+00 0.  1.
<scales pt_clust_3="96.45959" pt_clust_4="41.15621" pt_clust_5="14000.00000" pt_clust_6="73.95157"></scales>
<clustering>
<clus scale="   41.156">  1  4  2 -1</clus>
<clus scale="   73.952">  2  6  1 -1</clus>
<clus scale="   96.460">  2  3  1 -1</clus>
<clus scale="   41.156">  1  3  2 -1</clus>
</clustering>
</event>
<event>
 6    0  0.5775861E+002  0.9569969E+02  0.7546771E-02  0.1289608E+00
         21   -1    0    0  504  502  0.00000000000E+00  0.00000000000E+00  0.89327355103E+03  0.89327355103E+03  0.00000000000E+00 0.  1.
          1   -1    0    0  505    0 -0.00000000000E+00 -0.00000000000E+00 -0.14418273693E+04  0.14418273693E+04  0.00000000000E+00 0.  1.
         21    1    1    2  503  501 -0.44504631689E+02  0.61460617170E+02 -0.42603836379E+02  0.87023885106E+02  0.00000000000E+00 0.  1.
         21    1    1    2  504  503 -0.80042305313E+01 -0.96966216833E+02  0.85705343684E+03  0.86255846672E+03  0.00000000000E+00 0.  1.
         21    1    1    2  505  502  0.63899280524E+02  0.32092383854E+01 -0.81760696403E+02  0.10381824858E+03  0.00000000000E+00 0.  1.
          1    1    1    2  501    0 -0.11390418303E+02  0.32296361278E+02 -0.12812427223E+04  0.12817003199E+04  0.00000000000E+00 0.  1.
<scales pt_clust_3="95.69969" pt_clust_4="14000.00000" pt_clust_5="61.34927" pt_clust_6="34.24612"></scales>
<clustering>
<clus scale="   34.246">  2  6  1 -1</clus>
<clus scale="   61.349">  2  5  1 -1</clus>
<clus scale="   95.700">  2  3  1 -1</clus>
<clus scale="   95.700">  1  3  2 -1</clus>
</clustering>
</event>
<event>
 6    0  0.5775861E+002  0.1042543E+03  0.7546771E-02  0.1271596E+00
         21   -1    0    0  505  502  0.00000000000E+00  0.00000000000E+00  0.37821658863E+03  0.37821658863E+03  0.00000000000E+00 0. -1.
         -1   -1    0    0    0  501 -0.00000000000E+00 -0.00000000000E+00 -0.98093662277E+03  0.98093662277E+03  0.00000000000E+00 0.  1.
         21    1    1    2  503  502  0.70742752868E+02  0.84546273531E+02 -0.47976594614E+03  0.49226819167E+03  0.00000000000E+00 0. -1.
         21    1    1    2  504  501 -0.93165434568E+02 -0.87821261340E+02  0.20266039895E+03  0.23971568460E+03  0.00000000000E+00 0. -1.
         21    1    1    2  505  504  0.49310588872E+01  0.33622467640E+02  0.14820798656E+03  0.15205391462E+03  0.00000000000E+00 0. -1.
         -1    1    1    2    0  503  0.17491622813E+02 -0.30347479830E+02 -0.47382247351E+03  0.47511542051E+03  0.00000000000E+00 0.  1.
<scales pt_clust_3="104.25433" pt_clust_4="14000.00000" pt_clust_5="33.98214" pt_clust_6="34.95197"></scales>
<clustering>
<clus scale="   33.982">  1  5  2 -1</clus>
<clus scale="   34.952">  2  6  1 -1</clus>
<clus scale="  104.254">  2  3  1 -1</clus>
<clus scale="   33.982">  1  3  2 -1</clus>
</clustering>
</event>
<event>
 6    0  0.5775861E+002  0.6034382E+02  0.7546771E-02  0.1396395E+00
         21   -1    0    0  504  502  0.00000000000E+00  0.00000000000E+00  0.16759903655E+03  0.16759903655E+03  0.00000000000E+00 0. -1.
          2   -1    0    0  503    0 -0.00000000000E+00 -0.00000000000E+00 -0.69370625134E+03  0.69370625134E+03  0.00000000000E+00 0.  1.
         21    1    1    2  503  502  0.84065917762E+02  0.65081771846E+02 -0.23289058932E+03  0.25600926184E+03  0.00000000000E+00 0. -1.
         21    1    1    2  504  505 -0.28625264693E+02 -0.52032872707E+02  0.13540263889E+03  0.14785364466E+03  0.00000000000E+00 0. -1.
         21    1    1    2  505  501 -0.34481542985E+02 -0.42186676858E+02 -0.41060361713E+02  0.68224964749E+02  0.00000000000E+00 0. -1.
          2    1    1    2  501    0 -0.20959110084E+02  0.29137777718E+02 -0.38755890266E+03  0.38921741664E+03  0.00000000000E+00 0.  1.
<scales pt_clust_3="14000.00000" pt_clust_4="60.34382" pt_clust_5="53.18507" pt_clust_6="35.89282"></scales>
<clustering>
<clus scale="   35.893">  2  6  1 -1</clus>
<clus scale="   53.185">  2  5  1 -1</clus>
<clus scale="   60.344">  1  4  2 -1</clus>
<clus scale="   60.344">  1  3  2 -1</clus>
</clustering>
</event>
<event>
 6    0  0.5775861E+002  0.1413124E+03  0.7546771E-02  0.1211574E+00
         21   -1    0    0  501  502  0.00000000000E+00  0.00000000000E+00  0.11372940658E+04  0.11372940658E+04  0.00000000000E+00 0. -1.
          1   -1    0    0  504    0 -0.00000000000E+00 -0.00000000000E+00 -0.10136211374E+04  0.10136211374E+04  0.00000000000E+00 0. -1.
         21    1    1    2  503  505  0.85966564762E+02  0.10417510707E+03  0.45579199736E+03  0.47538305402E+03  0.00000000000E+00 0. -1.
         21    1    1    2  504  503  0.41008725565E+02  0.25552964475E+02  0.80076934374E+02  0.93525317345E+02  0.00000000000E+00 0. -1.
         21    1    1    2  505  502 -0.21989091333E+02 -0.56908502028E+02  0.57920363823E+03  0.58240789167E+03  0.00000000000E+00 0. -1.
          1    1    1    2  501    0 -0.10498619899E+03 -0.72819569515E+02 -0.99139964161E+03  0.99959894011E+03  0.00000000000E+00 0. -1.
<scales pt_clust_3="35.63238" pt_clust_4="35.63238" pt_clust_5="61.00900" pt_clust_6="128.14081"></scales>
<clustering>
<clus scale="   35.632">  3  4 -1 -1</clus>
<clus scale="   61.009">  1  5  2 -1</clus>
<clus scale="  128.141">  2  6  1 -1</clus>
<clus scale="   61.009">  1  3  2 -1</clus>
</clustering>
</event>
<event>
 6    0  0.5775861E+002  0.1158671E+03  0.7546771E-02  0.1250075E+00
          4   -1    0    0  503    0 -0.00000000000E+00  0.00000000000E+00  0.74403776344E+03  0.74403776344E+03  0.00000000000E+00 0. -1.
         21   -1    0    0  505  502  0.00000000000E+00 -0.00000000000E+00 -0.17355600855E+03  0.17355600855E+03  0.00000000000E+00 0. -1.
         21    1    1    2  503  502  0.13264489957E+03 -0.13228043217E+02  0.55280218845E+02  0.14431061328E+03  0.00000000000E+00 0. -1.
         21    1    1    2  504  501 -0.10371586568E+03  0.83065639249E+01  0.19964118514E+03  0.22512792497E+03  0.00000000000E+00 0. -1.
         21    1    1    2  505  504 -0.18206461233E+02  0.37332956285E+02 -0.11188639628E+03  0.11934735241E+03  0.00000000000E+00 0. -1.
          4    1    1    2  501    0 -0.10722572653E+02 -0.32411476992E+02  0.42744674719E+03  0.42880788133E+03  0.00000000000E+00 0. -1.
<scales pt_clust_3="14000.00000" pt_clust_4="115.86714" pt_clust_5="41.24828" pt_clust_6="34.13909"></scales>
<clustering>
<clus scale="   34.139">  1  6  2 -1</clus>
<clus scale="   41.248">  2  5  1 -1</clus>
<clus scale="  115.867">  1  4  2 -1</clus>
<clus scale="   41.248">  2  3  1 -1</clus>
</clustering>
</event>
<event>
 6    0  0.5775861E+002  0.1070997E+03  0.7546771E-02  0.1266037E+00
          1   -1    0    0  503    0 -0.00000000000E+00  0.00000000000E+00  0.44868612676E+03  0.44868612676E+03  0.00000000000E+00 0.  1.
         21   -1    0    0  504  502  0.00000000000E+00 -0.00000000000E+00 -0.88776547774E+03  0.88776547774E+03  0.00000000000E+00 0.  1.
         21    1    1    2  503  505  0.78451224029E+02 -0.12359031721E+03 -0.83735586293E+02  0.16864403183E+03  0.00000000000E+00 0.  1.
         21    1    1    2  504  501  0.32585990801E+01  0.40870516375E+02 -0.57888881458E+02  0.70937579415E+02  0.00000000000E+00 0. -1.
         21    1    1    2  505  502 -0.40781607100E+02 -0.14028090900E+02 -0.68957505040E+03  0.69092233785E+03  0.00000000000E+00 0.  1.
          1    1    1    2  501    0 -0.40928216010E+02  0.96747891733E+02  0.39212016718E+03  0.40594765541E+03  0.00000000000E+00 0.  1.
<scales pt_clust_3="107.09968" pt_clust_4="41.00021" pt_clust_5="43.09586" pt_clust_6="14000.00000"></scales>
<clustering>
<clus scale="   41.000">  2  4  1 -1</clus>
<clus scale="   43.096">  2  5  1 -1</clus>
<clus scale="  107.100">  2  3  1 -1</clus>
<clus scale="   41.000">  2  3  1 -1</clus>
</clustering>
</event>
<event>
 6    0  0.5775861E+002  0.7093129E+02  0.7546771E-02  0.1356954E+00
         -4   -1    0    0    0  501 -0.00000000000E+00  0.00000000000E+00  0.12618504939E+03  0.12618504939E+03  0.00000000000E+00 0.  1.
         21   -1    0    0  505  502  0.00000000000E+00 -0.00000000000E+00 -0.27747100742E+03  0.27747100742E+03  0.00000000000E+00 0.  1.
         21    1    1    2  503  502 -0.14452022543E+02 -0.34674854383E+02 -0.15713471632E+03  0.16156276042E+03  0.00000000000E+00 0.  1.
         21    1    1    2  504  503  0.85800280919E+02  0.71075275441E+02  0.12355995257E+02  0.11209841035E+03  0.00000000000E+00 0.  1.
         21    1    1    2  505  501 -0.57013886012E+02  0.14133741002E+02 -0.36841630067E+02  0.69337230540E+02  0.00000000000E+00 0.  1.
         -4    1    1    2    0  504 -0.14334372364E+02 -0.50534162059E+02  0.30334393092E+02  0.60657655497E+02  0.00000000000E+00 0.  1.
<scales pt_clust_3="37.56603" pt_clust_4="70.93129" pt_clust_5="14000.00000" pt_clust_6="57.31868"></scales>
<clustering>
<clus scale="   37.566">  2  3  1 -1</clus>
<clus scale="   57.319">  1  6  2 -1</clus>
<clus scale="   70.931">  1  4  2 -1</clus>
<clus scale="   37.566">  2  3  1 -1</clus>
</clustering>
</event>
<event>
 6    0  0.5775861E+002  0.2905305E+03  0.7546771E-02  0.1090072E+00
          1   -1    0    0  503    0 -0.00000000000E+00  0.00000000000E+00  0.13901367600E+03  0.13901367600E+03  0.00000000000E+00 0. -1.
         21   -1    0    0  504  502  0.00000000000E+00 -0.00000000000E+00 -0.17012292507E+04  0.17012292507E+04  0.00000000000E+00 0.  1.
         21    1    1    2  503  505 -0.14103213145E+01  0.48544028422E+02 -0.86748029790E+02  0.99416962205E+02  0.00000000000E+00 0. -1.
         21    1    1    2  504  501  0.20564900471E+03 -0.19787549460E+03 -0.35289327062E+03  0.45385006881E+03  0.00000000000E+00 0.  1.
         21    1    1    2  505  502 -0.17269021671E+02  0.24697065248E+03 -0.10251744834E+04  0.10546447003E+04  0.00000000000E+00 0.  1.
          1    1    1    2  501    0 -0.18696966173E+03 -0.97639186303E+02 -0.97399790824E+02  0.23233119541E+03  0.00000000000E+00 0. -1.
<scales pt_clust_3="39.13807" pt_clust_4="276.76557" pt_clust_5="39.13807" pt_clust_6="210.92905"></scales>
<clustering>
<clus scale="   39.138">  3  5 -1 -1</clus>
<clus scale="  210.929">  1  6  2 -1</clus>
<clus scale="  276.766">  1  4  2 -1</clus>
<clus scale="  290.531">  2  3  1 -1</clus>
</clustering>
</event>
<event>
 6    0  0.5775861E+002  0.1263444E+03  0.7546771E-02  0.1232983E+00
         21   -1    0    0  504  502  0.00000000000E+00  0.00000000000E+00  0.10776413282E+04  0.10776413282E+04  0.00000000000E+00 0.  1.
          2   -1    0    0  505    0 -0.00000000000E+00 -0.00000000000E+00 -0.73090994275E+03  0.73090994275E+03  0.00000000000E+00 0.  1.
         21    1    1    2  503  502  0.52820270183E+02 -0.15171610917E+02  0.74313131724E+02  0.92426188208E+02  0.00000000000E+00 0. -1.
         21    1    1    2  504  501  0.39643658388E+02 -0.72397441411E+02  0.98446757218E+03  0.98792176302E+03  0.00000000000E+00 0.  1.
         21    1    1    2  505  503 -0.14050004944E+02  0.28746397630E+02 -0.53040048313E+02  0.61943560930E+02  0.00000000000E+00 0. -1.
          2    1    1    2  501    0 -0.78413923626E+02  0.58822654698E+02 -0.65900927011E+03  0.66625975882E+03  0.00000000000E+00 0.  1.
<scales pt_clust_3="54.66857" pt_clust_4="126.34440" pt_clust_5="31.99622" pt_clust_6="14000.00000"></scales>
<clustering>
<clus scale="   31.996">  2  5  1 -1</clus>
<clus scale="   54.669">  1  3  2 -1</clus>
<clus scale="  126.344">  1  4  2 -1</clus>
<clus scale="   54.669">  1  3  2 -1</clus>
</clustering>
</event>
<event>
 6    0  0.5775861E+002  0.6691660E+02  0.7546771E-02  0.1370904E+00
          1   -1    0    0  504    0 -0.00000000000E+00  0.00000000000E+00  0.14033451981E+04  0.14033451981E+04  0.00000000000E+00 0.  1.
         21   -1    0    0  503  502  0.00000000000E+00 -0.00000000000E+00 -0.38714582454E+03  0.38714582454E+03  0.00000000000E+00 0. -1.
         21    1    1    2  503  505 -0.44271849396E+02 -0.43996917811E+02 -0.28011835232E+03  0.28698783377E+03  0.00000000000E+00 0. -1.
         21    1    1    2  504  502 -0.38519812755E+02  0.83563069817E+01  0.27216751981E+02  0.47899430367E+02  0.00000000000E+00 0. -1.
         21    1    1    2  505  501  0.10410455904E+03  0.64441445777E+02 -0.52715451241E+02  0.13330183024E+03  0.00000000000E+00 0. -1.
          1    1    1    2  501    0 -0.21312896889E+02 -0.28800834948E+02  0.13218164252E+04  0.13223019283E+04  0.00000000000E+00 0.  1.
<scales pt_clust_3="66.91660" pt_clust_4="48.62015" pt_clust_5="14000.00000" pt_clust_6="35.82915"></scales>
<clustering>
<clus scale="   35.829">  1  6  2 -1</clus>
<clus scale="   48.620">  1  4  2 -1</clus>
<clus scale="   66.917">  2  3  1 -1</clus>
<clus scale="   66.917">  2  3  1 -1</clus>
</clustering>
</event>
<event>
 6    0  0.5775861E+002  0.8031787E+02  0.7546771E-02  0.1328152E+00
          1   -1    0    0  504    0 -0.00000000000E+00  0.00000000000E+00  0.10098971513E+04  0.10098971513E+04  0.00000000000E+00 0. -1.
         21   -1    0    0  503  502  0.00000000000E+00 -0.00000000000E+00 -0.52097825418E+03  0.52097825418E+03  0.00000000000E+00 0. -1.
         21    1    1    2  503  501  0.95727315849E+02 -0.10796515189E+02 -0.10372961961E+03  0.14156312275E+03  0.00000000000E+00 0. -1.
         21    1    1    2  504  505  0.10564357899E+02  0.53817154463E+02 -0.25237388380E+02  0.60372324326E+02  0.00000000000E+00 0.  1.
         21    1    1    2  505  502 -0.59709962143E+02 -0.58340099146E+02 -0.34999740849E+03  0.35981527579E+03  0.00000000000E+00 0. -1.
          1    1    1    2  501    0 -0.46581711605E+02  0.15319459872E+02  0.96788331360E+03  0.96912468261E+03  0.00000000000E+00 0. -1.
<scales pt_clust_3="14000.00000" pt_clust_4="61.01716" pt_clust_5="80.31787" pt_clust_6="49.03613"></scales>
<clustering>
<clus scale="   49.036">  1  6  2 -1</clus>
<clus scale="   61.017">  1  4  2 -1</clus>
<clus scale="   80.318">  2  5  1 -1</clus>
<clus scale="   80.318">  2  3  1 -1</clus>
</clustering>
</event>
<event>
 6    0  0.5775861E+002  0.9733307E+02  0.7546771E-02  0.1286006E+00
         -2   -1    0    0    0  501 -0.00000000000E+00  0.00000000000E+00  0.38862965873E+03  0.38862965873E+03  0.00000000000E+00 0. -1.
         21   -1    0    0  503  502  0.00000000000E+00 -0.00000000000E+00 -0.54943758463E+03  0.54943758463E+03  0.00000000000E+00 0. -1.
         21    1    1    2  503  504  0.23006925183E+01  0.34227935491E+02 -0.38094339857E+02  0.51264251513E+02  0.00000000000E+00 0. -1.
         21    1    1    2  504  501 -0.48369936906E+02 -0.98695715007E+02  0.30806511931E+03  0.32708502364E+03  0.00000000000E+00 0. -1.
         21    1    1    2  505  502 -0.37103209894E+02  0.45853553087E+02 -0.46437449235E+03  0.46810561379E+03  0.00000000000E+00 0. -1.
         -2    1    1    2    0  505  0.83172454281E+02  0.18614226428E+02  0.33595787006E+02  0.91612354414E+02  0.00000000000E+00 0. -1.
<scales pt_clust_3="34.30517" pt_clust_4="97.33307" pt_clust_5="84.99998" pt_clust_6="14000.00000"></scales>
<clustering>
<clus scale="   34.305">  2  3  1 -1</clus>
<clus scale="   85.000">  2  5  1 -1</clus>
<clus scale="   97.333">  1  4  2 -1</clus>
<clus scale="   34.305">  2  3  1 -1</clus>
</clustering>
</event>
<event>
 6    0  0.5775861E+002  0.9181290E+02  0.7546771E-02  0.1298520E+00
          2   -1    0    0  505    0 -0.00000000000E+00  0.00000000000E+00  0.20347379601E+04  0.20347379601E+04  0.00000000000E+00 0.  1.
         21   -1    0    0  504  502  0.00000000000E+00 -0.00000000000E+00 -0.22384428407E+03  0.22384428407E+03  0.00000000000E+00 0. -1.
         21    1    1    2  503  502  0.47517060424E+02 -0.27775414543E+02  0.31341225405E+02  0.63337327812E+02  0.00000000000E+00 0. -1.
         21    1    1    2  504  501 -0.79837637911E+02  0.32908136682E+02 -0.19416538806E+03  0.21250221601E+03  0.00000000000E+00 0. -1.
         21    1    1    2  505  503 -0.11782420227E+02  0.83589345309E+02  0.67646938595E+03  0.68171609502E+03  0.00000000000E+00 0.  1.
          2    1    1    2  501    0  0.44102997713E+02 -0.88722067448E+02  0.12972484527E+04  0.13010266053E+04  0.00000000000E+00 0.  1.
<scales pt_clust_3="55.03948" pt_clust_4="33.84180" pt_clust_5="91.81290" pt_clust_6="14000.00000"></scales>
<clustering>
<clus scale="   55.039">  2  3  1 -1</clus>
<clus scale="   33.842">  2  4  1 -1</clus>
<clus scale="   91.813">  2  5  1 -1</clus>
<clus scale="   55.039">  2  3  1 -1</clus>
</clustering>
</event>
<event>
 6    0  0.5775861E+002  0.9678471E+02  0.7546771E-02  0.1287206E+00
          2   -1    0    0  504    0 -0.00000000000E+00  0.00000000000E+00  0.43331620481E+03  0.43331620481E+03  0.00000000000E+00 0.  1.
         21   -1    0    0  503  502  0.00000000000E+00 -0.00000000000E+00 -0.23894173531E+03  0.23894173531E+03  0.00000000000E+00 0.  1.
         21    1    1    2  503  501 -0.59685708783E+02 -0.47375452445E+02 -0.11384298627E+03  0.13699285693E+03  0.00000000000E+00 0.  1.
         21    1    1    2  504  505  0.91318623311E+02  0.56247260450E+02  0.93930769959E+02  0.14256870209E+03  0.00000000000E+00 0.  1.
         21    1    1    2  505  502  0.59016032131E+02  0.17465133766E+02 -0.69963556994E+02  0.93181662645E+02  0.00000000000E+00 0.  1.
          2    1    1    2  501    0 -0.90648946659E+02 -0.26336941771E+02  0.28425024280E+03  0.29951471844E+03  0.00000000000E+00 0.  1.
<scales pt_clust_3="35.76865" pt_clust_4="14000.00000" pt_clust_5="61.54610" pt_clust_6="96.78471"></scales>
<clustering>
<clus scale="   61.546">  2  5  1 -1</clus>
<clus scale="   35.769">  2  3  1 -1</clus>
<clus scale="   96.785">  1  6  2 -1</clus>
<clus scale="   61.546">  2  3  1 -1</clus>
</clustering>
</event>
<event>
 6    0  0.5775861E+002  0.1031381E+03  0.7546771E-02  0.1273832E+00
          1   -1    0    0  503    0 -0.00000000000E+00  0.00000000000E+00  0.11793115670E+04  0.11793115670E+04  0.00000000000E+00 0.  1.
         21   -1    0    0  504  502  0.00000000000E+00 -0.00000000000E+00 -0.10641316146E+04  0.10641316146E+04  0.00000000000E+00 0.  1.
         21    1    1    2  503  502  0.41453471612E+02 -0.65764557607E+02 -0.92013074007E+03  0.92340887270E+03  0.00000000000E+00 0.  1.
         21    1    1    2  504  505  0.17457095475E+02 -0.24728637037E+02 -0.39376062902E+02  0.49666185698E+02  0.00000000000E+00 0.  1.
         21    1    1    2  505  501 -0.51681390835E+02 -0.12477288543E+02 -0.88159033547E+02  0.10294981342E+03  0.00000000000E+00 0. -1.
          1    1    1    2  501    0 -0.72291762511E+01  0.10297048319E+03  0.11628457889E+04  0.11674183098E+04  0.00000000000E+00 0.  1.
<scales pt_clust_3="14000.00000" pt_clust_4="30.26972" pt_clust_5="52.18644" pt_clust_6="103.13808"></scales>
<clustering>
<clus scale="   30.270">  2  4  1 -1</clus>
<clus scale="   52.186">  2  5  1 -1</clus>
<clus scale="  103.138">  1  6  2 -1</clus>
<clus scale="   30.270">  2  3  1 -1</clus>
</clustering>
</event>
<event>
 6    0  0.5775861E+002  0.1100125E+03  0.7546771E-02  0.1260547E+00
         21   -1    0    0  504  502  0.00000000000E+00  0.00000000000E+00  0.15575061571E+03  0.15575061571E+03  0.00000000000E+00 0. -1.
          1   -1    0    0  505    0 -0.00000000000E+00 -0.00000000000E+00 -0.16419436820E+04  0.16419436820E+04  0.00000000000E+00 0. -1.
         21    1    1    2  503  501 -0.22868632514E+02  0.46061664228E+02 -0.73410082449E+03  0.73589990609E+03  0.00000000000E+00 0. -1.
         21    1    1    2  504  503  0.21271059851E+02 -0.10620101384E+03 -0.69368762720E+02  0.12862013283E+03  0.00000000000E+00 0. -1.
         21    1    1    2  505  502 -0.30716343445E+02  0.11867127848E+02  0.12199544399E+03  0.12636142937E+03  0.00000000000E+00 0. -1.
          1    1    1    2  501    0  0.32313916108E+02  0.48272221759E+02 -0.80471892304E+03  0.80681282939E+03  0.00000000000E+00 0. -1.
<scales pt_clust_3="52.05722" pt_clust_4="95.36498" pt_clust_5="32.92905" pt_clust_6="52.05722"></scales>
<clustering>
<clus scale="   32.929">  1  5  2 -1</clus>
<clus scale="   52.057">  3  6 -1 -1</clus>
<clus scale="   95.365">  1  4  2 -1</clus>
<clus scale="   32.929">  1  3  2 -1</clus>
</clustering>
</event>
<event>
 6    0  0.5775861E+002  0.1685410E+03  0.7546771E-02  0.1179378E+00
          2   -1    0    0  504    0 -0.00000000000E+00  0.00000000000E+00  0.12341803681E+04  0.12341803681E+04  0.00000000000E+00 0.  1.
         21   -1    0    0  503  502  0.00000000000E+00 -0.00000000000E+00 -0.26395535946E+03  0.26395535946E+03  0.00000000000E+00 0. -1.
         21    1    1    2  503  505 -0.19207400450E+02 -0.26063212050E+02 -0.37178653916E+02  0.49299772428E+02  0.00000000000E+00 0. -1.
         21    1    1    2  504  502  0.50681069086E+01  0.18431286976E+03 -0.17521402598E+03  0.25435580309E+03  0.00000000000E+00 0. -1.
         21    1    1    2  505  501 -0.17671514235E+02 -0.99820501440E+02  0.72371650679E+03  0.73078177120E+03  0.00000000000E+00 0.  1.
          2    1    1    2  501    0  0.31810807776E+02 -0.58429156272E+02  0.45890118174E+03  0.46369838085E+03  0.00000000000E+00 0.  1.
<scales pt_clust_3="32.37615" pt_clust_4="159.53278" pt_clust_5="43.98863" pt_clust_6="43.98863"></scales>
<clustering>
<clus scale="   32.376">  2  3  1 -1</clus>
<clus scale="   43.989">  5  6 -1 -1</clus>
<clus scale="  159.533">  2  4  1 -1</clus>
<clus scale="   32.376">  2  3  1 -1</clus>
</clustering>
</event>
<event>
 6    0  0.5775861E+002  0.1021622E+03  0.7546771E-02  0.1275814E+00
          2   -1    0    0  505    0 -0.00000000000E+00  0.00000000000E+00  0.32276917172E+03  0.32276917172E+03  0.00000000000E+00 0.  1.
         21   -1    0    0  503  502  0.00000000000E+00 -0.00000000000E+00 -0.21780652480E+03  0.21780652480E+03  0.00000000000E+00 0. -1.
         21    1    1    2  503  501 -0.14021751343E+03  0.28760672138E+02  0.13038443370E+02  0.14372935796E+03  0.00000000000E+00 0. -1.
         21    1    1    2  504  502  0.24198167925E+02  0.53009328567E+02 -0.55581377900E+02  0.80528441033E+02  0.00000000000E+00 0. -1.
         21    1    1    2  505  504  0.46432468834E+02 -0.93827213819E+02 -0.42975825440E+02  0.11316555036E+03  0.00000000000E+00 0. -1.
          2    1    1    2  501    0  0.69586876669E+02  0.12057213115E+02  0.19048140689E+03  0.20315234718E+03  0.00000000000E+00 0.  1.
<scales pt_clust_3="14000.00000" pt_clust_4="58.27126" pt_clust_5="102.16221" pt_clust_6="72.04405"></scales>
<clustering>
<clus scale="   58.271">  2  4  1 -1</clus>
<clus scale="   72.044">  1  6  2 -1</clus>
<clus scale="  102.162">  2  5  1 -1</clus>
<clus scale="   58.271">  2  3  1 -1</clus>
</clustering>
</event>
<event>
 6    0  0.5775861E+002  0.1353865E+03  0.7546771E-02  0.1219675E+00
         -1   -1    0    0    0  501 -0.00000000000E+00  0.00000000000E+00  0.11615961129E+03  0.11615961129E+03  0.00000000000E+00 0. -1.
         21   -1    0    0  505  502  0.00000000000E+00 -0.00000000000E+00 -0.36054496862E+03  0.36054496862E+03  0.00000000000E+00 0. -1.
         21    1    1    2  503  502 -0.31699911118E+02  0.21328680893E+02 -0.19821736160E+03  0.20186609283E+03  0.00000000000E+00 0. -1.
         21    1    1    2  504  501  0.77425912739E+01 -0.51276430848E+02 -0.39914755679E+02  0.65440108504E+02  0.00000000000E+00 0. -1.
         21    1    1    2  505  504 -0.30547772806E+02 -0.80027606680E+02 -0.12142552622E+02  0.86516043821E+02  0.00000000000E+00 0. -1.
         -1    1    1    2    0  503  0.54505092651E+02  0.10997535664E+03  0.58893125654E+01  0.12288233475E+03  0.00000000000E+00 0. -1.
<scales pt_clust_3="38.20729" pt_clust_4="37.24007" pt_clust_5="37.24007" pt_clust_6="125.33805"></scales>
<clustering>
<clus scale="   38.207">  2  3  1 -1</clus>
<clus scale="   37.240">  4  5 -1 -1</clus>
<clus scale="  125.338">  1  6  2 -1</clus>
<clus scale="   38.207">  2  3  1 -1</clus>
</clustering>
</event>
<event>
 6    0  0.5775861E+002  0.1092181E+03  0.7546771E-02  0.1262025E+00
         21   -1    0    0  504  502  0.00000000000E+00  0.00000000000E+00  0.51677208208E+03  0.51677208208E+03  0.00000000000E+00 0.  1.
         -1   -1    0    0    0  501 -0.00000000000E+00 -0.00000000000E+00 -0.58979601871E+03  0.58979601871E+03  0.00000000000E+00 0. -1.
         21    1    1    2  503  502  0.47309355581E+02  0.86406136445E+02 -0.16593067924E+03  0.19296939098E+03  0.00000000000E+00 0.  1.
         21    1    1    2  504  505 -0.62848640756E+02  0.27011248403E+02  0.32649907930E+03  0.33358838105E+03  0.00000000000E+00 0.  1.
         21    1    1    2  505  501  0.54120157900E+02 -0.13680814364E+03  0.14036472795E+03  0.20334137924E+03  0.00000000000E+00 0.  1.
         -1    1    1    2    0  503 -0.38580872725E+02  0.23390758791E+02 -0.37395706465E+03  0.37666894953E+03  0.00000000000E+00 0. -1.
<scales pt_clust_3="109.21810" pt_clust_4="69.14582" pt_clust_5="14000.00000" pt_clust_6="45.11775"></scales>
<clustering>
<clus scale="   45.118">  2  6  1 -1</clus>
<clus scale="   69.146">  1  4  2 -1</clus>
<clus scale="  109.218">  2  3  1 -1</clus>
<clus scale="   69.146">  1  3  2 -1</clus>
</clustering>
</event>
<event>
 6    0  0.5775861E+002  0.1328283E+03  0.7546771E-02  0.1223318E+00
         -3   -1    0    0    0  501 -0.00000000000E+00  0.00000000000E+00  0.32507081939E+02  0.32507081939E+02  0.00000000000E+00 0.  1.
         21   -1    0    0  503  502  0.00000000000E+00 -0.00000000000E+00 -0.14842053365E+04  0.14842053365E+04  0.00000000000E+00 0.  1.
         21    1    1    2  503  501 -0.39378510801E+02 -0.14306120555E+03 -0.38184879291E+03  0.40966532230E+03  0.00000000000E+00 0.  1.
         21    1    1    2  504  505  0.98606455709E+02  0.88609450516E+02 -0.64539079497E+03  0.65886580277E+03  0.00000000000E+00 0.  1.
         21    1    1    2  505  502 -0.35037789821E+02  0.23063961983E+02 -0.39873759743E+03  0.40093798107E+03  0.00000000000E+00 0.  1.
         -3    1    1    2    0  504 -0.24190155086E+02  0.31387793051E+02 -0.25721069289E+02  0.47243312342E+02  0.00000000000E+00 0.  1.
<scales pt_clust_3="132.82835" pt_clust_4="14000.00000" pt_clust_5="43.84776" pt_clust_6="39.62773"></scales>
<clustering>
<clus scale="   39.628">  1  6  2 -1</clus>
<clus scale="   43.848">  2  5  1 -1</clus>
<clus scale="  132.828">  1  3  2 -1</clus>
<clus scale="   43.848">  2  3  1 -1</clus>
</clustering>
</event>
<event>
 6    0  0.5775861E+002  0.7056119E+02  0.7546771E-02  0.1358195E+00
          2   -1    0    0  505    0 -0.00000000000E+00  0.00000000000E+00  0.16465033305E+04  0.16465033305E+04  0.00000000000E+00 0. -1.
         21   -1    0    0  503  502  0.00000000000E+00 -0.00000000000E+00 -0.11424683390E+03  0.11424683390E+03  0.00000000000E+00 0.  1.
         21    1    1    2  503  501  0.89440761143E+02 -0.18349619557E+02  0.14580940015E+03  0.17203702934E+03  0.00000000000E+00 0. -1.
         21    1    1    2  504  502 -0.68142504293E+02 -0.12165898704E+02 -0.69623131609E+02  0.98177341773E+02  0.00000000000E+00 0.  1.
         21    1    1    2  505  504 -0.64542030690E+02 -0.15962119147E+02  0.50393926979E+02  0.83426679483E+02  0.00000000000E+00 0.  1.
          2    1    1    2  501    0  0.43243773840E+02  0.46477637408E+02  0.14056763011E+04  0.14071091139E+04  0.00000000000E+00 0. -1.
<scales pt_clust_3="14000.00000" pt_clust_4="70.56119" pt_clust_5="52.57778" pt_clust_6="63.48381"></scales>
<clustering>
<clus scale="   63.484">  1  6  2 -1</clus>
<clus scale="   52.578">  1  5  2 -1</clus>
<clus scale="   70.561">  2  4  1 -1</clus>
<clus scale="   70.561">  2  3  1 -1</clus>
</clustering>
</event>
<event>
 6    0  0.5775861E+002  0.8310457E+02  0.7546771E-02  0.1320465E+00
         21   -1    0    0  503  502  0.00000000000E+00  0.00000000000E+00  0.69437261550E+03  0.69437261550E+03  0.00000000000E+00 0.  1.
          3   -1    0    0  505    0 -0.00000000000E+00 -0.00000000000E+00 -0.96941287938E+03  0.96941287938E+03  0.00000000000E+00 0.  1.
         21    1    1    2  503  504  0.51675948579E+02 -0.29287548461E+01  0.63294818230E+03  0.63506092838E+03  0.00000000000E+00 0.  1.
         21    1    1    2  504  501 -0.55557541805E+02  0.19030406751E+02 -0.22665349673E+02  0.62948509977E+02  0.00000000000E+00 0.  1.
         21    1    1    2  505  502 -0.35179507652E+02 -0.88768379068E+02 -0.21311378638E+02  0.97834542675E+02  0.00000000000E+00 0.  1.
          3    1    1    2  501    0  0.39061100878E+02  0.72666727162E+02 -0.86401171788E+03  0.86794151385E+03  0.00000000000E+00 0.  1.
<scales pt_clust_3="51.75888" pt_clust_4="42.35610" pt_clust_5="83.10457" pt_clust_6="14000.00000"></scales>
<clustering>
<clus scale="   51.759">  1  3  2 -1</clus>
<clus scale="   42.356">  1  4  2 -1</clus>
<clus scale="   83.105">  1  5  2 -1</clus>
<clus scale="   51.759">  1  3  2 -1</clus>
</clustering>
</event>
<event>
 6    0  0.5775861E+002  0.1598442E+03  0.7546771E-02  0.1188873E+00
          2   -1    0    0  504    0 -0.00000000000E+00  0.00000000000E+00  0.15173287113E+04  0.15173287113E+04  0.00000000000E+00 0. -1.
         21   -1    0    0  505  502  0.00000000000E+00 -0.00000000000E+00 -0.32511142105E+03  0.32511142105E+03  0.00000000000E+00 0.  1.
         21    1    1    2  503  502 -0.15955412688E+03 -0.11442571871E+02 -0.26732202373E+03  0.31152771342E+03  0.00000000000E+00 0.  1.
         21    1    1    2  504  503  0.15986173531E+03 -0.31845788725E+02  0.42656473625E+03  0.45664800765E+03  0.00000000000E+00 0. -1.
         21    1    1    2  505  501 -0.44390977401E+02  0.63443692061E+02  0.54733342932E+02  0.94822991755E+02  0.00000000000E+00 0.  1.
          2    1    1    2  501    0  0.44083368972E+02 -0.20155331465E+02  0.97824123484E+03  0.97944141956E+03  0.00000000000E+00 0. -1.
<scales pt_clust_3="159.84420" pt_clust_4="14000.00000" pt_clust_5="71.71000" pt_clust_6="48.47247"></scales>
<clustering>
<clus scale="   48.472">  1  6  2 -1</clus>
<clus scale="   71.710">  1  5  2 -1</clus>
<clus scale="  159.844">  2  3  1 -1</clus>
<clus scale="  159.844">  2  3  1 -1</clus>
</clustering>
</event>
<event>
 6    0  0.5775861E+002  0.1100166E+03  0.7546771E-02  0.1260539E+00
         -2   -1    0    0    0  501 -0.00000000000E+00  0.00000000000E+00  0.17721422647E+04  0.17721422647E+04  0.00000000000E+00 0. -1.
         21   -1    0    0  505  502  0.00000000000E+00 -0.00000000000E+00 -0.36356972280E+02  0.36356972280E+02  0.00000000000E+00 0. -1.
         21    1    1    2  503  502 -0.25469815214E+02 -0.10701543864E+03  0.82393747930E+02  0.13743996978E+03  0.00000000000E+00 0. -1.
         21    1    1    2  504  503  0.48067510817E+02  0.10123893896E+03  0.48379730322E+03  0.49660813421E+03  0.00000000000E+00 0. -1.
         21    1    1    2  505  501  0.79251289500E+01 -0.35795374961E+02  0.19027702382E+03  0.19377683641E+03  0.00000000000E+00 0. -1.
         -2    1    1    2    0  504 -0.30522824553E+02  0.41571874640E+02  0.97931721743E+03  0.98067429656E+03  0.00000000000E+00 0. -1.
<scales pt_clust_3="110.01661" pt_clust_4="14000.00000" pt_clust_5="36.66219" pt_clust_6="32.10921"></scales>
<clustering>
<clus scale="   36.662">  1  5  2 -1</clus>
<clus scale="   32.109">  1  6  2 -1</clus>
<clus scale="  110.017">  2  3  1 -1</clus>
<clus scale="  110.017">  2  3  1 -1</clus>
</clustering>
</event>
<event>
 6    0  0.5775861E+002  0.1471327E+03  0.7546771E-02  0.1204041E+00
          2   -1    0    0  504    0 -0.00000000000E+00  0.00000000000E+00  0.13211398593E+04  0.13211398593E+04  0.00000000000E+00 0.  1.
         21   -1    0    0  501  502  0.00000000000E+00 -0.00000000000E+00 -0.12457592694E+03  0.12457592694E+03  0.00000000000E+00 0. -1.
         21    1    1    2  503  502  0.49933230582E+02 -0.13692942984E+03 -0.20407506652E+02  0.14717154141E+03  0.00000000000E+00 0. -1.
         21    1    1    2  504  505  0.44438419115E+02 -0.38467255513E+02  0.56552515861E+03  0.56857119858E+03  0.00000000000E+00 0.  1.
         21    1    1    2  505  503 -0.12660224689E+03  0.10882912727E+03  0.15422851922E+03  0.22728472012E+03  0.00000000000E+00 0.  1.
          2    1    1    2  501    0  0.32230597194E+02  0.66567558085E+02  0.49721776115E+03  0.50268832609E+03  0.00000000000E+00 0.  1.
<scales pt_clust_3="14000.00000" pt_clust_4="58.77502" pt_clust_5="147.13273" pt_clust_6="74.10980"></scales>
<clustering>
<clus scale="   58.775">  1  4  2 -1</clus>
<clus scale="   74.110">  1  6  2 -1</clus>
<clus scale="  147.133">  1  5  2 -1</clus>
<clus scale="  147.133">  2  3  1 -1</clus>
</clustering>
</event>
<event>
 6    0  0.5775861E+002  0.6401594E+02  0.7546771E-02  0.1381712E+00
         21   -1    0    0  504  502  0.00000000000E+00  0.00000000000E+00  0.39445108693E+03  0.39445108693E+03  0.00000000000E+00 0.  1.
          2   -1    0    0  502    0 -0.00000000000E+00 -0.00000000000E+00 -0.59260906997E+03  0.59260906997E+03  0.00000000000E+00 0. -1.
         21    1    1    2  503  505  0.80433997613E+02  0.18779139448E+02  0.70028668576E+02  0.10828803476E+03  0.00000000000E+00 0. -1.
         21    1    1    2  504  503 -0.46409510222E+02  0.29468152189E+02  0.28589903807E+03  0.29113652228E+03  0.00000000000E+00 0.  1.
         21    1    1    2  505  501 -0.51607132703E+02 -0.72987765845E+02 -0.10658776061E+03  0.13910952814E+03  0.00000000000E+00 0. -1.
          2    1    1    2  501    0  0.17582645312E+02  0.24740474208E+02 -0.44749792907E+03  0.44852607171E+03  0.00000000000E+00 0. -1.
<scales pt_clust_3="64.01594" pt_clust_4="54.94877" pt_clust_5="14000.00000" pt_clust_6="30.35194"></scales>
<clustering>
<clus scale="   30.352">  2  6  1 -1</clus>
<clus scale="   54.949">  1  4  2 -1</clus>
<clus scale="   64.016">  1  3  2 -1</clus>
<clus scale="   54.949">  1  3  2 -1</clus>
</clustering>
</event>
<event>
 6    0  0.5775861E+002  0.8615154E+02  0.7546771E-02  0.1312448E+00
         -2   -1    0    0    0  501 -0.00000000000E+00  0.00000000000E+00  0.12105603632E+04  0.12105603632E+04  0.00000000000E+00 0. -1.
         21   -1    0    0  501  502  0.00000000000E+00 -0.00000000000E+00 -0.14322245559E+03  0.14322245559E+03  0.00000000000E+00 0. -1.
         21    1    1    2  503  504  0.66142352569E+02  0.16291507669E+02  0.89983681275E+02  0.11285958941E+03  0.00000000000E+00 0. -1.
         21    1    1    2  504  502 -0.71570841264E+02 -0.24612703756E+02 -0.10261805642E+03  0.12750935656E+03  0.00000000000E+00 0. -1.
         21    1    1    2  505  503  0.53836925604E+02  0.28082693433E+02  0.41320452193E+02  0.73446797060E+02  0.00000000000E+00 0. -1.
         -2    1    1    2    0  505 -0.48408436909E+02 -0.19761497346E+02  0.10386518306E+04  0.10399670758E+04  0.00000000000E+00 0. -1.
<scales pt_clust_3="31.38737" pt_clust_4="79.47886" pt_clust_5="31.38737" pt_clust_6="52.28665"></scales>
<clustering>
<clus scale="   31.387">  3  5 -1 -1</clus>
<clus scale="   52.287">  1  6  2 -1</clus>
<clus scale="   79.479">  2  4  1 -1</clus>
<clus scale="   79.479">  2  3  1 -1</clus>
</clustering>
</event>
<event>
 6    0  0.5775861E+002  0.1080809E+03  0.7546771E-02  0.1264165E+00
         21   -1    0    0  504  502  0.00000000000E+00  0.00000000000E+00  0.88589546051E+02  0.88589546051E+02  0.00000000000E+00 0.  1.
          2   -1    0    0  505    0 -0.00000000000E+00 -0.00000000000E+00 -0.13254779815E+04  0.13254779815E+04  0.00000000000E+00 0.  1.
         21    1    1    2  503  501 -0.94465609246E+02 -0.42317153107E+02 -0.50583049530E+03  0.51631287293E+03  0.00000000000E+00 0.  1.
         21    1    1    2  504  503 -0.25544227689E+02  0.33795202506E+02  0.47378025728E+02  0.63555492308E+02  0.00000000000E+00 0.  1.
         21    1    1    2  505  502  0.10911447557E+03  0.37340205095E+02 -0.93220290811E+02  0.14829120781E+03  0.00000000000E+00 0.  1.
          2    1    1    2  501    0  0.10895361364E+02 -0.28818254494E+02 -0.68521567503E+03  0.68590795446E+03  0.00000000000E+00 0.  1.
<scales pt_clust_3="14000.00000" pt_clust_4="41.98950" pt_clust_5="108.08094" pt_clust_6="30.80910"></scales>
<clustering>
<clus scale="   30.809">  2  6  1 -1</clus>
<clus scale="   41.989">  1  4  2 -1</clus>
<clus scale="  108.081">  1  5  2 -1</clus>
<clus scale="   41.989">  1  3  2 -1</clus>
</clustering>
</event>
<event>
 6    0  0.5775861E+002  0.1766392E+03  0.7546771E-02  0.1171096E+00
          2   -1    0    0  503    0 -0.00000000000E+00  0.00000000000E+00  0.79063769256E+03  0.79063769256E+03  0.00000000000E+00 0. -1.
         21   -1    0    0  504  502  0.00000000000E+00 -0.00000000000E+00 -0.55139688640E+03  0.55139688640E+03  0.00000000000E+00 0.  1.
         21    1    1    2  503  502  0.78018988817E+02  0.11944101519E+03 -0.22495637745E+03  0.26638034928E+03  0.00000000000E+00 0.  1.
         21    1    1    2  504  505 -0.36074224837E+02 -0.32077227341E+02 -0.16434691586E+03  0.17128983322E+03  0.00000000000E+00 0.  1.
         21    1    1    2  505  501  0.12375798788E+03 -0.15000242063E+03 -0.51873245905E+02  0.20126499795E+03  0.00000000000E+00 0.  1.
          2    1    1    2  501    0 -0.16570275186E+03  0.62638632777E+02  0.68041734538E+03  0.70309939851E+03  0.00000000000E+00 0. -1.
<scales pt_clust_3="113.12022" pt_clust_4="48.27316" pt_clust_5="176.63925" pt_clust_6="14000.00000"></scales>
<clustering>
<clus scale="   48.273">  2  4  1 -1</clus>
<clus scale="  113.120">  2  3  1 -1</clus>
<clus scale="  176.639">  2  5  1 -1</clus>
<clus scale="   48.273">  2  3  1 -1</clus>
</clustering>
</event>
<event>
 6    0  0.5775861E+002  0.7969071E+02  0.7546771E-02  0.1329931E+00
          1   -1    0    0  503    0 -0.00000000000E+00  0.00000000000E+00  0.17069022040E+04  0.17069022040E+04  0.00000000000E+00 0. -1.
         21   -1    0    0  504  502  0.00000000000E+00 -0.00000000000E+00 -0.10939567152E+03  0.10939567152E+03  0.00000000000E+00 0. -1.
         21    1    1    2  503  505 -0.19956212487E+02  0.11866018433E+03  0.26373398740E+03  0.28988636717E+03  0.00000000000E+00 0. -1.
         21    1    1    2  504  501 -0.40139737737E+02 -0.22956588761E+02  0.38649829329E+02  0.60266183057E+02  0.00000000000E+00 0. -1.
         21    1    1    2  505  502  0.38922462786E+02 -0.50736752510E+02 -0.73041561079E+02  0.97078554838E+02  0.00000000000E+00 0. -1.
          1    1    1    2  501    0  0.21173487439E+02 -0.44966843061E+02  0.13681642768E+04  0.13690667705E+04  0.00000000000E+00 0. -1.
<scales pt_clust_3="14000.00000" pt_clust_4="46.24071" pt_clust_5="79.69071" pt_clust_6="49.71969"></scales>
<clustering>
<clus scale="   46.241">  2  4  1 -1</clus>
<clus scale="   49.720">  1  6  2 -1</clus>
<clus scale="   79.691">  2  5  1 -1</clus>
<clus scale="   46.241">  2  3  1 -1</clus>
</clustering>
</event>
<event>
 6    0  0.5775861E+002  0.1122687E+03  0.7546771E-02  0.1256425E+00
          2   -1    0    0  505    0 -0.00000000000E+00  0.00000000000E+00  0.18326071920E+03  0.18326071920E+03  0.00000000000E+00 0. -1.
         21   -1    0    0  504  502  0.00000000000E+00 -0.00000000000E+00 -0.76942614774E+03  0.76942614774E+03  0.00000000000E+00 0. -1.
         21    1    1    2  503  502  0.26579835107E+02 -0.37609592817E+02 -0.30794362970E+03  0.31136834806E+03  0.00000000000E+00 0. -1.
         21    1    1    2  504  501  0.84991116010E+02  0.60353997223E+02 -0.40586813177E+03  0.41904061279E+03  0.00000000000E+00 0. -1.
         21    1    1    2  505  503 -0.93932024485E+01  0.47299499353E+02  0.58930848472E+01  0.48581924008E+02  0.00000000000E+00 0.  1.
          2    1    1    2  501    0 -0.10217774867E+03 -0.70043903759E+02  0.12175324807E+03  0.17369598209E+03  0.00000000000E+00 0. -1.
<scales pt_clust_3="46.05398" pt_clust_4="14000.00000" pt_clust_5="46.27846" pt_clust_6="112.26870"></scales>
<clustering>
<clus scale="   46.054">  2  3  1 -1</clus>
<clus scale="   46.278">  1  5  2 -1</clus>
<clus scale="  112.269">  1  6  2 -1</clus>
<clus scale="   46.054">  2  3  1 -1</clus>
</clustering>
</event>
<event>
 6    0  0.5775861E+002  0.1471536E+03  0.7546771E-02  0.1204015E+00
         21   -1    0    0  503  502  0.00000000000E+00  0.00000000000E+00  0.11509246055E+03  0.11509246055E+03  0.00000000000E+00 0.  1.
          2   -1    0    0  504    0 -0.00000000000E+00 -0.00000000000E+00 -0.46625212769E+03  0.46625212769E+03  0.00000000000E+00 0.  1.
         21    1    1    2  503  501  0.10745600813E+03  0.88324962275E+02 -0.28252514574E+02  0.14193765260E+03  0.00000000000E+00 0.  1.
         21    1    1    2  504  505 -0.80678022036E+02  0.69143335674E+01 -0.50222728830E+02  0.95284173604E+02  0.00000000000E+00 0.  1.
         21    1    1    2  505  502 -0.80125575558E+02 -0.27654024195E+02 -0.35688137928E+02  0.91970082643E+02  0.00000000000E+00 0.  1.
          2    1    1    2  501    0  0.53347589460E+02 -0.67585271647E+02 -0.23699628581E+03  0.25215267941E+03  0.00000000000E+00 0.  1.
<scales pt_clust_3="142.33282" pt_clust_4="36.51237" pt_clust_5="36.51237" pt_clust_6="86.10304"></scales>
<clustering>
<clus scale="   36.512">  4  5 -1 -1</clus>
<clus scale="   86.103">  2  6  1 -1</clus>
<clus scale="  142.333">  1  3  2 -1</clus>
<clus scale="  142.333">  1  3  2 -1</clus>
</clustering>
</event>
<event>
 6    0  0.5775861E+002  0.1430046E+03  0.7546771E-02  0.1209342E+00
          2   -1    0    0  503    0 -0.00000000000E+00  0.00000000000E+00  0.99243096204E+03  0.99243096204E+03  0.00000000000E+00 0.  1.
         21   -1    0    0  504  502  0.00000000000E+00 -0.00000000000E+00 -0.47996049290E+03  0.47996049290E+03  0.00000000000E+00 0.  1.
         21    1    1    2  503  505 -0.16542662638E+03 -0.50038848855E+02  0.61542890566E+02  0.18345948460E+03  0.00000000000E+00 0.  1.
         21    1    1    2  504  501  0.16381827080E+03 -0.19580969276E+02 -0.22195019878E+03  0.27655330580E+03  0.00000000000E+00 0.  1.
         21    1    1    2  505  502 -0.80601721159E+02 -0.47821598915E+02 -0.15012840905E+03  0.17698045649E+03  0.00000000000E+00 0.  1.
          2    1    1    2  501    0  0.82210076740E+02  0.11744141705E+03  0.82300618640E+03  0.83539820805E+03  0.00000000000E+00 0.  1.
<scales pt_clust_3="143.00458" pt_clust_4="115.51061" pt_clust_5="93.72056" pt_clust_6="14000.00000"></scales>
<clustering>
<clus scale="   93.721">  2  5  1 -1</clus>
<clus scale="  115.511">  2  4  1 -1</clus>
<clus scale="  143.005">  2  3  1 -1</clus>
<clus scale="   93.721">  2  3  1 -1</clus>
</clustering>
</event>
<event>
 6    0  0.5775861E+002  0.1074481E+03  0.7546771E-02  0.1265370E+00
          1   -1    0    0  504    0 -0.00000000000E+00  0.00000000000E+00  0.11767795570E+04  0.11767795570E+04  0.00000000000E+00 0. -1.
         21   -1    0    0  505  502  0.00000000000E+00 -0.00000000000E+00 -0.61017021425E+02  0.61017021425E+02  0.00000000000E+00 0.  1.
         21    1    1    2  503  502  0.71406261932E+02 -0.43444553370E+02  0.57722108657E+02  0.10157817329E+03  0.00000000000E+00 0. -1.
         21    1    1    2  504  503 -0.35725065712E+02 -0.81793704875E+02  0.46927449486E+03  0.47768718007E+03  0.00000000000E+00 0. -1.
         21    1    1    2  505  501 -0.55381752773E+02 -0.30426327725E+02  0.16730493309E+02  0.65366729805E+02  0.00000000000E+00 0.  1.
          1    1    1    2  501    0  0.19700556553E+02  0.15566458597E+03  0.57203543870E+03  0.59316449522E+03  0.00000000000E+00 0. -1.
<scales pt_clust_3="72.56471" pt_clust_4="107.44807" pt_clust_5="63.18940" pt_clust_6="14000.00000"></scales>
<clustering>
<clus scale="   63.189">  2  5  1 -1</clus>
<clus scale="   72.565">  2  3  1 -1</clus>
<clus scale="  107.448">  1  4  2 -1</clus>
<clus scale="   63.189">  2  3  1 -1</clus>
</clustering>
</event>
<event>
 6    0  0.5775861E+002  0.1214012E+03  0.7546771E-02  0.1240803E+00
         21   -1    0    0  505  502  0.00000000000E+00  0.00000000000E+00  0.52482865646E+03  0.52482865646E+03  0.00000000000E+00 0. -1.
          3   -1    0    0  504    0 -0.00000000000E+00 -0.00000000000E+00 -0.14326419361E+04  0.14326419361E+04  0.00000000000E+00 0. -1.
         21    1    1    2  503  502  0.28810352314E+01 -0.32354250681E+02  0.17309297324E+03  0.17611438126E+03  0.00000000000E+00 0. -1.
         21    1    1    2  504  503  0.92430340535E+02 -0.55243505485E+02  0.29456209019E+03  0.31362722734E+03  0.00000000000E+00 0. -1.
         21    1    1    2  505  501 -0.62613019568E+02  0.87334667995E+02 -0.16916582881E+02  0.10878375444E+03  0.00000000000E+00 0. -1.
          3    1    1    2  501    0 -0.32698356198E+02  0.26308817156E+00 -0.13585517602E+04  0.13589452295E+04  0.00000000000E+00 0. -1.
<scales pt_clust_3="32.48227" pt_clust_4="14000.00000" pt_clust_5="121.40122" pt_clust_6="32.69766"></scales>
<clustering>
<clus scale="   32.482">  1  3  2 -1</clus>
<clus scale="   32.698">  2  6  1 -1</clus>
<clus scale="  121.401">  2  5  1 -1</clus>
<clus scale="   32.482">  1  3  2 -1</clus>
</clustering>
</event>
<event>
 6    0  0.5775861E+002  0.1301751E+03  0.7546771E-02  0.1227196E+00
          2   -1    0    0  504    0 -0.00000000000E+00  0.00000000000E+00  0.33245487362E+03  0.33245487362E+03  0.00000000000E+00 0.  1.
         21   -1    0    0  503  502  0.00000000000E+00 -0.00000000000E+00 -0.29327190347E+03  0.29327190347E+03  0.00000000000E+00 0.  1.
         21    1    1    2  503  501  0.17245269414E+02 -0.28295222307E+02 -0.32878753863E+02  0.46680096166E+02  0.00000000000E+00 0. -1.
         21    1    1    2  504  505 -0.70475812915E+02 -0.10501781255E+03  0.10918855996E+03  0.16708597423E+03  0.00000000000E+00 0.  1.
         21    1    1    2  505  502  0.11342744980E+03  0.67791581873E+02 -0.19215961839E+03  0.23320978513E+03  0.00000000000E+00 0.  1.
          2    1    1    2  501    0 -0.60196906302E+02  0.65521452983E+02  0.15503278244E+03  0.17875092156E+03  0.00000000000E+00 0.  1.
<scales pt_clust_3="33.13637" pt_clust_4="130.17508" pt_clust_5="14000.00000" pt_clust_6="87.45590"></scales>
<clustering>
<clus scale="   33.136">  2  3  1 -1</clus>
<clus scale="   87.456">  1  6  2 -1</clus>
<clus scale="  130.175">  1  4  2 -1</clus>
<clus scale="   33.136">  2  3  1 -1</clus>
</clustering>
</event>
<event>
 6    0  0.5775861E+002  0.1365853E+03  0.7546771E-02  0.1217999E+00
         21   -1    0    0  504  502  0.00000000000E+00  0.00000000000E+00  0.27911886775E+03  0.27911886775E+03  0.00000000000E+00 0.  1.
          2   -1    0    0  503    0 -0.00000000000E+00 -0.00000000000E+00 -0.10242313540E+04  0.10242313540E+04  0.00000000000E+00 0. -1.
         21    1    1    2  503  505  0.11844743860E+03 -0.70192868154E+02 -0.57279767767E+03  0.58911290429E+03  0.00000000000E+00 0.  1.
         21    1    1    2  504  501 -0.10373360289E+03  0.66919386323E+02  0.23852738617E+03  0.26857806795E+03  0.00000000000E+00 0.  1.
         21    1    1    2  505  502  0.75212291755E+01  0.31128568677E+02  0.12306181648E+01  0.32047949969E+02  0.00000000000E+00 0.  1.
          2    1    1    2  501    0 -0.22235064887E+02 -0.27855086846E+02 -0.41207281293E+03  0.41361129956E+03  0.00000000000E+00 0. -1.
<scales pt_clust_3="136.58529" pt_clust_4="14000.00000" pt_clust_5="32.02431" pt_clust_6="35.55630"></scales>
<clustering>
<clus scale="   32.024">  1  5  2 -1</clus>
<clus scale="   35.556">  2  6  1 -1</clus>
<clus scale="  136.585">  2  3  1 -1</clus>
<clus scale="   32.024">  1  3  2 -1</clus>
</clustering>
</event>
<event>
 6    0  0.5775861E+002  0.8661920E+02  0.7546771E-02  0.1311252E+00
         21   -1    0    0  501  502  0.00000000000E+00  0.00000000000E+00  0.37549546980E+03  0.37549546980E+03  0.00000000000E+00 0.  1.
          4   -1    0    0  505    0 -0.00000000000E+00 -0.00000000000E+00 -0.97185562818E+02  0.97185562818E+02  0.00000000000E+00 0. -1.
         21    1    1    2  503  504  0.67128016683E+02  0.11565135305E+03  0.17296516567E+03  0.21862834816E+03  0.00000000000E+00 0.  1.
         21    1    1    2  504  502 -0.54875084890E+02 -0.43364923391E+02  0.12498656576E+03  0.14322511352E+03  0.00000000000E+00 0.  1.
         21    1    1    2  505  503  0.26553747418E+02 -0.44580277719E+02  0.12436975869E+02  0.53358982676E+02  0.00000000000E+00 0. -1.
          4    1    1    2  501    0 -0.38806679210E+02 -0.27706151944E+02 -0.32078800312E+02  0.57468588258E+02  0.00000000000E+00 0. -1.
<scales pt_clust_3="86.61920" pt_clust_4="14000.00000" pt_clust_5="56.55810" pt_clust_6="47.68217"></scales>
<clustering>
<clus scale="   47.682">  2  6  1 -1</clus>
<clus scale="   56.558">  2  5  1 -1</clus>
<clus scale="   86.619">  2  3  1 -1</clus>
<clus scale="   86.619">  1  3  2 -1</clus>
</clustering>
</event>
<event>
 6    0  0.5775861E+002  0.1040694E+03  0.7546771E-02  0.1271964E+00
          2   -1    0    0  505    0 -0.00000000000E+00  0.00000000000E+00  0.88081481612E+03  0.88081481612E+03  0.00000000000E+00 0.  1.
         21   -1    0    0  504  502  0.00000000000E+00 -0.00000000000E+00 -0.16679763583E+03  0.16679763583E+03  0.00000000000E+00 0. -1.
         21    1    1    2  503  501 -0.20000820829E+02 -0.91273182458E+02 -0.15815510333E+02  0.94767911431E+02  0.00000000000E+00 0. -1.
         21    1    1    2  504  503 -0.42613068629E+01 -0.35715639358E+02 -0.91174356182E+02  0.98012901478E+02  0.00000000000E+00 0. -1.
         21    1    1    2  505  502 -0.28240547655E+02  0.86988802172E+02  0.12077892022E+03  0.15149959671E+03  0.00000000000E+00 0. -1.
          2    1    1    2  501    0  0.52502675346E+02  0.40000019644E+02  0.70022812659E+03  0.70333204233E+03  0.00000000000E+00 0.  1.
<scales pt_clust_3="14000.00000" pt_clust_4="35.96895" pt_clust_5="104.06939" pt_clust_6="65.46830"></scales>
<clustering>
<clus scale="   35.969">  2  4  1 -1</clus>
<clus scale="   65.468">  1  6  2 -1</clus>
<clus scale="  104.069">  1  5  2 -1</clus>
<clus scale="   35.969">  2  3  1 -1</clus>
</clustering>
</event>
<event>
 6    0  0.5775861E+002  0.9090368E+02  0.7546771E-02  0.1300678E+00
         21   -1    0    0  504  502  0.00000000000E+00  0.00000000000E+00  0.75323181323E+02  0.75323181323E+02  0.00000000000E+00 0. -1.
          2   -1    0    0  503    0 -0.00000000000E+00 -0.00000000000E+00 -0.18214606687E+04  0.18214606687E+04  0.00000000000E+00 0. -1.
         21    1    1    2  503  502  0.85534185506E+01 -0.13220400545E+03 -0.10500839927E+04  0.10584079798E+04  0.00000000000E+00 0. -1.
         21    1    1    2  504  505 -0.72289761062E+02  0.18239922033E+02  0.31691517964E+02  0.81011459813E+02  0.00000000000E+00 0. -1.
         21    1    1    2  505  501  0.41413161779E+02  0.69522407066E+02 -0.10464960060E+03  0.13228739153E+03  0.00000000000E+00 0.  1.
          2    1    1    2  501    0  0.22323180732E+02  0.44441676351E+02 -0.62309541208E+03  0.62507701890E+03  0.00000000000E+00 0. -1.
<scales pt_clust_3="14000.00000" pt_clust_4="74.34025" pt_clust_5="90.90368" pt_clust_6="49.73316"></scales>
<clustering>
<clus scale="   49.733">  2  6  1 -1</clus>
<clus scale="   74.340">  1  4  2 -1</clus>
<clus scale="   90.904">  1  5  2 -1</clus>
<clus scale="   74.340">  1  3  2 -1</clus>
</clustering>
</event>
<event>
 6    0  0.5775861E+002  0.9476170E+02  0.7546771E-02  0.1291714E+00
         21   -1    0    0  504  502  0.00000000000E+00  0.00000000000E+00  0.13360859395E+03  0.13360859395E+03  0.00000000000E+00 0.  1.
          4   -1    0    0  502    0 -0.00000000000E+00 -0.00000000000E+00 -0.11012448697E+04  0.11012448697E+04  0.00000000000E+00 0.  1.
         21    1    1    2  503  505  0.76736317853E+02 -0.35367933787E+02 -0.18611293358E+03  0.20439514980E+03  0.00000000000E+00 0.  1.
         21    1    1    2  504  503 -0.88998278777E+02  0.35481110153E+02  0.96549682740E+02  0.13602001338E+03  0.00000000000E+00 0.  1.
         21    1    1    2  505  501  0.58588865081E+02  0.31660790836E+02 -0.14901584831E+03  0.16322004728E+03  0.00000000000E+00 0.  1.
          4    1    1    2  501    0 -0.46326904157E+02 -0.31773967202E+02 -0.72905717664E+03  0.73121825323E+03  0.00000000000E+00 0.  1.
<scales pt_clust_3="14000.00000" pt_clust_4="94.76170" pt_clust_5="43.16807" pt_clust_6="56.17621"></scales>
<clustering>
<clus scale="   56.176">  2  6  1 -1</clus>
<clus scale="   43.168">  2  5  1 -1</clus>
<clus scale="   94.762">  1  4  2 -1</clus>
<clus scale="   94.762">  1  3  2 -1</clus>
</clustering>
</event>
<event>
 6    0  0.8554298E+002  0.1003519E+03  0.7546771E-02  0.1279558E+00
          2   -1    0    0  505    0 -0.00000000000E+00  0.00000000000E+00  0.12521288300E+04  0.12521288300E+04  0.00000000000E+00 0.  1.
         21   -1    0    0  503  502  0.00000000000E+00 -0.00000000000E+00 -0.42529250322E+03  0.42529250322E+03  0.00000000000E+00 0.  1.
         21    1    1    2  503  501 -0.44293252158E+02  0.15515880622E+02 -0.37730114533E+03  0.38020887550E+03  0.00000000000E+00 0.  1.
         21    1    1    2  504  502 -0.24586259194E+02  0.24313020893E+02 -0.53364169566E+01  0.34986918585E+02  0.00000000000E+00 0. -1.
         21    1    1    2  505  504 -0.24701271647E+02 -0.85517060087E+02  0.58422731015E+02  0.10647316979E+03  0.00000000000E+00 0. -1.
          2    1    1    2  501    0  0.93580782999E+02  0.45688158571E+02  0.11510511580E+04  0.11557523693E+04  0.00000000000E+00 0.  1.
<scales pt_clust_3="77.38992" pt_clust_4="34.57755" pt_clust_5="14000.00000" pt_clust_6="100.35188"></scales>
<clustering>
<clus scale="   34.578">  2  4  1 -1</clus>
<clus scale="   77.390">  2  3  1 -1</clus>
<clus scale="  100.352">  1  6  2 -1</clus>
<clus scale="   34.578">  2  3  1 -1</clus>
</clustering>
</event>
<event>
 6    0  0.5775861E+002  0.1663152E+03  0.7546771E-02  0.1181746E+00
          1   -1    0    0  503    0 -0.00000000000E+00  0.00000000000E+00  0.27272766854E+04  0.27272766854E+04  0.00000000000E+00 0.  1.
         21   -1    0    0  505  502  0.00000000000E+00 -0.00000000000E+00 -0.11327953031E+03  0.11327953031E+03  0.00000000000E+00 0.  1.
         21    1    1    2  503  502 -0.31679086184E+02 -0.84706567077E+01 -0.14266291490E+02  0.35760922799E+02  0.00000000000E+00 0.  1.
         21    1    1    2  504  501  0.92953101539E+02  0.99437971607E+02  0.31863015922E+03  0.34648718251E+03  0.00000000000E+00 0. -1.
         21    1    1    2  505  504 -0.14679814012E+01  0.74094440381E+02 -0.51761688170E+02  0.90395870631E+02  0.00000000000E+00 0.  1.
          1    1    1    2  501    0 -0.59806033953E+02 -0.16506175528E+03  0.23613949756E+04  0.23679122398E+04  0.00000000000E+00 0.  1.
<scales pt_clust_3="32.79202" pt_clust_4="14000.00000" pt_clust_5="72.48119" pt_clust_6="166.31517"></scales>
<clustering>
<clus scale="   32.792">  2  3  1 -1</clus>
<clus scale="   72.481">  2  5  1 -1</clus>
<clus scale="  166.315">  1  6  2 -1</clus>
<clus scale="   32.792">  2  3  1 -1</clus>
</clustering>
</event>
<event>
 6    0  0.5775861E+002  0.1176890E+03  0.7546771E-02  0.1246959E+00
          2   -1    0    0  504    0 -0.00000000000E+00  0.00000000000E+00  0.12314905216E+04  0.12314905216E+04  0.00000000000E+00 0. -1.
         21   -1    0    0  505  502  0.00000000000E+00 -0.00000000000E+00 -0.47910620824E+02  0.47910620824E+02  0.00000000000E+00 0. -1.
         21    1    1    2  503  502  0.10107540399E+03 -0.43579904935E+02  0.86403735450E+02  0.13993230830E+03  0.00000000000E+00 0. -1.
         21    1    1    2  504  503 -0.11233934652E+03  0.42241526529E+02  0.52920725411E+03  0.54264610304E+03  0.00000000000E+00 0.  1.
         21    1    1    2  505  501  0.21143130657E+02  0.36689615123E+02  0.18636397798E+02  0.46265269422E+02  0.00000000000E+00 0.  1.
          2    1    1    2  501    0 -0.98791881265E+01 -0.35351236717E+02  0.54933251342E+03  0.55055746167E+03  0.00000000000E+00 0. -1.
<scales pt_clust_3="117.68896" pt_clust_4="14000.00000" pt_clust_5="40.65479" pt_clust_6="36.70570"></scales>
<clustering>
<clus scale="   36.706">  1  6  2 -1</clus>
<clus scale="   40.655">  2  5  1 -1</clus>
<clus scale="  117.689">  2  3  1 -1</clus>
<clus scale="   40.655">  2  3  1 -1</clus>
</clustering>
</event>
<event>
 6    0  0.5775861E+002  0.1304439E+03  0.7546771E-02  0.1226799E+00
         -1   -1    0    0    0  501 -0.00000000000E+00  0.00000000000E+00  0.77914713278E+03  0.77914713278E+03  0.00000000000E+00 0.  1.
         21   -1    0    0  503  502  0.00000000000E+00 -0.00000000000E+00 -0.62426816196E+03  0.62426816196E+03  0.00000000000E+00 0.  1.
         21    1    1    2  503  501 -0.26346777505E+02 -0.93285266863E+02 -0.59414948002E+02  0.11369445784E+03  0.00000000000E+00 0. -1.
         21    1    1    2  504  505  0.16364530753E+02  0.80561578624E+02 -0.25717586948E+03  0.26999517340E+03  0.00000000000E+00 0.  1.
         21    1    1    2  505  502 -0.22308874626E+02  0.47514297270E+02 -0.27085015801E+03  0.27588965625E+03  0.00000000000E+00 0.  1.
         -1    1    1    2    0  504  0.32291121378E+02 -0.34790609032E+02  0.74231994630E+03  0.74383600725E+03  0.00000000000E+00 0.  1.
<scales pt_clust_3="119.48058" pt_clust_4="41.82760" pt_clust_5="41.82760" pt_clust_6="47.46686"></scales>
<clustering>
<clus scale="   41.828">  4  5 -1 -1</clus>
<clus scale="   47.467">  1  6  2 -1</clus>
<clus scale="  119.481">  1  3  2 -1</clus>
<clus scale="  130.444">  2  3  1 -1</clus>
</clustering>
</event>
<event>
 6    0  0.5775861E+002  0.1071495E+03  0.7546771E-02  0.1265942E+00
         21   -1    0    0  503  502  0.00000000000E+00  0.00000000000E+00  0.52420061176E+03  0.52420061176E+03  0.00000000000E+00 0. -1.
         -3   -1    0    0    0  501 -0.00000000000E+00 -0.00000000000E+00 -0.89371754410E+02  0.89371754410E+02  0.00000000000E+00 0. -1.
         21    1    1    2  503  501  0.49136505786E+02  0.14194824783E+03  0.29240738674E+03  0.32873360199E+03  0.00000000000E+00 0. -1.
         21    1    1    2  504  505  0.36458653958E+02 -0.84676551938E+02  0.13528882766E+02  0.93179303311E+02  0.00000000000E+00 0. -1.
         21    1    1    2  505  502 -0.51792216427E+02 -0.33972267216E+02  0.13650892852E+03  0.14990408997E+03  0.00000000000E+00 0.  1.
         -3    1    1    2    0  504 -0.33802943317E+02 -0.23299428672E+02 -0.76163406781E+01  0.41755370896E+02  0.00000000000E+00 0. -1.
<scales pt_clust_3="107.14947" pt_clust_4="14000.00000" pt_clust_5="66.18965" pt_clust_6="41.05487"></scales>
<clustering>
<clus scale="   41.055">  2  6  1 -1</clus>
<clus scale="   66.190">  1  5  2 -1</clus>
<clus scale="  107.149">  1  3  2 -1</clus>
<clus scale="   66.190">  1  3  2 -1</clus>
</clustering>
</event>
<event>
 6    0  0.5775861E+002  0.1291821E+03  0.7546771E-02  0.1228674E+00
         21   -1    0    0  504  502  0.00000000000E+00  0.00000000000E+00  0.25415306609E+03  0.25415306609E+03  0.00000000000E+00 0. -1.
          1   -1    0    0  503    0 -0.00000000000E+00 -0.00000000000E+00 -0.31042290003E+04  0.31042290003E+04  0.00000000000E+00 0.  1.
         21    1    1    2  503  502 -0.11735167802E+03  0.10183666299E+03 -0.45652324948E+03  0.48224018867E+03  0.00000000000E+00 0. -1.
         21    1    1    2  504  505  0.11181265967E+03 -0.62766643694E+02  0.19247003206E+03  0.23127134639E+03  0.00000000000E+00 0. -1.
         21    1    1    2  505  501  0.79692482564E+02 -0.60645355286E+02 -0.58117651878E+02  0.11578606287E+03  0.00000000000E+00 0.  1.
          1    1    1    2  501    0 -0.74153464215E+02  0.21575335994E+02 -0.25279050649E+04  0.25290844684E+04  0.00000000000E+00 0.  1.
<scales pt_clust_3="14000.00000" pt_clust_4="129.18209" pt_clust_5="89.35647" pt_clust_6="77.22844"></scales>
<clustering>
<clus scale="   77.228">  2  6  1 -1</clus>
<clus scale="   89.356">  2  5  1 -1</clus>
<clus scale="  129.182">  1  4  2 -1</clus>
<clus scale="  129.182">  1  3  2 -1</clus>
</clustering>
</event>
<event>
 6    0  0.5775861E+002  0.8720454E+02  0.7546771E-02  0.1309766E+00
         21   -1    0    0  504  502  0.00000000000E+00  0.00000000000E+00  0.18731472229E+04  0.18731472229E+04  0.00000000000E+00 0.  1.
          2   -1    0    0  505    0 -0.00000000000E+00 -0.00000000000E+00 -0.38789859004E+03  0.38789859004E+03  0.00000000000E+00 0.  1.
         21    1    1    2  503  502  0.27478595785E+02 -0.16863707100E+02  0.10390548353E+04  0.10395549089E+04  0.00000000000E+00 0.  1.
         21    1    1    2  504  501 -0.55245024313E+02  0.45658819983E+02  0.72898098007E+03  0.73249574051E+03  0.00000000000E+00 0.  1.
         21    1    1    2  505  503  0.77487320559E+02  0.41164107412E+02 -0.36182906368E+03  0.37231577983E+03  0.00000000000E+00 0.  1.
          2    1    1    2  501    0 -0.49720892032E+02 -0.69959220295E+02  0.79041881200E+02  0.11667938375E+03  0.00000000000E+00 0.  1.
<scales pt_clust_3="32.24062" pt_clust_4="43.87250" pt_clust_5="87.20454" pt_clust_6="14000.00000"></scales>
<clustering>
<clus scale="   32.241">  1  3  2 -1</clus>
<clus scale="   43.872">  1  4  2 -1</clus>
<clus scale="   87.205">  2  5  1 -1</clus>
<clus scale="   32.241">  1  3  2 -1</clus>
</clustering>
</event>
<event>
 6    0  0.5775861E+002  0.1358028E+03  0.7546771E-02  0.1219091E+00
          2   -1    0    0  504    0 -0.00000000000E+00  0.00000000000E+00  0.32087675240E+03  0.32087675240E+03  0.00000000000E+00 0. -1.
         21   -1    0    0  503  502  0.00000000000E+00 -0.00000000000E+00 -0.20084851035E+03  0.20084851035E+03  0.00000000000E+00 0.  1.
         21    1    1    2  503  501 -0.21689444755E+02 -0.40374381680E+02 -0.24969890412E+02  0.52192127155E+02  0.00000000000E+00 0.  1.
         21    1    1    2  504  505  0.67021686060E+02  0.27736589525E+02 -0.35832966766E+02  0.80902572939E+02  0.00000000000E+00 0.  1.
         21    1    1    2  505  502  0.59560197565E+02  0.79149675051E+02 -0.61309204404E+02  0.11649423479E+03  0.00000000000E+00 0.  1.
          2    1    1    2  501    0 -0.10489243887E+03 -0.66511882896E+02  0.24214030363E+03  0.27213632786E+03  0.00000000000E+00 0. -1.
<scales pt_clust_3="45.83146" pt_clust_4="39.03855" pt_clust_5="39.03855" pt_clust_6="127.91076"></scales>
<clustering>
<clus scale="   39.039">  4  5 -1 -1</clus>
<clus scale="   45.831">  2  3  1 -1</clus>
<clus scale="  127.911">  1  6  2 -1</clus>
<clus scale="   45.831">  2  3  1 -1</clus>
</clustering>
</event>
<event>
 6    0  0.5775861E+002  0.8692460E+02  0.7546771E-02  0.1310475E+00
          2   -1    0    0  502    0 -0.00000000000E+00  0.00000000000E+00  0.16040975892E+04  0.16040975892E+04  0.00000000000E+00 0.  1.
         21   -1    0    0  504  502  0.00000000000E+00 -0.00000000000E+00 -0.87499802656E+03  0.87499802656E+03  0.00000000000E+00 0.  1.
         21    1    1    2  503  501  0.62991949462E+02  0.13467092138E+03  0.34547379937E+02  0.15263605152E+03  0.00000000000E+00 0.  1.
         21    1    1    2  504  505  0.31054409654E+02 -0.17207927713E+02 -0.39256727617E+02  0.52929951807E+02  0.00000000000E+00 0. -1.
         21    1    1    2  505  503 -0.88039925066E+02 -0.31833062603E+02 -0.76578229071E+03  0.77148356369E+03  0.00000000000E+00 0.  1.
          2    1    1    2  501    0 -0.60064340503E+01 -0.85629931066E+02  0.14995912010E+04  0.15020460487E+04  0.00000000000E+00 0.  1.
<scales pt_clust_3="14000.00000" pt_clust_4="35.50337" pt_clust_5="76.11610" pt_clust_6="86.92460"></scales>
<clustering>
<clus scale="   35.503">  2  4  1 -1</clus>
<clus scale="   76.116">  2  5  1 -1</clus>
<clus scale="   86.925">  1  6  2 -1</clus>
<clus scale="   35.503">  2  3  1 -1</clus>
</clustering>
</event>
<event>
 6    0  0.5775861E+002  0.9902658E+02  0.7546771E-02  0.1282356E+00
          2   -1    0    0  504    0 -0.00000000000E+00  0.00000000000E+00  0.96003093965E+02  0.96003093965E+02  0.00000000000E+00 0.  1.
         21   -1    0    0  503  502  0.00000000000E+00 -0.00000000000E+00 -0.44552927993E+03  0.44552927993E+03  0.00000000000E+00 0.  1.
         21    1    1    2  503  505 -0.33383321567E+02  0.39749794735E+01 -0.13996032001E+03  0.14394143878E+03  0.00000000000E+00 0.  1.
         21    1    1    2  504  502 -0.33835159636E+02 -0.12154631079E+01 -0.28653370818E+02  0.44354380138E+02  0.00000000000E+00 0.  1.
         21    1    1    2  505  501  0.94155290401E+01  0.83557722160E+02 -0.22513981600E+03  0.24032994376E+03  0.00000000000E+00 0.  1.
          2    1    1    2  501    0  0.57802952164E+02 -0.86317238526E+02  0.44227320863E+02  0.11290661122E+03  0.00000000000E+00 0.  1.
<scales pt_clust_3="33.61914" pt_clust_4="37.85653" pt_clust_5="99.02658" pt_clust_6="14000.00000"></scales>
<clustering>
<clus scale="   33.619">  2  3  1 -1</clus>
<clus scale="   37.857">  2  4  1 -1</clus>
<clus scale="   99.027">  2  5  1 -1</clus>
<clus scale="   33.619">  2  3  1 -1</clus>
</clustering>
</event>
<event>
 6    0  0.5775861E+002  0.8987297E+02  0.7546771E-02  0.1303160E+00
         21   -1    0    0  501  502  0.00000000000E+00  0.00000000000E+00  0.48561681889E+03  0.48561681889E+03  0.00000000000E+00 0.  1.
          2   -1    0    0  505    0 -0.00000000000E+00 -0.00000000000E+00 -0.70754285133E+03  0.70754285133E+03  0.00000000000E+00 0. -1.
         21    1    1    2  503  502 -0.13029896051E+02 -0.54649255167E+02  0.43268471838E+03  0.43631683992E+03  0.00000000000E+00 0.  1.
         21    1    1    2  504  503  0.10418673126E+03  0.31621392865E+02 -0.18106530681E+02  0.11037496958E+03  0.00000000000E+00 0. -1.
         21    1    1    2  505  504 -0.67089068060E+02 -0.13899335154E+02 -0.35798878947E+03  0.36448608747E+03  0.00000000000E+00 0. -1.
          2    1    1    2  501    0 -0.24067767150E+02  0.36927197455E+02 -0.27851543067E+03  0.28198177325E+03  0.00000000000E+00 0. -1.
<scales pt_clust_3="56.05235" pt_clust_4="14000.00000" pt_clust_5="89.87297" pt_clust_6="44.07806"></scales>
<clustering>
<clus scale="   44.078">  2  6  1 -1</clus>
<clus scale="   56.052">  1  3  2 -1</clus>
<clus scale="   89.873">  2  5  1 -1</clus>
<clus scale="   56.052">  1  3  2 -1</clus>
</clustering>
</event>
<event>
 6    0  0.5775861E+002  0.7609273E+02  0.7546771E-02  0.1340520E+00
          1   -1    0    0  503    0 -0.00000000000E+00  0.00000000000E+00  0.73531563798E+03  0.73531563798E+03  0.00000000000E+00 0.  1.
         21   -1    0    0  504  502  0.00000000000E+00 -0.00000000000E+00 -0.39712255207E+02  0.39712255207E+02  0.00000000000E+00 0.  1.
         21    1    1    2  503  505  0.26643061222E+02 -0.59057348138E+02  0.13510782589E+03  0.14983907266E+03  0.00000000000E+00 0.  1.
         21    1    1    2  504  501 -0.69715277860E+02  0.54954760998E+02  0.32217887284E+03  0.33418478695E+03  0.00000000000E+00 0.  1.
         21    1    1    2  505  502  0.24414518575E+02 -0.43947627498E+02  0.32791256248E+01  0.50380704092E+02  0.00000000000E+00 0.  1.
          1    1    1    2  501    0  0.18657698064E+02  0.48050214637E+02  0.23503755841E+03  0.24062332948E+03  0.00000000000E+00 0.  1.
<scales pt_clust_3="76.09273" pt_clust_4="14000.00000" pt_clust_5="50.27388" pt_clust_6="46.47581"></scales>
<clustering>
<clus scale="   50.274">  2  5  1 -1</clus>
<clus scale="   46.476">  1  6  2 -1</clus>
<clus scale="   76.093">  1  3  2 -1</clus>
<clus scale="   50.274">  2  3  1 -1</clus>
</clustering>
</event>
<event>
 6    0  0.5775861E+002  0.1424713E+03  0.7546771E-02  0.1210042E+00
          1   -1    0    0  505    0 -0.00000000000E+00  0.00000000000E+00  0.13664351585E+04  0.13664351585E+04  0.00000000000E+00 0.  1.
         21   -1    0    0  504  502  0.00000000000E+00 -0.00000000000E+00 -0.14390934344E+03  0.14390934344E+03  0.00000000000E+00 0. -1.
         21    1    1    2  503  501 -0.10070035144E+03 -0.23161038153E+02  0.47688313099E+03  0.48794929562E+03  0.00000000000E+00 0.  1.
         21    1    1    2  504  503 -0.25552325737E+02 -0.28631088838E+02 -0.81665666718E+01  0.39234594554E+02  0.00000000000E+00 0. -1.
         21    1    1    2  505  502  0.16999263132E+03  0.49175942653E+02 -0.45446123551E+02  0.18270500317E+03  0.00000000000E+00 0. -1.
          1    1    1    2  501    0 -0.43739954136E+02  0.26161843388E+01  0.79925537428E+03  0.80045560859E+03  0.00000000000E+00 0.  1.
<scales pt_clust_3="14000.00000" pt_clust_4="38.37526" pt_clust_5="142.47131" pt_clust_6="43.93718"></scales>
<clustering>
<clus scale="   38.375">  2  4  1 -1</clus>
<clus scale="   43.937">  1  6  2 -1</clus>
<clus scale="  142.471">  2  5  1 -1</clus>
<clus scale="   38.375">  2  3  1 -1</clus>
</clustering>
</event>
<event>
 6    0  0.5775861E+002  0.8095570E+02  0.7546771E-02  0.1326361E+00
          2   -1    0    0  504    0 -0.00000000000E+00  0.00000000000E+00  0.13809829454E+03  0.13809829454E+03  0.00000000000E+00 0. -1.
         21   -1    0    0  505  502  0.00000000000E+00 -0.00000000000E+00 -0.30896547165E+03  0.30896547165E+03  0.00000000000E+00 0.  1.
         21    1    1    2  503  502 -0.70877883767E+02 -0.42518243269E+01 -0.39534343526E+02  0.81269408362E+02  0.00000000000E+00 0.  1.
         21    1    1    2  504  503  0.43042763494E+02  0.11440395306E+03 -0.50640537809E+02  0.13230800442E+03  0.00000000000E+00 0.  1.
         21    1    1    2  505  501 -0.66687671978E+01 -0.39936214879E+02 -0.13323046963E+03  0.13924701704E+03  0.00000000000E+00 0.  1.
          2    1    1    2  501    0  0.34503887471E+02 -0.70215913852E+02  0.52538173855E+02  0.94239336376E+02  0.00000000000E+00 0. -1.
<scales pt_clust_3="75.44247" pt_clust_4="80.95570" pt_clust_5="40.48918" pt_clust_6="14000.00000"></scales>
<clustering>
<clus scale="   40.489">  2  5  1 -1</clus>
<clus scale="   75.442">  2  3  1 -1</clus>
<clus scale="   80.956">  2  4  1 -1</clus>
<clus scale="   40.489">  2  3  1 -1</clus>
</clustering>
</event>
<event>
 6    0  0.5775861E+002  0.1416048E+03  0.7546771E-02  0.1211186E+00
          2   -1    0    0  504    0 -0.00000000000E+00  0.00000000000E+00  0.17379786054E+03  0.17379786054E+03  0.00000000000E+00 0. -1.
         21   -1    0    0  505  502  0.00000000000E+00 -0.00000000000E+00 -0.97965569179E+03  0.97965569179E+03  0.00000000000E+00 0. -1.
         21    1    1    2  503  501  0.26995150115E+02 -0.13468108318E+03 -0.26292223905E+02  0.13985354244E+03  0.00000000000E+00 0. -1.
         21    1    1    2  504  502 -0.85191585841E+02  0.85368456705E+02 -0.26505525248E+03  0.29120382306E+03  0.00000000000E+00 0. -1.
         21    1    1    2  505  503  0.58723102539E+02  0.80677851782E+02 -0.61194953374E+03  0.62003189465E+03  0.00000000000E+00 0. -1.
          2    1    1    2  501    0 -0.52666681302E+00 -0.31365225310E+02  0.97439178862E+02  0.10236429218E+03  0.00000000000E+00 0. -1.
<scales pt_clust_3="14000.00000" pt_clust_4="141.60476" pt_clust_5="98.38754" pt_clust_6="31.36965"></scales>
<clustering>
<clus scale="   31.370">  1  6  2 -1</clus>
<clus scale="   98.388">  2  5  1 -1</clus>
<clus scale="  141.605">  2  4  1 -1</clus>
<clus scale="   98.388">  2  3  1 -1</clus>
</clustering>
</event>
<event>
 6    0  0.5775861E+002  0.9962016E+02  0.7546771E-02  0.1281097E+00
         21   -1    0    0  504  502  0.00000000000E+00  0.00000000000E+00  0.10252391512E+03  0.10252391512E+03  0.00000000000E+00 0. -1.
          1   -1    0    0  505    0 -0.00000000000E+00 -0.00000000000E+00 -0.13429286154E+04  0.13429286154E+04  0.00000000000E+00 0. -1.
         21    1    1    2  503  501 -0.79170932421E+02  0.27962986601E+02 -0.33071181745E+03  0.34120414910E+03  0.00000000000E+00 0. -1.
         21    1    1    2  504  503  0.47488954787E+02 -0.61648850598E+02  0.61151618281E+02  0.98971218166E+02  0.00000000000E+00 0. -1.
         21    1    1    2  505  502  0.10516680007E+03  0.29820170633E+02 -0.17703454491E+03  0.20806376067E+03  0.00000000000E+00 0. -1.
          1    1    1    2  501    0 -0.73484822432E+02  0.38656933638E+01 -0.79380995618E+03  0.79721340258E+03  0.00000000000E+00 0. -1.
<scales pt_clust_3="99.62016" pt_clust_4="76.18847" pt_clust_5="14000.00000" pt_clust_6="73.58643"></scales>
<clustering>
<clus scale="   73.586">  2  6  1 -1</clus>
<clus scale="   76.188">  1  4  2 -1</clus>
<clus scale="   99.620">  1  3  2 -1</clus>
<clus scale="   76.188">  1  3  2 -1</clus>
</clustering>
</event>
<event>
 6    0  0.5775861E+002  0.1214509E+03  0.7546771E-02  0.1240723E+00
          1   -1    0    0  502    0 -0.00000000000E+00  0.00000000000E+00  0.20417799845E+04  0.20417799845E+04  0.00000000000E+00 0. -1.
         21   -1    0    0  503  502  0.00000000000E+00 -0.00000000000E+00 -0.41513536354E+03  0.41513536354E+03  0.00000000000E+00 0. -1.
         21    1    1    2  503  505  0.21302830965E+02  0.46916393279E+02 -0.27917613954E+03  0.28389130922E+03  0.00000000000E+00 0. -1.
         21    1    1    2  504  501 -0.79809962554E+02 -0.63277707938E+02  0.19955623264E+03  0.22404550527E+03  0.00000000000E+00 0. -1.
         21    1    1    2  505  504  0.71531067164E+02  0.45194700622E+02 -0.10645383373E+03  0.13598409190E+03  0.00000000000E+00 0. -1.
          1    1    1    2  501    0 -0.13023935575E+02 -0.28833385962E+02  0.18127183615E+04  0.18129944416E+04  0.00000000000E+00 0. -1.
<scales pt_clust_3="51.20046" pt_clust_4="14000.00000" pt_clust_5="121.45088" pt_clust_6="31.63838"></scales>
<clustering>
<clus scale="   31.638">  1  6  2 -1</clus>
<clus scale="   51.200">  2  3  1 -1</clus>
<clus scale="  121.451">  2  5  1 -1</clus>
<clus scale="   51.200">  2  3  1 -1</clus>
</clustering>
</event>
<event>
 6    0  0.5775861E+002  0.1307964E+03  0.7546771E-02  0.1226279E+00
          2   -1    0    0  505    0 -0.00000000000E+00  0.00000000000E+00  0.36189669366E+03  0.36189669366E+03  0.00000000000E+00 0. -1.
         21   -1    0    0  501  502  0.00000000000E+00 -0.00000000000E+00 -0.15087496499E+04  0.15087496499E+04  0.00000000000E+00 0.  1.
         21    1    1    2  503  504 -0.31337129858E+01  0.66008432047E+02 -0.70772820532E+03  0.71080668670E+03  0.00000000000E+00 0.  1.
         21    1    1    2  504  502 -0.56754391637E+02  0.35956396022E+02 -0.77772654908E+03  0.78062315398E+03  0.00000000000E+00 0.  1.
         21    1    1    2  505  503  0.23717148521E+02 -0.57608677650E+02  0.37482886756E+02  0.72706462396E+02  0.00000000000E+00 0. -1.
          2    1    1    2  501    0  0.36170956103E+02 -0.44356150418E+02  0.30111891137E+03  0.30651004051E+03  0.00000000000E+00 0. -1.
<scales pt_clust_3="61.22117" pt_clust_4="61.22117" pt_clust_5="115.34281" pt_clust_6="57.23466"></scales>
<clustering>
<clus scale="   57.235">  1  6  2 -1</clus>
<clus scale="   61.221">  3  4 -1 -1</clus>
<clus scale="  115.343">  1  5  2 -1</clus>
<clus scale="  130.796">  2  3  1 -1</clus>
</clustering>
</event>
<event>
 6    0  0.5775861E+002  0.2035949E+03  0.7546771E-02  0.1146741E+00
         21   -1    0    0  504  502  0.00000000000E+00  0.00000000000E+00  0.36208666542E+03  0.36208666542E+03  0.00000000000E+00 0.  1.
          1   -1    0    0  503    0 -0.00000000000E+00 -0.00000000000E+00 -0.85199081939E+03  0.85199081939E+03  0.00000000000E+00 0.  1.
         21    1    1    2  503  502 -0.99467828764E+01 -0.58844577115E+02 -0.41931564527E+02  0.72937499609E+02  0.00000000000E+00 0.  1.
         21    1    1    2  504  505  0.11643070638E+03 -0.13003637740E+03  0.38957041744E+02  0.17883853035E+03  0.00000000000E+00 0.  1.
         21    1    1    2  505  501 -0.24397113129E+03  0.60058995814E+02  0.15370190025E+03  0.29453908063E+03  0.00000000000E+00 0.  1.
          1    1    1    2  501    0  0.13748720779E+03  0.12882195870E+03 -0.64063153144E+03  0.66776237422E+03  0.00000000000E+00 0.  1.
<scales pt_clust_3="59.67933" pt_clust_4="203.59493" pt_clust_5="14000.00000" pt_clust_6="152.24180"></scales>
<clustering>
<clus scale="   59.679">  2  3  1 -1</clus>
<clus scale="  152.242">  2  6  1 -1</clus>
<clus scale="  203.595">  1  4  2 -1</clus>
<clus scale="  203.595">  1  3  2 -1</clus>
</clustering>
</event>
<event>
 6    0  0.5775861E+002  0.9822271E+02  0.7546771E-02  0.1284078E+00
          2   -1    0    0  504    0 -0.00000000000E+00  0.00000000000E+00  0.72518452861E+02  0.72518452861E+02  0.00000000000E+00 0. -1.
         21   -1    0    0  503  502  0.00000000000E+00 -0.00000000000E+00 -0.22521654594E+04  0.22521654594E+04  0.00000000000E+00 0. -1.
         21    1    1    2  503  501  0.29717756076E+02 -0.34892897885E+02 -0.34165407536E+03  0.34471461611E+03  0.00000000000E+00 0. -1.
         21    1    1    2  504  505  0.89897103458E+02  0.65252136563E+01  0.21395104054E+02  0.92638102856E+02  0.00000000000E+00 0. -1.
         21    1    1    2  505  502 -0.31844673940E+02 -0.70769674533E+02 -0.15350046558E+04  0.15369651016E+04  0.00000000000E+00 0. -1.
          2    1    1    2  501    0 -0.87770185595E+02  0.99137358762E+02 -0.32438337937E+03  0.35036609167E+03  0.00000000000E+00 0. -1.
<scales pt_clust_3="45.83295" pt_clust_4="90.64217" pt_clust_5="98.22271" pt_clust_6="14000.00000"></scales>
<clustering>
<clus scale="   45.833">  2  3  1 -1</clus>
<clus scale="   90.642">  1  4  2 -1</clus>
<clus scale="   98.223">  2  5  1 -1</clus>
<clus scale="   45.833">  2  3  1 -1</clus>
</clustering>
</event>
<event>
 6    0  0.5775861E+002  0.1545279E+03  0.7546771E-02  0.1195017E+00
         21   -1    0    0  505  502  0.00000000000E+00  0.00000000000E+00  0.18252462551E+03  0.18252462551E+03  0.00000000000E+00 0. -1.
          1   -1    0    0  504    0 -0.00000000000E+00 -0.00000000000E+00 -0.49438646985E+03  0.49438646985E+03  0.00000000000E+00 0.  1.
         21    1    1    2  503  502  0.18572311240E+02  0.44896947228E+02  0.60408483214E+02  0.77523231740E+02  0.00000000000E+00 0. -1.
         21    1    1    2  504  503 -0.15761353909E+02  0.10201181477E+03  0.49445952593E+02  0.11445406440E+03  0.00000000000E+00 0. -1.
         21    1    1    2  505  501  0.55343889469E+02 -0.12937027257E+03 -0.14664115581E+03  0.20323199085E+03  0.00000000000E+00 0.  1.
          1    1    1    2  501    0 -0.58154846800E+02 -0.17538489425E+02 -0.27507512433E+03  0.28170180838E+03  0.00000000000E+00 0.  1.
<scales pt_clust_3="38.79331" pt_clust_4="38.79331" pt_clust_5="143.81119" pt_clust_6="60.74195"></scales>
<clustering>
<clus scale="   38.793">  3  4 -1 -1</clus>
<clus scale="   60.742">  2  6  1 -1</clus>
<clus scale="  143.811">  2  5  1 -1</clus>
<clus scale="  154.528">  1  3  2 -1</clus>
</clustering>
</event>
<event>
 6    0  0.5775861E+002  0.1120813E+03  0.7546771E-02  0.1256763E+00
         21   -1    0    0  505  502  0.00000000000E+00  0.00000000000E+00  0.15175300552E+03  0.15175300552E+03  0.00000000000E+00 0.  1.
         -3   -1    0    0    0  501 -0.00000000000E+00 -0.00000000000E+00 -0.48994279136E+03  0.48994279136E+03  0.00000000000E+00 0. -1.
         21    1    1    2  503  502  0.74650421481E+02  0.44466202084E+02 -0.64415067724E+02  0.10816297659E+03  0.00000000000E+00 0. -1.
         21    1    1    2  504  501  0.25505012821E+02 -0.22254456149E+02 -0.34633079776E+02  0.48427437598E+02  0.00000000000E+00 0. -1.
         21    1    1    2  505  504 -0.10333863795E+03 -0.62628026306E+02  0.91761627838E+02  0.15172784885E+03  0.00000000000E+00 0.  1.
         -3    1    1    2    0  503  0.31832036522E+01  0.40416280371E+02 -0.33090326617E+03  0.33337753384E+03  0.00000000000E+00 0. -1.
<scales pt_clust_3="112.08130" pt_clust_4="33.84917" pt_clust_5="14000.00000" pt_clust_6="32.55849"></scales>
<clustering>
<clus scale="   33.849">  2  4  1 -1</clus>
<clus scale="   32.558">  2  6  1 -1</clus>
<clus scale="  112.081">  2  3  1 -1</clus>
<clus scale="  112.081">  1  3  2 -1</clus>
</clustering>
</event>
<event>
 6    0  0.5775861E+002  0.7316181E+02  0.7546771E-02  0.1349660E+00
          2   -1    0    0  504    0 -0.00000000000E+00  0.00000000000E+00  0.63378939822E+02  0.63378939822E+02  0.00000000000E+00 0. -1.
         21   -1    0    0  503  502  0.00000000000E+00 -0.00000000000E+00 -0.95719195098E+03  0.95719195098E+03  0.00000000000E+00 0. -1.
         21    1    1    2  503  501 -0.10137616574E+03  0.36693467010E+02 -0.46424175386E+03  0.47659620595E+03  0.00000000000E+00 0. -1.
         21    1    1    2  504  505  0.17428431011E+02  0.44363959530E+02 -0.50739562253E+02  0.69616192731E+02  0.00000000000E+00 0. -1.
         21    1    1    2  505  502  0.38954870316E+02 -0.50041268293E+02 -0.40766691521E+03  0.41256990221E+03  0.00000000000E+00 0. -1.
          2    1    1    2  501    0  0.44992864409E+02 -0.31016158247E+02  0.28835220170E+02  0.61788589904E+02  0.00000000000E+00 0. -1.
<scales pt_clust_3="73.16181" pt_clust_4="47.66457" pt_clust_5="14000.00000" pt_clust_6="59.96006"></scales>
<clustering>
<clus scale="   47.665">  1  4  2 -1</clus>
<clus scale="   59.960">  1  6  2 -1</clus>
<clus scale="   73.162">  1  3  2 -1</clus>
<clus scale="   73.162">  2  3  1 -1</clus>
</clustering>
</event>
<event>
 6    0  0.5775861E+002  0.2072860E+03  0.7546771E-02  0.1143733E+00
         21   -1    0    0  503  502  0.00000000000E+00  0.00000000000E+00  0.84198100773E+03  0.84198100773E+03  0.00000000000E+00 0. -1.
          2   -1    0    0  505    0 -0.00000000000E+00 -0.00000000000E+00 -0.10652627545E+04  0.10652627545E+04  0.00000000000E+00 0.  1.
         21    1    1    2  503  501  0.38891269633E+02 -0.43985712961E+01  0.23399904363E+03  0.23724972224E+03  0.00000000000E+00 0.  1.
         21    1    1    2  504  502 -0.13366273901E+03  0.18586766040E+03  0.50680364535E+03  0.55611370234E+03  0.00000000000E+00 0. -1.
         21    1    1    2  505  504  0.13160501730E+03 -0.15906674266E+03 -0.68880260666E+02  0.21763869029E+03  0.00000000000E+00 0. -1.
          2    1    1    2  501    0 -0.36833547924E+02 -0.22402346436E+02 -0.89520417511E+03  0.89624164739E+03  0.00000000000E+00 0.  1.
<scales pt_clust_3="39.13922" pt_clust_4="207.28597" pt_clust_5="14000.00000" pt_clust_6="43.08473"></scales>
<clustering>
<clus scale="   39.139">  1  3  2 -1</clus>
<clus scale="   43.085">  2  6  1 -1</clus>
<clus scale="  207.286">  1  4  2 -1</clus>
<clus scale="   39.139">  1  3  2 -1</clus>
</clustering>
</event>
<event>
 6    0  0.5775861E+002  0.1500628E+03  0.7546771E-02  0.1200396E+00
          1   -1    0    0  505    0 -0.00000000000E+00  0.00000000000E+00  0.15526490925E+04  0.15526490925E+04  0.00000000000E+00 0.  1.
         21   -1    0    0  503  502  0.00000000000E+00 -0.00000000000E+00 -0.21436178885E+04  0.21436178885E+04  0.00000000000E+00 0.  1.
         21    1    1    2  503  504  0.50759984003E+02 -0.65351750330E+02 -0.20798880204E+04  0.20815334743E+04  0.00000000000E+00 0.  1.
         21    1    1    2  504  501 -0.12081549367E+03 -0.50096680472E+02  0.37379360215E+03  0.39601479507E+03  0.00000000000E+00 0.  1.
         21    1    1    2  505  502  0.10100321829E+03  0.12310924646E+03  0.71414842864E+02  0.17452110603E+03  0.00000000000E+00 0. -1.
          1    1    1    2  501    0 -0.30947708624E+02 -0.76608156555E+01  0.10437107794E+04  0.10441976057E+04  0.00000000000E+00 0.  1.
<scales pt_clust_3="82.72828" pt_clust_4="14000.00000" pt_clust_5="150.06278" pt_clust_6="31.88179"></scales>
<clustering>
<clus scale="   31.882">  1  6  2 -1</clus>
<clus scale="   82.728">  2  3  1 -1</clus>
<clus scale="  150.063">  2  5  1 -1</clus>
<clus scale="   82.728">  2  3  1 -1</clus>
</clustering>
</event>
<event>
 6    0  0.5775861E+002  0.1257856E+03  0.7546771E-02  0.1233847E+00
          1   -1    0    0  503    0 -0.00000000000E+00  0.00000000000E+00  0.40185094951E+03  0.40185094951E+03  0.00000000000E+00 0.  1.
         21   -1    0    0  505  502  0.00000000000E+00 -0.00000000000E+00 -0.33937778836E+03  0.33937778836E+03  0.00000000000E+00 0.  1.
         21    1    1    2  503  502  0.53442632729E+02 -0.56369899072E+02 -0.27602198356E-01  0.77676774368E+02  0.00000000000E+00 0. -1.
         21    1    1    2  504  501  0.90118389211E+02  0.91008699806E+02 -0.19991057962E+03  0.23741977036E+03  0.00000000000E+00 0.  1.
         21    1    1    2  505  504 -0.30639961883E+02  0.21295199066E+02 -0.65199289805E+02  0.75121502638E+02  0.00000000000E+00 0. -1.
          1    1    1    2  501    0 -0.11292106006E+03 -0.55933999801E+02  0.32761063277E+03  0.35101069050E+03  0.00000000000E+00 0.  1.
<scales pt_clust_3="72.41254" pt_clust_4="14000.00000" pt_clust_5="37.31344" pt_clust_6="125.78562"></scales>
<clustering>
<clus scale="   37.313">  2  5  1 -1</clus>
<clus scale="   72.413">  2  3  1 -1</clus>
<clus scale="  125.786">  1  6  2 -1</clus>
<clus scale="   37.313">  2  3  1 -1</clus>
</clustering>
</event>
<event>
 6    0  0.5775861E+002  0.1764595E+03  0.7546771E-02  0.1171274E+00
         21   -1    0    0  504  502  0.00000000000E+00  0.00000000000E+00  0.18491550769E+03  0.18491550769E+03  0.00000000000E+00 0.  1.
          2   -1    0    0  503    0 -0.00000000000E+00 -0.00000000000E+00 -0.11433542671E+04  0.11433542671E+04  0.00000000000E+00 0.  1.
         21    1    1    2  503  505  0.19948357297E+02 -0.50421025441E+02 -0.48283561076E+02  0.72605227329E+02  0.00000000000E+00 0.  1.
         21    1    1    2  504  501 -0.15698268759E+03  0.96250378499E+02 -0.40469095852E+03  0.44461496991E+03  0.00000000000E+00 0.  1.
         21    1    1    2  505  502  0.17662410054E+03 -0.17776557655E+02  0.99932166705E+02  0.20371184756E+03  0.00000000000E+00 0.  1.
          2    1    1    2  501    0 -0.39589770255E+02 -0.28052795404E+02 -0.60539640647E+03  0.60733772994E+03  0.00000000000E+00 0.  1.
<scales pt_clust_3="55.77348" pt_clust_4="14000.00000" pt_clust_5="176.45953" pt_clust_6="48.52122"></scales>
<clustering>
<clus scale="   48.521">  2  6  1 -1</clus>
<clus scale="   55.773">  2  3  1 -1</clus>
<clus scale="  176.460">  1  5  2 -1</clus>
<clus scale="  176.460">  1  3  2 -1</clus>
</clustering>
</event>
<event>
 6    0  0.5775861E+002  0.1265191E+03  0.7546771E-02  0.1232714E+00
         -2   -1    0    0    0  501 -0.00000000000E+00  0.00000000000E+00  0.13831627358E+04  0.13831627358E+04  0.00000000000E+00 0.  1.
         21   -1    0    0  503  502  0.00000000000E+00 -0.00000000000E+00 -0.10898145484E+03  0.10898145484E+03  0.00000000000E+00 0. -1.
         21    1    1    2  503  505 -0.36994858946E+02  0.22758053875E+02 -0.57106572159E+02  0.71747537856E+02  0.00000000000E+00 0. -1.
         21    1    1    2  504  501  0.37533734280E+02 -0.98938242223E+01  0.90955231513E+02  0.98891471352E+02  0.00000000000E+00 0. -1.
         21    1    1    2  505  504  0.46751183462E+00  0.10495210297E+03  0.35306158498E+02  0.11073250342E+03  0.00000000000E+00 0. -1.
         -2    1    1    2    0  502 -0.10063871684E+01 -0.11781633262E+03  0.12050264631E+04  0.12107726780E+04  0.00000000000E+00 0.  1.
<scales pt_clust_3="43.22334" pt_clust_4="38.81583" pt_clust_5="126.51909" pt_clust_6="14000.00000"></scales>
<clustering>
<clus scale="   38.816">  1  4  2 -1</clus>
<clus scale="   43.223">  2  3  1 -1</clus>
<clus scale="  126.519">  2  5  1 -1</clus>
<clus scale="   43.223">  2  3  1 -1</clus>
</clustering>
</event>
<event>
 6    0  0.5775861E+002  0.1446409E+03  0.7546771E-02  0.1207217E+00
          1   -1    0    0  504    0 -0.00000000000E+00  0.00000000000E+00  0.18639496054E+04  0.18639496054E+04  0.00000000000E+00 0. -1.
         21   -1    0    0  505  502  0.00000000000E+00 -0.00000000000E+00 -0.85334736348E+02  0.85334736348E+02  0.00000000000E+00 0. -1.
         21    1    1    2  503  502  0.10959792110E+03  0.18604720242E+03  0.35301514907E+03  0.41381754592E+03  0.00000000000E+00 0. -1.
         21    1    1    2  504  503 -0.50396726992E+02 -0.73467307888E+02  0.41743828441E+03  0.42683954445E+03  0.00000000000E+00 0. -1.
         21    1    1    2  505  501  0.16740260917E+02 -0.77219736722E+02 -0.16357842650E+02  0.80688927934E+02  0.00000000000E+00 0. -1.
          1    1    1    2  501    0 -0.75941455024E+02 -0.35360157807E+02  0.10245192782E+04  0.10279383234E+04  0.00000000000E+00 0. -1.
<scales pt_clust_3="14000.00000" pt_clust_4="144.64088" pt_clust_5="79.01344" pt_clust_6="84.65484"></scales>
<clustering>
<clus scale="   79.013">  2  5  1 -1</clus>
<clus scale="   84.655">  1  6  2 -1</clus>
<clus scale="  144.641">  1  4  2 -1</clus>
<clus scale="   79.013">  2  3  1 -1</clus>
</clustering>
</event>
<event>
 6    0  0.5775861E+002  0.1058477E+03  0.7546771E-02  0.1268458E+00
         21   -1    0    0  504  502  0.00000000000E+00  0.00000000000E+00  0.42267142039E+02  0.42267142039E+02  0.00000000000E+00 0.  1.
          2   -1    0    0  505    0 -0.00000000000E+00 -0.00000000000E+00 -0.29291937909E+04  0.29291937909E+04  0.00000000000E+00 0. -1.
         21    1    1    2  503  501  0.71517618367E+02  0.45529136709E+02 -0.15969540885E+04  0.15992029367E+04  0.00000000000E+00 0. -1.
         21    1    1    2  504  503  0.13973569526E+02 -0.27655300751E+02 -0.89050677301E+02  0.94287323818E+02  0.00000000000E+00 0. -1.
         21    1    1    2  505  502 -0.12093300850E+03  0.10151343189E+02 -0.58618042437E+02  0.13477357758E+03  0.00000000000E+00 0.  1.
          2    1    1    2  501    0  0.35441820610E+02 -0.28025179147E+02 -0.11423038406E+04  0.11431970948E+04  0.00000000000E+00 0. -1.
<scales pt_clust_3="105.84772" pt_clust_4="30.98510" pt_clust_5="14000.00000" pt_clust_6="45.50026"></scales>
<clustering>
<clus scale="   30.985">  1  4  2 -1</clus>
<clus scale="   45.500">  2  6  1 -1</clus>
<clus scale="  105.848">  2  3  1 -1</clus>
<clus scale="   30.985">  1  3  2 -1</clus>
</clustering>
</event>
<event>
 6    0  0.5775861E+002  0.1917928E+03  0.7546771E-02  0.1156854E+00
         -1   -1    0    0    0  501 -0.00000000000E+00  0.00000000000E+00  0.15932959407E+04  0.15932959407E+04  0.00000000000E+00 0. -1.
         21   -1    0    0  503  502  0.00000000000E+00 -0.00000000000E+00 -0.28060920489E+03  0.28060920489E+03  0.00000000000E+00 0.  1.
         21    1    1    2  503  505  0.14867219652E+02 -0.28366173665E+02  0.21356606331E+02  0.38493878248E+02  0.00000000000E+00 0. -1.
         21    1    1    2  504  502  0.62948988608E+02  0.20393289918E+02 -0.23678818117E+03  0.24585992797E+03  0.00000000000E+00 0.  1.
         21    1    1    2  505  501 -0.14198355002E+02  0.19284798804E+03  0.39618162016E+03  0.44085350847E+03  0.00000000000E+00 0. -1.
         -1    1    1    2    0  504 -0.63617853259E+02 -0.18487510430E+03  0.11319366905E+04  0.11486978309E+04  0.00000000000E+00 0. -1.
<scales pt_clust_3="32.02615" pt_clust_4="76.28680" pt_clust_5="191.79283" pt_clust_6="14000.00000"></scales>
<clustering>
<clus scale="   32.026">  2  3  1 -1</clus>
<clus scale="   76.287">  2  4  1 -1</clus>
<clus scale="  191.793">  2  5  1 -1</clus>
<clus scale="   32.026">  2  3  1 -1</clus>
</clustering>
</event>
<event>
 6    0  0.5775861E+002  0.7538528E+02  0.7546771E-02  0.1342682E+00
         21   -1    0    0  504  502  0.00000000000E+00  0.00000000000E+00  0.55822636911E+02  0.55822636911E+02  0.00000000000E+00 0.  1.
          2   -1    0    0  503    0 -0.00000000000E+00 -0.00000000000E+00 -0.10310205128E+04  0.10310205128E+04  0.00000000000E+00 0. -1.
         21    1    1    2  503  505  0.63941738158E+01 -0.41802208945E+02 -0.14102839028E+03  0.14723218737E+03  0.00000000000E+00 0.  1.
         21    1    1    2  504  501 -0.52917855814E+02  0.32408125060E+02 -0.57887648957E+02  0.84862040604E+02  0.00000000000E+00 0.  1.
         21    1    1    2  505  502  0.10288181912E+03  0.27118031633E+02 -0.36307896426E+02  0.11242028148E+03  0.00000000000E+00 0.  1.
          2    1    1    2  501    0 -0.56358137119E+02 -0.17723947748E+02 -0.73997394023E+03  0.74232864027E+03  0.00000000000E+00 0. -1.
<scales pt_clust_3="42.28842" pt_clust_4="59.91373" pt_clust_5="75.38528" pt_clust_6="14000.00000"></scales>
<clustering>
<clus scale="   42.288">  2  3  1 -1</clus>
<clus scale="   59.914">  1  4  2 -1</clus>
<clus scale="   75.385">  1  5  2 -1</clus>
<clus scale="   59.914">  1  3  2 -1</clus>
</clustering>
</event>
<event>
 6    0  0.5775861E+002  0.7931340E+02  0.7546771E-02  0.1331011E+00
         -1   -1    0    0    0  501 -0.00000000000E+00  0.00000000000E+00  0.81873503494E+03  0.81873503494E+03  0.00000000000E+00 0.  1.
         21   -1    0    0  503  502  0.00000000000E+00 -0.00000000000E+00 -0.30065474134E+03  0.30065474134E+03  0.00000000000E+00 0.  1.
         21    1    1    2  503  505  0.29465901784E+02 -0.69165480741E+02 -0.20832988137E+03  0.22148011777E+03  0.00000000000E+00 0.  1.
         21    1    1    2  504  502  0.17505259309E+02  0.13032379087E+03 -0.15960027008E+02  0.13245922781E+03  0.00000000000E+00 0.  1.
         21    1    1    2  505  501  0.17702799661E+01 -0.56686797070E+02  0.64796057013E+02  0.86110718599E+02  0.00000000000E+00 0.  1.
         -1    1    1    2    0  504 -0.48741441059E+02 -0.44715130618E+01  0.67757414497E+03  0.67933971210E+03  0.00000000000E+00 0.  1.
<scales pt_clust_3="79.31340" pt_clust_4="14000.00000" pt_clust_5="63.94930" pt_clust_6="48.94612"></scales>
<clustering>
<clus scale="   48.946">  1  6  2 -1</clus>
<clus scale="   63.949">  1  5  2 -1</clus>
<clus scale="   79.313">  2  3  1 -1</clus>
<clus scale="   79.313">  2  3  1 -1</clus>
</clustering>
</event>
<event>
 6    0  0.5775861E+002  0.6117324E+02  0.7546771E-02  0.1392973E+00
         21   -1    0    0  505  502  0.00000000000E+00  0.00000000000E+00  0.11733909047E+03  0.11733909047E+03  0.00000000000E+00 0. -1.
          1   -1    0    0  504    0 -0.00000000000E+00 -0.00000000000E+00 -0.59070530774E+03  0.59070530774E+03  0.00000000000E+00 0. -1.
         21    1    1    2  503  502 -0.38199906181E+01 -0.29763669231E+02  0.41116939917E+02  0.50902564597E+02  0.00000000000E+00 0. -1.
         21    1    1    2  504  503  0.21064179965E+02 -0.35539709202E+02 -0.26338570950E+02  0.48994805107E+02  0.00000000000E+00 0. -1.
         21    1    1    2  505  501 -0.55228603148E+02  0.11085048702E+03 -0.77324344693E+01  0.12408795115E+03  0.00000000000E+00 0. -1.
          1    1    1    2  501    0  0.37984413801E+02 -0.45547108589E+02 -0.48041215177E+03  0.48405907735E+03  0.00000000000E+00 0. -1.
<scales pt_clust_3="30.00780" pt_clust_4="45.16535" pt_clust_5="14000.00000" pt_clust_6="61.17324"></scales>
<clustering>
<clus scale="   30.008">  1  3  2 -1</clus>
<clus scale="   45.165">  1  4  2 -1</clus>
<clus scale="   61.173">  2  6  1 -1</clus>
<clus scale="   30.008">  1  3  2 -1</clus>
</clustering>
</event>
<event>
 6    0  0.5775861E+002  0.1303542E+03  0.7546771E-02  0.1226931E+00
          1   -1    0    0  505    0 -0.00000000000E+00  0.00000000000E+00  0.56909756928E+03  0.56909756928E+03  0.00000000000E+00 0.  1.
         21   -1    0    0  504  502  0.00000000000E+00 -0.00000000000E+00 -0.15030092315E+03  0.15030092315E+03  0.00000000000E+00 0. -1.
         21    1    1    2  503  502 -0.31817556735E+02 -0.13298316413E+02 -0.28271246962E+02  0.44592213904E+02  0.00000000000E+00 0. -1.
         21    1    1    2  504  501 -0.86675493118E+02  0.60994484327E+02 -0.26785926086E+02  0.10931813236E+03  0.00000000000E+00 0. -1.
         21    1    1    2  505  503  0.17410280255E+03 -0.33708123370E+02  0.13781165823E+03  0.22458868311E+03  0.00000000000E+00 0. -1.
          1    1    1    2  501    0 -0.55609752698E+02 -0.13988044543E+02  0.33604216094E+03  0.34089946306E+03  0.00000000000E+00 0.  1.
<scales pt_clust_3="34.48481" pt_clust_4="14000.00000" pt_clust_5="130.35420" pt_clust_6="58.06945"></scales>
<clustering>
<clus scale="   34.485">  2  3  1 -1</clus>
<clus scale="   58.069">  1  6  2 -1</clus>
<clus scale="  130.354">  1  5  2 -1</clus>
<clus scale="   34.485">  2  3  1 -1</clus>
</clustering>
</event>
<event>
 6    0  0.5775861E+002  0.9972882E+02  0.7546771E-02  0.1280867E+00
         -3   -1    0    0    0  501 -0.00000000000E+00  0.00000000000E+00  0.10210078131E+03  0.10210078131E+03  0.00000000000E+00 0.  1.
         21   -1    0    0  504  502  0.00000000000E+00 -0.00000000000E+00 -0.61973868501E+03  0.61973868501E+03  0.00000000000E+00 0.  1.
         21    1    1    2  503  502  0.15048449225E+02  0.99921026129E+02 -0.17447377526E+03  0.20162282990E+03  0.00000000000E+00 0.  1.
         21    1    1    2  504  505 -0.94216472681E+02 -0.61799794286E+02 -0.37826374692E+03  0.39468901749E+03  0.00000000000E+00 0.  1.
         21    1    1    2  505  501  0.37278994713E+02 -0.14686737923E+02 -0.26048860872E+02  0.47790865972E+02  0.00000000000E+00 0.  1.
         -3    1    1    2    0  503  0.41889028743E+02 -0.23434493920E+02  0.61148479338E+02  0.77736752953E+02  0.00000000000E+00 0.  1.
<scales pt_clust_3="99.72882" pt_clust_4="14000.00000" pt_clust_5="40.06774" pt_clust_6="78.32823"></scales>
<clustering>
<clus scale="   40.068">  1  5  2 -1</clus>
<clus scale="   78.328">  1  6  2 -1</clus>
<clus scale="   99.729">  1  3  2 -1</clus>
<clus scale="   99.729">  2  3  1 -1</clus>
</clustering>
</event>
<event>
 6    0  0.5775861E+002  0.2224479E+03  0.7546771E-02  0.1132071E+00
          2   -1    0    0  503    0 -0.00000000000E+00  0.00000000000E+00  0.15945578417E+04  0.15945578417E+04  0.00000000000E+00 0.  1.
         21   -1    0    0  504  502  0.00000000000E+00 -0.00000000000E+00 -0.16853692047E+03  0.16853692047E+03  0.00000000000E+00 0.  1.
         21    1    1    2  503  505  0.71269075156E+02  0.23420232523E+03  0.20376919040E+03  0.31851513806E+03  0.00000000000E+00 0.  1.
         21    1    1    2  504  501 -0.45021349471E+02 -0.30184964678E+01  0.29988725607E+03  0.30326292154E+03  0.00000000000E+00 0.  1.
         21    1    1    2  505  502  0.29210146615E+01 -0.21650601981E+03 -0.18420012321E+01  0.21653355839E+03  0.00000000000E+00 0.  1.
          2    1    1    2  501    0 -0.29168740347E+02 -0.14677808945E+02  0.92420647603E+03  0.92478314422E+03  0.00000000000E+00 0.  1.
<scales pt_clust_3="14000.00000" pt_clust_4="58.94043" pt_clust_5="222.44790" pt_clust_6="32.65354"></scales>
<clustering>
<clus scale="   32.654">  1  6  2 -1</clus>
<clus scale="   58.940">  1  4  2 -1</clus>
<clus scale="  222.448">  2  5  1 -1</clus>
<clus scale="  222.448">  2  3  1 -1</clus>
</clustering>
</event>
<event>
 6    0  0.5775861E+002  0.1114283E+03  0.7546771E-02  0.1257947E+00
         -1   -1    0    0    0  501 -0.00000000000E+00  0.00000000000E+00  0.27349985547E+03  0.27349985547E+03  0.00000000000E+00 0.  1.
         21   -1    0    0  504  502  0.00000000000E+00 -0.00000000000E+00 -0.11613588909E+03  0.11613588909E+03  0.00000000000E+00 0. -1.
         21    1    1    2  503  502  0.11408780144E+03  0.34453154194E+02 -0.33602498237E+02  0.12382315680E+03  0.00000000000E+00 0. -1.
         21    1    1    2  504  505 -0.48516872962E+02 -0.20016748269E+01  0.28317470180E+02  0.56211856237E+02  0.00000000000E+00 0. -1.
         21    1    1    2  505  501 -0.29690241476E+02  0.37331013330E+02  0.32809762616E+02  0.57892966050E+02  0.00000000000E+00 0. -1.
         -1    1    1    2    0  503 -0.35880687005E+02 -0.69782492697E+02  0.12983923181E+03  0.15170776547E+03  0.00000000000E+00 0.  1.
<scales pt_clust_3="102.45689" pt_clust_4="43.41513" pt_clust_5="43.41513" pt_clust_6="78.46668"></scales>
<clustering>
<clus scale="   43.415">  4  5 -1 -1</clus>
<clus scale="   78.467">  1  6  2 -1</clus>
<clus scale="  102.457">  2  3  1 -1</clus>
<clus scale="  102.457">  2  3  1 -1</clus>
</clustering>
</event>
<event>
 6    0  0.5818119E+002  0.9505073E+02  0.7546771E-02  0.1291062E+00
          2   -1    0    0  505    0 -0.00000000000E+00  0.00000000000E+00  0.13077198272E+04  0.13077198272E+04  0.00000000000E+00 0. -1.
         21   -1    0    0  504  502  0.00000000000E+00 -0.00000000000E+00 -0.38474885168E+03  0.38474885168E+03  0.00000000000E+00 0.  1.
         21    1    1    2  503  501 -0.12406446967E+03 -0.56145318413E+02  0.28448590312E+03  0.31539898301E+03  0.00000000000E+00 0.  1.
         21    1    1    2  504  503  0.46954435703E+02  0.36872490119E+02 -0.11491362571E+03  0.12949687616E+03  0.00000000000E+00 0.  1.
         21    1    1    2  505  502  0.43929639852E+02 -0.38279791282E+01 -0.24470715237E+03  0.24864846089E+03  0.00000000000E+00 0.  1.
          2    1    1    2  501    0  0.33180394115E+02  0.23100807422E+02  0.99810585050E+03  0.99892435883E+03  0.00000000000E+00 0. -1.
<scales pt_clust_3="95.05073" pt_clust_4="14000.00000" pt_clust_5="44.29430" pt_clust_6="40.43001"></scales>
<clustering>
<clus scale="   40.430">  1  6  2 -1</clus>
<clus scale="   44.294">  2  5  1 -1</clus>
<clus scale="   95.051">  1  3  2 -1</clus>
<clus scale="   44.294">  2  3  1 -1</clus>
</clustering>
</event>
<event>
 6    0  0.5775861E+002  0.8153966E+02  0.7546771E-02  0.1324738E+00
         21   -1    0    0  505  502  0.00000000000E+00  0.00000000000E+00  0.35166405772E+03  0.35166405772E+03  0.00000000000E+00 0.  1.
          2   -1    0    0  502    0 -0.00000000000E+00 -0.00000000000E+00 -0.28948986828E+04  0.28948986828E+04  0.00000000000E+00 0. -1.
         21    1    1    2  503  501  0.57791554378E+02 -0.57758496365E+01 -0.31883528778E+02  0.66255442069E+02  0.00000000000E+00 0.  1.
         21    1    1    2  504  503 -0.66897398410E+02  0.42961904273E+02 -0.73831033063E+02  0.10849888744E+03  0.00000000000E+00 0.  1.
         21    1    1    2  505  504  0.17103092928E+02 -0.81225581573E+02  0.31152749934E+03  0.32239648530E+03  0.00000000000E+00 0.  1.
          2    1    1    2  501    0 -0.79972488964E+01  0.44039526937E+02 -0.27490475626E+04  0.27494119257E+04  0.00000000000E+00 0. -1.
<scales pt_clust_3="55.83742" pt_clust_4="81.53966" pt_clust_5="14000.00000" pt_clust_6="44.75976"></scales>
<clustering>
<clus scale="   44.760">  2  6  1 -1</clus>
<clus scale="   55.837">  2  3  1 -1</clus>
<clus scale="   81.540">  2  4  1 -1</clus>
<clus scale="   81.540">  1  3  2 -1</clus>
</clustering>
</event>
<event>
 6    0  0.5775861E+002  0.1984191E+03  0.7546771E-02  0.1151080E+00
          2   -1    0    0  503    0 -0.00000000000E+00  0.00000000000E+00  0.45401898273E+03  0.45401898273E+03  0.00000000000E+00 0. -1.
         21   -1    0    0  504  502  0.00000000000E+00 -0.00000000000E+00 -0.27866871312E+03  0.27866871312E+03  0.00000000000E+00 0. -1.
         21    1    1    2  503  502  0.16390752701E+03 -0.43377827461E+01  0.62548488254E+02  0.17549019104E+03  0.00000000000E+00 0. -1.
         21    1    1    2  504  505 -0.10698209034E+03 -0.11162030274E+03 -0.10331628169E+03  0.18595298787E+03  0.00000000000E+00 0. -1.
         21    1    1    2  505  501 -0.65481061631E+02 -0.10648475247E+02 -0.45520987671E+02  0.80456943615E+02  0.00000000000E+00 0. -1.
          2    1    1    2  501    0  0.85556249624E+01  0.12660656073E+03  0.26163905072E+03  0.29078757332E+03  0.00000000000E+00 0. -1.
<scales pt_clust_3="187.72751" pt_clust_4="42.08918" pt_clust_5="42.08918" pt_clust_6="126.89531"></scales>
<clustering>
<clus scale="   42.089">  4  5 -1 -1</clus>
<clus scale="  126.895">  1  6  2 -1</clus>
<clus scale="  187.728">  1  3  2 -1</clus>
<clus scale="  198.419">  2  3  1 -1</clus>
</clustering>
</event>
<event>
 6    0  0.5775861E+002  0.9808321E+02  0.7546771E-02  0.1284379E+00
          1   -1    0    0  503    0 -0.00000000000E+00  0.00000000000E+00  0.10652632031E+04  0.10652632031E+04  0.00000000000E+00 0. -1.
         21   -1    0    0  501  502  0.00000000000E+00 -0.00000000000E+00 -0.34099718264E+02  0.34099718264E+02  0.00000000000E+00 0.  1.
         21    1    1    2  503  504 -0.77939916909E+02  0.31607897693E+02  0.34956253740E+03  0.35953811675E+03  0.00000000000E+00 0.  1.
         21    1    1    2  504  505 -0.32684654338E+02  0.27999746945E+02  0.25145131941E+02  0.49845261746E+02  0.00000000000E+00 0.  1.
         21    1    1    2  505  502  0.30581300147E+02  0.28363096839E+02  0.27690898495E+02  0.50064628636E+02  0.00000000000E+00 0.  1.
          1    1    1    2  501    0  0.80043271099E+02 -0.87970741477E+02  0.62876491703E+03  0.63991491426E+03  0.00000000000E+00 0. -1.
<scales pt_clust_3="14000.00000" pt_clust_4="46.22001" pt_clust_5="41.70949" pt_clust_6="98.08321"></scales>
<clustering>
<clus scale="   41.709">  2  5  1 -1</clus>
<clus scale="   46.220">  2  4  1 -1</clus>
<clus scale="   98.083">  2  6  1 -1</clus>
<clus scale="   41.709">  2  3  1 -1</clus>
</clustering>
</event>
<event>
 6    0  0.5775861E+002  0.8410821E+02  0.7546771E-02  0.1317781E+00
         21   -1    0    0  503  502  0.00000000000E+00  0.00000000000E+00  0.14683899393E+03  0.14683899393E+03  0.00000000000E+00 0.  1.
          2   -1    0    0  505    0 -0.00000000000E+00 -0.00000000000E+00 -0.15864714712E+04  0.15864714712E+04  0.00000000000E+00 0. -1.
         21    1    1    2  503  504 -0.28073008116E+02  0.15653220514E+02  0.10592646862E+03  0.11069568127E+03  0.00000000000E+00 0.  1.
         21    1    1    2  504  501 -0.43340415906E+02  0.76166824902E+02 -0.34426156141E+02  0.94153794896E+02  0.00000000000E+00 0.  1.
         21    1    1    2  505  502  0.59378869088E+02 -0.84794253390E+01 -0.11421009934E+03  0.12900270361E+03  0.00000000000E+00 0.  1.
          2    1    1    2  501    0  0.12034554935E+02 -0.83340620077E+02 -0.13969226904E+04  0.13994582853E+04  0.00000000000E+00 0. -1.
<scales pt_clust_3="32.14214" pt_clust_4="14000.00000" pt_clust_5="54.26646" pt_clust_6="84.10821"></scales>
<clustering>
<clus scale="   32.142">  1  3  2 -1</clus>
<clus scale="   54.266">  1  5  2 -1</clus>
<clus scale="   84.108">  2  6  1 -1</clus>
<clus scale="   32.142">  1  3  2 -1</clus>
</clustering>
</event>
<event>
 6    0  0.5775861E+002  0.8760166E+02  0.7546771E-02  0.1308766E+00
         21   -1    0    0  503  502  0.00000000000E+00  0.00000000000E+00  0.24936636227E+03  0.24936636227E+03  0.00000000000E+00 0. -1.
          4   -1    0    0  504    0 -0.00000000000E+00 -0.00000000000E+00 -0.11521842062E+04  0.11521842062E+04  0.00000000000E+00 0.  1.
         21    1    1    2  503  501  0.37977521183E+02  0.52472020850E+02 -0.22251694268E+02  0.68488999007E+02  0.00000000000E+00 0. -1.
         21    1    1    2  504  505  0.39420397769E+02  0.19271525318E+02 -0.11535200613E+03  0.12341573954E+03  0.00000000000E+00 0. -1.
         21    1    1    2  505  502 -0.44876073747E+02 -0.13975148929E+03  0.19634055215E+03  0.24514068037E+03  0.00000000000E+00 0. -1.
          4    1    1    2  501    0 -0.32521845205E+02  0.68007943126E+02 -0.96155469572E+03  0.96450514960E+03  0.00000000000E+00 0.  1.
<scales pt_clust_3="66.48081" pt_clust_4="43.87892" pt_clust_5="14000.00000" pt_clust_6="87.60166"></scales>
<clustering>
<clus scale="   43.879">  2  4  1 -1</clus>
<clus scale="   66.481">  1  3  2 -1</clus>
<clus scale="   87.602">  2  6  1 -1</clus>
<clus scale="   66.481">  1  3  2 -1</clus>
</clustering>
</event>
<event>
 6    0  0.8372256E+002  0.8830708E+02  0.7546771E-02  0.1307004E+00
         21   -1    0    0  505  502  0.00000000000E+00  0.00000000000E+00  0.95154555385E+03  0.95154555385E+03  0.00000000000E+00 0.  1.
          4   -1    0    0  504    0 -0.00000000000E+00 -0.00000000000E+00 -0.70411371299E+03  0.70411371299E+03  0.00000000000E+00 0. -1.
         21    1    1    2  503  502  0.10145736476E+02  0.36268004948E+02  0.85908080633E+03  0.85990588784E+03  0.00000000000E+00 0.  1.
         21    1    1    2  504  503  0.70420928417E+02 -0.82981518071E+02  0.49368904519E+02  0.11950869522E+03  0.00000000000E+00 0. -1.
         21    1    1    2  505  501 -0.63560266280E+02  0.80936403517E+01 -0.14526266066E+03  0.15876603870E+03  0.00000000000E+00 0.  1.
          4    1    1    2  501    0 -0.17006398614E+02  0.38619872772E+02 -0.51575520933E+03  0.51747864508E+03  0.00000000000E+00 0. -1.
<scales pt_clust_3="37.66038" pt_clust_4="14000.00000" pt_clust_5="88.30708" pt_clust_6="42.47152"></scales>
<clustering>
<clus scale="   37.660">  1  3  2 -1</clus>
<clus scale="   42.472">  2  6  1 -1</clus>
<clus scale="   88.307">  2  5  1 -1</clus>
<clus scale="   37.660">  1  3  2 -1</clus>
</clustering>
</event>
<event>
 6    0  0.5775861E+002  0.8569233E+02  0.7546771E-02  0.1313632E+00
         21   -1    0    0  503  502  0.00000000000E+00  0.00000000000E+00  0.70305896945E+03  0.70305896945E+03  0.00000000000E+00 0.  1.
          2   -1    0    0  504    0 -0.00000000000E+00 -0.00000000000E+00 -0.20524293168E+04  0.20524293168E+04  0.00000000000E+00 0.  1.
         21    1    1    2  503  505 -0.68578207143E+02 -0.46416877724E+02  0.65672014311E+03  0.66192057182E+03  0.00000000000E+00 0.  1.
         21    1    1    2  504  502  0.62205045843E+02  0.15085741038E+02 -0.77106182628E+02  0.10021182919E+03  0.00000000000E+00 0.  1.
         21    1    1    2  505  501 -0.38827710140E+01  0.10194132602E+03 -0.51066087740E+02  0.11408266818E+03  0.00000000000E+00 0.  1.
          2    1    1    2  501    0  0.10255932314E+02 -0.70610189337E+02 -0.18779182201E+04  0.18792732171E+04  0.00000000000E+00 0.  1.
<scales pt_clust_3="82.73060" pt_clust_4="64.00818" pt_clust_5="85.69233" pt_clust_6="14000.00000"></scales>
<clustering>
<clus scale="   64.008">  2  4  1 -1</clus>
<clus scale="   82.731">  1  3  2 -1</clus>
<clus scale="   85.692">  1  5  2 -1</clus>
<clus scale="   82.731">  1  3  2 -1</clus>
</clustering>
</event>
<event>
 6    0  0.5775861E+002  0.9312004E+02  0.7546771E-02  0.1295467E+00
         21   -1    0    0  503  502  0.00000000000E+00  0.00000000000E+00  0.29555861649E+02  0.29555861649E+02  0.00000000000E+00 0.  1.
          2   -1    0    0  505    0 -0.00000000000E+00 -0.00000000000E+00 -0.43531686912E+04  0.43531686912E+04  0.00000000000E+00 0.  1.
         21    1    1    2  503  501 -0.16428657642E+02 -0.63885978267E+02 -0.28965503700E+03  0.29707130369E+03  0.00000000000E+00 0.  1.
         21    1    1    2  504  502  0.11321400489E+03  0.56741390813E+02 -0.13699241217E+03  0.18655808030E+03  0.00000000000E+00 0.  1.
         21    1    1    2  505  504 -0.38332201587E+02 -0.30891466517E+02 -0.92279263699E+03  0.92410491356E+03  0.00000000000E+00 0. -1.
          2    1    1    2  501    0 -0.58453145657E+02  0.38036053972E+02 -0.29741727434E+04  0.29749902553E+04  0.00000000000E+00 0.  1.
<scales pt_clust_3="69.38586" pt_clust_4="93.12004" pt_clust_5="49.23048" pt_clust_6="14000.00000"></scales>
<clustering>
<clus scale="   49.230">  2  5  1 -1</clus>
<clus scale="   69.386">  1  3  2 -1</clus>
<clus scale="   93.120">  1  4  2 -1</clus>
<clus scale="   69.386">  1  3  2 -1</clus>
</clustering>
</event>
<event>
 6    0  0.5775861E+002  0.9298321E+02  0.7546771E-02  0.1295784E+00
         21   -1    0    0  505  502  0.00000000000E+00  0.00000000000E+00  0.56900750877E+03  0.56900750877E+03  0.00000000000E+00 0.  1.
          2   -1    0    0  504    0 -0.00000000000E+00 -0.00000000000E+00 -0.11737147803E+04  0.11737147803E+04  0.00000000000E+00 0. -1.
         21    1    1    2  503  502 -0.23538866497E+02  0.38420205468E+02  0.51148486931E+03  0.51346563854E+03  0.00000000000E+00 0.  1.
         21    1    1    2  504  503  0.30370181411E+02  0.12250583942E+02 -0.63763997479E+02  0.71681741750E+02  0.00000000000E+00 0. -1.
         21    1    1    2  505  501 -0.39074619617E+02 -0.10744978303E+03 -0.11845936512E+02  0.11494610904E+03  0.00000000000E+00 0.  1.
          2    1    1    2  501    0  0.32243304703E+02  0.56778993617E+02 -0.10405822069E+04  0.10426287998E+04  0.00000000000E+00 0. -1.
<scales pt_clust_3="45.05279" pt_clust_4="32.74790" pt_clust_5="14000.00000" pt_clust_6="92.98321"></scales>
<clustering>
<clus scale="   32.748">  2  4  1 -1</clus>
<clus scale="   45.053">  1  3  2 -1</clus>
<clus scale="   92.983">  2  6  1 -1</clus>
<clus scale="   45.053">  1  3  2 -1</clus>
</clustering>
</event>
<event>
 6    0  0.5775861E+002  0.1045509E+03  0.7546771E-02  0.1271007E+00
          2   -1    0    0  502    0 -0.00000000000E+00  0.00000000000E+00  0.35198911802E+04  0.35198911802E+04  0.00000000000E+00 0.  1.
         21   -1    0    0  505  502  0.00000000000E+00 -0.00000000000E+00 -0.27817716449E+02  0.27817716449E+02  0.00000000000E+00 0. -1.
         21    1    1    2  503  501  0.88558118403E+02  0.84794051507E+02  0.19217417227E+04  0.19256489349E+04  0.00000000000E+00 0.  1.
         21    1    1    2  504  503 -0.34311542111E+02 -0.58317363569E+02  0.17149482602E+03  0.18436016969E+03  0.00000000000E+00 0.  1.
         21    1    1    2  505  504 -0.21283046405E+02 -0.43413077679E+02  0.11279641788E+02  0.49647695785E+02  0.00000000000E+00 0. -1.
          2    1    1    2  501    0 -0.32963529886E+02  0.16936389742E+02  0.13875572732E+04  0.13880520963E+04  0.00000000000E+00 0.  1.
<scales pt_clust_3="14000.00000" pt_clust_4="104.55091" pt_clust_5="48.34233" pt_clust_6="37.05989"></scales>
<clustering>
<clus scale="   37.060">  1  6  2 -1</clus>
<clus scale="   48.342">  2  5  1 -1</clus>
<clus scale="  104.551">  2  4  1 -1</clus>
<clus scale="   48.342">  2  3  1 -1</clus>
</clustering>
</event>
<event>
 6    0  0.5775861E+002  0.1490937E+03  0.7546771E-02  0.1201591E+00
         21   -1    0    0  503  502  0.00000000000E+00  0.00000000000E+00  0.52104397421E+03  0.52104397421E+03  0.00000000000E+00 0.  1.
          2   -1    0    0  505    0 -0.00000000000E+00 -0.00000000000E+00 -0.53435267187E+03  0.53435267187E+03  0.00000000000E+00 0. -1.
         21    1    1    2  503  501  0.63851333745E+02  0.11042664250E+02  0.23618460043E+02  0.68969304111E+02  0.00000000000E+00 0.  1.
         21    1    1    2  504  502 -0.65681297978E+01 -0.57024366982E+02  0.14400957182E+03  0.15502798307E+03  0.00000000000E+00 0. -1.
         21    1    1    2  505  504 -0.96385769815E+02 -0.83103153287E+02  0.30319979809E+03  0.32882589355E+03  0.00000000000E+00 0.  1.
          2    1    1    2  501    0  0.39102565868E+02  0.12908485602E+03 -0.48413652760E+03  0.50257346535E+03  0.00000000000E+00 0. -1.
<scales pt_clust_3="64.79918" pt_clust_4="41.85021" pt_clust_5="41.85021" pt_clust_6="135.44671"></scales>
<clustering>
<clus scale="   41.850">  4  5 -1 -1</clus>
<clus scale="   64.799">  1  3  2 -1</clus>
<clus scale="  135.447">  2  6  1 -1</clus>
<clus scale="   64.799">  1  3  2 -1</clus>
</clustering>
</event>
<event>
 6    0  0.5775861E+002  0.1852286E+03  0.7546771E-02  0.1162837E+00
          2   -1    0    0  504    0 -0.00000000000E+00  0.00000000000E+00  0.10855958776E+04  0.10855958776E+04  0.00000000000E+00 0. -1.
         21   -1    0    0  505  502  0.00000000000E+00 -0.00000000000E+00 -0.64240511273E+02  0.64240511273E+02  0.00000000000E+00 0. -1.
         21    1    1    2  503  502  0.45455848281E+01 -0.38191032417E+02 -0.37870612352E+01  0.38646592751E+02  0.00000000000E+00 0. -1.
         21    1    1    2  504  503  0.11713548392E+03 -0.13197698095E+03  0.45072935971E+03  0.48404090819E+03  0.00000000000E+00 0. -1.
         21    1    1    2  505  501 -0.15245553751E+03  0.12749354684E+03  0.43980659031E+03  0.48262525036E+03  0.00000000000E+00 0. -1.
          2    1    1    2  501    0  0.30774468762E+02  0.42674466529E+02  0.13460647752E+03  0.14452363756E+03  0.00000000000E+00 0. -1.
<scales pt_clust_3="38.46059" pt_clust_4="185.22863" pt_clust_5="14000.00000" pt_clust_6="49.44086"></scales>
<clustering>
<clus scale="   38.461">  2  3  1 -1</clus>
<clus scale="   49.441">  1  6  2 -1</clus>
<clus scale="  185.229">  1  4  2 -1</clus>
<clus scale="   38.461">  2  3  1 -1</clus>
</clustering>
</event>
<event>
 6    0  0.5775861E+002  0.8585012E+02  0.7546771E-02  0.1313224E+00
         21   -1    0    0  504  502  0.00000000000E+00  0.00000000000E+00  0.81423469461E+02  0.81423469461E+02  0.00000000000E+00 0.  1.
          2   -1    0    0  505    0 -0.00000000000E+00 -0.00000000000E+00 -0.10479257556E+04  0.10479257556E+04  0.00000000000E+00 0.  1.
         21    1    1    2  503  502 -0.12166663995E+02  0.72535956962E+02 -0.10887145765E+03  0.13138678418E+03  0.00000000000E+00 0. -1.
         21    1    1    2  504  501 -0.73880970353E+02 -0.38361845157E+02  0.40489098365E+02  0.92571032351E+02  0.00000000000E+00 0.  1.
         21    1    1    2  505  503  0.31730683148E+02  0.12602435057E+01 -0.10687141669E+03  0.11148956979E+03  0.00000000000E+00 0. -1.
          2    1    1    2  501    0  0.54316951201E+02 -0.35434355311E+02 -0.79124851019E+03  0.79390183877E+03  0.00000000000E+00 0.  1.
<scales pt_clust_3="73.14777" pt_clust_4="85.85012" pt_clust_5="31.75570" pt_clust_6="14000.00000"></scales>
<clustering>
<clus scale="   31.756">  2  5  1 -1</clus>
<clus scale="   73.148">  1  3  2 -1</clus>
<clus scale="   85.850">  1  4  2 -1</clus>
<clus scale="   73.148">  1  3  2 -1</clus>
</clustering>
</event>
<event>
 6    0  0.5775861E+002  0.8494628E+02  0.7546771E-02  0.1315573E+00
          1   -1    0    0  505    0 -0.00000000000E+00  0.00000000000E+00  0.11627109282E+04  0.11627109282E+04  0.00000000000E+00 0.  1.
         21   -1    0    0  504  502  0.00000000000E+00 -0.00000000000E+00 -0.13223567595E+04  0.13223567595E+04  0.00000000000E+00 0.  1.
         21    1    1    2  503  502 -0.26823827537E+02 -0.46457088753E+02 -0.12880075696E+04  0.12891242291E+04  0.00000000000E+00 0.  1.
         21    1    1    2  504  501  0.52149102535E+02  0.36011511737E+02  0.24697916212E+02  0.68017240006E+02  0.00000000000E+00 0. -1.
         21    1    1    2  505  503  0.27732829659E+02 -0.60641816177E+02  0.99054520416E+02  0.11940828164E+03  0.00000000000E+00 0. -1.
          1    1    1    2  501    0 -0.53058104657E+02  0.71087393193E+02  0.10046093017E+04  0.10085179368E+04  0.00000000000E+00 0.  1.
<scales pt_clust_3="53.64493" pt_clust_4="35.50660" pt_clust_5="84.94628" pt_clust_6="14000.00000"></scales>
<clustering>
<clus scale="   53.645">  2  3  1 -1</clus>
<clus scale="   35.507">  2  4  1 -1</clus>
<clus scale="   84.946">  2  5  1 -1</clus>
<clus scale="   53.645">  2  3  1 -1</clus>
</clustering>
</event>
<event>
 6    0  0.5775861E+002  0.9443990E+02  0.7546771E-02  0.1292443E+00
         21   -1    0    0  505  502  0.00000000000E+00  0.00000000000E+00  0.27386162110E+03  0.27386162110E+03  0.00000000000E+00 0. -1.
          2   -1    0    0  503    0 -0.00000000000E+00 -0.00000000000E+00 -0.87082658747E+03  0.87082658747E+03  0.00000000000E+00 0.  1.
         21    1    1    2  503  504 -0.14233211511E+02  0.47975703876E+02 -0.40798209430E+02  0.64565829702E+02  0.00000000000E+00 0.  1.
         21    1    1    2  504  502  0.89636178805E+02  0.18603321342E+02  0.20819980021E+03  0.22743765062E+03  0.00000000000E+00 0. -1.
         21    1    1    2  505  501  0.39639999776E+01 -0.38410720798E+02  0.33053730514E+02  0.50829576714E+02  0.00000000000E+00 0. -1.
          2    1    1    2  501    0 -0.79366967272E+02 -0.28168304420E+02 -0.79742028766E+03  0.80185515153E+03  0.00000000000E+00 0.  1.
<scales pt_clust_3="48.09921" pt_clust_4="14000.00000" pt_clust_5="38.61472" pt_clust_6="94.43990"></scales>
<clustering>
<clus scale="   38.615">  1  5  2 -1</clus>
<clus scale="   48.099">  2  3  1 -1</clus>
<clus scale="   94.440">  2  6  1 -1</clus>
<clus scale="   38.615">  1  3  2 -1</clus>
</clustering>
</event>
<event>
 6    0  0.5775861E+002  0.1398684E+03  0.7546771E-02  0.1213506E+00
          2   -1    0    0  503    0 -0.00000000000E+00  0.00000000000E+00  0.78988498500E+03  0.78988498500E+03  0.00000000000E+00 0.  1.
         21   -1    0    0  505  502  0.00000000000E+00 -0.00000000000E+00 -0.14023360143E+04  0.14023360143E+04  0.00000000000E+00 0. -1.
         21    1    1    2  503  502  0.26508840569E+01  0.10809829690E+03 -0.94220069853E+02  0.14342137408E+03  0.00000000000E+00 0.  1.
         21    1    1    2  504  501  0.13288685979E+03 -0.56068131336E+02 -0.39723974728E+02  0.14960129353E+03  0.00000000000E+00 0.  1.
         21    1    1    2  505  504 -0.11458708714E+03 -0.89049024189E+02 -0.11837808716E+04  0.11926428976E+04  0.00000000000E+00 0. -1.
          2    1    1    2  501    0 -0.20950656708E+02  0.37018858626E+02  0.70527388688E+03  0.70655543408E+03  0.00000000000E+00 0.  1.
<scales pt_clust_3="118.99475" pt_clust_4="139.86842" pt_clust_5="14000.00000" pt_clust_6="42.53617"></scales>
<clustering>
<clus scale="   42.536">  1  6  2 -1</clus>
<clus scale="  118.995">  1  3  2 -1</clus>
<clus scale="  139.868">  1  4  2 -1</clus>
<clus scale="  139.868">  2  3  1 -1</clus>
</clustering>
</event>
<event>
 6    0  0.5775861E+002  0.9801805E+02  0.7546771E-02  0.1284520E+00
          2   -1    0    0  505    0 -0.00000000000E+00  0.00000000000E+00  0.41939211595E+03  0.41939211595E+03  0.00000000000E+00 0.  1.
         21   -1    0    0  501  502  0.00000000000E+00 -0.00000000000E+00 -0.11449510379E+04  0.11449510379E+04  0.00000000000E+00 0. -1.
         21    1    1    2  503  502  0.24931292813E+02 -0.39406871688E+02 -0.72804898216E+03  0.72954080854E+03  0.00000000000E+00 0. -1.
         21    1    1    2  504  503 -0.10400024320E+03 -0.23712432602E+02 -0.38860707626E+03  0.40298112830E+03  0.00000000000E+00 0. -1.
         21    1    1    2  505  504  0.69331931333E+02  0.28056256747E+02  0.52752739152E+02  0.91525525036E+02  0.00000000000E+00 0. -1.
          2    1    1    2  501    0  0.97370190547E+01  0.35063047543E+02  0.33834439727E+03  0.34029569202E+03  0.00000000000E+00 0.  1.
<scales pt_clust_3="46.40437" pt_clust_4="98.01805" pt_clust_5="14000.00000" pt_clust_6="36.38993"></scales>
<clustering>
<clus scale="   36.390">  1  6  2 -1</clus>
<clus scale="   46.404">  2  3  1 -1</clus>
<clus scale="   98.018">  2  4  1 -1</clus>
<clus scale="   46.404">  2  3  1 -1</clus>
</clustering>
</event>
<event>
 6    0  0.5775861E+002  0.1145970E+03  0.7546771E-02  0.1252286E+00
          1   -1    0    0  505    0 -0.00000000000E+00  0.00000000000E+00  0.17384055877E+04  0.17384055877E+04  0.00000000000E+00 0. -1.
         21   -1    0    0  501  502  0.00000000000E+00 -0.00000000000E+00 -0.34785474682E+03  0.34785474682E+03  0.00000000000E+00 0. -1.
         21    1    1    2  503  504  0.28404412963E+02  0.84936237839E+02 -0.32503339421E+02  0.95275612029E+02  0.00000000000E+00 0.  1.
         21    1    1    2  504  502  0.32350946856E+02 -0.24157195678E+02 -0.24891844209E+03  0.25217165716E+03  0.00000000000E+00 0. -1.
         21    1    1    2  505  503 -0.12470181992E+03  0.35466896243E+02  0.10297626402E+03  0.16556737472E+03  0.00000000000E+00 0.  1.
          1    1    1    2  501    0  0.63946460099E+02 -0.96245938404E+02  0.15689963583E+04  0.15732456906E+04  0.00000000000E+00 0. -1.
<scales pt_clust_3="85.06491" pt_clust_4="40.37516" pt_clust_5="14000.00000" pt_clust_6="114.59702"></scales>
<clustering>
<clus scale="   40.375">  2  4  1 -1</clus>
<clus scale="   85.065">  2  3  1 -1</clus>
<clus scale="  114.597">  1  6  2 -1</clus>
<clus scale="   40.375">  2  3  1 -1</clus>
</clustering>
</event>
<event>
 6    0  0.5775861E+002  0.1548027E+03  0.7546771E-02  0.1194693E+00
         21   -1    0    0  503  502  0.00000000000E+00  0.00000000000E+00  0.68979526531E+03  0.68979526531E+03  0.00000000000E+00 0. -1.
          1   -1    0    0  502    0 -0.00000000000E+00 -0.00000000000E+00 -0.13274847316E+03  0.13274847316E+03  0.00000000000E+00 0. -1.
         21    1    1    2  503  504  0.53149614519E+02  0.56549156202E+01  0.34350806200E+03  0.34764155139E+03  0.00000000000E+00 0. -1.
         21    1    1    2  504  505  0.94567644789E+02  0.10121860008E+02  0.27370433925E+03  0.28975775540E+03  0.00000000000E+00 0. -1.
         21    1    1    2  505  501 -0.11450984974E+03 -0.24473225839E+02 -0.14197652902E+01  0.11710448413E+03  0.00000000000E+00 0. -1.
          1    1    1    2  501    0 -0.33207409572E+02  0.86964502104E+01 -0.58745843811E+02  0.68039947544E+02  0.00000000000E+00 0. -1.
<scales pt_clust_3="43.25239" pt_clust_4="43.25239" pt_clust_5="143.89729" pt_clust_6="34.32725"></scales>
<clustering>
<clus scale="   34.327">  2  6  1 -1</clus>
<clus scale="   43.252">  3  4 -1 -1</clus>
<clus scale="  143.897">  2  5  1 -1</clus>
<clus scale="  154.803">  1  3  2 -1</clus>
</clustering>
</event>
<event>
 6    0  0.5775861E+002  0.1105005E+03  0.7546771E-02  0.1259646E+00
         21   -1    0    0  504  502  0.00000000000E+00  0.00000000000E+00  0.89225298410E+02  0.89225298410E+02  0.00000000000E+00 0. -1.
         -1   -1    0    0    0  501 -0.00000000000E+00 -0.00000000000E+00 -0.84845236087E+03  0.84845236087E+03  0.00000000000E+00 0. -1.
         21    1    1    2  503  505 -0.90254278550E+02 -0.73211101849E+02 -0.12232086773E+03  0.16872490899E+03  0.00000000000E+00 0. -1.
         21    1    1    2  504  501 -0.53306847847E+01  0.13926841006E+03 -0.15021424576E+03  0.20491077539E+03  0.00000000000E+00 0. -1.
         21    1    1    2  505  502  0.24947615057E+02  0.17502027046E+02  0.25843673473E+02  0.39957476226E+02  0.00000000000E+00 0.  1.
         -1    1    1    2    0  503  0.70637348277E+02 -0.83559335259E+02 -0.51253562244E+03  0.52408449868E+03  0.00000000000E+00 0. -1.
<scales pt_clust_3="103.69472" pt_clust_4="110.50051" pt_clust_5="30.47465" pt_clust_6="14000.00000"></scales>
<clustering>
<clus scale="   30.475">  1  5  2 -1</clus>
<clus scale="  103.695">  1  3  2 -1</clus>
<clus scale="  110.501">  1  4  2 -1</clus>
<clus scale="   30.475">  1  3  2 -1</clus>
</clustering>
</event>
<event>
 6    0  0.5775861E+002  0.1008581E+03  0.7546771E-02  0.1278502E+00
         21   -1    0    0  504  502  0.00000000000E+00  0.00000000000E+00  0.19861985974E+04  0.19861985974E+04  0.00000000000E+00 0.  1.
          3   -1    0    0  505    0 -0.00000000000E+00 -0.00000000000E+00 -0.16613158664E+03  0.16613158664E+03  0.00000000000E+00 0.  1.
         21    1    1    2  503  502 -0.63881975148E+01 -0.29369182104E+02  0.21926179885E+03  0.22131221015E+03  0.00000000000E+00 0. -1.
         21    1    1    2  504  501  0.10434661554E+03  0.13403587123E+03  0.32260801840E+03  0.36459534348E+03  0.00000000000E+00 0. -1.
         21    1    1    2  505  503 -0.67232299282E+02 -0.35017374169E+02  0.14111680490E+04  0.14132026256E+04  0.00000000000E+00 0.  1.
          3    1    1    2  501    0 -0.30726118743E+02 -0.69649314960E+02 -0.13297085551E+03  0.15322000477E+03  0.00000000000E+00 0.  1.
<scales pt_clust_3="30.05591" pt_clust_4="14000.00000" pt_clust_5="100.85805" pt_clust_6="76.29454"></scales>
<clustering>
<clus scale="   30.056">  1  3  2 -1</clus>
<clus scale="   76.295">  2  6  1 -1</clus>
<clus scale="  100.858">  1  5  2 -1</clus>
<clus scale="   30.056">  1  3  2 -1</clus>
</clustering>
</event>
<event>
 6    0  0.5775861E+002  0.6985726E+02  0.7546771E-02  0.1360579E+00
         21   -1    0    0  505  502  0.00000000000E+00  0.00000000000E+00  0.14019347079E+04  0.14019347079E+04  0.00000000000E+00 0.  1.
          2   -1    0    0  502    0 -0.00000000000E+00 -0.00000000000E+00 -0.21654719744E+04  0.21654719744E+04  0.00000000000E+00 0. -1.
         21    1    1    2  503  501  0.11879929268E+03 -0.45039534466E+02  0.20794796291E+03  0.24368870898E+03  0.00000000000E+00 0. -1.
         21    1    1    2  504  503 -0.19721371250E+02  0.41910467651E+02  0.28038145535E+03  0.28418159738E+03  0.00000000000E+00 0.  1.
         21    1    1    2  505  504 -0.42020709541E+02 -0.30305582973E+01  0.89295437993E+03  0.89394767686E+03  0.00000000000E+00 0.  1.
          2    1    1    2  501    0 -0.57057211887E+02  0.61596251118E+01 -0.21448210647E+04  0.21455886991E+04  0.00000000000E+00 0. -1.
<scales pt_clust_3="69.85726" pt_clust_4="14000.00000" pt_clust_5="42.12985" pt_clust_6="57.42002"></scales>
<clustering>
<clus scale="   42.130">  1  5  2 -1</clus>
<clus scale="   57.420">  2  6  1 -1</clus>
<clus scale="   69.857">  2  3  1 -1</clus>
<clus scale="   42.130">  1  3  2 -1</clus>
</clustering>
</event>
<event>
 6    0  0.5775861E+002  0.1567053E+03  0.7546771E-02  0.1192467E+00
          2   -1    0    0  502    0 -0.00000000000E+00  0.00000000000E+00  0.19823631517E+04  0.19823631517E+04  0.00000000000E+00 0.  1.
         21   -1    0    0  503  502  0.00000000000E+00 -0.00000000000E+00 -0.26482828994E+03  0.26482828994E+03  0.00000000000E+00 0.  1.
         21    1    1    2  503  504  0.59395546846E+02 -0.43637289895E+02 -0.36403969026E+02  0.82202755521E+02  0.00000000000E+00 0.  1.
         21    1    1    2  504  505  0.68549666920E+02  0.13712022603E+03 -0.17205034605E+03  0.23043943846E+03  0.00000000000E+00 0.  1.
         21    1    1    2  505  501 -0.92342074798E+02 -0.96830061397E+02  0.11537876857E+04  0.11615201863E+04  0.00000000000E+00 0.  1.
          2    1    1    2  501    0 -0.35603138967E+02  0.33471252625E+01  0.77220149111E+03  0.77302906130E+03  0.00000000000E+00 0.  1.
<scales pt_clust_3="73.12260" pt_clust_4="14000.00000" pt_clust_5="156.70535" pt_clust_6="35.76013"></scales>
<clustering>
<clus scale="   35.760">  1  6  2 -1</clus>
<clus scale="   73.123">  2  3  1 -1</clus>
<clus scale="  156.705">  1  5  2 -1</clus>
<clus scale="   73.123">  2  3  1 -1</clus>
</clustering>
</event>
<event>
 6    0  0.5775861E+002  0.1284111E+03  0.7546771E-02  0.1229833E+00
          2   -1    0    0  505    0 -0.00000000000E+00  0.00000000000E+00  0.92128944619E+03  0.92128944619E+03  0.00000000000E+00 0. -1.
         21   -1    0    0  504  502  0.00000000000E+00 -0.00000000000E+00 -0.43686588085E+02  0.43686588085E+02  0.00000000000E+00 0. -1.
         21    1    1    2  503  501  0.59599527801E+02  0.14395805378E+03  0.16999389009E+03  0.23059476930E+03  0.00000000000E+00 0. -1.
         21    1    1    2  504  503  0.37722981508E+01 -0.32012628698E+02  0.61726858039E+02  0.69636510775E+02  0.00000000000E+00 0. -1.
         21    1    1    2  505  502 -0.78787827223E+02 -0.80660673703E+02  0.37378179150E+03  0.39041835722E+03  0.00000000000E+00 0. -1.
          2    1    1    2  501    0  0.15416001271E+02 -0.31284751374E+02  0.27210031847E+03  0.27432639698E+03  0.00000000000E+00 0. -1.
<scales pt_clust_3="14000.00000" pt_clust_4="32.23412" pt_clust_5="128.41109" pt_clust_6="35.72918"></scales>
<clustering>
<clus scale="   32.234">  2  4  1 -1</clus>
<clus scale="   35.729">  1  6  2 -1</clus>
<clus scale="  128.411">  1  5  2 -1</clus>
<clus scale="   32.234">  2  3  1 -1</clus>
</clustering>
</event>
<event>
 6    0  0.5775861E+002  0.1413121E+03  0.7546771E-02  0.1211574E+00
         21   -1    0    0  501  502  0.00000000000E+00  0.00000000000E+00  0.17661247723E+03  0.17661247723E+03  0.00000000000E+00 0. -1.
          1   -1    0    0  504    0 -0.00000000000E+00 -0.00000000000E+00 -0.48845222867E+03  0.48845222867E+03  0.00000000000E+00 0. -1.
         21    1    1    2  503  502 -0.11313399626E+03 -0.56453969267E+02  0.35569813694E+02  0.13134520700E+03  0.00000000000E+00 0. -1.
         21    1    1    2  504  505  0.44575042692E+02 -0.66593291710E+02 -0.12097501996E+03  0.14510877433E+03  0.00000000000E+00 0.  1.
         21    1    1    2  505  503  0.12507100793E+03  0.13032469049E+03 -0.28781647622E+02  0.18290889868E+03  0.00000000000E+00 0. -1.
          1    1    1    2  501    0 -0.56512054359E+02 -0.72774295155E+01 -0.19765289755E+03  0.20570182590E+03  0.00000000000E+00 0. -1.
<scales pt_clust_3="14000.00000" pt_clust_4="72.33763" pt_clust_5="141.31208" pt_clust_6="56.97871"></scales>
<clustering>
<clus scale="   56.979">  2  6  1 -1</clus>
<clus scale="   72.338">  2  4  1 -1</clus>
<clus scale="  141.312">  2  5  1 -1</clus>
<clus scale="  141.312">  1  3  2 -1</clus>
</clustering>
</event>
<event>
 6    0  0.5775861E+002  0.1188474E+03  0.7546771E-02  0.1245011E+00
         21   -1    0    0  505  502  0.00000000000E+00  0.00000000000E+00  0.10000254529E+04  0.10000254529E+04  0.00000000000E+00 0.  1.
         -2   -1    0    0    0  501 -0.00000000000E+00 -0.00000000000E+00 -0.10201761555E+03  0.10201761555E+03  0.00000000000E+00 0. -1.
         21    1    1    2  503  502  0.33096723803E+02 -0.81319786919E+02  0.41794036896E+03  0.42706258661E+03  0.00000000000E+00 0.  1.
         21    1    1    2  504  501 -0.12837357421E+03  0.43078035339E+01  0.22269524435E+03  0.25708267850E+03  0.00000000000E+00 0.  1.
         21    1    1    2  505  504  0.10240465045E+03  0.42443838794E+02  0.32403285365E+03  0.34246968060E+03  0.00000000000E+00 0.  1.
         -2    1    1    2    0  503 -0.71278000417E+01  0.34568144591E+02 -0.66660629631E+02  0.75428122718E+02  0.00000000000E+00 0. -1.
<scales pt_clust_3="82.69172" pt_clust_4="118.84735" pt_clust_5="14000.00000" pt_clust_6="35.29536"></scales>
<clustering>
<clus scale="   35.295">  2  6  1 -1</clus>
<clus scale="   82.692">  1  3  2 -1</clus>
<clus scale="  118.847">  2  4  1 -1</clus>
<clus scale="   82.692">  1  3  2 -1</clus>
</clustering>
</event>
<event>
 6    0  0.5775861E+002  0.7926720E+02  0.7546771E-02  0.1331144E+00
         21   -1    0    0  504  502  0.00000000000E+00  0.00000000000E+00  0.85817289534E+02  0.85817289534E+02  0.00000000000E+00 0.  1.
         -2   -1    0    0    0  501 -0.00000000000E+00 -0.00000000000E+00 -0.11426212332E+04  0.11426212332E+04  0.00000000000E+00 0. -1.
         21    1    1    2  503  501  0.10171268040E+03 -0.18465728073E+02 -0.15916115506E+03  0.18978599987E+03  0.00000000000E+00 0.  1.
         21    1    1    2  504  503  0.12471485405E+02 -0.44742836760E+02  0.20573808239E+02  0.50800993839E+02  0.00000000000E+00 0.  1.
         21    1    1    2  505  502 -0.78200831784E+02  0.25631710542E+01 -0.12310926227E+02  0.79205421797E+02  0.00000000000E+00 0.  1.
         -2    1    1    2    0  505 -0.35983334024E+02  0.60645393779E+02 -0.90590567058E+03  0.90864610719E+03  0.00000000000E+00 0. -1.
<scales pt_clust_3="79.26720" pt_clust_4="46.44846" pt_clust_5="14000.00000" pt_clust_6="69.29219"></scales>
<clustering>
<clus scale="   46.448">  1  4  2 -1</clus>
<clus scale="   69.292">  2  6  1 -1</clus>
<clus scale="   79.267">  2  3  1 -1</clus>
<clus scale="   46.448">  1  3  2 -1</clus>
</clustering>
</event>
<event>
 6    0  0.5775861E+002  0.1295825E+03  0.7546771E-02  0.1228077E+00
          2   -1    0    0  504    0 -0.00000000000E+00  0.00000000000E+00  0.14313052225E+04  0.14313052225E+04  0.00000000000E+00 0. -1.
         21   -1    0    0  505  502  0.00000000000E+00 -0.00000000000E+00 -0.82598934431E+02  0.82598934431E+02  0.00000000000E+00 0. -1.
         21    1    1    2  503  502 -0.81425933166E+01  0.10036107833E+03  0.23250242656E+03  0.25336934744E+03  0.00000000000E+00 0. -1.
         21    1    1    2  504  503  0.63436769574E+01 -0.16629225775E+03  0.52963049088E+03  0.55515926912E+03  0.00000000000E+00 0. -1.
         21    1    1    2  505  501  0.45416698716E+02  0.36010272849E+02 -0.43886304363E+02  0.72700921477E+02  0.00000000000E+00 0. -1.
          2    1    1    2  501    0 -0.43617782357E+02  0.29920906569E+02  0.63045967505E+03  0.63267461894E+03  0.00000000000E+00 0. -1.
<scales pt_clust_3="14000.00000" pt_clust_4="129.58250" pt_clust_5="57.68683" pt_clust_6="52.89397"></scales>
<clustering>
<clus scale="   52.894">  1  6  2 -1</clus>
<clus scale="   57.687">  2  5  1 -1</clus>
<clus scale="  129.582">  1  4  2 -1</clus>
<clus scale="   57.687">  2  3  1 -1</clus>
</clustering>
</event>
<event>
 6    0  0.5775861E+002  0.1003070E+03  0.7546771E-02  0.1279652E+00
         21   -1    0    0  503  502  0.00000000000E+00  0.00000000000E+00  0.35962383769E+03  0.35962383769E+03  0.00000000000E+00 0.  1.
          2   -1    0    0  505    0 -0.00000000000E+00 -0.00000000000E+00 -0.19884261350E+04  0.19884261350E+04  0.00000000000E+00 0.  1.
         21    1    1    2  503  504  0.46592731826E+02  0.29166801934E+02  0.11613798313E+02  0.56182428795E+02  0.00000000000E+00 0. -1.
         21    1    1    2  504  501 -0.94248224924E+02 -0.91388092134E+02 -0.10902532194E+04  0.10981286782E+04  0.00000000000E+00 0.  1.
         21    1    1    2  505  502  0.43863406436E+01  0.57113385716E+02  0.31868861608E+03  0.32379563436E+03  0.00000000000E+00 0.  1.
          2    1    1    2  501    0  0.43269152454E+02  0.51079044843E+01 -0.86885149227E+03  0.86994323140E+03  0.00000000000E+00 0.  1.
<scales pt_clust_3="55.75451" pt_clust_4="100.30705" pt_clust_5="14000.00000" pt_clust_6="43.56960"></scales>
<clustering>
<clus scale="   43.570">  2  6  1 -1</clus>
<clus scale="   55.755">  1  3  2 -1</clus>
<clus scale="  100.307">  2  4  1 -1</clus>
<clus scale="   55.755">  1  3  2 -1</clus>
</clustering>
</event>
<event>
 6    0  0.5775861E+002  0.1075479E+03  0.7546771E-02  0.1265179E+00
         21   -1    0    0  503  502  0.00000000000E+00  0.00000000000E+00  0.26048630042E+03  0.26048630042E+03  0.00000000000E+00 0. -1.
          3   -1    0    0  505    0 -0.00000000000E+00 -0.00000000000E+00 -0.18719510343E+04  0.18719510343E+04  0.00000000000E+00 0.  1.
         21    1    1    2  503  504 -0.58130778337E+02 -0.65893535059E+02  0.15283526902E+03  0.17629453993E+03  0.00000000000E+00 0. -1.
         21    1    1    2  504  501 -0.94489817049E+02  0.11977459515E+03 -0.11984903156E+03  0.19400533378E+03  0.00000000000E+00 0. -1.
         21    1    1    2  505  502  0.57565959650E+02 -0.49009185807E+02  0.32640232939E+02  0.82347585333E+02  0.00000000000E+00 0. -1.
          3    1    1    2  501    0  0.95054635737E+02 -0.48718742839E+01 -0.16770912043E+04  0.16797898756E+04  0.00000000000E+00 0.  1.
<scales pt_clust_3="14000.00000" pt_clust_4="107.54789" pt_clust_5="75.60251" pt_clust_6="95.57872"></scales>
<clustering>
<clus scale="   75.603">  1  5  2 -1</clus>
<clus scale="   95.579">  2  6  1 -1</clus>
<clus scale="  107.548">  2  4  1 -1</clus>
<clus scale="   75.603">  1  3  2 -1</clus>
</clustering>
</event>
<event>
 6    0  0.5775861E+002  0.8751339E+02  0.7546771E-02  0.1308988E+00
          2   -1    0    0  504    0 -0.00000000000E+00  0.00000000000E+00  0.31971797076E+04  0.31971797076E+04  0.00000000000E+00 0.  1.
         21   -1    0    0  505  502  0.00000000000E+00 -0.00000000000E+00 -0.70211681820E+03  0.70211681820E+03  0.00000000000E+00 0.  1.
         21    1    1    2  503  502  0.12106400490E+03  0.16232610538E+02  0.90452002919E+02  0.15199195952E+03  0.00000000000E+00 0.  1.
         21    1    1    2  504  503 -0.40738589738E+02 -0.56281521975E+02  0.20231707846E+03  0.21391456857E+03  0.00000000000E+00 0.  1.
         21    1    1    2  505  501 -0.40377364880E+02  0.29747469559E+02 -0.66445466715E+03  0.66634469176E+03  0.00000000000E+00 0.  1.
          2    1    1    2  501    0 -0.39948050283E+02  0.10301441877E+02  0.28667484752E+04  0.28670453059E+04  0.00000000000E+00 0.  1.
<scales pt_clust_3="14000.00000" pt_clust_4="87.51339" pt_clust_5="50.26173" pt_clust_6="41.25490"></scales>
<clustering>
<clus scale="   41.255">  1  6  2 -1</clus>
<clus scale="   50.262">  2  5  1 -1</clus>
<clus scale="   87.513">  1  4  2 -1</clus>
<clus scale="   50.262">  2  3  1 -1</clus>
</clustering>
</event>
<event>
 6    0  0.5775861E+002  0.9928684E+02  0.7546771E-02  0.1281803E+00
          2   -1    0    0  503    0 -0.00000000000E+00  0.00000000000E+00  0.16452130472E+04  0.16452130472E+04  0.00000000000E+00 0.  1.
         21   -1    0    0  504  502  0.00000000000E+00 -0.00000000000E+00 -0.17220124213E+03  0.17220124213E+03  0.00000000000E+00 0. -1.
         21    1    1    2  503  502 -0.11755676925E+02 -0.62322787512E+02  0.26884021808E+03  0.27621981942E+03  0.00000000000E+00 0. -1.
         21    1    1    2  504  505 -0.46447056188E+01 -0.50839545881E+02 -0.12861108807E+03  0.13837284665E+03  0.00000000000E+00 0. -1.
         21    1    1    2  505  501  0.55078023939E+02  0.14308626192E+03  0.13572233883E+03  0.20476283923E+03  0.00000000000E+00 0. -1.
          2    1    1    2  501    0 -0.38677641396E+02 -0.29923928531E+02  0.11970603362E+04  0.11980587840E+04  0.00000000000E+00 0.  1.
<scales pt_clust_3="14000.00000" pt_clust_4="51.41604" pt_clust_5="99.28684" pt_clust_6="48.90196"></scales>
<clustering>
<clus scale="   48.902">  1  6  2 -1</clus>
<clus scale="   51.416">  2  4  1 -1</clus>
<clus scale="   99.287">  2  5  1 -1</clus>
<clus scale="   51.416">  2  3  1 -1</clus>
</clustering>
</event>
<event>
 6    0  0.5775861E+002  0.9485103E+02  0.7546771E-02  0.1291512E+00
          2   -1    0    0  504    0 -0.00000000000E+00  0.00000000000E+00  0.40477867981E+03  0.40477867981E+03  0.00000000000E+00 0. -1.
         21   -1    0    0  505  502  0.00000000000E+00 -0.00000000000E+00 -0.45170417753E+03  0.45170417753E+03  0.00000000000E+00 0. -1.
         21    1    1    2  503  502 -0.56507372745E+02 -0.36487124774E+01 -0.20697911665E+03  0.21458506706E+03  0.00000000000E+00 0. -1.
         21    1    1    2  504  503 -0.24764646307E+02 -0.26478360324E+02 -0.20137959745E+03  0.20461704118E+03  0.00000000000E+00 0. -1.
         21    1    1    2  505  501  0.11451146174E+03 -0.55019491234E+02  0.10426245458E+03  0.16434925836E+03  0.00000000000E+00 0. -1.
          2    1    1    2  501    0 -0.33239442691E+02  0.85146564036E+02  0.25717076179E+03  0.27293149074E+03  0.00000000000E+00 0. -1.
<scales pt_clust_3="30.58231" pt_clust_4="30.58231" pt_clust_5="86.80974" pt_clust_6="91.40458"></scales>
<clustering>
<clus scale="   30.582">  3  4 -1 -1</clus>
<clus scale="   91.405">  1  6  2 -1</clus>
<clus scale="   86.810">  1  5  2 -1</clus>
<clus scale="   94.851">  2  3  1 -1</clus>
</clustering>
</event>
<event>
 6    0  0.5775861E+002  0.2851669E+03  0.7546771E-02  0.1092900E+00
         21   -1    0    0  505  502  0.00000000000E+00  0.00000000000E+00  0.20581845405E+03  0.20581845405E+03  0.00000000000E+00 0. -1.
          1   -1    0    0  503    0 -0.00000000000E+00 -0.00000000000E+00 -0.17694578309E+04  0.17694578309E+04  0.00000000000E+00 0. -1.
         21    1    1    2  503  504 -0.37985611474E+01  0.29090551470E+03 -0.31483702707E+03  0.42867563630E+03  0.00000000000E+00 0. -1.
         21    1    1    2  504  502 -0.11647309257E+03  0.43659951026E+02  0.65129235028E+02  0.14040651649E+03  0.00000000000E+00 0. -1.
         21    1    1    2  505  501  0.11342085213E+03 -0.26584651746E+03 -0.42140534955E+03  0.51100012639E+03  0.00000000000E+00 0. -1.
          1    1    1    2  501    0  0.68508015889E+01 -0.68718948263E+02 -0.89252623529E+03  0.89519400580E+03  0.00000000000E+00 0. -1.
<scales pt_clust_3="285.16694" pt_clust_4="123.10339" pt_clust_5="14000.00000" pt_clust_6="69.05959"></scales>
<clustering>
<clus scale="   69.060">  2  6  1 -1</clus>
<clus scale="  123.103">  1  4  2 -1</clus>
<clus scale="  285.167">  2  3  1 -1</clus>
<clus scale="  123.103">  1  3  2 -1</clus>
</clustering>
</event>
<event>
 6    0  0.5775861E+002  0.1335658E+03  0.7546771E-02  0.1222259E+00
          2   -1    0    0  505    0 -0.00000000000E+00  0.00000000000E+00  0.15405944556E+04  0.15405944556E+04  0.00000000000E+00 0.  1.
         21   -1    0    0  504  502  0.00000000000E+00 -0.00000000000E+00 -0.49142741923E+03  0.49142741923E+03  0.00000000000E+00 0. -1.
         21    1    1    2  503  501  0.85294430258E+02 -0.12590395761E+03  0.36946671595E+03  0.39954048677E+03  0.00000000000E+00 0.  1.
         21    1    1    2  504  503 -0.16302183233E+02  0.93383963793E+02 -0.11958579663E+03  0.15260107676E+03  0.00000000000E+00 0. -1.
         21    1    1    2  505  502 -0.32108716709E+02  0.34746856061E+02 -0.33835130196E+03  0.34164296748E+03  0.00000000000E+00 0. -1.
          2    1    1    2  501    0 -0.36883530317E+02 -0.22268622460E+01  0.11376374191E+04  0.11382373439E+04  0.00000000000E+00 0.  1.
<scales pt_clust_3="133.56577" pt_clust_4="14000.00000" pt_clust_5="47.40660" pt_clust_6="36.95069"></scales>
<clustering>
<clus scale="   36.951">  1  6  2 -1</clus>
<clus scale="   47.407">  2  5  1 -1</clus>
<clus scale="  133.566">  1  3  2 -1</clus>
<clus scale="   47.407">  2  3  1 -1</clus>
</clustering>
</event>
<event>
 6    0  0.5775861E+002  0.1230147E+03  0.7546771E-02  0.1238205E+00
          1   -1    0    0  503    0 -0.00000000000E+00  0.00000000000E+00  0.11402904474E+04  0.11402904474E+04  0.00000000000E+00 0.  1.
         21   -1    0    0  505  502  0.00000000000E+00 -0.00000000000E+00 -0.68977496691E+03  0.68977496691E+03  0.00000000000E+00 0. -1.
         21    1    1    2  503  504 -0.68566661910E+02  0.78610787878E+02 -0.16673485178E+03  0.19667626673E+03  0.00000000000E+00 0. -1.
         21    1    1    2  504  502  0.13479800884E+02  0.70710392074E+02 -0.35477832927E+03  0.36200735835E+03  0.00000000000E+00 0. -1.
         21    1    1    2  505  501  0.95237664179E+02 -0.98965893598E+02 -0.11701498866E+03  0.18043549636E+03  0.00000000000E+00 0. -1.
          1    1    1    2  501    0 -0.40150803153E+02 -0.50355286354E+02  0.10890436502E+04  0.10909462929E+04  0.00000000000E+00 0.  1.
<scales pt_clust_3="123.01468" pt_clust_4="67.92290" pt_clust_5="14000.00000" pt_clust_6="64.40296"></scales>
<clustering>
<clus scale="   64.403">  1  6  2 -1</clus>
<clus scale="   67.923">  2  4  1 -1</clus>
<clus scale="  123.015">  2  3  1 -1</clus>
<clus scale="   67.923">  2  3  1 -1</clus>
</clustering>
</event>
<event>
 6    0  0.5775861E+002  0.1829190E+03  0.7546771E-02  0.1165008E+00
          1   -1    0    0  505    0 -0.00000000000E+00  0.00000000000E+00  0.11246256568E+04  0.11246256568E+04  0.00000000000E+00 0. -1.
         21   -1    0    0  504  502  0.00000000000E+00 -0.00000000000E+00 -0.13807484773E+04  0.13807484773E+04  0.00000000000E+00 0. -1.
         21    1    1    2  503  501 -0.17134111943E+03 -0.49415186825E+02 -0.26460392021E+03  0.31908443160E+03  0.00000000000E+00 0. -1.
         21    1    1    2  504  503 -0.24939317731E+01  0.78033245986E+02 -0.50958250025E+03  0.51552859449E+03  0.00000000000E+00 0. -1.
         21    1    1    2  505  502  0.16030082240E+03  0.70312467765E+02 -0.56069903392E+03  0.58738709845E+03  0.00000000000E+00 0. -1.
          1    1    1    2  501    0  0.13534228805E+02 -0.98930526926E+02  0.10787626339E+04  0.10833740096E+04  0.00000000000E+00 0. -1.
<scales pt_clust_3="182.91905" pt_clust_4="78.07309" pt_clust_5="14000.00000" pt_clust_6="99.64579"></scales>
<clustering>
<clus scale="   78.073">  2  4  1 -1</clus>
<clus scale="   99.646">  1  6  2 -1</clus>
<clus scale="  182.919">  1  3  2 -1</clus>
<clus scale="   78.073">  2  3  1 -1</clus>
</clustering>
</event>
<event>
 6    0  0.5775861E+002  0.1035573E+03  0.7546771E-02  0.1272988E+00
         -2   -1    0    0    0  501 -0.00000000000E+00  0.00000000000E+00  0.21885405915E+03  0.21885405915E+03  0.00000000000E+00 0.  1.
         21   -1    0    0  503  502  0.00000000000E+00 -0.00000000000E+00 -0.29040724531E+04  0.29040724531E+04  0.00000000000E+00 0.  1.
         21    1    1    2  503  504 -0.31388436808E+02 -0.71604083598E+01 -0.16582941109E+04  0.16586066030E+04  0.00000000000E+00 0.  1.
         21    1    1    2  504  501 -0.30063075829E+02 -0.94837527923E+02 -0.80416995763E+03  0.81030072565E+03  0.00000000000E+00 0.  1.
         21    1    1    2  505  502  0.24711401783E+02  0.97530658643E+02 -0.43096041667E+03  0.44254916505E+03  0.00000000000E+00 0.  1.
         -2    1    1    2    0  505  0.36740110854E+02  0.44672776403E+01  0.20820609123E+03  0.21147001853E+03  0.00000000000E+00 0.  1.
<scales pt_clust_3="32.19480" pt_clust_4="103.55728" pt_clust_5="14000.00000" pt_clust_6="36.96875"></scales>
<clustering>
<clus scale="   32.195">  2  3  1 -1</clus>
<clus scale="   36.969">  1  6  2 -1</clus>
<clus scale="  103.557">  2  4  1 -1</clus>
<clus scale="   32.195">  2  3  1 -1</clus>
</clustering>
</event>
<event>
 6    0  0.5775861E+002  0.1104383E+03  0.7546771E-02  0.1259760E+00
          2   -1    0    0  505    0 -0.00000000000E+00  0.00000000000E+00  0.10235654681E+04  0.10235654681E+04  0.00000000000E+00 0. -1.
         21   -1    0    0  504  502  0.00000000000E+00 -0.00000000000E+00 -0.25499776195E+03  0.25499776195E+03  0.00000000000E+00 0. -1.
         21    1    1    2  503  502  0.89685766343E+01  0.28720308332E+02 -0.14374289552E+03  0.14685813389E+03  0.00000000000E+00 0. -1.
         21    1    1    2  504  501  0.12891796741E+03 -0.17767629825E+01 -0.25232095355E+02  0.13137601701E+03  0.00000000000E+00 0. -1.
         21    1    1    2  505  503 -0.41842860697E+02  0.27439190737E+02 -0.59614628622E+01  0.50391201802E+02  0.00000000000E+00 0. -1.
          2    1    1    2  501    0 -0.96043683351E+02 -0.54382736086E+02  0.94350415987E+03  0.94993787733E+03  0.00000000000E+00 0. -1.
<scales pt_clust_3="30.08806" pt_clust_4="14000.00000" pt_clust_5="52.68316" pt_clust_6="110.43828"></scales>
<clustering>
<clus scale="   30.088">  2  3  1 -1</clus>
<clus scale="   52.683">  2  5  1 -1</clus>
<clus scale="  110.438">  1  6  2 -1</clus>
<clus scale="   30.088">  2  3  1 -1</clus>
</clustering>
</event>
<event>
 6    0  0.5775861E+002  0.2751876E+03  0.7546771E-02  0.1098347E+00
         21   -1    0    0  505  502  0.00000000000E+00  0.00000000000E+00  0.25228847046E+03  0.25228847046E+03  0.00000000000E+00 0. -1.
          1   -1    0    0  503    0 -0.00000000000E+00 -0.00000000000E+00 -0.27754438025E+04  0.27754438025E+04  0.00000000000E+00 0. -1.
         21    1    1    2  503  504 -0.51067313073E+02  0.12051860417E+03 -0.10185259703E+04  0.10269020190E+04  0.00000000000E+00 0. -1.
         21    1    1    2  504  502  0.19232010480E+03  0.16407029562E+03 -0.38374243259E+03  0.45952621165E+03  0.00000000000E+00 0. -1.
         21    1    1    2  505  501 -0.15676681270E+03 -0.23441897781E+03  0.11481693130E+03  0.30448484106E+03  0.00000000000E+00 0. -1.
          1    1    1    2  501    0  0.15514020966E+02 -0.50169921986E+02 -0.12357038604E+04  0.12368192012E+04  0.00000000000E+00 0. -1.
<scales pt_clust_3="96.24022" pt_clust_4="14000.00000" pt_clust_5="275.18762" pt_clust_6="52.51386"></scales>
<clustering>
<clus scale="   52.514">  2  6  1 -1</clus>
<clus scale="   96.240">  2  3  1 -1</clus>
<clus scale="  275.188">  1  5  2 -1</clus>
<clus scale="  275.188">  1  3  2 -1</clus>
</clustering>
</event>
<event>
 6    0  0.5775861E+002  0.1678207E+03  0.7546771E-02  0.1180140E+00
         21   -1    0    0  505  502  0.00000000000E+00  0.00000000000E+00  0.18415638486E+03  0.18415638486E+03  0.00000000000E+00 0.  1.
         -3   -1    0    0    0  501 -0.00000000000E+00 -0.00000000000E+00 -0.24879768361E+04  0.24879768361E+04  0.00000000000E+00 0. -1.
         21    1    1    2  503  504 -0.13250497929E+03  0.13712503467E+03 -0.64903900175E+03  0.67647059837E+03  0.00000000000E+00 0.  1.
         21    1    1    2  504  502  0.35647319063E+02 -0.21530425854E+03  0.45307306763E+02  0.22288877753E+03  0.00000000000E+00 0.  1.
         21    1    1    2  505  501  0.87194504339E+02  0.11402549264E+03 -0.10646137219E+03  0.17871406864E+03  0.00000000000E+00 0.  1.
         -3    1    1    2    0  503  0.96631558889E+01 -0.35846268770E+02 -0.15936273840E+04  0.15940597764E+04  0.00000000000E+00 0. -1.
<scales pt_clust_3="14000.00000" pt_clust_4="167.82067" pt_clust_5="140.01730" pt_clust_6="37.12589"></scales>
<clustering>
<clus scale="   37.126">  2  6  1 -1</clus>
<clus scale="  140.017">  1  5  2 -1</clus>
<clus scale="  167.821">  1  4  2 -1</clus>
<clus scale="  140.017">  1  3  2 -1</clus>
</clustering>
</event>
<event>
 6    0  0.5775861E+002  0.6892930E+02  0.7546771E-02  0.1363772E+00
         21   -1    0    0  504  502  0.00000000000E+00  0.00000000000E+00  0.15591877263E+03  0.15591877263E+03  0.00000000000E+00 0.  1.
          4   -1    0    0  503    0 -0.00000000000E+00 -0.00000000000E+00 -0.76183186865E+03  0.76183186865E+03  0.00000000000E+00 0.  1.
         21    1    1    2  503  502 -0.18197983048E+02 -0.82050964043E+02  0.65860394922E+02  0.10677602215E+03  0.00000000000E+00 0.  1.
         21    1    1    2  504  505  0.41322886626E+02  0.19918591609E+02  0.47702618333E+02  0.66180594185E+02  0.00000000000E+00 0.  1.
         21    1    1    2  505  501 -0.57875245077E+02  0.64224588706E+02 -0.14184966862E+03  0.16611944581E+03  0.00000000000E+00 0.  1.
          4    1    1    2  501    0  0.34750341498E+02 -0.20922162722E+01 -0.57762644065E+03  0.57867457914E+03  0.00000000000E+00 0.  1.
<scales pt_clust_3="68.92930" pt_clust_4="47.40952" pt_clust_5="14000.00000" pt_clust_6="34.81327"></scales>
<clustering>
<clus scale="   34.813">  2  6  1 -1</clus>
<clus scale="   47.410">  1  4  2 -1</clus>
<clus scale="   68.929">  1  3  2 -1</clus>
<clus scale="   47.410">  1  3  2 -1</clus>
</clustering>
</event>
<event>
 6    0  0.5775861E+002  0.1735959E+03  0.7546771E-02  0.1174149E+00
          1   -1    0    0  504    0 -0.00000000000E+00  0.00000000000E+00  0.46427501099E+03  0.46427501099E+03  0.00000000000E+00 0.  1.
         21   -1    0    0  505  502  0.00000000000E+00 -0.00000000000E+00 -0.29205330436E+03  0.29205330436E+03  0.00000000000E+00 0.  1.
         21    1    1    2  503  501 -0.91277778800E+02  0.41959649747E+02  0.42239317469E+02  0.10897892021E+03  0.00000000000E+00 0.  1.
         21    1    1    2  504  502  0.17119267270E+03 -0.38553419017E+02 -0.19963699754E+03  0.26579734403E+03  0.00000000000E+00 0.  1.
         21    1    1    2  505  503 -0.48378682328E+02 -0.46426546544E+00 -0.20012618853E+01  0.48422283046E+02  0.00000000000E+00 0.  1.
          1    1    1    2  501    0 -0.31536211576E+02 -0.29419652644E+01  0.33162064859E+03  0.33312976806E+03  0.00000000000E+00 0.  1.
<scales pt_clust_3="30.48921" pt_clust_4="167.94431" pt_clust_5="30.48921" pt_clust_6="31.67314"></scales>
<clustering>
<clus scale="   30.489">  3  5 -1 -1</clus>
<clus scale="   31.673">  1  6  2 -1</clus>
<clus scale="  167.944">  2  4  1 -1</clus>
<clus scale="  167.944">  2  3  1 -1</clus>
</clustering>
</event>
<event>
 6    0  0.5775861E+002  0.1285939E+03  0.7546771E-02  0.1229557E+00
         21   -1    0    0  503  502  0.00000000000E+00  0.00000000000E+00  0.55946397408E+03  0.55946397408E+03  0.00000000000E+00 0.  1.
         -3   -1    0    0    0  501 -0.00000000000E+00 -0.00000000000E+00 -0.47135221656E+03  0.47135221656E+03  0.00000000000E+00 0. -1.
         21    1    1    2  503  501  0.33238284029E+02 -0.28840702449E+02  0.10242584023E+02  0.45182741953E+02  0.00000000000E+00 0. -1.
         21    1    1    2  504  502  0.25921538756E+02  0.13570738760E+03  0.45216200069E+03  0.47279900178E+03  0.00000000000E+00 0.  1.
         21    1    1    2  505  504 -0.11110723634E+03 -0.10514549530E+03 -0.19447927942E+02  0.15420316161E+03  0.00000000000E+00 0. -1.
         -3    1    1    2    0  505  0.51947413553E+02 -0.17211898512E+01 -0.35484489925E+03  0.35863128529E+03  0.00000000000E+00 0. -1.
<scales pt_clust_3="44.00647" pt_clust_4="128.59393" pt_clust_5="14000.00000" pt_clust_6="52.09769"></scales>
<clustering>
<clus scale="   44.006">  1  3  2 -1</clus>
<clus scale="   52.098">  2  6  1 -1</clus>
<clus scale="  128.594">  1  4  2 -1</clus>
<clus scale="   44.006">  1  3  2 -1</clus>
</clustering>
</event>
<event>
 6    0  0.5775861E+002  0.1157471E+03  0.7546771E-02  0.1250283E+00
         -4   -1    0    0    0  501 -0.00000000000E+00  0.00000000000E+00  0.14730466318E+04  0.14730466318E+04  0.00000000000E+00 0.  1.
         21   -1    0    0  501  502  0.00000000000E+00 -0.00000000000E+00 -0.40833152765E+02  0.40833152765E+02  0.00000000000E+00 0.  1.
         21    1    1    2  503  502  0.41515205478E+02 -0.50740058526E+02  0.17644775618E+02  0.67892591140E+02  0.00000000000E+00 0.  1.
         21    1    1    2  504  503  0.62969393567E+02  0.24218383383E+02  0.75667813433E+02  0.10137698264E+03  0.00000000000E+00 0.  1.
         21    1    1    2  505  504 -0.66812021989E+02 -0.12836711473E+02  0.83717960779E+03  0.83993947588E+03  0.00000000000E+00 0.  1.
         -4    1    1    2    0  505 -0.37672577056E+02  0.39358386616E+02  0.50172128217E+03  0.50467073488E+03  0.00000000000E+00 0.  1.
<scales pt_clust_3="65.55964" pt_clust_4="98.47232" pt_clust_5="54.43771" pt_clust_6="54.43771"></scales>
<clustering>
<clus scale="   54.438">  5  6 -1 -1</clus>
<clus scale="   65.560">  2  3  1 -1</clus>
<clus scale="   98.472">  2  4  1 -1</clus>
<clus scale="   65.560">  2  3  1 -1</clus>
</clustering>
</event>
<event>
 6    0  0.5775861E+002  0.8565417E+02  0.7546771E-02  0.1313731E+00
          1   -1    0    0  505    0 -0.00000000000E+00  0.00000000000E+00  0.17403863627E+04  0.17403863627E+04  0.00000000000E+00 0.  1.
         21   -1    0    0  501  502  0.00000000000E+00 -0.00000000000E+00 -0.33893403718E+03  0.33893403718E+03  0.00000000000E+00 0.  1.
         21    1    1    2  503  502 -0.18286700551E+02 -0.33220661913E+02 -0.30282000556E+03  0.30518514309E+03  0.00000000000E+00 0.  1.
         21    1    1    2  504  503  0.34525332418E+02 -0.54533453840E+02  0.22363552711E+02  0.68308305909E+02  0.00000000000E+00 0.  1.
         21    1    1    2  505  504  0.54850364231E+01  0.11946002937E+03  0.29406102446E+03  0.31744711426E+03  0.00000000000E+00 0.  1.
          1    1    1    2  501    0 -0.21723668290E+02 -0.31705913619E+02  0.13878477539E+04  0.13883798366E+04  0.00000000000E+00 0.  1.
<scales pt_clust_3="37.92118" pt_clust_4="14000.00000" pt_clust_5="85.65417" pt_clust_6="38.72158"></scales>
<clustering>
<clus scale="   37.921">  2  3  1 -1</clus>
<clus scale="   38.722">  1  6  2 -1</clus>
<clus scale="   85.654">  1  5  2 -1</clus>
<clus scale="   37.921">  2  3  1 -1</clus>
</clustering>
</event>
<event>
 6    0  0.5775861E+002  0.7329941E+02  0.7546771E-02  0.1349220E+00
         21   -1    0    0  504  502  0.00000000000E+00  0.00000000000E+00  0.28171301478E+02  0.28171301478E+02  0.00000000000E+00 0. -1.
          2   -1    0    0  505    0 -0.00000000000E+00 -0.00000000000E+00 -0.20790093185E+04  0.20790093185E+04  0.00000000000E+00 0.  1.
         21    1    1    2  503  501  0.18538927473E+02  0.79699143050E+02 -0.26801928371E+03  0.28023201401E+03  0.00000000000E+00 0. -1.
         21    1    1    2  504  503  0.10044771105E+02  0.53213287570E+02 -0.40074374117E+02  0.67368441139E+02  0.00000000000E+00 0. -1.
         21    1    1    2  505  502  0.30524809468E+02 -0.87595323590E+02 -0.28050275876E+03  0.29544289191E+03  0.00000000000E+00 0. -1.
          2    1    1    2  501    0 -0.59108508046E+02 -0.45317107031E+02 -0.14622416004E+04  0.14641372729E+04  0.00000000000E+00 0.  1.
<scales pt_clust_3="73.29941" pt_clust_4="54.15304" pt_clust_5="70.00802" pt_clust_6="14000.00000"></scales>
<clustering>
<clus scale="   54.153">  1  4  2 -1</clus>
<clus scale="   70.008">  1  5  2 -1</clus>
<clus scale="   73.299">  1  3  2 -1</clus>
<clus scale="   54.153">  1  3  2 -1</clus>
</clustering>
</event>
<event>
 6    0  0.5775861E+002  0.1141753E+03  0.7546771E-02  0.1253028E+00
         -3   -1    0    0    0  501 -0.00000000000E+00  0.00000000000E+00  0.24996749996E+03  0.24996749996E+03  0.00000000000E+00 0. -1.
         21   -1    0    0  504  502  0.00000000000E+00 -0.00000000000E+00 -0.64494558892E+03  0.64494558892E+03  0.00000000000E+00 0.  1.
         21    1    1    2  503  505 -0.11845185064E+02 -0.46815201683E+02 -0.56567753387E+02  0.74376624292E+02  0.00000000000E+00 0.  1.
         21    1    1    2  504  503 -0.36286211433E+01 -0.32312986662E+02 -0.50799788545E+03  0.50903747172E+03  0.00000000000E+00 0.  1.
         21    1    1    2  505  501 -0.10762772813E+03  0.44497380603E+02  0.13645184300E+03  0.17939579203E+03  0.00000000000E+00 0.  1.
         -3    1    1    2    0  502  0.12310153433E+03  0.34630807741E+02  0.33135706879E+02  0.13210320083E+03  0.00000000000E+00 0. -1.
<scales pt_clust_3="63.78609" pt_clust_4="32.51609" pt_clust_5="114.17528" pt_clust_6="14000.00000"></scales>
<clustering>
<clus scale="   32.516">  2  4  1 -1</clus>
<clus scale="   63.786">  2  3  1 -1</clus>
<clus scale="  114.175">  1  5  2 -1</clus>
<clus scale="   32.516">  2  3  1 -1</clus>
</clustering>
</event>
<event>
 6    0  0.5775861E+002  0.1667504E+03  0.7546771E-02  0.1181280E+00
         -2   -1    0    0    0  501 -0.00000000000E+00  0.00000000000E+00  0.88122954959E+03  0.88122954959E+03  0.00000000000E+00 0.  1.
         21   -1    0    0  505  502  0.00000000000E+00 -0.00000000000E+00 -0.83504114735E+03  0.83504114735E+03  0.00000000000E+00 0.  1.
         21    1    1    2  503  504  0.14150947339E+03 -0.12059593956E+03 -0.58045405295E+03  0.60950407651E+03  0.00000000000E+00 0.  1.
         21    1    1    2  504  501 -0.40949946362E+02  0.26732172546E+02  0.51556080000E+02  0.71060091057E+02  0.00000000000E+00 0.  1.
         21    1    1    2  505  503 -0.10378246705E+01  0.30022274950E+02 -0.22496671862E+03  0.22696351812E+03  0.00000000000E+00 0.  1.
         -2    1    1    2    0  502 -0.99521702358E+02  0.63841492067E+02  0.80005309380E+03  0.80874301125E+03  0.00000000000E+00 0.  1.
<scales pt_clust_3="14000.00000" pt_clust_4="49.18129" pt_clust_5="30.04021" pt_clust_6="166.75036"></scales>
<clustering>
<clus scale="   30.040">  2  5  1 -1</clus>
<clus scale="   49.181">  1  4  2 -1</clus>
<clus scale="  166.750">  1  6  2 -1</clus>
<clus scale="   30.040">  2  3  1 -1</clus>
</clustering>
</event>
<event>
 6    0  0.5775861E+002  0.9859685E+02  0.7546771E-02  0.1283275E+00
          1   -1    0    0  503    0 -0.00000000000E+00  0.00000000000E+00  0.37480238263E+04  0.37480238263E+04  0.00000000000E+00 0.  1.
         21   -1    0    0  505  502  0.00000000000E+00 -0.00000000000E+00 -0.17963620092E+02  0.17963620092E+02  0.00000000000E+00 0. -1.
         21    1    1    2  503  504 -0.65734905530E+02 -0.96654252893E+02  0.33673715647E+03  0.35644780116E+03  0.00000000000E+00 0. -1.
         21    1    1    2  504  502  0.36925918827E+02 -0.20273921644E+02  0.82582526987E+02  0.92706144045E+02  0.00000000000E+00 0.  1.
         21    1    1    2  505  501  0.44040542544E+00  0.78761275647E+02  0.54281181726E+03  0.54849630943E+03  0.00000000000E+00 0. -1.
          1    1    1    2  501    0  0.28368581277E+02  0.38166898889E+02  0.27679287055E+04  0.27683371917E+04  0.00000000000E+00 0.  1.
<scales pt_clust_3="14000.00000" pt_clust_4="42.12547" pt_clust_5="98.59685" pt_clust_6="47.65082"></scales>
<clustering>
<clus scale="   42.125">  2  4  1 -1</clus>
<clus scale="   47.651">  1  6  2 -1</clus>
<clus scale="   98.597">  1  5  2 -1</clus>
<clus scale="   42.125">  2  3  1 -1</clus>
</clustering>
</event>
<event>
 6    0  0.5775861E+002  0.6243591E+02  0.7546771E-02  0.1387885E+00
         21   -1    0    0  505  502  0.00000000000E+00  0.00000000000E+00  0.55140679290E+03  0.55140679290E+03  0.00000000000E+00 0.  1.
          2   -1    0    0  503    0 -0.00000000000E+00 -0.00000000000E+00 -0.65765891751E+03  0.65765891751E+03  0.00000000000E+00 0.  1.
         21    1    1    2  503  504  0.63469853725E+02  0.59397259333E+01  0.10734839529E+01  0.63756215727E+02  0.00000000000E+00 0.  1.
         21    1    1    2  504  502  0.55104532810E+02 -0.28359875944E+02  0.47531915155E+03  0.47934234940E+03  0.00000000000E+00 0.  1.
         21    1    1    2  505  501 -0.59162932417E+02  0.41640994088E+02  0.73105991263E+01  0.72716365561E+02  0.00000000000E+00 0.  1.
          2    1    1    2  501    0 -0.59411454119E+02 -0.19220844078E+02 -0.58995535925E+03  0.59325077972E+03  0.00000000000E+00 0.  1.
<scales pt_clust_3="14000.00000" pt_clust_4="61.97412" pt_clust_5="39.45936" pt_clust_6="62.43591"></scales>
<clustering>
<clus scale="   61.974">  1  4  2 -1</clus>
<clus scale="   39.459">  1  5  2 -1</clus>
<clus scale="   62.436">  2  6  1 -1</clus>
<clus scale="   61.974">  1  3  2 -1</clus>
</clustering>
</event>
<event>
 6    0  0.5775861E+002  0.1089659E+03  0.7546771E-02  0.1262497E+00
         21   -1    0    0  501  502  0.00000000000E+00  0.00000000000E+00  0.54667729555E+02  0.54667729555E+02  0.00000000000E+00 0.  1.
          1   -1    0    0  505    0 -0.00000000000E+00 -0.00000000000E+00 -0.54477600022E+03  0.54477600022E+03  0.00000000000E+00 0.  1.
         21    1    1    2  503  504 -0.42452740383E+02 -0.61270263307E+01 -0.30370389267E+02  0.52556028787E+02  0.00000000000E+00 0.  1.
         21    1    1    2  504  502 -0.47371979835E+02 -0.28009409820E+02  0.20157372520E+01  0.55069907468E+02  0.00000000000E+00 0.  1.
         21    1    1    2  505  503 -0.34741797568E+02  0.56294328676E+01 -0.16513723372E+03  0.16884605111E+03  0.00000000000E+00 0.  1.
          1    1    1    2  501    0  0.12456651778E+03  0.28507003283E+02 -0.29661638493E+03  0.32297174241E+03  0.00000000000E+00 0.  1.
<scales pt_clust_3="34.70765" pt_clust_4="34.70765" pt_clust_5="35.19493" pt_clust_6="101.62672"></scales>
<clustering>
<clus scale="   34.708">  3  4 -1 -1</clus>
<clus scale="   35.195">  2  5  1 -1</clus>
<clus scale="  101.627">  2  6  1 -1</clus>
<clus scale="  108.966">  1  3  2 -1</clus>
</clustering>
</event>
<event>
 6    0  0.5775861E+002  0.1015030E+03  0.7546771E-02  0.1277167E+00
          1   -1    0    0  504    0 -0.00000000000E+00  0.00000000000E+00  0.63767659485E+03  0.63767659485E+03  0.00000000000E+00 0.  1.
         21   -1    0    0  505  502  0.00000000000E+00 -0.00000000000E+00 -0.14665504754E+04  0.14665504754E+04  0.00000000000E+00 0.  1.
         21    1    1    2  503  501 -0.39007754700E+02 -0.13813708539E+03 -0.57776932443E+03  0.59533255542E+03  0.00000000000E+00 0.  1.
         21    1    1    2  504  502 -0.18592623204E+02  0.37994970990E+02 -0.24994860422E+03  0.25350267890E+03  0.00000000000E+00 0.  1.
         21    1    1    2  505  503  0.42188518330E+02  0.60045741061E+02 -0.62539032333E+03  0.62968120396E+03  0.00000000000E+00 0.  1.
          1    1    1    2  501    0  0.15411859574E+02  0.40096373338E+02  0.62423437140E+03  0.62571063200E+03  0.00000000000E+00 0.  1.
<scales pt_clust_3="14000.00000" pt_clust_4="42.30016" pt_clust_5="101.50296" pt_clust_6="42.97381"></scales>
<clustering>
<clus scale="   42.300">  2  4  1 -1</clus>
<clus scale="   42.974">  1  6  2 -1</clus>
<clus scale="  101.503">  2  5  1 -1</clus>
<clus scale="   42.300">  2  3  1 -1</clus>
</clustering>
</event>
<event>
 6    0  0.5775861E+002  0.2088371E+03  0.7546771E-02  0.1142490E+00
          1   -1    0    0  505    0 -0.00000000000E+00  0.00000000000E+00  0.11894122656E+04  0.11894122656E+04  0.00000000000E+00 0.  1.
         21   -1    0    0  503  502  0.00000000000E+00 -0.00000000000E+00 -0.84358802644E+02  0.84358802644E+02  0.00000000000E+00 0.  1.
         21    1    1    2  503  504  0.23057376684E+02  0.22733057441E+02  0.12274643874E+02  0.34628043583E+02  0.00000000000E+00 0.  1.
         21    1    1    2  504  501 -0.30695184904E+02  0.11583128501E+02  0.50578560056E+02  0.60287262167E+02  0.00000000000E+00 0. -1.
         21    1    1    2  505  502 -0.71716214687E+02  0.16540040464E+03  0.87731614271E+02  0.20049275659E+03  0.00000000000E+00 0.  1.
          1    1    1    2  501    0  0.79354022907E+02 -0.19971659058E+03  0.95446864479E+03  0.97836300594E+03  0.00000000000E+00 0.  1.
<scales pt_clust_3="32.37954" pt_clust_4="31.96898" pt_clust_5="208.83708" pt_clust_6="14000.00000"></scales>
<clustering>
<clus scale="   32.380">  2  3  1 -1</clus>
<clus scale="   31.969">  2  4  1 -1</clus>
<clus scale="  208.837">  2  5  1 -1</clus>
<clus scale="   32.380">  2  3  1 -1</clus>
</clustering>
</event>
<event>
 6    0  0.5775861E+002  0.1123158E+03  0.7546771E-02  0.1256340E+00
         21   -1    0    0  505  502  0.00000000000E+00  0.00000000000E+00  0.16425657865E+04  0.16425657865E+04  0.00000000000E+00 0. -1.
         -4   -1    0    0    0  501 -0.00000000000E+00 -0.00000000000E+00 -0.17353959482E+03  0.17353959482E+03  0.00000000000E+00 0. -1.
         21    1    1    2  503  502  0.19060927813E+02  0.51793146293E+02  0.12100912024E+04  0.12113490690E+04  0.00000000000E+00 0. -1.
         21    1    1    2  504  501  0.37725243050E+02 -0.33193864320E+02  0.68157812222E+02  0.84678887325E+02  0.00000000000E+00 0. -1.
         21    1    1    2  505  504 -0.31021925131E+02  0.72242361647E+02  0.33698190187E+03  0.34603196506E+03  0.00000000000E+00 0. -1.
         -4    1    1    2    0  503 -0.25764245732E+02 -0.90841643620E+02 -0.14620472478E+03  0.17404545993E+03  0.00000000000E+00 0. -1.
<scales pt_clust_3="55.12054" pt_clust_4="50.24964" pt_clust_5="14000.00000" pt_clust_6="112.31583"></scales>
<clustering>
<clus scale="   50.250">  2  4  1 -1</clus>
<clus scale="   55.121">  1  3  2 -1</clus>
<clus scale="  112.316">  2  6  1 -1</clus>
<clus scale="   55.121">  1  3  2 -1</clus>
</clustering>
</event>
<event>
 6    0  0.5775861E+002  0.1814730E+03  0.7546771E-02  0.1166385E+00
         21   -1    0    0  501  502  0.00000000000E+00  0.00000000000E+00  0.19857403542E+03  0.19857403542E+03  0.00000000000E+00 0.  1.
          2   -1    0    0  503    0 -0.00000000000E+00 -0.00000000000E+00 -0.23983893512E+04  0.23983893512E+04  0.00000000000E+00 0.  1.
         21    1    1    2  503  505  0.24617122754E+02  0.17775112845E+03 -0.97719980945E+03  0.99353959860E+03  0.00000000000E+00 0.  1.
         21    1    1    2  504  502  0.78437758826E+02 -0.74662947992E+02  0.10200847527E+03  0.14877085346E+03  0.00000000000E+00 0.  1.
         21    1    1    2  505  504 -0.73439107487E+02 -0.11752164818E+03 -0.92743798828E+01  0.13889080035E+03  0.00000000000E+00 0.  1.
          2    1    1    2  501    0 -0.29615774092E+02  0.14433467729E+02 -0.13153496017E+04  0.13157621342E+04  0.00000000000E+00 0.  1.
<scales pt_clust_3="14000.00000" pt_clust_4="107.61360" pt_clust_5="181.47297" pt_clust_6="32.94570"></scales>
<clustering>
<clus scale="   32.946">  2  6  1 -1</clus>
<clus scale="  107.614">  1  4  2 -1</clus>
<clus scale="  181.473">  1  5  2 -1</clus>
<clus scale="  107.614">  1  3  2 -1</clus>
</clustering>
</event>
<event>
 6    0  0.5775861E+002  0.9001649E+02  0.7546771E-02  0.1302812E+00
          2   -1    0    0  505    0 -0.00000000000E+00  0.00000000000E+00  0.45522158505E+03  0.45522158505E+03  0.00000000000E+00 0. -1.
         21   -1    0    0  503  502  0.00000000000E+00 -0.00000000000E+00 -0.10892606691E+03  0.10892606691E+03  0.00000000000E+00 0. -1.
         21    1    1    2  503  504 -0.39734931786E+02 -0.54551874465E+02  0.26691350567E+02  0.72575477999E+02  0.00000000000E+00 0. -1.
         21    1    1    2  504  501 -0.57541719662E+02  0.35450757904E+02  0.16798188410E+02  0.69641832769E+02  0.00000000000E+00 0. -1.
         21    1    1    2  505  502  0.11788441552E+03 -0.67212691886E+02  0.35480616715E+02  0.14026102643E+03  0.00000000000E+00 0. -1.
          2    1    1    2  501    0 -0.20607764073E+02  0.86313808447E+02  0.26732536245E+03  0.28166931476E+03  0.00000000000E+00 0. -1.
<scales pt_clust_3="67.48905" pt_clust_4="72.21176" pt_clust_5="90.01649" pt_clust_6="14000.00000"></scales>
<clustering>
<clus scale="   67.489">  2  3  1 -1</clus>
<clus scale="   72.212">  2  4  1 -1</clus>
<clus scale="   90.016">  2  5  1 -1</clus>
<clus scale="   67.489">  2  3  1 -1</clus>
</clustering>
</event>
<event>
 6    0  0.5775861E+002  0.8340967E+02  0.7546771E-02  0.1319645E+00
          2   -1    0    0  505    0 -0.00000000000E+00  0.00000000000E+00  0.44891245574E+04  0.44891245574E+04  0.00000000000E+00 0.  1.
         21   -1    0    0  503  502  0.00000000000E+00 -0.00000000000E+00 -0.48921083576E+02  0.48921083576E+02  0.00000000000E+00 0.  1.
         21    1    1    2  503  501 -0.17895174725E+02 -0.46713853905E+02  0.16344389614E+03  0.17092784622E+03  0.00000000000E+00 0.  1.
         21    1    1    2  504  502  0.44141107620E+02  0.42192171482E+02  0.24088238870E+02  0.65641907103E+02  0.00000000000E+00 0.  1.
         21    1    1    2  505  504  0.40714618123E+02 -0.45883487689E+02  0.15229548730E+02  0.63205329886E+02  0.00000000000E+00 0.  1.
          2    1    1    2  501    0 -0.66960551018E+02  0.50405170112E+02  0.42374417901E+04  0.42382705578E+04  0.00000000000E+00 0.  1.
<scales pt_clust_3="50.02421" pt_clust_4="41.45507" pt_clust_5="83.40967" pt_clust_6="14000.00000"></scales>
<clustering>
<clus scale="   50.024">  2  3  1 -1</clus>
<clus scale="   41.455">  2  4  1 -1</clus>
<clus scale="   83.410">  2  5  1 -1</clus>
<clus scale="   50.024">  2  3  1 -1</clus>
</clustering>
</event>
<event>
 6    0  0.5775861E+002  0.8762200E+02  0.7546771E-02  0.1308715E+00
         -1   -1    0    0    0  501 -0.00000000000E+00  0.00000000000E+00  0.13185733183E+04  0.13185733183E+04  0.00000000000E+00 0. -1.
         21   -1    0    0  503  502  0.00000000000E+00 -0.00000000000E+00 -0.73690548674E+02  0.73690548674E+02  0.00000000000E+00 0.  1.
         21    1    1    2  503  505  0.12073930655E+02  0.97101763466E+02  0.18499951892E+03  0.20928295265E+03  0.00000000000E+00 0. -1.
         21    1    1    2  504  502  0.62539762526E+02 -0.23242954519E+01 -0.38884513457E+02  0.73679234747E+02  0.00000000000E+00 0.  1.
         21    1    1    2  505  501 -0.53106134252E+02 -0.28288166483E+02  0.80868297754E+03  0.81091839295E+03  0.00000000000E+00 0. -1.
         -1    1    1    2    0  504 -0.21507558929E+02 -0.66489301530E+02  0.29008478660E+03  0.29838328661E+03  0.00000000000E+00 0. -1.
<scales pt_clust_3="87.62200" pt_clust_4="60.81296" pt_clust_5="60.17044" pt_clust_6="14000.00000"></scales>
<clustering>
<clus scale="   60.170">  1  5  2 -1</clus>
<clus scale="   60.813">  2  4  1 -1</clus>
<clus scale="   87.622">  2  3  1 -1</clus>
<clus scale="   60.813">  2  3  1 -1</clus>
</clustering>
</event>
<event>
 6    0  0.5775861E+002  0.1604051E+03  0.7546771E-02  0.1188240E+00
          2   -1    0    0  503    0 -0.00000000000E+00  0.00000000000E+00  0.96741692838E+03  0.96741692838E+03  0.00000000000E+00 0.  1.
         21   -1    0    0  505  502  0.00000000000E+00 -0.00000000000E+00 -0.76029035556E+02  0.76029035556E+02  0.00000000000E+00 0. -1.
         21    1    1    2  503  504  0.52885194299E+02 -0.18741838130E+03  0.29948889372E+03  0.35723394420E+03  0.00000000000E+00 0. -1.
         21    1    1    2  504  502  0.23114249924E+02 -0.21684705217E+02 -0.17147562929E+01  0.31740122543E+02  0.00000000000E+00 0. -1.
         21    1    1    2  505  501 -0.32609779949E+02  0.14560179083E+03  0.18015660154E+03  0.23392238098E+03  0.00000000000E+00 0. -1.
          2    1    1    2  501    0 -0.43389664274E+02  0.63501295682E+02  0.41345715386E+03  0.42054951622E+03  0.00000000000E+00 0.  1.
<scales pt_clust_3="14000.00000" pt_clust_4="31.69377" pt_clust_5="160.40507" pt_clust_6="75.06021"></scales>
<clustering>
<clus scale="   31.694">  2  4  1 -1</clus>
<clus scale="   75.060">  1  6  2 -1</clus>
<clus scale="  160.405">  2  5  1 -1</clus>
<clus scale="   31.694">  2  3  1 -1</clus>
</clustering>
</event>
<event>
 6    0  0.5775861E+002  0.1245118E+03  0.7546771E-02  0.1235834E+00
          1   -1    0    0  503    0 -0.00000000000E+00  0.00000000000E+00  0.14808809823E+04  0.14808809823E+04  0.00000000000E+00 0.  1.
         21   -1    0    0  505  502  0.00000000000E+00 -0.00000000000E+00 -0.20913159532E+04  0.20913159532E+04  0.00000000000E+00 0. -1.
         21    1    1    2  503  504 -0.18007563330E+02  0.30957705938E+02  0.97653620420E+02  0.10401385232E+03  0.00000000000E+00 0.  1.
         21    1    1    2  504  502  0.36572422496E+02 -0.32390594481E+02 -0.17152582797E+04  0.17159538627E+04  0.00000000000E+00 0. -1.
         21    1    1    2  505  501  0.35821615077E+01 -0.86353845407E+02 -0.36600599974E+03  0.37607208132E+03  0.00000000000E+00 0. -1.
          1    1    1    2  501    0 -0.22147020673E+02  0.87786733949E+02  0.13731756882E+04  0.13761571392E+04  0.00000000000E+00 0.  1.
<scales pt_clust_3="35.81413" pt_clust_4="48.84522" pt_clust_5="124.51180" pt_clust_6="14000.00000"></scales>
<clustering>
<clus scale="   35.814">  1  3  2 -1</clus>
<clus scale="   48.845">  2  4  1 -1</clus>
<clus scale="  124.512">  2  5  1 -1</clus>
<clus scale="   48.845">  2  3  1 -1</clus>
</clustering>
</event>
<event>
 6    0  0.5775861E+002  0.9908663E+02  0.7546771E-02  0.1282228E+00
          2   -1    0    0  505    0 -0.00000000000E+00  0.00000000000E+00  0.52998371656E+02  0.52998371656E+02  0.00000000000E+00 0. -1.
         21   -1    0    0  504  502  0.00000000000E+00 -0.00000000000E+00 -0.75615666567E+03  0.75615666567E+03  0.00000000000E+00 0. -1.
         21    1    1    2  503  502 -0.20615933261E+02 -0.24235671996E+02 -0.78410307391E+02  0.84620096942E+02  0.00000000000E+00 0. -1.
         21    1    1    2  504  501  0.77207592636E+02 -0.76691586670E+02 -0.49596451036E+03  0.50776314100E+03  0.00000000000E+00 0. -1.
         21    1    1    2  505  503  0.13559195551E+02  0.91347410701E+02 -0.10979405539E+03  0.14346754276E+03  0.00000000000E+00 0.  1.
          2    1    1    2  501    0 -0.70150854926E+02  0.95798479655E+01 -0.18989420872E+02  0.73304256622E+02  0.00000000000E+00 0. -1.
<scales pt_clust_3="31.81799" pt_clust_4="99.08663" pt_clust_5="14000.00000" pt_clust_6="71.99819"></scales>
<clustering>
<clus scale="   31.818">  2  3  1 -1</clus>
<clus scale="   71.998">  1  6  2 -1</clus>
<clus scale="   99.087">  2  4  1 -1</clus>
<clus scale="   31.818">  2  3  1 -1</clus>
</clustering>
</event>
<event>
 6    0  0.5775861E+002  0.3201638E+03  0.7546771E-02  0.1075574E+00
          2   -1    0    0  504    0 -0.00000000000E+00  0.00000000000E+00  0.14551687432E+04  0.14551687432E+04  0.00000000000E+00 0.  1.
         21   -1    0    0  503  502  0.00000000000E+00 -0.00000000000E+00 -0.18155196977E+03  0.18155196977E+03  0.00000000000E+00 0. -1.
         21    1    1    2  503  505 -0.11143066883E+03  0.72869687848E+02 -0.60125919103E+02  0.14608871110E+03  0.00000000000E+00 0. -1.
         21    1    1    2  504  502  0.24602685203E+03 -0.15184990140E+03  0.10419568318E+04  0.10813240235E+04  0.00000000000E+00 0.  1.
         21    1    1    2  505  501 -0.15620292032E+03  0.51041955291E+02  0.60147359817E+02  0.17499239529E+03  0.00000000000E+00 0. -1.
          2    1    1    2  501    0  0.21606737118E+02  0.27938258263E+02  0.23163850089E+03  0.23431558304E+03  0.00000000000E+00 0.  1.
<scales pt_clust_3="114.59951" pt_clust_4="293.92791" pt_clust_5="114.59951" pt_clust_6="35.31851"></scales>
<clustering>
<clus scale="   35.319">  1  6  2 -1</clus>
<clus scale="  114.600">  3  5 -1 -1</clus>
<clus scale="  293.928">  1  4  2 -1</clus>
<clus scale="  320.164">  2  3  1 -1</clus>
</clustering>
</event>
<event>
 6    0  0.5775861E+002  0.9333243E+02  0.7546771E-02  0.1294977E+00
          1   -1    0    0  504    0 -0.00000000000E+00  0.00000000000E+00  0.12231380712E+03  0.12231380712E+03  0.00000000000E+00 0. -1.
         21   -1    0    0  503  502  0.00000000000E+00 -0.00000000000E+00 -0.37186757381E+03  0.37186757381E+03  0.00000000000E+00 0.  1.
         21    1    1    2  503  505 -0.79779237060E+01  0.52260343543E+02 -0.12900808641E+03  0.13941978745E+03  0.00000000000E+00 0.  1.
         21    1    1    2  504  502  0.29422306048E+02  0.46992268668E+02  0.53845897037E+02  0.77287295434E+02  0.00000000000E+00 0.  1.
         21    1    1    2  505  501 -0.69481492856E+02  0.24305070795E+02 -0.10389387464E+03  0.12732773266E+03  0.00000000000E+00 0. -1.
          1    1    1    2  501    0  0.48037110514E+02 -0.12355768301E+03 -0.70497702676E+02  0.15014656539E+03  0.00000000000E+00 0. -1.
<scales pt_clust_3="52.86578" pt_clust_4="57.44411" pt_clust_5="14000.00000" pt_clust_6="93.33243"></scales>
<clustering>
<clus scale="   52.866">  2  3  1 -1</clus>
<clus scale="   57.444">  1  4  2 -1</clus>
<clus scale="   93.332">  1  6  2 -1</clus>
<clus scale="   52.866">  2  3  1 -1</clus>
</clustering>
</event>
<event>
 6    0  0.5775861E+002  0.5496555E+03  0.7546771E-02  0.1001574E+00
         -1   -1    0    0    0  501 -0.00000000000E+00  0.00000000000E+00  0.11643047606E+04  0.11643047606E+04  0.00000000000E+00 0.  1.
         21   -1    0    0  501  502  0.00000000000E+00 -0.00000000000E+00 -0.23927662000E+04  0.23927662000E+04  0.00000000000E+00 0. -1.
         21    1    1    2  503  505  0.39534664569E+03  0.33879349187E+03 -0.17292659003E+04  0.18059458891E+04  0.00000000000E+00 0. -1.
         21    1    1    2  504  503 -0.38107155410E+03 -0.29781749766E+03  0.71098146235E+02  0.48884121927E+03  0.00000000000E+00 0.  1.
         21    1    1    2  505  502  0.44280075013E+02  0.18415495822E+02 -0.41284177522E+03  0.41561783756E+03  0.00000000000E+00 0. -1.
         -1    1    1    2    0  504 -0.58555166605E+02 -0.59391490025E+02  0.84254808988E+03  0.84666601466E+03  0.00000000000E+00 0.  1.
<scales pt_clust_3="549.65546" pt_clust_4="14000.00000" pt_clust_5="47.95681" pt_clust_6="83.35698"></scales>
<clustering>
<clus scale="   47.957">  2  5  1 -1</clus>
<clus scale="   83.357">  1  6  2 -1</clus>
<clus scale="  549.655">  2  3  1 -1</clus>
<clus scale="   47.957">  2  3  1 -1</clus>
</clustering>
</event>
<event>
 6    0  0.5775861E+002  0.7190101E+02  0.7546771E-02  0.1353745E+00
          1   -1    0    0  505    0 -0.00000000000E+00  0.00000000000E+00  0.44440835231E+03  0.44440835231E+03  0.00000000000E+00 0.  1.
         21   -1    0    0  504  502  0.00000000000E+00 -0.00000000000E+00 -0.38735052248E+03  0.38735052248E+03  0.00000000000E+00 0.  1.
         21    1    1    2  503  502  0.10521148076E+01  0.61889840047E+02 -0.17160232208E+03  0.18242482339E+03  0.00000000000E+00 0.  1.
         21    1    1    2  504  501  0.59729284225E+02 -0.82224310673E+02 -0.15788146010E+03  0.18776309569E+03  0.00000000000E+00 0.  1.
         21    1    1    2  505  503 -0.58919377371E+02  0.58213221133E+02  0.10348116578E+02  0.83470687437E+02  0.00000000000E+00 0.  1.
          1    1    1    2  501    0 -0.18620216614E+01 -0.37878750507E+02  0.37619349543E+03  0.37810026827E+03  0.00000000000E+00 0.  1.
<scales pt_clust_3="58.84938" pt_clust_4="71.90101" pt_clust_5="14000.00000" pt_clust_6="37.92449"></scales>
<clustering>
<clus scale="   37.924">  1  6  2 -1</clus>
<clus scale="   58.849">  2  3  1 -1</clus>
<clus scale="   71.901">  2  4  1 -1</clus>
<clus scale="   58.849">  2  3  1 -1</clus>
</clustering>
</event>
<event>
 6    0  0.5775861E+002  0.2361966E+03  0.7546771E-02  0.1122353E+00
         21   -1    0    0  504  502  0.00000000000E+00  0.00000000000E+00  0.12483413986E+04  0.12483413986E+04  0.00000000000E+00 0.  1.
          1   -1    0    0  505    0 -0.00000000000E+00 -0.00000000000E+00 -0.27974937076E+04  0.27974937076E+04  0.00000000000E+00 0.  1.
         21    1    1    2  503  502 -0.84082621016E+01 -0.35050580483E+02  0.88754927567E+03  0.88828090085E+03  0.00000000000E+00 0.  1.
         21    1    1    2  504  501  0.20951388657E+03  0.14478547203E+03  0.22811489078E+03  0.34189955392E+03  0.00000000000E+00 0.  1.
         21    1    1    2  505  503 -0.19273050876E+03 -0.14348408629E+03 -0.11637404639E+03  0.26697500014E+03  0.00000000000E+00 0.  1.
          1    1    1    2  501    0 -0.83751157005E+01  0.33749194749E+02 -0.25484424290E+04  0.25486796513E+04  0.00000000000E+00 0.  1.
<scales pt_clust_3="35.99965" pt_clust_4="14000.00000" pt_clust_5="236.19656" pt_clust_6="34.77284"></scales>
<clustering>
<clus scale="   34.773">  2  6  1 -1</clus>
<clus scale="   36.000">  1  3  2 -1</clus>
<clus scale="  236.197">  2  5  1 -1</clus>
<clus scale="   36.000">  1  3  2 -1</clus>
</clustering>
</event>
<event>
 6    0  0.5775861E+002  0.5806291E+02  0.7546771E-02  0.1406145E+00
          2   -1    0    0  504    0 -0.00000000000E+00  0.00000000000E+00  0.24937439572E+04  0.24937439572E+04  0.00000000000E+00 0.  1.
         21   -1    0    0  505  502  0.00000000000E+00 -0.00000000000E+00 -0.22698617075E+03  0.22698617075E+03  0.00000000000E+00 0.  1.
         21    1    1    2  503  502 -0.63182701223E+01 -0.55328846365E+02 -0.70597749660E+02  0.89917985044E+02  0.00000000000E+00 0.  1.
         21    1    1    2  504  503 -0.67695016672E+02 -0.11071407292E+02  0.92947310352E+01  0.69221263834E+02  0.00000000000E+00 0.  1.
         21    1    1    2  505  501  0.19902374438E+02  0.87418431685E+02 -0.99156744937E+02  0.13367926830E+03  0.00000000000E+00 0.  1.
          2    1    1    2  501    0  0.54110912357E+02 -0.21018178028E+02  0.24272175500E+04  0.24279116108E+04  0.00000000000E+00 0.  1.
<scales pt_clust_3="55.68843" pt_clust_4="58.06291" pt_clust_5="45.99569" pt_clust_6="14000.00000"></scales>
<clustering>
<clus scale="   55.688">  2  3  1 -1</clus>
<clus scale="   45.996">  2  5  1 -1</clus>
<clus scale="   58.063">  2  4  1 -1</clus>
<clus scale="   55.688">  2  3  1 -1</clus>
</clustering>
</event>
<event>
 6    0  0.5775861E+002  0.1064087E+03  0.7546771E-02  0.1267369E+00
          1   -1    0    0  503    0 -0.00000000000E+00  0.00000000000E+00  0.10319725392E+04  0.10319725392E+04  0.00000000000E+00 0. -1.
         21   -1    0    0  501  502  0.00000000000E+00 -0.00000000000E+00 -0.22085750209E+04  0.22085750209E+04  0.00000000000E+00 0. -1.
         21    1    1    2  503  505  0.57427478429E+02  0.11253951998E+03  0.50893219647E+02  0.13621005338E+03  0.00000000000E+00 0.  1.
         21    1    1    2  504  502  0.47680448369E+02 -0.34677253020E+02 -0.17332042984E+04  0.17342067573E+04  0.00000000000E+00 0. -1.
         21    1    1    2  505  504 -0.73992672022E+02 -0.68771687812E+02 -0.42602288697E+03  0.43783554079E+03  0.00000000000E+00 0. -1.
          1    1    1    2  501    0 -0.31115254777E+02 -0.90905791468E+01  0.93173148399E+03  0.93229520859E+03  0.00000000000E+00 0. -1.
<scales pt_clust_3="14000.00000" pt_clust_4="58.85785" pt_clust_5="106.40868" pt_clust_6="32.41601"></scales>
<clustering>
<clus scale="   32.416">  1  6  2 -1</clus>
<clus scale="   58.858">  2  4  1 -1</clus>
<clus scale="  106.409">  2  5  1 -1</clus>
<clus scale="   58.858">  2  3  1 -1</clus>
</clustering>
</event>
<event>
 6    0  0.5775861E+002  0.1313902E+03  0.7546771E-02  0.1225407E+00
          1   -1    0    0  503    0 -0.00000000000E+00  0.00000000000E+00  0.20694222714E+04  0.20694222714E+04  0.00000000000E+00 0.  1.
         21   -1    0    0  504  502  0.00000000000E+00 -0.00000000000E+00 -0.38184746070E+03  0.38184746070E+03  0.00000000000E+00 0.  1.
         21    1    1    2  503  505 -0.91680251013E+02 -0.33762656765E+02  0.66319928596E+03  0.67035697827E+03  0.00000000000E+00 0.  1.
         21    1    1    2  504  501  0.17536947495E+03 -0.29064724161E+02 -0.33805638371E+03  0.38194414448E+03  0.00000000000E+00 0.  1.
         21    1    1    2  505  502 -0.42292178553E+02  0.17497355086E+02  0.12233757680E+02  0.47375633281E+02  0.00000000000E+00 0.  1.
          1    1    1    2  501    0 -0.41397045380E+02  0.45330025839E+02  0.13501981508E+04  0.13515929761E+04  0.00000000000E+00 0.  1.
<scales pt_clust_3="14000.00000" pt_clust_4="131.39015" pt_clust_5="45.76883" pt_clust_6="61.46767"></scales>
<clustering>
<clus scale="   45.769">  2  5  1 -1</clus>
<clus scale="   61.468">  1  6  2 -1</clus>
<clus scale="  131.390">  2  4  1 -1</clus>
<clus scale="   45.769">  2  3  1 -1</clus>
</clustering>
</event>
<event>
 6    0  0.5775861E+002  0.8257121E+02  0.7546771E-02  0.1321909E+00
         21   -1    0    0  503  502  0.00000000000E+00  0.00000000000E+00  0.41968558365E+03  0.41968558365E+03  0.00000000000E+00 0. -1.
          2   -1    0    0  505    0 -0.00000000000E+00 -0.00000000000E+00 -0.79913483762E+03  0.79913483762E+03  0.00000000000E+00 0. -1.
         21    1    1    2  503  501 -0.44853823676E+02 -0.79182693301E+01  0.48390379041E+02  0.66454445083E+02  0.00000000000E+00 0.  1.
         21    1    1    2  504  502  0.55841182169E+02 -0.45180300959E+02  0.32373392434E+03  0.33160692241E+03  0.00000000000E+00 0. -1.
         21    1    1    2  505  504  0.31984460702E+01  0.13089630076E+03 -0.10091271105E+03  0.16531015354E+03  0.00000000000E+00 0. -1.
          2    1    1    2  501    0 -0.14185804563E+02 -0.77797730472E+02 -0.65066084630E+03  0.65544890024E+03  0.00000000000E+00 0. -1.
<scales pt_clust_3="45.54739" pt_clust_4="54.52449" pt_clust_5="82.57121" pt_clust_6="14000.00000"></scales>
<clustering>
<clus scale="   45.547">  1  3  2 -1</clus>
<clus scale="   54.524">  1  4  2 -1</clus>
<clus scale="   82.571">  1  5  2 -1</clus>
<clus scale="   45.547">  1  3  2 -1</clus>
</clustering>
</event>
<event>
 6    0  0.5775861E+002  0.1041263E+03  0.7546771E-02  0.1271851E+00
         21   -1    0    0  505  502  0.00000000000E+00  0.00000000000E+00  0.57142592038E+03  0.57142592038E+03  0.00000000000E+00 0. -1.
          1   -1    0    0  504    0 -0.00000000000E+00 -0.00000000000E+00 -0.86967229432E+03  0.86967229432E+03  0.00000000000E+00 0.  1.
         21    1    1    2  503  502  0.79713872278E+01  0.77995758545E+02  0.35458059427E+03  0.36314498372E+03  0.00000000000E+00 0. -1.
         21    1    1    2  504  503  0.10331631598E+03 -0.29518964981E+02  0.16769133421E+03  0.19916328479E+03  0.00000000000E+00 0. -1.
         21    1    1    2  505  501 -0.75026326718E+02 -0.36584702335E+02 -0.32071564596E+02  0.89420218079E+02  0.00000000000E+00 0.  1.
          1    1    1    2  501    0 -0.36261376488E+02 -0.11892091229E+02 -0.78844673782E+03  0.78936972810E+03  0.00000000000E+00 0.  1.
<scales pt_clust_3="77.60133" pt_clust_4="14000.00000" pt_clust_5="104.12627" pt_clust_6="38.16162"></scales>
<clustering>
<clus scale="   38.162">  2  6  1 -1</clus>
<clus scale="   77.601">  1  3  2 -1</clus>
<clus scale="  104.126">  2  5  1 -1</clus>
<clus scale="   77.601">  1  3  2 -1</clus>
</clustering>
</event>
<event>
 6    0  0.5775861E+002  0.6686299E+02  0.7546771E-02  0.1371098E+00
          4   -1    0    0  503    0 -0.00000000000E+00  0.00000000000E+00  0.14671748622E+04  0.14671748622E+04  0.00000000000E+00 0.  1.
         21   -1    0    0  505  502  0.00000000000E+00 -0.00000000000E+00 -0.20228021317E+03  0.20228021317E+03  0.00000000000E+00 0.  1.
         21    1    1    2  503  502  0.10526621275E+02  0.48704181445E+02  0.16488209181E+02  0.52485884652E+02  0.00000000000E+00 0.  1.
         21    1    1    2  504  501  0.73699506988E+02  0.17093583372E+02  0.93585513175E+01  0.76232476055E+02  0.00000000000E+00 0.  1.
         21    1    1    2  505  504 -0.68709856897E+02 -0.11412864036E+02 -0.14219454596E+03  0.15833694073E+03  0.00000000000E+00 0.  1.
          4    1    1    2  501    0 -0.15516271366E+02 -0.54384900782E+02  0.13812424345E+04  0.13823997740E+04  0.00000000000E+00 0.  1.
<scales pt_clust_3="49.82878" pt_clust_4="14000.00000" pt_clust_5="66.86299" pt_clust_6="56.39890"></scales>
<clustering>
<clus scale="   49.829">  2  3  1 -1</clus>
<clus scale="   56.399">  1  6  2 -1</clus>
<clus scale="   66.863">  2  5  1 -1</clus>
<clus scale="   49.829">  2  3  1 -1</clus>
</clustering>
</event>
<event>
 6    0  0.5775861E+002  0.1159093E+03  0.7546771E-02  0.1250002E+00
          3   -1    0    0  504    0 -0.00000000000E+00  0.00000000000E+00  0.29923066174E+04  0.29923066174E+04  0.00000000000E+00 0. -1.
         21   -1    0    0  503  502  0.00000000000E+00 -0.00000000000E+00 -0.19026674753E+02  0.19026674753E+02  0.00000000000E+00 0. -1.
         21    1    1    2  503  501 -0.20942610133E+02  0.49970710099E+02  0.43620331522E+03  0.43955545384E+03  0.00000000000E+00 0.  1.
         21    1    1    2  504  505  0.11065009036E+03  0.12355781273E+02  0.34214269163E+03  0.35980234750E+03  0.00000000000E+00 0. -1.
         21    1    1    2  505  502  0.20438592105E+02 -0.22254885984E+02  0.25958361918E+02  0.39835317883E+02  0.00000000000E+00 0. -1.
          3    1    1    2  501    0 -0.11014607233E+03 -0.40071605389E+02  0.21689755739E+04  0.21721401730E+04  0.00000000000E+00 0. -1.
<scales pt_clust_3="50.26061" pt_clust_4="115.90925" pt_clust_5="30.21615" pt_clust_6="14000.00000"></scales>
<clustering>
<clus scale="   30.216">  2  5  1 -1</clus>
<clus scale="   50.261">  2  3  1 -1</clus>
<clus scale="  115.909">  2  4  1 -1</clus>
<clus scale="   30.216">  2  3  1 -1</clus>
</clustering>
</event>
<event>
 6    0  0.5795947E+002  0.9901586E+02  0.7546771E-02  0.1282379E+00
          2   -1    0    0  503    0 -0.00000000000E+00  0.00000000000E+00  0.26805978391E+04  0.26805978391E+04  0.00000000000E+00 0. -1.
         21   -1    0    0  501  502  0.00000000000E+00 -0.00000000000E+00 -0.20460329397E+03  0.20460329397E+03  0.00000000000E+00 0.  1.
         21    1    1    2  503  505  0.21973375213E+02 -0.62256205163E+02  0.32819918555E+03  0.33477360961E+03  0.00000000000E+00 0.  1.
         21    1    1    2  504  502 -0.37674971594E+02  0.23871775434E+02 -0.16685398993E+03  0.17271224364E+03  0.00000000000E+00 0.  1.
         21    1    1    2  505  504 -0.64874597426E+02 -0.28279831262E+00  0.36387840058E+01  0.64977181496E+02  0.00000000000E+00 0. -1.
          2    1    1    2  501    0  0.80576193807E+02  0.38667228041E+02  0.23110105655E+04  0.23127380983E+04  0.00000000000E+00 0. -1.
<scales pt_clust_3="62.76530" pt_clust_4="44.60118" pt_clust_5="99.01586" pt_clust_6="14000.00000"></scales>
<clustering>
<clus scale="   44.601">  2  4  1 -1</clus>
<clus scale="   62.765">  1  3  2 -1</clus>
<clus scale="   99.016">  2  5  1 -1</clus>
<clus scale="   44.601">  2  3  1 -1</clus>
</clustering>
</event>
<event>
 6    0  0.5775861E+002  0.1546478E+03  0.7546771E-02  0.1194875E+00
         21   -1    0    0  505  502  0.00000000000E+00  0.00000000000E+00  0.62213641773E+03  0.62213641773E+03  0.00000000000E+00 0. -1.
          2   -1    0    0  504    0 -0.00000000000E+00 -0.00000000000E+00 -0.30200106956E+03  0.30200106956E+03  0.00000000000E+00 0. -1.
         21    1    1    2  503  501  0.15579888960E+03 -0.15196295982E+03  0.96405066871E+02  0.23803355242E+03  0.00000000000E+00 0. -1.
         21    1    1    2  504  502 -0.42223257450E+02  0.98609843689E+02  0.36983795548E+03  0.38508027482E+03  0.00000000000E+00 0. -1.
         21    1    1    2  505  503  0.29728088183E+02  0.14245892315E+02  0.46990540686E+02  0.57400484221E+02  0.00000000000E+00 0. -1.
          2    1    1    2  501    0 -0.14330372034E+03  0.39107223812E+02 -0.19309821487E+03  0.24362317583E+03  0.00000000000E+00 0. -1.
<scales pt_clust_3="14000.00000" pt_clust_4="110.36964" pt_clust_5="32.96520" pt_clust_6="154.64777"></scales>
<clustering>
<clus scale="   32.965">  1  5  2 -1</clus>
<clus scale="  110.370">  1  4  2 -1</clus>
<clus scale="  154.648">  2  6  1 -1</clus>
<clus scale="   32.965">  1  3  2 -1</clus>
</clustering>
</event>
<event>
 6    0  0.5775861E+002  0.1499126E+03  0.7546771E-02  0.1200580E+00
         21   -1    0    0  501  502  0.00000000000E+00  0.00000000000E+00  0.27260124431E+03  0.27260124431E+03  0.00000000000E+00 0. -1.
          2   -1    0    0  503    0 -0.00000000000E+00 -0.00000000000E+00 -0.24938734147E+03  0.24938734147E+03  0.00000000000E+00 0. -1.
         21    1    1    2  503  504 -0.75026734381E+01 -0.47200761661E+02 -0.13339486867E+02  0.49619995163E+02  0.00000000000E+00 0. -1.
         21    1    1    2  504  505  0.21014062170E+02  0.71351131515E+02  0.71850035955E+02  0.10341664491E+03  0.00000000000E+00 0. -1.
         21    1    1    2  505  502  0.28634745963E+02  0.69334435804E+02  0.14401948963E+03  0.16238480858E+03  0.00000000000E+00 0. -1.
          2    1    1    2  501    0 -0.42146134696E+02 -0.93484805658E+02 -0.17931613588E+03  0.20656713714E+03  0.00000000000E+00 0. -1.
<scales pt_clust_3="47.79333" pt_clust_4="42.16852" pt_clust_5="42.16852" pt_clust_6="143.80698"></scales>
<clustering>
<clus scale="   42.169">  4  5 -1 -1</clus>
<clus scale="   47.793">  2  3  1 -1</clus>
<clus scale="  143.807">  2  6  1 -1</clus>
<clus scale="  149.913">  1  3  2 -1</clus>
</clustering>
</event>
<event>
 6    0  0.5775861E+002  0.9143279E+02  0.7546771E-02  0.1299419E+00
          2   -1    0    0  505    0 -0.00000000000E+00  0.00000000000E+00  0.11342237360E+04  0.11342237360E+04  0.00000000000E+00 0.  1.
         21   -1    0    0  504  502  0.00000000000E+00 -0.00000000000E+00 -0.11266729904E+03  0.11266729904E+03  0.00000000000E+00 0.  1.
         21    1    1    2  503  501  0.76045741790E+02 -0.90016131452E+02 -0.51694175141E+02  0.12867846172E+03  0.00000000000E+00 0.  1.
         21    1    1    2  504  503 -0.38224850241E+02  0.48958503499E+01  0.26855944685E+01  0.38630570074E+02  0.00000000000E+00 0.  1.
         21    1    1    2  505  502 -0.48648693445E+02  0.55644352386E+02  0.32262983088E+03  0.33098791081E+03  0.00000000000E+00 0.  1.
          2    1    1    2  501    0  0.10827801896E+02  0.29475928716E+02  0.74793518673E+03  0.74859409243E+03  0.00000000000E+00 0.  1.
<scales pt_clust_3="91.43279" pt_clust_4="38.19784" pt_clust_5="14000.00000" pt_clust_6="31.40178"></scales>
<clustering>
<clus scale="   31.402">  1  6  2 -1</clus>
<clus scale="   38.198">  2  4  1 -1</clus>
<clus scale="   91.433">  2  3  1 -1</clus>
<clus scale="   38.198">  2  3  1 -1</clus>
</clustering>
</event>
<event>
 6    0  0.5775861E+002  0.6495462E+02  0.7546771E-02  0.1378142E+00
         21   -1    0    0  504  502  0.00000000000E+00  0.00000000000E+00  0.50215668462E+03  0.50215668462E+03  0.00000000000E+00 0.  1.
          2   -1    0    0  505    0 -0.00000000000E+00 -0.00000000000E+00 -0.35612720306E+04  0.35612720306E+04  0.00000000000E+00 0. -1.
         21    1    1    2  503  501  0.32526372898E+02  0.48586530105E+02 -0.73484929377E+00  0.58473548250E+02  0.00000000000E+00 0.  1.
         21    1    1    2  504  503 -0.63591766996E+02 -0.19290447133E+02  0.46921520976E+03  0.47389761262E+03  0.00000000000E+00 0.  1.
         21    1    1    2  505  502  0.79768402407E+02 -0.72228169210E+01 -0.11165915636E+04  0.11194605339E+04  0.00000000000E+00 0.  1.
          2    1    1    2  501    0 -0.48703008308E+02 -0.22073266050E+02 -0.24110041429E+04  0.24115970204E+04  0.00000000000E+00 0. -1.
<scales pt_clust_3="64.95462" pt_clust_4="14000.00000" pt_clust_5="43.28576" pt_clust_6="53.47160"></scales>
<clustering>
<clus scale="   53.472">  2  6  1 -1</clus>
<clus scale="   43.286">  2  5  1 -1</clus>
<clus scale="   64.955">  2  3  1 -1</clus>
<clus scale="   64.955">  1  3  2 -1</clus>
</clustering>
</event>
<event>
 6    0  0.7243696E+002  0.2462483E+03  0.7546771E-02  0.1115699E+00
          2   -1    0    0  505    0 -0.00000000000E+00  0.00000000000E+00  0.18787160315E+04  0.18787160315E+04  0.00000000000E+00 0.  1.
         21   -1    0    0  503  502  0.00000000000E+00 -0.00000000000E+00 -0.63878134981E+03  0.63878134981E+03  0.00000000000E+00 0.  1.
         21    1    1    2  503  504  0.23761889242E+03 -0.55685274103E+02 -0.56167805892E+03  0.61240985431E+03  0.00000000000E+00 0.  1.
         21    1    1    2  504  501 -0.29014442243E+03  0.95341168862E+02  0.63710620731E+03  0.70652533128E+03  0.00000000000E+00 0. -1.
         21    1    1    2  505  502  0.18659077557E+02 -0.35921051524E+02  0.76385727728E+01  0.41192607491E+02  0.00000000000E+00 0.  1.
          2    1    1    2  501    0  0.33866452454E+02 -0.37348432352E+01  0.11568679605E+04  0.11573695882E+04  0.00000000000E+00 0.  1.
<scales pt_clust_3="246.24829" pt_clust_4="14000.00000" pt_clust_5="41.12971" pt_clust_6="34.07177"></scales>
<clustering>
<clus scale="   34.072">  1  6  2 -1</clus>
<clus scale="   41.130">  1  5  2 -1</clus>
<clus scale="  246.248">  2  3  1 -1</clus>
<clus scale="  246.248">  2  3  1 -1</clus>
</clustering>
</event>
<event>
 6    0  0.5775861E+002  0.8421494E+02  0.7546771E-02  0.1317498E+00
         21   -1    0    0  505  502  0.00000000000E+00  0.00000000000E+00  0.41694842431E+03  0.41694842431E+03  0.00000000000E+00 0.  1.
          2   -1    0    0  504    0 -0.00000000000E+00 -0.00000000000E+00 -0.37250166889E+04  0.37250166889E+04  0.00000000000E+00 0. -1.
         21    1    1    2  503  502 -0.40145831559E+02  0.22052745868E+01  0.37581892842E+03  0.37796351409E+03  0.00000000000E+00 0.  1.
         21    1    1    2  504  503 -0.11660661531E+03  0.57852287240E+01 -0.38022987593E+03  0.39775033646E+03  0.00000000000E+00 0.  1.
         21    1    1    2  505  501  0.10993989420E+03  0.12463458830E+01 -0.65985779537E+02  0.12822814362E+03  0.00000000000E+00 0.  1.
          2    1    1    2  501    0  0.46812552665E+02 -0.92368491938E+01 -0.32376715376E+04  0.32380231191E+04  0.00000000000E+00 0. -1.
<scales pt_clust_3="40.20636" pt_clust_4="84.21494" pt_clust_5="14000.00000" pt_clust_6="47.54042"></scales>
<clustering>
<clus scale="   40.206">  1  3  2 -1</clus>
<clus scale="   47.540">  2  6  1 -1</clus>
<clus scale="   84.215">  2  4  1 -1</clus>
<clus scale="   40.206">  1  3  2 -1</clus>
</clustering>
</event>
<event>
 6    0  0.5775861E+002  0.8891971E+02  0.7546771E-02  0.1305489E+00
         21   -1    0    0  503  502  0.00000000000E+00  0.00000000000E+00  0.35957033137E+03  0.35957033137E+03  0.00000000000E+00 0.  1.
          1   -1    0    0  504    0 -0.00000000000E+00 -0.00000000000E+00 -0.92298508764E+03  0.92298508764E+03  0.00000000000E+00 0.  1.
         21    1    1    2  503  505 -0.48780172949E+02 -0.19688599936E+02  0.33784308380E+03  0.34191387148E+03  0.00000000000E+00 0.  1.
         21    1    1    2  504  502 -0.68285120229E+02  0.71276816427E+02 -0.18972247166E+03  0.21386411213E+03  0.00000000000E+00 0. -1.
         21    1    1    2  505  501  0.52771004977E+02  0.59152966715E+01 -0.16114186601E+03  0.16966576167E+03  0.00000000000E+00 0.  1.
          1    1    1    2  501    0  0.64294288201E+02 -0.57503513163E+02 -0.55039350239E+03  0.55711167372E+03  0.00000000000E+00 0.  1.
<scales pt_clust_3="52.60367" pt_clust_4="88.91971" pt_clust_5="42.24581" pt_clust_6="14000.00000"></scales>
<clustering>
<clus scale="   52.604">  1  3  2 -1</clus>
<clus scale="   42.246">  1  5  2 -1</clus>
<clus scale="   88.920">  1  4  2 -1</clus>
<clus scale="   52.604">  1  3  2 -1</clus>
</clustering>
</event>
<event>
 6    0  0.5775861E+002  0.8492374E+02  0.7546771E-02  0.1315632E+00
          2   -1    0    0  505    0 -0.00000000000E+00  0.00000000000E+00  0.13283462447E+04  0.13283462447E+04  0.00000000000E+00 0. -1.
         21   -1    0    0  503  502  0.00000000000E+00 -0.00000000000E+00 -0.45690617624E+02  0.45690617624E+02  0.00000000000E+00 0. -1.
         21    1    1    2  503  501 -0.22213260013E+02 -0.46306719895E+02  0.78671288924E+02  0.93951652081E+02  0.00000000000E+00 0. -1.
         21    1    1    2  504  502  0.18027778490E+02  0.34439060857E+02 -0.18167491844E+02  0.42908128250E+02  0.00000000000E+00 0. -1.
         21    1    1    2  505  504  0.83389245330E+02 -0.18878558383E+02  0.32666498655E+03  0.33766874247E+03  0.00000000000E+00 0. -1.
          2    1    1    2  501    0 -0.79203763808E+02  0.30746217422E+02  0.89548684340E+03  0.89950833948E+03  0.00000000000E+00 0. -1.
<scales pt_clust_3="31.77859" pt_clust_4="38.87222" pt_clust_5="84.92374" pt_clust_6="14000.00000"></scales>
<clustering>
<clus scale="   38.872">  2  4  1 -1</clus>
<clus scale="   31.779">  2  3  1 -1</clus>
<clus scale="   84.924">  2  5  1 -1</clus>
<clus scale="   38.872">  2  3  1 -1</clus>
</clustering>
</event>
<event>
 6    0  0.5775861E+002  0.2132955E+03  0.7546771E-02  0.1138983E+00
         21   -1    0    0  503  502  0.00000000000E+00  0.00000000000E+00  0.86064143556E+02  0.86064143556E+02  0.00000000000E+00 0.  1.
         -4   -1    0    0    0  501 -0.00000000000E+00 -0.00000000000E+00 -0.13082009229E+04  0.13082009229E+04  0.00000000000E+00 0.  1.
         21    1    1    2  503  501 -0.16645406471E+03  0.14508064098E+03 -0.55668116584E+03  0.59887333255E+03  0.00000000000E+00 0. -1.
         21    1    1    2  504  502  0.44337236347E+02 -0.11018237266E+02  0.78977152182E+01  0.46363412137E+02  0.00000000000E+00 0.  1.
         21    1    1    2  505  504  0.13348570998E+03 -0.65423444292E+02 -0.11925512627E+03  0.19057924067E+03  0.00000000000E+00 0.  1.
         -4    1    1    2    0  505 -0.11368881613E+02 -0.68638959417E+02 -0.55409820248E+03  0.55844908112E+03  0.00000000000E+00 0.  1.
<scales pt_clust_3="198.03520" pt_clust_4="43.92136" pt_clust_5="43.92136" pt_clust_6="69.57412"></scales>
<clustering>
<clus scale="   43.921">  4  5 -1 -1</clus>
<clus scale="   69.574">  2  6  1 -1</clus>
<clus scale="  198.035">  2  3  1 -1</clus>
<clus scale="  213.295">  1  3  2 -1</clus>
</clustering>
</event>
<event>
 6    0  0.5775861E+002  0.8473269E+02  0.7546771E-02  0.1316133E+00
         21   -1    0    0  503  502  0.00000000000E+00  0.00000000000E+00  0.66454877037E+03  0.66454877037E+03  0.00000000000E+00 0. -1.
          2   -1    0    0  505    0 -0.00000000000E+00 -0.00000000000E+00 -0.19313950219E+04  0.19313950219E+04  0.00000000000E+00 0. -1.
         21    1    1    2  503  501  0.67416781442E+02 -0.40153246297E+02 -0.28711387836E+03  0.29764355319E+03  0.00000000000E+00 0. -1.
         21    1    1    2  504  502  0.51330945930E+02  0.34129248962E+02  0.64481343514E+03  0.64775306852E+03  0.00000000000E+00 0. -1.
         21    1    1    2  505  504 -0.48830513379E+02 -0.21012349470E+02 -0.46222560143E+02  0.70444750928E+02  0.00000000000E+00 0. -1.
          2    1    1    2  501    0 -0.69917213992E+02  0.27036346805E+02 -0.15783232481E+04  0.15801024196E+04  0.00000000000E+00 0. -1.
<scales pt_clust_3="84.73269" pt_clust_4="61.60044" pt_clust_5="53.15955" pt_clust_6="14000.00000"></scales>
<clustering>
<clus scale="   53.160">  2  5  1 -1</clus>
<clus scale="   61.600">  1  4  2 -1</clus>
<clus scale="   84.733">  1  3  2 -1</clus>
<clus scale="   61.600">  1  3  2 -1</clus>
</clustering>
</event>
<event>
 6    0  0.5775861E+002  0.1374709E+03  0.7546771E-02  0.1216773E+00
          1   -1    0    0  505    0 -0.00000000000E+00  0.00000000000E+00  0.45840451441E+04  0.45840451441E+04  0.00000000000E+00 0. -1.
         21   -1    0    0  504  502  0.00000000000E+00 -0.00000000000E+00 -0.25349039162E+03  0.25349039162E+03  0.00000000000E+00 0. -1.
         21    1    1    2  503  502  0.13841551043E+03  0.13980522823E+03 -0.13165846199E+03  0.23672411365E+03  0.00000000000E+00 0. -1.
         21    1    1    2  504  501  0.15984815532E+02 -0.44565495419E+02  0.91823912636E+02  0.10331131904E+03  0.00000000000E+00 0. -1.
         21    1    1    2  505  503 -0.93428488227E+02 -0.40217219586E+02 -0.22226268308E+02  0.10411682941E+03  0.00000000000E+00 0. -1.
          1    1    1    2  501    0 -0.60971837737E+02 -0.55022513228E+02  0.43926155701E+04  0.43933832736E+04  0.00000000000E+00 0. -1.
<scales pt_clust_3="14000.00000" pt_clust_4="47.34551" pt_clust_5="137.47091" pt_clust_6="82.15611"></scales>
<clustering>
<clus scale="   47.346">  2  4  1 -1</clus>
<clus scale="   82.156">  1  6  2 -1</clus>
<clus scale="  137.471">  1  5  2 -1</clus>
<clus scale="   47.346">  2  3  1 -1</clus>
</clustering>
</event>
<event>
 6    0  0.5775861E+002  0.9652218E+02  0.7546771E-02  0.1287784E+00
         21   -1    0    0  505  502  0.00000000000E+00  0.00000000000E+00  0.19699194514E+03  0.19699194514E+03  0.00000000000E+00 0.  1.
          1   -1    0    0  503    0 -0.00000000000E+00 -0.00000000000E+00 -0.49505870602E+03  0.49505870602E+03  0.00000000000E+00 0.  1.
         21    1    1    2  503  504 -0.85812531487E+02  0.91829703933E+02 -0.29821736855E+03  0.32362027747E+03  0.00000000000E+00 0.  1.
         21    1    1    2  504  502  0.10793567682E+02  0.33324377911E+02 -0.16361361592E+02  0.38661472032E+02  0.00000000000E+00 0. -1.
         21    1    1    2  505  501  0.42523708124E+02 -0.10718860225E+03  0.15114371792E+03  0.19011071951E+03  0.00000000000E+00 0.  1.
          1    1    1    2  501    0  0.32495255681E+02 -0.17965479593E+02 -0.13463174865E+03  0.13965818216E+03  0.00000000000E+00 0.  1.
<scales pt_clust_3="14000.00000" pt_clust_4="35.02878" pt_clust_5="96.52218" pt_clust_6="37.04346"></scales>
<clustering>
<clus scale="   35.029">  1  4  2 -1</clus>
<clus scale="   37.043">  2  6  1 -1</clus>
<clus scale="   96.522">  1  5  2 -1</clus>
<clus scale="   35.029">  1  3  2 -1</clus>
</clustering>
</event>
<event>
 6    0  0.5775861E+002  0.7407956E+02  0.7546771E-02  0.1346745E+00
          1   -1    0    0  503    0 -0.00000000000E+00  0.00000000000E+00  0.23016517379E+04  0.23016517379E+04  0.00000000000E+00 0.  1.
         21   -1    0    0  504  502  0.00000000000E+00 -0.00000000000E+00 -0.10694175885E+04  0.10694175885E+04  0.00000000000E+00 0.  1.
         21    1    1    2  503  505 -0.48141732992E+01  0.50818491179E+02 -0.50351817395E+01  0.51293745870E+02  0.00000000000E+00 0.  1.
         21    1    1    2  504  501 -0.33477834430E+02  0.30101653083E+02 -0.96394277824E+03  0.96499355161E+03  0.00000000000E+00 0.  1.
         21    1    1    2  505  502 -0.10781929867E+02 -0.10755787205E+03 -0.38219361019E+02  0.11465454813E+03  0.00000000000E+00 0.  1.
          1    1    1    2  501    0  0.49073937596E+02  0.26637727784E+02  0.22394314704E+04  0.22401274808E+04  0.00000000000E+00 0.  1.
<scales pt_clust_3="14000.00000" pt_clust_4="45.02083" pt_clust_5="74.07956" pt_clust_6="55.78767"></scales>
<clustering>
<clus scale="   45.021">  2  4  1 -1</clus>
<clus scale="   55.788">  1  6  2 -1</clus>
<clus scale="   74.080">  2  5  1 -1</clus>
<clus scale="   45.021">  2  3  1 -1</clus>
</clustering>
</event>
<event>
 6    0  0.5775861E+002  0.1406334E+03  0.7546771E-02  0.1212479E+00
         21   -1    0    0  504  502  0.00000000000E+00  0.00000000000E+00  0.55950748915E+02  0.55950748915E+02  0.00000000000E+00 0.  1.
          2   -1    0    0  505    0 -0.00000000000E+00 -0.00000000000E+00 -0.64919260194E+03  0.64919260194E+03  0.00000000000E+00 0.  1.
         21    1    1    2  503  501  0.32668935438E+02  0.86832406122E+02 -0.18412271856E+03  0.20617541460E+03  0.00000000000E+00 0.  1.
         21    1    1    2  504  503 -0.79663006236E+02 -0.76888987460E+02 -0.18768964061E+03  0.21791170723E+03  0.00000000000E+00 0.  1.
         21    1    1    2  505  502  0.48632858025E+01 -0.46869798733E+02  0.53824579042E+01  0.47427844513E+02  0.00000000000E+00 0.  1.
          2    1    1    2  501    0  0.42130784996E+02  0.36926380072E+02 -0.22681195176E+03  0.23362838451E+03  0.00000000000E+00 0.  1.
<scales pt_clust_3="46.94028" pt_clust_4="126.99967" pt_clust_5="47.12143" pt_clust_6="46.94028"></scales>
<clustering>
<clus scale="   46.940">  3  6 -1 -1</clus>
<clus scale="   47.121">  1  5  2 -1</clus>
<clus scale="  127.000">  1  4  2 -1</clus>
<clus scale="   47.121">  1  3  2 -1</clus>
</clustering>
</event>
<event>
 6    0  0.5775861E+002  0.1219804E+03  0.7546771E-02  0.1239865E+00
          3   -1    0    0  502    0 -0.00000000000E+00  0.00000000000E+00  0.21143883934E+03  0.21143883934E+03  0.00000000000E+00 0. -1.
         21   -1    0    0  503  502  0.00000000000E+00 -0.00000000000E+00 -0.38833750395E+03  0.38833750395E+03  0.00000000000E+00 0. -1.
         21    1    1    2  503  504 -0.35552890581E+02 -0.38751477060E+02 -0.17057348699E+03  0.17849649707E+03  0.00000000000E+00 0. -1.
         21    1    1    2  504  505  0.41135603492E+02  0.63443003931E+02 -0.69196339401E+02  0.10249529750E+03  0.00000000000E+00 0.  1.
         21    1    1    2  505  501  0.85673969508E+02  0.23149591155E+02 -0.95166250934E+02  0.13012512416E+03  0.00000000000E+00 0.  1.
          3    1    1    2  501    0 -0.91256682418E+02 -0.47841118026E+02  0.15803741271E+03  0.18865942456E+03  0.00000000000E+00 0. -1.
<scales pt_clust_3="52.58978" pt_clust_4="53.69449" pt_clust_5="53.69449" pt_clust_6="106.58777"></scales>
<clustering>
<clus scale="   52.590">  2  3  1 -1</clus>
<clus scale="   53.694">  4  5 -1 -1</clus>
<clus scale="  106.588">  1  6  2 -1</clus>
<clus scale="   52.590">  2  3  1 -1</clus>
</clustering>
</event>
<event>
 6    0  0.5775861E+002  0.1118466E+03  0.7546771E-02  0.1257188E+00
          3   -1    0    0  504    0 -0.00000000000E+00  0.00000000000E+00  0.26194869089E+03  0.26194869089E+03  0.00000000000E+00 0. -1.
         21   -1    0    0  505  502  0.00000000000E+00 -0.00000000000E+00 -0.95356858871E+03  0.95356858871E+03  0.00000000000E+00 0.  1.
         21    1    1    2  503  502  0.36883448669E+02 -0.17916969122E+02 -0.73609649183E+03  0.73723771733E+03  0.00000000000E+00 0.  1.
         21    1    1    2  504  503 -0.76240434281E+01 -0.98848824106E+02 -0.17552709192E+03  0.20159111107E+03  0.00000000000E+00 0. -1.
         21    1    1    2  505  501  0.50189834227E+01  0.95395971402E+02  0.62665483936E+02  0.11424773272E+03  0.00000000000E+00 0. -1.
          3    1    1    2  501    0 -0.34278388663E+02  0.21369821826E+02  0.15733820199E+03  0.16244071848E+03  0.00000000000E+00 0. -1.
<scales pt_clust_3="40.78037" pt_clust_4="14000.00000" pt_clust_5="111.84661" pt_clust_6="40.39402"></scales>
<clustering>
<clus scale="   40.394">  1  6  2 -1</clus>
<clus scale="   40.780">  2  3  1 -1</clus>
<clus scale="  111.847">  1  5  2 -1</clus>
<clus scale="   40.780">  2  3  1 -1</clus>
</clustering>
</event>
<event>
 6    0  0.5775861E+002  0.8513108E+02  0.7546771E-02  0.1315090E+00
          1   -1    0    0  503    0 -0.00000000000E+00  0.00000000000E+00  0.20520706114E+03  0.20520706114E+03  0.00000000000E+00 0.  1.
         21   -1    0    0  504  502  0.00000000000E+00 -0.00000000000E+00 -0.21676582909E+04  0.21676582909E+04  0.00000000000E+00 0. -1.
         21    1    1    2  503  505 -0.58012396062E+02  0.74910431422E+02  0.43155617627E+02  0.10411252646E+03  0.00000000000E+00 0. -1.
         21    1    1    2  504  501  0.12483843902E+03  0.59958394246E+01 -0.14960316232E+03  0.19494022705E+03  0.00000000000E+00 0. -1.
         21    1    1    2  505  502 -0.72925781292E+02 -0.41814265741E+02 -0.19603839120E+04  0.19621854359E+04  0.00000000000E+00 0. -1.
          1    1    1    2  501    0  0.60997383358E+01 -0.39092005106E+02  0.10438022692E+03  0.11162716265E+03  0.00000000000E+00 0.  1.
<scales pt_clust_3="70.01793" pt_clust_4="14000.00000" pt_clust_5="85.13108" pt_clust_6="39.56503"></scales>
<clustering>
<clus scale="   39.565">  1  6  2 -1</clus>
<clus scale="   70.018">  1  3  2 -1</clus>
<clus scale="   85.131">  2  5  1 -1</clus>
<clus scale="   85.131">  2  3  1 -1</clus>
</clustering>
</event>
<event>
 6    0  0.5775861E+002  0.1551500E+03  0.7546771E-02  0.1194284E+00
         21   -1    0    0  503  502  0.00000000000E+00  0.00000000000E+00  0.75368740985E+02  0.75368740985E+02  0.00000000000E+00 0.  1.
          2   -1    0    0  504    0 -0.00000000000E+00 -0.00000000000E+00 -0.17787102345E+04  0.17787102345E+04  0.00000000000E+00 0.  1.
         21    1    1    2  503  505 -0.43962084839E+02 -0.68138844391E+01 -0.86395603343E+01  0.45318163327E+02  0.00000000000E+00 0.  1.
         21    1    1    2  504  502 -0.67018709527E+02  0.11386994898E+03 -0.63483094954E+03  0.64843519892E+03  0.00000000000E+00 0.  1.
         21    1    1    2  505  501  0.10222245931E+03 -0.14130258869E+03 -0.10247940984E+03  0.20228169022E+03  0.00000000000E+00 0.  1.
          2    1    1    2  501    0  0.87583350552E+01  0.34246524146E+02 -0.95739157376E+03  0.95804392297E+03  0.00000000000E+00 0.  1.
<scales pt_clust_3="44.04318" pt_clust_4="14000.00000" pt_clust_5="155.15004" pt_clust_6="35.34873"></scales>
<clustering>
<clus scale="   35.349">  2  6  1 -1</clus>
<clus scale="   44.043">  1  3  2 -1</clus>
<clus scale="  155.150">  1  5  2 -1</clus>
<clus scale="   44.043">  1  3  2 -1</clus>
</clustering>
</event>
<event>
 6    0  0.5775861E+002  0.1361767E+03  0.7546771E-02  0.1218568E+00
         21   -1    0    0  505  502  0.00000000000E+00  0.00000000000E+00  0.65788899719E+03  0.65788899719E+03  0.00000000000E+00 0. -1.
         -2   -1    0    0    0  501 -0.00000000000E+00 -0.00000000000E+00 -0.53851539461E+03  0.53851539461E+03  0.00000000000E+00 0.  1.
         21    1    1    2  503  502  0.13090980421E+02  0.17635333105E+03  0.29964564153E+03  0.34793588724E+03  0.00000000000E+00 0. -1.
         21    1    1    2  504  501 -0.93153602699E+01 -0.10122178264E+03  0.59105993420E+02  0.11758462347E+03  0.00000000000E+00 0. -1.
         21    1    1    2  505  504  0.37328554531E+01 -0.32731741926E+02  0.24368688564E+03  0.24590363839E+03  0.00000000000E+00 0. -1.
         -2    1    1    2    0  503 -0.75084756040E+01 -0.42399806486E+02 -0.48306491801E+03  0.48498024270E+03  0.00000000000E+00 0.  1.
<scales pt_clust_3="14000.00000" pt_clust_4="136.17670" pt_clust_5="32.94391" pt_clust_6="43.13272"></scales>
<clustering>
<clus scale="   32.944">  1  5  2 -1</clus>
<clus scale="   43.133">  2  6  1 -1</clus>
<clus scale="  136.177">  2  4  1 -1</clus>
<clus scale="   32.944">  1  3  2 -1</clus>
</clustering>
</event>
<event>
 6    0  0.5775861E+002  0.8058709E+02  0.7546771E-02  0.1327394E+00
         -3   -1    0    0    0  501 -0.00000000000E+00  0.00000000000E+00  0.41358913669E+03  0.41358913669E+03  0.00000000000E+00 0. -1.
         21   -1    0    0  505  502  0.00000000000E+00 -0.00000000000E+00 -0.33321151192E+03  0.33321151192E+03  0.00000000000E+00 0.  1.
         21    1    1    2  503  502 -0.30788978644E+02  0.80488726354E+02 -0.20795796723E+03  0.22510644685E+03  0.00000000000E+00 0.  1.
         21    1    1    2  504  503  0.78664879187E+02  0.33930787143E+02  0.36504510533E+02  0.93123793001E+02  0.00000000000E+00 0.  1.
         21    1    1    2  505  501 -0.33213301890E+02 -0.77806751641E+02 -0.66623205197E+02  0.10768317182E+03  0.00000000000E+00 0.  1.
         -3    1    1    2    0  504 -0.14662598653E+02 -0.36612761857E+02  0.31845428667E+03  0.32088723694E+03  0.00000000000E+00 0. -1.
<scales pt_clust_3="14000.00000" pt_clust_4="69.09142" pt_clust_5="80.58709" pt_clust_6="39.43965"></scales>
<clustering>
<clus scale="   39.440">  1  6  2 -1</clus>
<clus scale="   69.091">  1  4  2 -1</clus>
<clus scale="   80.587">  1  5  2 -1</clus>
<clus scale="   80.587">  2  3  1 -1</clus>
</clustering>
</event>
<event>
 6    0  0.5775861E+002  0.7409248E+02  0.7546771E-02  0.1346705E+00
          1   -1    0    0  503    0 -0.00000000000E+00  0.00000000000E+00  0.31386192115E+03  0.31386192115E+03  0.00000000000E+00 0.  1.
         21   -1    0    0  504  502  0.00000000000E+00 -0.00000000000E+00 -0.12138412781E+04  0.12138412781E+04  0.00000000000E+00 0.  1.
         21    1    1    2  503  505 -0.11337607771E+02  0.94420347002E+02  0.69468201219E+01  0.95351987854E+02  0.00000000000E+00 0.  1.
         21    1    1    2  504  501 -0.46091638984E+02 -0.20172138773E+02 -0.10127524621E+03  0.11308417158E+03  0.00000000000E+00 0.  1.
         21    1    1    2  505  502  0.18189062056E+02 -0.71304552420E+02 -0.10596680218E+04  0.10622200797E+04  0.00000000000E+00 0.  1.
          1    1    1    2  501    0  0.39240184699E+02 -0.29436558080E+01  0.25401709097E+03  0.25704696013E+03  0.00000000000E+00 0.  1.
<scales pt_clust_3="14000.00000" pt_clust_4="46.83034" pt_clust_5="74.09248" pt_clust_6="39.35044"></scales>
<clustering>
<clus scale="   39.350">  1  6  2 -1</clus>
<clus scale="   46.830">  1  4  2 -1</clus>
<clus scale="   74.092">  2  5  1 -1</clus>
<clus scale="   74.092">  2  3  1 -1</clus>
</clustering>
</event>
<event>
 6    0  0.5775861E+002  0.1283782E+03  0.7546771E-02  0.1229882E+00
          2   -1    0    0  503    0 -0.00000000000E+00  0.00000000000E+00  0.31521444944E+04  0.31521444944E+04  0.00000000000E+00 0.  1.
         21   -1    0    0  505  502  0.00000000000E+00 -0.00000000000E+00 -0.13687383636E+02  0.13687383636E+02  0.00000000000E+00 0.  1.
         21    1    1    2  503  502 -0.12576901902E+03 -0.37221762982E+02  0.71261284794E+03  0.72458289852E+03  0.00000000000E+00 0.  1.
         21    1    1    2  504  501  0.62010474780E+02  0.20979962291E+01  0.25235521144E+03  0.25987083968E+03  0.00000000000E+00 0.  1.
         21    1    1    2  505  504  0.33685106988E+02  0.47583837591E+02  0.21927548629E+03  0.22689347042E+03  0.00000000000E+00 0.  1.
          2    1    1    2  501    0  0.30073437248E+02 -0.12460070838E+02  0.19542135651E+04  0.19544846695E+04  0.00000000000E+00 0.  1.
<scales pt_clust_3="116.63154" pt_clust_4="50.20224" pt_clust_5="50.20224" pt_clust_6="32.55250"></scales>
<clustering>
<clus scale="   32.552">  1  6  2 -1</clus>
<clus scale="   50.202">  4  5 -1 -1</clus>
<clus scale="  116.632">  1  3  2 -1</clus>
<clus scale="  128.378">  2  3  1 -1</clus>
</clustering>
</event>
<event>
 6    0  0.5775861E+002  0.7690964E+02  0.7546771E-02  0.1338057E+00
         21   -1    0    0  504  502  0.00000000000E+00  0.00000000000E+00  0.29736343477E+03  0.29736343477E+03  0.00000000000E+00 0.  1.
          2   -1    0    0  505    0 -0.00000000000E+00 -0.00000000000E+00 -0.10506217468E+04  0.10506217468E+04  0.00000000000E+00 0. -1.
         21    1    1    2  503  502  0.47494175452E+02  0.58474308918E+02  0.12988413054E+03  0.15014935522E+03  0.00000000000E+00 0. -1.
         21    1    1    2  504  501 -0.63686809117E+02  0.35601016652E+02  0.10005955840E+03  0.12383600958E+03  0.00000000000E+00 0.  1.
         21    1    1    2  505  503  0.50652284904E+02 -0.59706586344E+02  0.10595445882E+02  0.79011352933E+02  0.00000000000E+00 0. -1.
          2    1    1    2  501    0 -0.34459651239E+02 -0.34368739226E+02 -0.99379744684E+03  0.99498846383E+03  0.00000000000E+00 0. -1.
<scales pt_clust_3="66.61608" pt_clust_4="76.90964" pt_clust_5="14000.00000" pt_clust_6="48.66906"></scales>
<clustering>
<clus scale="   48.669">  2  6  1 -1</clus>
<clus scale="   66.616">  1  3  2 -1</clus>
<clus scale="   76.910">  1  4  2 -1</clus>
<clus scale="   66.616">  1  3  2 -1</clus>
</clustering>
</event>
<event>
 6    0  0.5775861E+002  0.1247792E+03  0.7546771E-02  0.1235415E+00
         21   -1    0    0  501  502  0.00000000000E+00  0.00000000000E+00  0.30398551517E+03  0.30398551517E+03  0.00000000000E+00 0. -1.
         -2   -1    0    0    0  501 -0.00000000000E+00 -0.00000000000E+00 -0.74293535892E+03  0.74293535892E+03  0.00000000000E+00 0. -1.
         21    1    1    2  503  504 -0.80746683534E+02 -0.69554126143E+02  0.25201441243E+03  0.27362212527E+03  0.00000000000E+00 0. -1.
         21    1    1    2  504  502  0.24448676923E+01 -0.36843198553E+02  0.11127760767E+02  0.38564565567E+02  0.00000000000E+00 0. -1.
         21    1    1    2  505  503  0.72740296810E+02  0.66360819340E+02 -0.13981565325E+03  0.17100680109E+03  0.00000000000E+00 0. -1.
         -2    1    1    2    0  505  0.55615190309E+01  0.40036505356E+02 -0.56227636368E+03  0.56372738217E+03  0.00000000000E+00 0. -1.
<scales pt_clust_3="124.77922" pt_clust_4="36.92423" pt_clust_5="14000.00000" pt_clust_6="40.32697"></scales>
<clustering>
<clus scale="   36.924">  1  4  2 -1</clus>
<clus scale="   40.327">  2  6  1 -1</clus>
<clus scale="  124.779">  1  3  2 -1</clus>
<clus scale="   36.924">  1  3  2 -1</clus>
</clustering>
</event>
<event>
 6    0  0.5775861E+002  0.7828120E+02  0.7546771E-02  0.1334001E+00
          2   -1    0    0  503    0 -0.00000000000E+00  0.00000000000E+00  0.92434600745E+03  0.92434600745E+03  0.00000000000E+00 0.  1.
         21   -1    0    0  505  502  0.00000000000E+00 -0.00000000000E+00 -0.53518482880E+03  0.53518482880E+03  0.00000000000E+00 0.  1.
         21    1    1    2  503  504  0.49483293301E+01 -0.58056486736E+02  0.66496763123E+03  0.66751553704E+03  0.00000000000E+00 0.  1.
         21    1    1    2  504  502  0.51689691426E+02 -0.41691591065E+02 -0.24139174528E+03  0.25035971651E+03  0.00000000000E+00 0.  1.
         21    1    1    2  505  501 -0.84377331975E+02  0.59105071358E+02 -0.27626620130E+03  0.29484904204E+03  0.00000000000E+00 0.  1.
          2    1    1    2  501    0  0.27739311219E+02  0.40643006443E+02  0.24185149400E+03  0.24680654066E+03  0.00000000000E+00 0.  1.
<scales pt_clust_3="36.94107" pt_clust_4="14000.00000" pt_clust_5="78.28120" pt_clust_6="49.20694"></scales>
<clustering>
<clus scale="   49.207">  1  6  2 -1</clus>
<clus scale="   36.941">  1  3  2 -1</clus>
<clus scale="   78.281">  1  5  2 -1</clus>
<clus scale="   78.281">  2  3  1 -1</clus>
</clustering>
</event>
<event>
 6    0  0.5775861E+002  0.8137955E+02  0.7546771E-02  0.1325181E+00
         21   -1    0    0  504  502  0.00000000000E+00  0.00000000000E+00  0.60150735762E+02  0.60150735762E+02  0.00000000000E+00 0.  1.
          2   -1    0    0  502    0 -0.00000000000E+00 -0.00000000000E+00 -0.12743892276E+04  0.12743892276E+04  0.00000000000E+00 0.  1.
         21    1    1    2  503  501 -0.43365306501E+02  0.45474613138E+02 -0.22667330894E+03  0.23522176608E+03  0.00000000000E+00 0. -1.
         21    1    1    2  504  505 -0.72003751505E+02  0.25601887386E+02  0.81225977663E+01  0.76850331574E+02  0.00000000000E+00 0.  1.
         21    1    1    2  505  503  0.11640664024E+03 -0.40990779744E+02 -0.27815704777E+03  0.30430592032E+03  0.00000000000E+00 0.  1.
          2    1    1    2  501    0 -0.10375822369E+01 -0.30085720780E+02 -0.71753073294E+03  0.71816194544E+03  0.00000000000E+00 0.  1.
<scales pt_clust_3="54.83082" pt_clust_4="81.37955" pt_clust_5="14000.00000" pt_clust_6="30.10361"></scales>
<clustering>
<clus scale="   30.104">  2  6  1 -1</clus>
<clus scale="   54.831">  2  3  1 -1</clus>
<clus scale="   81.380">  1  4  2 -1</clus>
<clus scale="   81.380">  1  3  2 -1</clus>
</clustering>
</event>
<event>
 6    0  0.5775861E+002  0.7761217E+02  0.7546771E-02  0.1335968E+00
         21   -1    0    0  505  502  0.00000000000E+00  0.00000000000E+00  0.22503878028E+04  0.22503878028E+04  0.00000000000E+00 0.  1.
          4   -1    0    0  504    0 -0.00000000000E+00 -0.00000000000E+00 -0.21568447553E+03  0.21568447553E+03  0.00000000000E+00 0.  1.
         21    1    1    2  503  502  0.32585869746E+02 -0.39210308435E+02  0.19292852133E+04  0.19299587356E+04  0.00000000000E+00 0.  1.
         21    1    1    2  504  503 -0.10207967127E+03 -0.26561725996E+02  0.16607852845E+03  0.19674313759E+03  0.00000000000E+00 0.  1.
         21    1    1    2  505  501  0.56212997022E+02  0.91178963300E+01  0.12898572058E+03  0.14099770630E+03  0.00000000000E+00 0. -1.
          4    1    1    2  501    0  0.13280804502E+02  0.56654138101E+02 -0.18964613498E+03  0.19837269884E+03  0.00000000000E+00 0.  1.
<scales pt_clust_3="50.98321" pt_clust_4="77.61217" pt_clust_5="14000.00000" pt_clust_6="57.77448"></scales>
<clustering>
<clus scale="   50.983">  1  3  2 -1</clus>
<clus scale="   57.774">  2  6  1 -1</clus>
<clus scale="   77.612">  2  4  1 -1</clus>
<clus scale="   50.983">  1  3  2 -1</clus>
</clustering>
</event>
<event>
 6    0  0.5775861E+002  0.7217737E+02  0.7546771E-02  0.1352842E+00
          1   -1    0    0  505    0 -0.00000000000E+00  0.00000000000E+00  0.10657994422E+04  0.10657994422E+04  0.00000000000E+00 0.  1.
         21   -1    0    0  504  502  0.00000000000E+00 -0.00000000000E+00 -0.36849702078E+02  0.36849702078E+02  0.00000000000E+00 0.  1.
         21    1    1    2  503  501 -0.25400663684E+02  0.71876532939E+02  0.15141853611E+03  0.16952581744E+03  0.00000000000E+00 0.  1.
         21    1    1    2  504  503  0.62518125619E+01  0.35124434444E+02  0.13507066828E+02  0.38147764149E+02  0.00000000000E+00 0.  1.
         21    1    1    2  505  502  0.55739890047E+02 -0.59854959641E+02  0.10257556043E+03  0.13119183333E+03  0.00000000000E+00 0.  1.
          1    1    1    2  501    0 -0.36591038924E+02 -0.47146007741E+02  0.76144857673E+03  0.76378372932E+03  0.00000000000E+00 0.  1.
<scales pt_clust_3="14000.00000" pt_clust_4="35.67648" pt_clust_5="72.17737" pt_clust_6="58.18170"></scales>
<clustering>
<clus scale="   35.676">  2  4  1 -1</clus>
<clus scale="   58.182">  1  6  2 -1</clus>
<clus scale="   72.177">  2  5  1 -1</clus>
<clus scale="   35.676">  2  3  1 -1</clus>
</clustering>
</event>
<event>
 6    0  0.5775861E+002  0.8622270E+02  0.7546771E-02  0.1312266E+00
         21   -1    0    0  505  502  0.00000000000E+00  0.00000000000E+00  0.42627768756E+02  0.42627768756E+02  0.00000000000E+00 0.  1.
          3   -1    0    0  503    0 -0.00000000000E+00 -0.00000000000E+00 -0.98489339955E+03  0.98489339955E+03  0.00000000000E+00 0.  1.
         21    1    1    2  503  502 -0.39033869086E+02  0.13897908939E+02 -0.63709868155E+02  0.75998303329E+02  0.00000000000E+00 0.  1.
         21    1    1    2  504  501  0.11134032955E+03  0.83092288517E+01 -0.22933510739E+03  0.25506921365E+03  0.00000000000E+00 0.  1.
         21    1    1    2  505  504 -0.10266151445E+02  0.35879494533E+02  0.41765640364E+01  0.37552305929E+02  0.00000000000E+00 0.  1.
          3    1    1    2  501    0 -0.62040309024E+02 -0.58086632323E+02 -0.65339721928E+03  0.65890134539E+03  0.00000000000E+00 0.  1.
<scales pt_clust_3="48.32831" pt_clust_4="86.22270" pt_clust_5="37.31932" pt_clust_6="14000.00000"></scales>
<clustering>
<clus scale="   37.319">  1  5  2 -1</clus>
<clus scale="   48.328">  1  3  2 -1</clus>
<clus scale="   86.223">  1  4  2 -1</clus>
<clus scale="   37.319">  1  3  2 -1</clus>
</clustering>
</event>
<event>
 6    0  0.5775861E+002  0.9298661E+02  0.7546771E-02  0.1295776E+00
         21   -1    0    0  505  502  0.00000000000E+00  0.00000000000E+00  0.64960850493E+03  0.64960850493E+03  0.00000000000E+00 0. -1.
          1   -1    0    0  504    0 -0.00000000000E+00 -0.00000000000E+00 -0.34993770801E+03  0.34993770801E+03  0.00000000000E+00 0. -1.
         21    1    1    2  503  502 -0.61992008009E+02  0.19661488698E+01  0.39456541145E+03  0.39941048899E+03  0.00000000000E+00 0. -1.
         21    1    1    2  504  503 -0.58836090835E+02  0.99965701108E+02 -0.61022583663E+02  0.13106709236E+03  0.00000000000E+00 0. -1.
         21    1    1    2  505  501  0.91072166906E+02 -0.82396452284E+02  0.19880702854E+03  0.23368258286E+03  0.00000000000E+00 0. -1.
          1    1    1    2  501    0  0.29755931939E+02 -0.19535397694E+02 -0.23267905941E+03  0.23538604873E+03  0.00000000000E+00 0. -1.
<scales pt_clust_3="61.38985" pt_clust_4="14000.00000" pt_clust_5="92.98661" pt_clust_6="35.59561"></scales>
<clustering>
<clus scale="   35.596">  2  6  1 -1</clus>
<clus scale="   61.390">  1  3  2 -1</clus>
<clus scale="   92.987">  1  5  2 -1</clus>
<clus scale="   61.390">  1  3  2 -1</clus>
</clustering>
</event>
<event>
 6    0  0.5775861E+002  0.8709184E+02  0.7546771E-02  0.1310051E+00
         21   -1    0    0  501  502  0.00000000000E+00  0.00000000000E+00  0.25134169740E+02  0.25134169740E+02  0.00000000000E+00 0. -1.
          1   -1    0    0  504    0 -0.00000000000E+00 -0.00000000000E+00 -0.25345181208E+04  0.25345181208E+04  0.00000000000E+00 0.  1.
         21    1    1    2  503  505 -0.30692628025E+01 -0.44151817026E+02 -0.44532605455E+02  0.62785000354E+02  0.00000000000E+00 0. -1.
         21    1    1    2  504  503  0.39242668800E+02  0.11606305522E+03 -0.55761725367E+03  0.57091822657E+03  0.00000000000E+00 0. -1.
         21    1    1    2  505  502  0.25658291403E+02 -0.29457477168E+02 -0.35724181552E+02  0.52936830528E+02  0.00000000000E+00 0. -1.
          1    1    1    2  501    0 -0.61831697401E+02 -0.42453761022E+02 -0.18715099104E+04  0.18730122331E+04  0.00000000000E+00 0.  1.
<scales pt_clust_3="30.03170" pt_clust_4="81.01352" pt_clust_5="30.03170" pt_clust_6="75.00320"></scales>
<clustering>
<clus scale="   30.032">  3  5 -1 -1</clus>
<clus scale="   75.003">  2  6  1 -1</clus>
<clus scale="   81.014">  2  4  1 -1</clus>
<clus scale="   87.092">  1  3  2 -1</clus>
</clustering>
</event>
<event>
 6    0  0.5775861E+002  0.8324139E+02  0.7546771E-02  0.1320097E+00
         21   -1    0    0  503  502  0.00000000000E+00  0.00000000000E+00  0.35080298795E+03  0.35080298795E+03  0.00000000000E+00 0. -1.
          2   -1    0    0  504    0 -0.00000000000E+00 -0.00000000000E+00 -0.77897792020E+03  0.77897792020E+03  0.00000000000E+00 0. -1.
         21    1    1    2  503  501 -0.55075996974E+02 -0.51453510981E+02  0.44866086261E+01  0.75504694502E+02  0.00000000000E+00 0. -1.
         21    1    1    2  504  505  0.83083266871E+02  0.21847819224E+02  0.13756427246E+03  0.16218534303E+03  0.00000000000E+00 0. -1.
         21    1    1    2  505  502  0.13771083831E+02 -0.26867546645E+02  0.15781093513E+03  0.16067295684E+03  0.00000000000E+00 0. -1.
          2    1    1    2  501    0 -0.41778353728E+02  0.56473238401E+02 -0.72803674846E+03  0.73141791378E+03  0.00000000000E+00 0. -1.
<scales pt_clust_3="14000.00000" pt_clust_4="83.24139" pt_clust_5="30.19119" pt_clust_6="69.98423"></scales>
<clustering>
<clus scale="   30.191">  1  5  2 -1</clus>
<clus scale="   69.984">  2  6  1 -1</clus>
<clus scale="   83.241">  1  4  2 -1</clus>
<clus scale="   30.191">  1  3  2 -1</clus>
</clustering>
</event>
<event>
 6    0  0.5775861E+002  0.1863217E+03  0.7546771E-02  0.1161821E+00
          1   -1    0    0  503    0 -0.00000000000E+00  0.00000000000E+00  0.13016356556E+04  0.13016356556E+04  0.00000000000E+00 0.  1.
         21   -1    0    0  501  502  0.00000000000E+00 -0.00000000000E+00 -0.35651189661E+03  0.35651189661E+03  0.00000000000E+00 0.  1.
         21    1    1    2  503  505 -0.34273815310E+00 -0.43227855691E+02  0.24130662971E+03  0.24514822968E+03  0.00000000000E+00 0. -1.
         21    1    1    2  504  502 -0.12889369994E+02  0.40319070887E+02 -0.10788300126E+03  0.11589005694E+03  0.00000000000E+00 0.  1.
         21    1    1    2  505  504  0.16319423446E+03  0.72340540571E+02 -0.20226171197E+03  0.26976899766E+03  0.00000000000E+00 0.  1.
          1    1    1    2  501    0 -0.14996212631E+03 -0.69431755767E+02  0.10139618425E+04  0.10273402679E+04  0.00000000000E+00 0.  1.
<scales pt_clust_3="42.91357" pt_clust_4="42.32923" pt_clust_5="186.32167" pt_clust_6="14000.00000"></scales>
<clustering>
<clus scale="   42.329">  2  4  1 -1</clus>
<clus scale="   42.914">  1  3  2 -1</clus>
<clus scale="  186.322">  2  5  1 -1</clus>
<clus scale="   42.329">  2  3  1 -1</clus>
</clustering>
</event>
<event>
 6    0  0.5775861E+002  0.1775193E+03  0.7546771E-02  0.1170226E+00
          1   -1    0    0  504    0 -0.00000000000E+00  0.00000000000E+00  0.15075285833E+04  0.15075285833E+04  0.00000000000E+00 0. -1.
         21   -1    0    0  505  502  0.00000000000E+00 -0.00000000000E+00 -0.14277988107E+04  0.14277988107E+04  0.00000000000E+00 0. -1.
         21    1    1    2  503  502  0.28125231672E+02 -0.90612932430E+02 -0.19981665492E+03  0.22119771193E+03  0.00000000000E+00 0. -1.
         21    1    1    2  504  503 -0.13999482108E+03  0.12967099619E+03  0.79073223800E+03  0.81343136735E+03  0.00000000000E+00 0.  1.
         21    1    1    2  505  501  0.12630935326E+03  0.20618892938E+01 -0.12019451788E+04  0.12085654789E+04  0.00000000000E+00 0. -1.
          1    1    1    2  501    0 -0.14439763859E+02 -0.41119953050E+02  0.69075936840E+03  0.69213283577E+03  0.00000000000E+00 0. -1.
<scales pt_clust_3="95.33644" pt_clust_4="177.51930" pt_clust_5="14000.00000" pt_clust_6="43.58162"></scales>
<clustering>
<clus scale="   43.582">  1  6  2 -1</clus>
<clus scale="   95.336">  2  3  1 -1</clus>
<clus scale="  177.519">  1  4  2 -1</clus>
<clus scale="   95.336">  2  3  1 -1</clus>
</clustering>
</event>
<event>
 6    0  0.5775861E+002  0.1064359E+03  0.7546771E-02  0.1267316E+00
         21   -1    0    0  503  502  0.00000000000E+00  0.00000000000E+00  0.25364070899E+03  0.25364070899E+03  0.00000000000E+00 0.  1.
          1   -1    0    0  505    0 -0.00000000000E+00 -0.00000000000E+00 -0.15061277078E+03  0.15061277078E+03  0.00000000000E+00 0.  1.
         21    1    1    2  503  501  0.87151659261E+02  0.11484893996E+03  0.94009815470E+02  0.17211489223E+03  0.00000000000E+00 0.  1.
         21    1    1    2  504  502 -0.71282874868E+02 -0.51566839384E+02  0.71389008375E+02  0.11329950437E+03  0.00000000000E+00 0.  1.
         21    1    1    2  505  504  0.29694962796E+02 -0.29944354822E+02 -0.13825210810E+02  0.44380081738E+02  0.00000000000E+00 0.  1.
          1    1    1    2  501    0 -0.45563747190E+02 -0.33337745751E+02 -0.48545674829E+02  0.74459001433E+02  0.00000000000E+00 0.  1.
<scales pt_clust_3="14000.00000" pt_clust_4="106.43587" pt_clust_5="42.17173" pt_clust_6="57.30601"></scales>
<clustering>
<clus scale="   42.172">  2  5  1 -1</clus>
<clus scale="   57.306">  2  6  1 -1</clus>
<clus scale="  106.436">  1  4  2 -1</clus>
<clus scale="  106.436">  1  3  2 -1</clus>
</clustering>
</event>
<event>
 6    0  0.5775861E+002  0.6428099E+02  0.7546771E-02  0.1380697E+00
          2   -1    0    0  504    0 -0.00000000000E+00  0.00000000000E+00  0.12379034235E+04  0.12379034235E+04  0.00000000000E+00 0. -1.
         21   -1    0    0  505  502  0.00000000000E+00 -0.00000000000E+00 -0.60838106938E+03  0.60838106938E+03  0.00000000000E+00 0.  1.
         21    1    1    2  503  501  0.28815185835E+00  0.82485510604E+02  0.31445353131E+03  0.32509224205E+03  0.00000000000E+00 0.  1.
         21    1    1    2  504  502  0.43655472345E+02  0.36370521089E+02 -0.35779818388E+03  0.36228187293E+03  0.00000000000E+00 0.  1.
         21    1    1    2  505  503 -0.59331206296E+02 -0.86549200910E+02 -0.23132412287E+03  0.25401142896E+03  0.00000000000E+00 0.  1.
          2    1    1    2  501    0  0.15387582093E+02 -0.32306830782E+02  0.90419112952E+03  0.90489894889E+03  0.00000000000E+00 0. -1.
<scales pt_clust_3="53.64911" pt_clust_4="64.28099" pt_clust_5="14000.00000" pt_clust_6="35.78420"></scales>
<clustering>
<clus scale="   35.784">  1  6  2 -1</clus>
<clus scale="   53.649">  1  3  2 -1</clus>
<clus scale="   64.281">  2  4  1 -1</clus>
<clus scale="   64.281">  2  3  1 -1</clus>
</clustering>
</event>
<event>
 6    0  0.5775861E+002  0.1141490E+03  0.7546771E-02  0.1253074E+00
         -1   -1    0    0    0  501 -0.00000000000E+00  0.00000000000E+00  0.30301078650E+03  0.30301078650E+03  0.00000000000E+00 0.  1.
         21   -1    0    0  503  502  0.00000000000E+00 -0.00000000000E+00 -0.61725587156E+03  0.61725587156E+03  0.00000000000E+00 0.  1.
         21    1    1    2  503  505  0.53956776365E+02  0.93112523551E+02 -0.38232960510E+03  0.39718660940E+03  0.00000000000E+00 0.  1.
         21    1    1    2  504  502  0.63867478872E+02 -0.46685588456E+02 -0.18931955352E+03  0.20518404512E+03  0.00000000000E+00 0.  1.
         21    1    1    2  505  501 -0.80804726076E+02 -0.31035918568E+02  0.37443216970E+02  0.94311327500E+02  0.00000000000E+00 0.  1.
         -1    1    1    2    0  504 -0.37019529161E+02 -0.15391016527E+02  0.21996085659E+03  0.22358467604E+03  0.00000000000E+00 0.  1.
<scales pt_clust_3="14000.00000" pt_clust_4="77.15260" pt_clust_5="114.14899" pt_clust_6="40.09151"></scales>
<clustering>
<clus scale="   40.092">  1  6  2 -1</clus>
<clus scale="   77.153">  2  4  1 -1</clus>
<clus scale="  114.149">  1  5  2 -1</clus>
<clus scale="   77.153">  2  3  1 -1</clus>
</clustering>
</event>
<event>
 6    0  0.5775861E+002  0.1441196E+03  0.7546771E-02  0.1207891E+00
          2   -1    0    0  504    0 -0.00000000000E+00  0.00000000000E+00  0.16607829410E+04  0.16607829410E+04  0.00000000000E+00 0.  1.
         21   -1    0    0  503  502  0.00000000000E+00 -0.00000000000E+00 -0.32966048330E+04  0.32966048330E+04  0.00000000000E+00 0. -1.
         21    1    1    2  503  505 -0.11786070783E+03 -0.79509056938E+02  0.95718601578E+03  0.96768688396E+03  0.00000000000E+00 0.  1.
         21    1    1    2  504  502  0.70222224866E+02  0.12588670559E+03 -0.32877148095E+04  0.32908733328E+04  0.00000000000E+00 0. -1.
         21    1    1    2  505  501  0.20828665334E+02 -0.29840232171E+02  0.21254379495E+03  0.21563658671E+03  0.00000000000E+00 0.  1.
          2    1    1    2  501    0  0.26809817634E+02 -0.16537416485E+02  0.48216310678E+03  0.48319097053E+03  0.00000000000E+00 0.  1.
<scales pt_clust_3="144.11963" pt_clust_4="14000.00000" pt_clust_5="41.70550" pt_clust_6="31.50004"></scales>
<clustering>
<clus scale="   31.500">  1  6  2 -1</clus>
<clus scale="   41.706">  1  5  2 -1</clus>
<clus scale="  144.120">  1  3  2 -1</clus>
<clus scale="  144.120">  2  3  1 -1</clus>
</clustering>
</event>
<event>
 6    0  0.5775861E+002  0.1377202E+03  0.7546771E-02  0.1216430E+00
         21   -1    0    0  503  502  0.00000000000E+00  0.00000000000E+00  0.11822919205E+04  0.11822919205E+04  0.00000000000E+00 0. -1.
          1   -1    0    0  505    0 -0.00000000000E+00 -0.00000000000E+00 -0.25749538851E+03  0.25749538851E+03  0.00000000000E+00 0.  1.
         21    1    1    2  503  504 -0.31361261888E+02 -0.23747837446E+02  0.99656019371E+03  0.99733630648E+03  0.00000000000E+00 0. -1.
         21    1    1    2  504  501  0.11066987014E+03 -0.56417900630E+02  0.19629818717E+02  0.12576219404E+03  0.00000000000E+00 0.  1.
         21    1    1    2  505  502  0.20361131866E+02 -0.24411907054E+02  0.83792097071E+02  0.89619375296E+02  0.00000000000E+00 0.  1.
          1    1    1    2  501    0 -0.99669740114E+02  0.10457764513E+03 -0.17518557747E+03  0.22706943323E+03  0.00000000000E+00 0.  1.
<scales pt_clust_3="47.71990" pt_clust_4="14000.00000" pt_clust_5="31.78863" pt_clust_6="137.72023"></scales>
<clustering>
<clus scale="   31.789">  1  5  2 -1</clus>
<clus scale="   47.720">  1  3  2 -1</clus>
<clus scale="  137.720">  2  6  1 -1</clus>
<clus scale="   31.789">  1  3  2 -1</clus>
</clustering>
</event>
<event>
 6    0  0.5775861E+002  0.7649888E+02  0.7546771E-02  0.1339291E+00
          2   -1    0    0  504    0 -0.00000000000E+00  0.00000000000E+00  0.21596847531E+04  0.21596847531E+04  0.00000000000E+00 0. -1.
         21   -1    0    0  505  502  0.00000000000E+00 -0.00000000000E+00 -0.49385941476E+02  0.49385941476E+02  0.00000000000E+00 0.  1.
         21    1    1    2  503  502  0.54544078620E+02 -0.51671138613E+02 -0.64733988509E+01  0.75411325215E+02  0.00000000000E+00 0.  1.
         21    1    1    2  504  503  0.42917741947E+02 -0.66298074664E+02  0.66720826256E+03  0.67186623141E+03  0.00000000000E+00 0. -1.
         21    1    1    2  505  501 -0.36837041865E+02  0.11787545282E+03  0.80974207942E+03  0.81910550311E+03  0.00000000000E+00 0. -1.
          2    1    1    2  501    0 -0.60624778701E+02  0.93760457007E-01  0.63982186847E+03  0.64268763483E+03  0.00000000000E+00 0. -1.
<scales pt_clust_3="14000.00000" pt_clust_4="68.20510" pt_clust_5="76.49888" pt_clust_6="60.62485"></scales>
<clustering>
<clus scale="   60.625">  1  6  2 -1</clus>
<clus scale="   68.205">  1  4  2 -1</clus>
<clus scale="   76.499">  1  5  2 -1</clus>
<clus scale="   76.499">  2  3  1 -1</clus>
</clustering>
</event>
<event>
 6    0  0.5775861E+002  0.1258263E+03  0.7546771E-02  0.1233783E+00
         21   -1    0    0  505  502  0.00000000000E+00  0.00000000000E+00  0.74565005796E+03  0.74565005796E+03  0.00000000000E+00 0.  1.
          2   -1    0    0  504    0 -0.00000000000E+00 -0.00000000000E+00 -0.65911675052E+03  0.65911675052E+03  0.00000000000E+00 0. -1.
         21    1    1    2  503  502 -0.42290015202E+02  0.57367644325E+02  0.38747780670E+03  0.39397784542E+03  0.00000000000E+00 0.  1.
         21    1    1    2  504  503  0.74630564701E+02  0.87632052995E+02  0.90067424801E+01  0.11545656893E+03  0.00000000000E+00 0.  1.
         21    1    1    2  505  501 -0.73717505970E+01 -0.16957957353E+03  0.26750562195E+03  0.31681356069E+03  0.00000000000E+00 0.  1.
          2    1    1    2  501    0 -0.24968798902E+02  0.24579876205E+02 -0.57745686368E+03  0.57851883343E+03  0.00000000000E+00 0. -1.
<scales pt_clust_3="72.65700" pt_clust_4="125.82634" pt_clust_5="14000.00000" pt_clust_6="35.03728"></scales>
<clustering>
<clus scale="   35.037">  2  6  1 -1</clus>
<clus scale="   72.657">  1  3  2 -1</clus>
<clus scale="  125.826">  2  4  1 -1</clus>
<clus scale="   72.657">  1  3  2 -1</clus>
</clustering>
</event>
<event>
 6    0  0.5775861E+002  0.1101201E+03  0.7546771E-02  0.1260348E+00
          1   -1    0    0  505    0 -0.00000000000E+00  0.00000000000E+00  0.13386773804E+04  0.13386773804E+04  0.00000000000E+00 0. -1.
         21   -1    0    0  503  502  0.00000000000E+00 -0.00000000000E+00 -0.17810730763E+04  0.17810730763E+04  0.00000000000E+00 0.  1.
         21    1    1    2  503  504 -0.10086339270E+02 -0.31645704464E+02 -0.51033478607E+03  0.51141448818E+03  0.00000000000E+00 0.  1.
         21    1    1    2  504  501  0.12111111509E+03 -0.49311442247E+02  0.55571066016E+03  0.57088865670E+03  0.00000000000E+00 0. -1.
         21    1    1    2  505  502 -0.99803435510E+02  0.38365462065E+02 -0.12597168604E+04  0.12642464961E+04  0.00000000000E+00 0.  1.
          1    1    1    2  501    0 -0.11221340307E+02  0.42591684646E+02  0.77194529038E+03  0.77320081571E+03  0.00000000000E+00 0. -1.
<scales pt_clust_3="33.21423" pt_clust_4="110.12008" pt_clust_5="14000.00000" pt_clust_6="44.03124"></scales>
<clustering>
<clus scale="   33.214">  2  3  1 -1</clus>
<clus scale="   44.031">  1  6  2 -1</clus>
<clus scale="  110.120">  1  4  2 -1</clus>
<clus scale="   33.214">  2  3  1 -1</clus>
</clustering>
</event>
<event>
 6    0  0.5775861E+002  0.1857675E+03  0.7546771E-02  0.1162335E+00
          2   -1    0    0  503    0 -0.00000000000E+00  0.00000000000E+00  0.16347534363E+04  0.16347534363E+04  0.00000000000E+00 0.  1.
         21   -1    0    0  504  502  0.00000000000E+00 -0.00000000000E+00 -0.80152848086E+02  0.80152848086E+02  0.00000000000E+00 0. -1.
         21    1    1    2  503  502  0.10364611530E+03  0.99903708737E+02  0.41786771306E+03  0.44196910961E+03  0.00000000000E+00 0.  1.
         21    1    1    2  504  505 -0.39605924306E+01  0.34546869106E+02  0.42326362718E+02  0.54778585582E+02  0.00000000000E+00 0. -1.
         21    1    1    2  505  501 -0.15798524246E+03 -0.15236354626E+03  0.13683357036E+03  0.25864534220E+03  0.00000000000E+00 0. -1.
          2    1    1    2  501    0  0.58299719594E+02  0.17912968418E+02  0.95757294211E+03  0.95951324701E+03  0.00000000000E+00 0.  1.
<scales pt_clust_3="185.76752" pt_clust_4="34.77316" pt_clust_5="14000.00000" pt_clust_6="61.07472"></scales>
<clustering>
<clus scale="   34.773">  2  4  1 -1</clus>
<clus scale="   61.075">  1  6  2 -1</clus>
<clus scale="  185.768">  1  3  2 -1</clus>
<clus scale="   34.773">  2  3  1 -1</clus>
</clustering>
</event>
<event>
 6    0  0.5775861E+002  0.1055492E+03  0.7546771E-02  0.1269041E+00
         21   -1    0    0  505  502  0.00000000000E+00  0.00000000000E+00  0.27338344621E+03  0.27338344621E+03  0.00000000000E+00 0.  1.
          2   -1    0    0  504    0 -0.00000000000E+00 -0.00000000000E+00 -0.56831288318E+03  0.56831288318E+03  0.00000000000E+00 0.  1.
         21    1    1    2  503  501 -0.13847366472E+02  0.71800993312E+02 -0.11342151892E+03  0.13495026177E+03  0.00000000000E+00 0.  1.
         21    1    1    2  504  502  0.16915210138E+03 -0.78305720121E+02 -0.35744889670E+03  0.40313016875E+03  0.00000000000E+00 0.  1.
         21    1    1    2  505  503 -0.10286542397E+03  0.10001153357E+02  0.21472252273E+03  0.23830039925E+03  0.00000000000E+00 0.  1.
          2    1    1    2  501    0 -0.52439310932E+02 -0.34964265481E+01 -0.38781544081E+02  0.65315499622E+02  0.00000000000E+00 0.  1.
<scales pt_clust_3="75.73324" pt_clust_4="14000.00000" pt_clust_5="105.54918" pt_clust_6="52.55574"></scales>
<clustering>
<clus scale="   52.556">  2  6  1 -1</clus>
<clus scale="   75.733">  2  3  1 -1</clus>
<clus scale="  105.549">  1  5  2 -1</clus>
<clus scale="  105.549">  1  3  2 -1</clus>
</clustering>
</event>
<event>
 6    0  0.5775861E+002  0.8494361E+02  0.7546771E-02  0.1315580E+00
         -4   -1    0    0    0  501 -0.00000000000E+00  0.00000000000E+00  0.35434589739E+03  0.35434589739E+03  0.00000000000E+00 0.  1.
         21   -1    0    0  504  502  0.00000000000E+00 -0.00000000000E+00 -0.10827640978E+03  0.10827640978E+03  0.00000000000E+00 0.  1.
         21    1    1    2  503  505  0.34709332052E+02  0.42302227231E+02  0.72186752080E+01  0.55193527083E+02  0.00000000000E+00 0.  1.
         21    1    1    2  504  501  0.26909714623E+02 -0.79575259681E+02  0.99001775933E+01  0.84583498455E+02  0.00000000000E+00 0.  1.
         21    1    1    2  505  502 -0.12314256731E+02 -0.32764605395E+02 -0.32474344472E+02  0.47746657835E+02  0.00000000000E+00 0.  1.
         -4    1    1    2    0  503 -0.49304789944E+02  0.70037637846E+02  0.26142497928E+03  0.27509862380E+03  0.00000000000E+00 0.  1.
<scales pt_clust_3="43.23937" pt_clust_4="84.94361" pt_clust_5="35.00229" pt_clust_6="14000.00000"></scales>
<clustering>
<clus scale="   35.002">  2  5  1 -1</clus>
<clus scale="   43.239">  2  3  1 -1</clus>
<clus scale="   84.944">  2  4  1 -1</clus>
<clus scale="   35.002">  2  3  1 -1</clus>
</clustering>
</event>
<event>
 6    0  0.5775861E+002  0.1003876E+03  0.7546771E-02  0.1279483E+00
         -2   -1    0    0    0  501 -0.00000000000E+00  0.00000000000E+00  0.56025129522E+03  0.56025129522E+03  0.00000000000E+00 0.  1.
         21   -1    0    0  505  502  0.00000000000E+00 -0.00000000000E+00 -0.61056307004E+02  0.61056307004E+02  0.00000000000E+00 0.  1.
         21    1    1    2  503  502  0.50303676849E+02 -0.43546668021E+02  0.14071736837E+02  0.68005779004E+02  0.00000000000E+00 0.  1.
         21    1    1    2  504  503  0.69048451259E+02  0.26196087342E+02  0.55016542084E+02  0.92090952412E+02  0.00000000000E+00 0.  1.
         21    1    1    2  505  501 -0.12205279918E+03 -0.21887507247E+02  0.28374209118E+03  0.30965387624E+03  0.00000000000E+00 0.  1.
         -2    1    1    2    0  504  0.27006710706E+01  0.39238087926E+02  0.14636461811E+03  0.15155699457E+03  0.00000000000E+00 0.  1.
<scales pt_clust_3="64.25183" pt_clust_4="100.38761" pt_clust_5="14000.00000" pt_clust_6="39.33092"></scales>
<clustering>
<clus scale="   39.331">  1  6  2 -1</clus>
<clus scale="   64.252">  2  3  1 -1</clus>
<clus scale="  100.388">  2  4  1 -1</clus>
<clus scale="   64.252">  2  3  1 -1</clus>
</clustering>
</event>
<event>
 6    0  0.5775861E+002  0.1048336E+03  0.7546771E-02  0.1270448E+00
          3   -1    0    0  502    0 -0.00000000000E+00  0.00000000000E+00  0.12158245285E+03  0.12158245285E+03  0.00000000000E+00 0.  1.
         21   -1    0    0  505  502  0.00000000000E+00 -0.00000000000E+00 -0.55717574830E+03  0.55717574830E+03  0.00000000000E+00 0. -1.
         21    1    1    2  503  501  0.18570198156E+01  0.63492873407E+02 -0.11188924903E+03  0.12866233926E+03  0.00000000000E+00 0.  1.
         21    1    1    2  504  503  0.59900958555E+02  0.68566165417E+02 -0.43775583089E+02  0.10102349009E+03  0.00000000000E+00 0. -1.
         21    1    1    2  505  504 -0.54669697886E+02 -0.94559323659E+02 -0.35143584821E+03  0.36801820195E+03  0.00000000000E+00 0. -1.
          3    1    1    2  501    0 -0.70882804841E+01 -0.37499715165E+02  0.71507384882E+02  0.81054169852E+02  0.00000000000E+00 0.  1.
<scales pt_clust_3="56.55330" pt_clust_4="104.83359" pt_clust_5="14000.00000" pt_clust_6="38.16376"></scales>
<clustering>
<clus scale="   38.164">  1  6  2 -1</clus>
<clus scale="   56.553">  1  3  2 -1</clus>
<clus scale="  104.834">  1  4  2 -1</clus>
<clus scale="  104.834">  2  3  1 -1</clus>
</clustering>
</event>
<event>
 6    0  0.5775861E+002  0.1341352E+03  0.7546771E-02  0.1221446E+00
         21   -1    0    0  505  502  0.00000000000E+00  0.00000000000E+00  0.64194371960E+03  0.64194371960E+03  0.00000000000E+00 0.  1.
          2   -1    0    0  504    0 -0.00000000000E+00 -0.00000000000E+00 -0.13774584817E+04  0.13774584817E+04  0.00000000000E+00 0. -1.
         21    1    1    2  503  502  0.50803423956E+01  0.34045996527E+02  0.31440044392E+03  0.31627927358E+03  0.00000000000E+00 0.  1.
         21    1    1    2  504  503  0.17605415200E+03 -0.71913325076E+02 -0.33449897047E+03  0.38478065441E+03  0.00000000000E+00 0. -1.
         21    1    1    2  505  501 -0.62710438675E+02 -0.36931307904E+01  0.29426253587E+03  0.30089313444E+03  0.00000000000E+00 0.  1.
          2    1    1    2  501    0 -0.11842405572E+03  0.41560459339E+02 -0.10096787714E+04  0.10174491389E+04  0.00000000000E+00 0. -1.
<scales pt_clust_3="34.42295" pt_clust_4="134.13523" pt_clust_5="64.18912" pt_clust_6="14000.00000"></scales>
<clustering>
<clus scale="   34.423">  1  3  2 -1</clus>
<clus scale="   64.189">  1  5  2 -1</clus>
<clus scale="  134.135">  1  4  2 -1</clus>
<clus scale="   34.423">  1  3  2 -1</clus>
</clustering>
</event>
<event>
 6    0  0.5775861E+002  0.7725376E+02  0.7546771E-02  0.1337031E+00
         21   -1    0    0  501  502  0.00000000000E+00  0.00000000000E+00  0.79757879981E+02  0.79757879981E+02  0.00000000000E+00 0. -1.
          2   -1    0    0  503    0 -0.00000000000E+00 -0.00000000000E+00 -0.13038735156E+04  0.13038735156E+04  0.00000000000E+00 0. -1.
         21    1    1    2  503  504  0.60672872506E+02 -0.43113341122E+02 -0.15501942423E+03  0.17196214563E+03  0.00000000000E+00 0. -1.
         21    1    1    2  504  505 -0.45618267931E+02  0.42549945335E+02 -0.42947214154E+01  0.62529743715E+02  0.00000000000E+00 0.  1.
         21    1    1    2  505  502  0.24259543204E+02  0.56641918625E+02  0.17984826377E+02  0.64189456781E+02  0.00000000000E+00 0. -1.
          2    1    1    2  501    0 -0.39314147780E+02 -0.56078522838E+02 -0.10827863164E+04  0.10849500495E+04  0.00000000000E+00 0. -1.
<scales pt_clust_3="77.25376" pt_clust_4="14000.00000" pt_clust_5="61.61844" pt_clust_6="66.80032"></scales>
<clustering>
<clus scale="   61.618">  1  5  2 -1</clus>
<clus scale="   66.800">  2  6  1 -1</clus>
<clus scale="   77.254">  2  3  1 -1</clus>
<clus scale="   61.618">  1  3  2 -1</clus>
</clustering>
</event>
<event>
 6    0  0.5775861E+002  0.8530711E+02  0.7546771E-02  0.1314631E+00
         21   -1    0    0  505  502  0.00000000000E+00  0.00000000000E+00  0.28771628047E+03  0.28771628047E+03  0.00000000000E+00 0.  1.
          2   -1    0    0  503    0 -0.00000000000E+00 -0.00000000000E+00 -0.94263651839E+03  0.94263651839E+03  0.00000000000E+00 0.  1.
         21    1    1    2  503  504  0.12793887872E+01  0.65636144454E+02  0.88361097323E+02  0.11007917067E+03  0.00000000000E+00 0.  1.
         21    1    1    2  504  502 -0.30657663055E+02  0.14584336406E+02  0.17255110439E+03  0.17585925850E+03  0.00000000000E+00 0.  1.
         21    1    1    2  505  501  0.42937492074E+02 -0.11929168107E+03 -0.28148087223E+03  0.30871607478E+03  0.00000000000E+00 0.  1.
          2    1    1    2  501    0 -0.13559217805E+02  0.39071200210E+02 -0.63435156741E+03  0.63569829491E+03  0.00000000000E+00 0.  1.
<scales pt_clust_3="85.30711" pt_clust_4="33.94989" pt_clust_5="14000.00000" pt_clust_6="41.49872"></scales>
<clustering>
<clus scale="   33.950">  1  4  2 -1</clus>
<clus scale="   41.499">  2  6  1 -1</clus>
<clus scale="   85.307">  1  3  2 -1</clus>
<clus scale="   33.950">  1  3  2 -1</clus>
</clustering>
</event>
<event>
 6    0  0.5775861E+002  0.1612081E+03  0.7546771E-02  0.1187340E+00
         21   -1    0    0  504  502  0.00000000000E+00  0.00000000000E+00  0.93557145140E+03  0.93557145140E+03  0.00000000000E+00 0.  1.
         -1   -1    0    0    0  501 -0.00000000000E+00 -0.00000000000E+00 -0.66630254637E+03  0.66630254637E+03  0.00000000000E+00 0. -1.
         21    1    1    2  503  505 -0.53708188508E+02  0.11840755149E+03 -0.14623243017E+03  0.19567534693E+03  0.00000000000E+00 0. -1.
         21    1    1    2  504  501  0.34013849157E+02 -0.18871320946E+01  0.16222925905E+03  0.16576741445E+03  0.00000000000E+00 0.  1.
         21    1    1    2  505  502  0.32852664068E+02 -0.14760328134E+03  0.73860535561E+03  0.75392565783E+03  0.00000000000E+00 0.  1.
         -1    1    1    2    0  503 -0.13158324716E+02  0.31082861942E+02 -0.48533327946E+03  0.48650557856E+03  0.00000000000E+00 0. -1.
<scales pt_clust_3="161.20810" pt_clust_4="33.92172" pt_clust_5="14000.00000" pt_clust_6="33.75331"></scales>
<clustering>
<clus scale="   33.753">  2  6  1 -1</clus>
<clus scale="   33.922">  1  4  2 -1</clus>
<clus scale="  161.208">  2  3  1 -1</clus>
<clus scale="   33.922">  1  3  2 -1</clus>
</clustering>
</event>
<event>
 6    0  0.5775861E+002  0.1339635E+03  0.7546771E-02  0.1221690E+00
         21   -1    0    0  503  502  0.00000000000E+00  0.00000000000E+00  0.20835525787E+03  0.20835525787E+03  0.00000000000E+00 0. -1.
         -2   -1    0    0    0  501 -0.00000000000E+00 -0.00000000000E+00 -0.91866163289E+03  0.91866163289E+03  0.00000000000E+00 0. -1.
         21    1    1    2  503  504 -0.19738354470E+01  0.17181564032E+03  0.11812543031E+03  0.20851409442E+03  0.00000000000E+00 0. -1.
         21    1    1    2  504  501  0.33032393986E+02 -0.37322324280E+02 -0.54570936951E+02  0.73905900317E+02  0.00000000000E+00 0. -1.
         21    1    1    2  505  502  0.20029722455E+02 -0.40025047705E+02  0.15952549576E+02  0.47515029868E+02  0.00000000000E+00 0. -1.
         -2    1    1    2    0  505 -0.51088280993E+02 -0.94468268337E+02 -0.78981341795E+03  0.79708186616E+03  0.00000000000E+00 0. -1.
<scales pt_clust_3="133.96347" pt_clust_4="52.21166" pt_clust_5="44.75706" pt_clust_6="14000.00000"></scales>
<clustering>
<clus scale="   44.757">  1  5  2 -1</clus>
<clus scale="   52.212">  2  4  1 -1</clus>
<clus scale="  133.963">  1  3  2 -1</clus>
<clus scale="   44.757">  1  3  2 -1</clus>
</clustering>
</event>
<event>
 6    0  0.5775861E+002  0.1143364E+03  0.7546771E-02  0.1252744E+00
          1   -1    0    0  505    0 -0.00000000000E+00  0.00000000000E+00  0.63671469034E+03  0.63671469034E+03  0.00000000000E+00 0. -1.
         21   -1    0    0  503  502  0.00000000000E+00 -0.00000000000E+00 -0.22675740043E+03  0.22675740043E+03  0.00000000000E+00 0. -1.
         21    1    1    2  503  501 -0.17865325880E+02  0.52624072372E+02 -0.13595601205E+03  0.14687579812E+03  0.00000000000E+00 0. -1.
         21    1    1    2  504  502 -0.39399523944E+02 -0.67652115330E+00 -0.45178177667E+02  0.59948710622E+02  0.00000000000E+00 0.  1.
         21    1    1    2  505  504 -0.98707392074E+01  0.43585130449E+02 -0.87584591207E+01  0.45539056808E+02  0.00000000000E+00 0.  1.
          1    1    1    2  501    0  0.67135589031E+02 -0.95532681668E+02  0.59984993874E+03  0.61110852522E+03  0.00000000000E+00 0. -1.
<scales pt_clust_3="14000.00000" pt_clust_4="39.40533" pt_clust_5="46.33406" pt_clust_6="114.33643"></scales>
<clustering>
<clus scale="   39.405">  2  4  1 -1</clus>
<clus scale="   46.334">  2  5  1 -1</clus>
<clus scale="  114.336">  1  6  2 -1</clus>
<clus scale="   39.405">  2  3  1 -1</clus>
</clustering>
</event>
<event>
 6    0  0.5775861E+002  0.1202587E+03  0.7546771E-02  0.1242671E+00
          2   -1    0    0  504    0 -0.00000000000E+00  0.00000000000E+00  0.42877333362E+03  0.42877333362E+03  0.00000000000E+00 0. -1.
         21   -1    0    0  505  502  0.00000000000E+00 -0.00000000000E+00 -0.21737820451E+03  0.21737820451E+03  0.00000000000E+00 0. -1.
         21    1    1    2  503  502  0.41591505366E+02  0.37195185386E+02 -0.47934573798E+02  0.73559897360E+02  0.00000000000E+00 0.  1.
         21    1    1    2  504  503 -0.14934212571E+03  0.66381928944E+02 -0.10796726144E+02  0.16378705779E+03  0.00000000000E+00 0. -1.
         21    1    1    2  505  501  0.27236547622E+02 -0.10971212006E+03 -0.13557537538E+02  0.11385247314E+03  0.00000000000E+00 0.  1.
          2    1    1    2  501    0  0.80514072725E+02  0.61350057349E+01  0.28368396659E+03  0.29495210985E+03  0.00000000000E+00 0. -1.
<scales pt_clust_3="55.79727" pt_clust_4="14000.00000" pt_clust_5="120.25874" pt_clust_6="82.34990"></scales>
<clustering>
<clus scale="   55.797">  2  3  1 -1</clus>
<clus scale="   82.350">  1  6  2 -1</clus>
<clus scale="  120.259">  2  5  1 -1</clus>
<clus scale="   55.797">  2  3  1 -1</clus>
</clustering>
</event>
<event>
 6    0  0.5775861E+002  0.1039300E+03  0.7546771E-02  0.1272242E+00
         21   -1    0    0  504  502  0.00000000000E+00  0.00000000000E+00  0.22857043770E+04  0.22857043770E+04  0.00000000000E+00 0.  1.
          2   -1    0    0  505    0 -0.00000000000E+00 -0.00000000000E+00 -0.58449088771E+03  0.58449088771E+03  0.00000000000E+00 0. -1.
         21    1    1    2  503  502 -0.24309403315E+02  0.88273686886E+02  0.19565571105E+04  0.19586982712E+04  0.00000000000E+00 0.  1.
         21    1    1    2  504  501 -0.54040795393E+02 -0.44793008614E+02 -0.16265801013E+03  0.17715656761E+03  0.00000000000E+00 0.  1.
         21    1    1    2  505  503  0.12853585902E+03 -0.60790794867E+02  0.30321442595E+03  0.33489696311E+03  0.00000000000E+00 0.  1.
          2    1    1    2  501    0 -0.50185660315E+02  0.17310116595E+02 -0.39590003705E+03  0.39944346280E+03  0.00000000000E+00 0. -1.
<scales pt_clust_3="91.73210" pt_clust_4="103.93004" pt_clust_5="14000.00000" pt_clust_6="53.08710"></scales>
<clustering>
<clus scale="   53.087">  2  6  1 -1</clus>
<clus scale="   91.732">  1  3  2 -1</clus>
<clus scale="  103.930">  2  4  1 -1</clus>
<clus scale="   91.732">  1  3  2 -1</clus>
</clustering>
</event>
<event>
 6    0  0.5775861E+002  0.1227225E+03  0.7546771E-02  0.1238672E+00
         21   -1    0    0  503  502  0.00000000000E+00  0.00000000000E+00  0.54832229863E+03  0.54832229863E+03  0.00000000000E+00 0.  1.
          2   -1    0    0  505    0 -0.00000000000E+00 -0.00000000000E+00 -0.17196043628E+04  0.17196043628E+04  0.00000000000E+00 0. -1.
         21    1    1    2  503  504  0.28006352010E+02 -0.12751948561E+02  0.41746916750E+03  0.41860180811E+03  0.00000000000E+00 0.  1.
         21    1    1    2  504  501 -0.52415898463E+02 -0.56909079534E+02  0.14215411865E+01  0.77382753404E+02  0.00000000000E+00 0.  1.
         21    1    1    2  505  502 -0.13737805525E+02 -0.50286498126E+02  0.80842912222E+02  0.96192700612E+02  0.00000000000E+00 0.  1.
          2    1    1    2  501    0  0.38147351977E+02  0.11994752622E+03 -0.16710156851E+04  0.16757493993E+04  0.00000000000E+00 0. -1.
<scales pt_clust_3="30.77284" pt_clust_4="14000.00000" pt_clust_5="59.18713" pt_clust_6="122.72246"></scales>
<clustering>
<clus scale="   30.773">  1  3  2 -1</clus>
<clus scale="   59.187">  1  5  2 -1</clus>
<clus scale="  122.722">  2  6  1 -1</clus>
<clus scale="   30.773">  1  3  2 -1</clus>
</clustering>
</event>
<event>
 6    0  0.5775861E+002  0.1639251E+03  0.7546771E-02  0.1184335E+00
         21   -1    0    0  505  502  0.00000000000E+00  0.00000000000E+00  0.59434366012E+03  0.59434366012E+03  0.00000000000E+00 0. -1.
          2   -1    0    0  504    0 -0.00000000000E+00 -0.00000000000E+00 -0.22195437653E+04  0.22195437653E+04  0.00000000000E+00 0.  1.
         21    1    1    2  503  501  0.14777154176E+02  0.69323645110E+02 -0.81432934310E+03  0.81740835027E+03  0.00000000000E+00 0.  1.
         21    1    1    2  504  502  0.25836153052E-01 -0.10964301989E+03 -0.81988236134E+01  0.10994913909E+03  0.00000000000E+00 0. -1.
         21    1    1    2  505  503  0.22590723757E+02 -0.46997193788E+02  0.53899164052E+03  0.54150813989E+03  0.00000000000E+00 0. -1.
          2    1    1    2  501    0 -0.37393714086E+02  0.87316568570E+02 -0.13416635790E+04  0.13450217962E+04  0.00000000000E+00 0.  1.
<scales pt_clust_3="45.30839" pt_clust_4="155.30758" pt_clust_5="52.14477" pt_clust_6="45.30839"></scales>
<clustering>
<clus scale="   45.308">  3  6 -1 -1</clus>
<clus scale="   52.145">  1  5  2 -1</clus>
<clus scale="  155.308">  1  4  2 -1</clus>
<clus scale="   52.145">  1  3  2 -1</clus>
</clustering>
</event>
<event>
 6    0  0.5775861E+002  0.8347421E+02  0.7546771E-02  0.1319472E+00
          2   -1    0    0  503    0 -0.00000000000E+00  0.00000000000E+00  0.88101444436E+03  0.88101444436E+03  0.00000000000E+00 0. -1.
         21   -1    0    0  505  502  0.00000000000E+00 -0.00000000000E+00 -0.10962716026E+03  0.10962716026E+03  0.00000000000E+00 0. -1.
         21    1    1    2  503  502  0.33910598442E+02  0.75968650344E+02  0.16763746260E+03  0.18714562081E+03  0.00000000000E+00 0.  1.
         21    1    1    2  504  501 -0.49078850399E+02 -0.68923054956E+02  0.16488066551E+03  0.18532337931E+03  0.00000000000E+00 0.  1.
         21    1    1    2  505  504  0.41802319262E+02 -0.27088039048E+02 -0.82158820234E+02  0.96079485310E+02  0.00000000000E+00 0. -1.
          2    1    1    2  501    0 -0.26634067305E+02  0.20042443660E+02  0.52102797623E+03  0.52209311918E+03  0.00000000000E+00 0. -1.
<scales pt_clust_3="83.47421" pt_clust_4="14000.00000" pt_clust_5="49.16777" pt_clust_6="33.33276"></scales>
<clustering>
<clus scale="   33.333">  1  6  2 -1</clus>
<clus scale="   49.168">  2  5  1 -1</clus>
<clus scale="   83.474">  2  3  1 -1</clus>
<clus scale="   49.168">  2  3  1 -1</clus>
</clustering>
</event>
<event>
 6    0  0.5775861E+002  0.9815147E+02  0.7546771E-02  0.1284232E+00
         21   -1    0    0  505  502  0.00000000000E+00  0.00000000000E+00  0.17732760421E+03  0.17732760421E+03  0.00000000000E+00 0. -1.
          3   -1    0    0  503    0 -0.00000000000E+00 -0.00000000000E+00 -0.21048760292E+04  0.21048760292E+04  0.00000000000E+00 0.  1.
         21    1    1    2  503  504  0.31487672748E+02  0.48037069627E+02 -0.18135085729E+04  0.18144179171E+04  0.00000000000E+00 0.  1.
         21    1    1    2  504  502  0.75514718218E+02 -0.10983847992E+03  0.91358475213E+02  0.16159621076E+03  0.00000000000E+00 0. -1.
         21    1    1    2  505  501 -0.53529656155E+02  0.97799665441E+01  0.27972482073E+02  0.61184406404E+02  0.00000000000E+00 0. -1.
          3    1    1    2  501    0 -0.53472734811E+02  0.52021443750E+02 -0.23337080937E+03  0.24500509922E+03  0.00000000000E+00 0.  1.
<scales pt_clust_3="57.36498" pt_clust_4="98.15147" pt_clust_5="54.41573" pt_clust_6="14000.00000"></scales>
<clustering>
<clus scale="   54.416">  1  5  2 -1</clus>
<clus scale="   57.365">  2  3  1 -1</clus>
<clus scale="   98.151">  1  4  2 -1</clus>
<clus scale="   54.416">  1  3  2 -1</clus>
</clustering>
</event>
<event>
 6    0  0.5775861E+002  0.8068063E+02  0.7546771E-02  0.1327131E+00
         21   -1    0    0  503  502  0.00000000000E+00  0.00000000000E+00  0.11540519823E+03  0.11540519823E+03  0.00000000000E+00 0. -1.
          2   -1    0    0  505    0 -0.00000000000E+00 -0.00000000000E+00 -0.15668280426E+04  0.15668280426E+04  0.00000000000E+00 0.  1.
         21    1    1    2  503  501  0.54147546287E+02 -0.94405515421E+02 -0.47117128692E+02  0.11859334689E+03  0.00000000000E+00 0. -1.
         21    1    1    2  504  502  0.23458395271E+01  0.43478899762E+02  0.52481098001E+02  0.68192252749E+02  0.00000000000E+00 0. -1.
         21    1    1    2  505  504 -0.21761544728E+02  0.58975522350E+02 -0.32596370067E+02  0.70811018965E+02  0.00000000000E+00 0. -1.
          2    1    1    2  501    0 -0.34731841086E+02 -0.80489066905E+01 -0.14241904437E+04  0.14246366223E+04  0.00000000000E+00 0.  1.
<scales pt_clust_3="14000.00000" pt_clust_4="43.03707" pt_clust_5="80.68063" pt_clust_6="35.65229"></scales>
<clustering>
<clus scale="   35.652">  2  6  1 -1</clus>
<clus scale="   43.037">  1  4  2 -1</clus>
<clus scale="   80.681">  2  5  1 -1</clus>
<clus scale="   43.037">  1  3  2 -1</clus>
</clustering>
</event>
<event>
 6    0  0.5775861E+002  0.1592930E+03  0.7546771E-02  0.1189497E+00
          1   -1    0    0  503    0 -0.00000000000E+00  0.00000000000E+00  0.99312570818E+03  0.99312570818E+03  0.00000000000E+00 0. -1.
         21   -1    0    0  501  502  0.00000000000E+00 -0.00000000000E+00 -0.57768305554E+02  0.57768305554E+02  0.00000000000E+00 0.  1.
         21    1    1    2  503  504  0.18481025790E+02 -0.11826953786E+03  0.30291367534E+03  0.32570834593E+03  0.00000000000E+00 0. -1.
         21    1    1    2  504  505  0.60555562349E+02  0.81425472322E+02  0.14530369706E+03  0.17722936566E+03  0.00000000000E+00 0.  1.
         21    1    1    2  505  502  0.47497016756E+02  0.50356874212E+02  0.33683870976E+02  0.76983014653E+02  0.00000000000E+00 0.  1.
          1    1    1    2  501    0 -0.12653360490E+03 -0.13512808676E+02  0.45345615924E+03  0.47097328748E+03  0.00000000000E+00 0. -1.
<scales pt_clust_3="119.70477" pt_clust_4="49.17911" pt_clust_5="49.17911" pt_clust_6="147.74584"></scales>
<clustering>
<clus scale="   49.179">  4  5 -1 -1</clus>
<clus scale="  119.705">  1  3  2 -1</clus>
<clus scale="  147.746">  1  6  2 -1</clus>
<clus scale="  159.293">  2  3  1 -1</clus>
</clustering>
</event>
<event>
 6    0  0.5775861E+002  0.1146877E+03  0.7546771E-02  0.1252127E+00
          2   -1    0    0  504    0 -0.00000000000E+00  0.00000000000E+00  0.27698471951E+03  0.27698471951E+03  0.00000000000E+00 0.  1.
         21   -1    0    0  505  502  0.00000000000E+00 -0.00000000000E+00 -0.24797104785E+04  0.24797104785E+04  0.00000000000E+00 0.  1.
         21    1    1    2  503  502  0.14255826566E+02  0.30729094703E+02 -0.14695828556E+04  0.14699732226E+04  0.00000000000E+00 0.  1.
         21    1    1    2  504  503 -0.19372421397E+03  0.66676179522E+02 -0.71007801138E+03  0.73904368358E+03  0.00000000000E+00 0.  1.
         21    1    1    2  505  501  0.85155996642E+02 -0.34742277120E+02 -0.26502731208E+03  0.28053171966E+03  0.00000000000E+00 0.  1.
          2    1    1    2  501    0  0.94312390764E+02 -0.62662997104E+02  0.24196242008E+03  0.26714657211E+03  0.00000000000E+00 0.  1.
<scales pt_clust_3="33.87486" pt_clust_4="114.68772" pt_clust_5="92.85123" pt_clust_6="14000.00000"></scales>
<clustering>
<clus scale="   33.875">  2  3  1 -1</clus>
<clus scale="   92.851">  2  5  1 -1</clus>
<clus scale="  114.688">  2  4  1 -1</clus>
<clus scale="   33.875">  2  3  1 -1</clus>
</clustering>
</event>
<event>
 6    0  0.5775861E+002  0.8960898E+02  0.7546771E-02  0.1303801E+00
          1   -1    0    0  505    0 -0.00000000000E+00  0.00000000000E+00  0.19830374057E+04  0.19830374057E+04  0.00000000000E+00 0. -1.
         21   -1    0    0  503  502  0.00000000000E+00 -0.00000000000E+00 -0.65437069736E+02  0.65437069736E+02  0.00000000000E+00 0. -1.
         21    1    1    2  503  504  0.14780054332E+02  0.35422315124E+02  0.16869851374E+02  0.41925914423E+02  0.00000000000E+00 0.  1.
         21    1    1    2  504  501  0.40468354184E+02 -0.36744154910E+02  0.72293107653E+02  0.90631749539E+02  0.00000000000E+00 0. -1.
         21    1    1    2  505  502 -0.13742985198E+03 -0.31014242415E+02  0.73774935919E+02  0.15903329405E+03  0.00000000000E+00 0. -1.
          1    1    1    2  501    0  0.82181443464E+02  0.32336082201E+02  0.17546624410E+04  0.17568835174E+04  0.00000000000E+00 0. -1.
<scales pt_clust_3="38.38216" pt_clust_4="52.80388" pt_clust_5="89.60898" pt_clust_6="14000.00000"></scales>
<clustering>
<clus scale="   38.382">  2  3  1 -1</clus>
<clus scale="   52.804">  2  4  1 -1</clus>
<clus scale="   89.609">  2  5  1 -1</clus>
<clus scale="   38.382">  2  3  1 -1</clus>
</clustering>
</event>
<event>
 6    0  0.5775861E+002  0.1920078E+03  0.7546771E-02  0.1156663E+00
          1   -1    0    0  503    0 -0.00000000000E+00  0.00000000000E+00  0.19468006920E+04  0.19468006920E+04  0.00000000000E+00 0.  1.
         21   -1    0    0  504  502  0.00000000000E+00 -0.00000000000E+00 -0.50659144080E+02  0.50659144080E+02  0.00000000000E+00 0. -1.
         21    1    1    2  503  502 -0.97569315798E+02 -0.18715897431E+03  0.10564034806E+04  0.10772820276E+04  0.00000000000E+00 0. -1.
         21    1    1    2  504  505  0.87198503399E+02 -0.14831790777E+02  0.89634165307E+02  0.12592793416E+03  0.00000000000E+00 0. -1.
         21    1    1    2  505  501  0.54933203229E+02  0.12004312322E+02  0.91995184834E+02  0.10781871064E+03  0.00000000000E+00 0. -1.
          1    1    1    2  501    0 -0.44562390831E+02  0.18998645277E+03  0.65810871716E+03  0.68643116371E+03  0.00000000000E+00 0.  1.
<scales pt_clust_3="192.00784" pt_clust_4="147.13352" pt_clust_5="30.24404" pt_clust_6="14000.00000"></scales>
<clustering>
<clus scale="   30.244">  4  5 -1 -1</clus>
<clus scale="  147.134">  2  4  1 -1</clus>
<clus scale="  192.008">  1  3  2 -1</clus>
<clus scale="  147.134">  2  3  1 -1</clus>
</clustering>
</event>
<event>
 6    0  0.5775861E+002  0.6825416E+02  0.7546771E-02  0.1366133E+00
          2   -1    0    0  505    0 -0.00000000000E+00  0.00000000000E+00  0.28313183481E+04  0.28313183481E+04  0.00000000000E+00 0. -1.
         21   -1    0    0  503  502  0.00000000000E+00 -0.00000000000E+00 -0.25233717747E+02  0.25233717747E+02  0.00000000000E+00 0. -1.
         21    1    1    2  503  501 -0.29742766590E+01  0.85233709188E+02  0.12116462659E+04  0.12146441064E+04  0.00000000000E+00 0. -1.
         21    1    1    2  504  502 -0.39369698702E+02  0.11652323266E+02  0.12819370166E+02  0.43012626807E+02  0.00000000000E+00 0. -1.
         21    1    1    2  505  504  0.57597046944E+02 -0.37097240780E+02  0.13909000532E+03  0.15504726592E+03  0.00000000000E+00 0. -1.
          2    1    1    2  501    0 -0.15253071583E+02 -0.59788791674E+02  0.14425289890E+04  0.14438480668E+04  0.00000000000E+00 0. -1.
<scales pt_clust_3="68.25416" pt_clust_4="41.05788" pt_clust_5="38.57416" pt_clust_6="14000.00000"></scales>
<clustering>
<clus scale="   41.058">  2  4  1 -1</clus>
<clus scale="   38.574">  2  5  1 -1</clus>
<clus scale="   68.254">  2  3  1 -1</clus>
<clus scale="   41.058">  2  3  1 -1</clus>
</clustering>
</event>
<event>
 6    0  0.5775861E+002  0.2123763E+03  0.7546771E-02  0.1139698E+00
         21   -1    0    0  504  502  0.00000000000E+00  0.00000000000E+00  0.11258117948E+04  0.11258117948E+04  0.00000000000E+00 0.  1.
          1   -1    0    0  503    0 -0.00000000000E+00 -0.00000000000E+00 -0.32239764345E+04  0.32239764345E+04  0.00000000000E+00 0.  1.
         21    1    1    2  503  505  0.34725937077E+02  0.23037741270E+02 -0.38490713433E+03  0.38715646745E+03  0.00000000000E+00 0.  1.
         21    1    1    2  504  501  0.16392675833E+03 -0.14910701493E+03 -0.53175757074E+02  0.22788713246E+03  0.00000000000E+00 0.  1.
         21    1    1    2  505  502 -0.52605314465E+02 -0.31711460644E+02  0.10321327689E+04  0.10339588911E+04  0.00000000000E+00 0.  1.
          1    1    1    2  501    0 -0.14604738095E+03  0.15778073430E+03 -0.26922145171E+04  0.27007857383E+04  0.00000000000E+00 0.  1.
<scales pt_clust_3="41.67287" pt_clust_4="14000.00000" pt_clust_5="61.41083" pt_clust_6="212.37634"></scales>
<clustering>
<clus scale="   41.673">  2  3  1 -1</clus>
<clus scale="   61.411">  1  5  2 -1</clus>
<clus scale="  212.376">  2  6  1 -1</clus>
<clus scale="   61.411">  1  3  2 -1</clus>
</clustering>
</event>
<event>
 6    0  0.5775861E+002  0.6318363E+02  0.7546771E-02  0.1384937E+00
          1   -1    0    0  505    0 -0.00000000000E+00  0.00000000000E+00  0.25392339366E+04  0.25392339366E+04  0.00000000000E+00 0.  1.
         21   -1    0    0  503  502  0.00000000000E+00 -0.00000000000E+00 -0.41877752160E+03  0.41877752160E+03  0.00000000000E+00 0. -1.
         21    1    1    2  503  501 -0.73535591863E+02  0.13737945661E+02 -0.31323898282E+02  0.81101177706E+02  0.00000000000E+00 0. -1.
         21    1    1    2  504  502 -0.20275531849E+02  0.24640759363E+02 -0.20590870062E+03  0.20836664129E+03  0.00000000000E+00 0. -1.
         21    1    1    2  505  504  0.40682060455E+02 -0.72690637138E+02 -0.14383774502E+03  0.16621749506E+03  0.00000000000E+00 0. -1.
          1    1    1    2  501    0  0.53129063257E+02  0.34311932113E+02  0.25015267589E+04  0.25023261441E+04  0.00000000000E+00 0.  1.
<scales pt_clust_3="14000.00000" pt_clust_4="31.91025" pt_clust_5="60.43877" pt_clust_6="63.18363"></scales>
<clustering>
<clus scale="   31.910">  2  4  1 -1</clus>
<clus scale="   60.439">  2  5  1 -1</clus>
<clus scale="   63.184">  1  6  2 -1</clus>
<clus scale="   31.910">  2  3  1 -1</clus>
</clustering>
</event>
<event>
 6    0  0.5775861E+002  0.1057187E+03  0.7546771E-02  0.1268710E+00
         21   -1    0    0  503  502  0.00000000000E+00  0.00000000000E+00  0.17756688728E+03  0.17756688728E+03  0.00000000000E+00 0.  1.
         -2   -1    0    0    0  501 -0.00000000000E+00 -0.00000000000E+00 -0.82767230640E+03  0.82767230640E+03  0.00000000000E+00 0. -1.
         21    1    1    2  503  504 -0.92683731831E+02  0.28556447509E+02  0.14921758197E+03  0.17796525394E+03  0.00000000000E+00 0.  1.
         21    1    1    2  504  501  0.44288461834E+01 -0.66237062762E+02 -0.99670067689E+02  0.11975427155E+03  0.00000000000E+00 0. -1.
         21    1    1    2  505  502  0.39066120267E+02  0.39207253672E+02 -0.40939038665E+03  0.41311482566E+03  0.00000000000E+00 0. -1.
         -2    1    1    2    0  505  0.49188765381E+02 -0.15266384196E+01 -0.29026254674E+03  0.29440484253E+03  0.00000000000E+00 0. -1.
<scales pt_clust_3="96.51600" pt_clust_4="66.38496" pt_clust_5="40.67921" pt_clust_6="40.67921"></scales>
<clustering>
<clus scale="   40.679">  5  6 -1 -1</clus>
<clus scale="   66.385">  2  4  1 -1</clus>
<clus scale="   96.516">  1  3  2 -1</clus>
<clus scale="   96.516">  1  3  2 -1</clus>
</clustering>
</event>
<event>
 6    0  0.5775861E+002  0.8905562E+02  0.7546771E-02  0.1305155E+00
         21   -1    0    0  504  502  0.00000000000E+00  0.00000000000E+00  0.22873677528E+04  0.22873677528E+04  0.00000000000E+00 0. -1.
         -3   -1    0    0    0  501 -0.00000000000E+00 -0.00000000000E+00 -0.31283641103E+03  0.31283641103E+03  0.00000000000E+00 0. -1.
         21    1    1    2  503  502 -0.24195001545E+02  0.23203375901E+02  0.17874101363E+04  0.17877244726E+04  0.00000000000E+00 0. -1.
         21    1    1    2  504  501 -0.30278011805E+02 -0.30768653646E+02  0.33492927033E+03  0.33769969524E+03  0.00000000000E+00 0. -1.
         21    1    1    2  505  503  0.34214088184E+02 -0.79961861267E+02  0.14467726482E+03  0.16880762437E+03  0.00000000000E+00 0.  1.
         -3    1    1    2    0  505  0.20258925165E+02  0.87527139012E+02 -0.29248532966E+03  0.30597237159E+03  0.00000000000E+00 0. -1.
<scales pt_clust_3="33.52305" pt_clust_4="48.96323" pt_clust_5="14000.00000" pt_clust_6="89.05562"></scales>
<clustering>
<clus scale="   33.523">  1  3  2 -1</clus>
<clus scale="   48.963">  1  4  2 -1</clus>
<clus scale="   89.056">  2  6  1 -1</clus>
<clus scale="   33.523">  1  3  2 -1</clus>
</clustering>
</event>
<event>
 6    0  0.5775861E+002  0.1344561E+03  0.7546771E-02  0.1220990E+00
         -1   -1    0    0    0  501 -0.00000000000E+00  0.00000000000E+00  0.19061939738E+03  0.19061939738E+03  0.00000000000E+00 0.  1.
         21   -1    0    0  504  502  0.00000000000E+00 -0.00000000000E+00 -0.18679950824E+04  0.18679950824E+04  0.00000000000E+00 0.  1.
         21    1    1    2  503  501  0.12293511039E+03  0.93838437139E+02 -0.13578053317E+03  0.20580341795E+03  0.00000000000E+00 0.  1.
         21    1    1    2  504  503 -0.11191655275E+03  0.12031265543E+03 -0.27389057270E+03  0.31940021235E+03  0.00000000000E+00 0.  1.
         21    1    1    2  505  502 -0.21504991327E+01 -0.13586671143E+03 -0.13852532507E+04  0.13919019206E+04  0.00000000000E+00 0.  1.
         -1    1    1    2    0  505 -0.88680585082E+01 -0.78284381141E+02  0.11754867152E+03  0.14150892893E+03  0.00000000000E+00 0.  1.
<scales pt_clust_3="127.62304" pt_clust_4="14000.00000" pt_clust_5="134.45608" pt_clust_6="78.78507"></scales>
<clustering>
<clus scale="   78.785">  1  6  2 -1</clus>
<clus scale="  127.623">  1  3  2 -1</clus>
<clus scale="  134.456">  2  5  1 -1</clus>
<clus scale="  134.456">  2  3  1 -1</clus>
</clustering>
</event>
<event>
 6    0  0.5775861E+002  0.4116230E+03  0.7546771E-02  0.1039828E+00
         21   -1    0    0  504  502  0.00000000000E+00  0.00000000000E+00  0.12968416368E+04  0.12968416368E+04  0.00000000000E+00 0. -1.
          2   -1    0    0  505    0 -0.00000000000E+00 -0.00000000000E+00 -0.15802029623E+04  0.15802029623E+04  0.00000000000E+00 0. -1.
         21    1    1    2  503  501 -0.35801260288E+03  0.25114634624E+02 -0.19863242967E+03  0.41019338221E+03  0.00000000000E+00 0.  1.
         21    1    1    2  504  503 -0.35776057957E+02 -0.13246236733E+02  0.36622478341E+02  0.52882842495E+02  0.00000000000E+00 0.  1.
         21    1    1    2  505  502  0.35182603769E+03  0.30772034899E+03  0.10764528904E+04  0.11735519585E+04  0.00000000000E+00 0. -1.
          2    1    1    2  501    0  0.41962623147E+02 -0.31958874688E+03 -0.11978042645E+04  0.12404164159E+04  0.00000000000E+00 0. -1.
<scales pt_clust_3="411.62299" pt_clust_4="38.14956" pt_clust_5="14000.00000" pt_clust_6="322.47671"></scales>
<clustering>
<clus scale="   38.150">  1  4  2 -1</clus>
<clus scale="  322.477">  2  6  1 -1</clus>
<clus scale="  411.623">  2  3  1 -1</clus>
<clus scale="   38.150">  1  3  2 -1</clus>
</clustering>
</event>
<event>
 6    0  0.5775861E+002  0.1052817E+03  0.7546771E-02  0.1269566E+00
         21   -1    0    0  505  502  0.00000000000E+00  0.00000000000E+00  0.12550648727E+03  0.12550648727E+03  0.00000000000E+00 0. -1.
          1   -1    0    0  504    0 -0.00000000000E+00 -0.00000000000E+00 -0.64631675294E+03  0.64631675294E+03  0.00000000000E+00 0. -1.
         21    1    1    2  503  501 -0.53147084040E+02  0.35272211883E+02 -0.56367079619E+01  0.64035255522E+02  0.00000000000E+00 0. -1.
         21    1    1    2  504  502  0.43819151212E+02 -0.16581889804E+02  0.51432458172E+02  0.69572802416E+02  0.00000000000E+00 0. -1.
         21    1    1    2  505  503 -0.34780422026E+02  0.67469828020E+02 -0.13988987734E+02  0.77185149007E+02  0.00000000000E+00 0. -1.
          1    1    1    2  501    0  0.44108354854E+02 -0.86160150100E+02 -0.55261702815E+03  0.56103003327E+03  0.00000000000E+00 0. -1.
<scales pt_clust_3="32.67936" pt_clust_4="46.85165" pt_clust_5="32.67936" pt_clust_6="99.06243"></scales>
<clustering>
<clus scale="   32.679">  3  5 -1 -1</clus>
<clus scale="   46.852">  1  4  2 -1</clus>
<clus scale="   99.062">  2  6  1 -1</clus>
<clus scale="   46.852">  1  3  2 -1</clus>
</clustering>
</event>
<event>
 6    0  0.5775861E+002  0.9298019E+02  0.7546771E-02  0.1295791E+00
         21   -1    0    0  503  502  0.00000000000E+00  0.00000000000E+00  0.14836484440E+03  0.14836484440E+03  0.00000000000E+00 0.  1.
          1   -1    0    0  505    0 -0.00000000000E+00 -0.00000000000E+00 -0.13310950048E+04  0.13310950048E+04  0.00000000000E+00 0.  1.
         21    1    1    2  503  504 -0.16072988101E+02  0.44590965085E+02  0.75201864973E+02  0.88893282137E+02  0.00000000000E+00 0.  1.
         21    1    1    2  504  501 -0.16468942635E+02  0.59089753228E+02  0.37305062084E+01  0.61455200631E+02  0.00000000000E+00 0. -1.
         21    1    1    2  505  502  0.64485888050E+02 -0.11342107427E+03 -0.93603858046E+02  0.16057537821E+03  0.00000000000E+00 0.  1.
          1    1    1    2  501    0 -0.31943957314E+02  0.97403559550E+01 -0.11680586735E+04  0.11685359882E+04  0.00000000000E+00 0.  1.
<scales pt_clust_3="48.25324" pt_clust_4="14000.00000" pt_clust_5="92.98019" pt_clust_6="33.39597"></scales>
<clustering>
<clus scale="   33.396">  2  6  1 -1</clus>
<clus scale="   48.253">  1  3  2 -1</clus>
<clus scale="   92.980">  2  5  1 -1</clus>
<clus scale="   48.253">  1  3  2 -1</clus>
</clustering>
</event>
<event>
 6    0  0.5775861E+002  0.1670292E+03  0.7546771E-02  0.1180982E+00
          2   -1    0    0  505    0 -0.00000000000E+00  0.00000000000E+00  0.17076345235E+03  0.17076345235E+03  0.00000000000E+00 0.  1.
         21   -1    0    0  504  502  0.00000000000E+00 -0.00000000000E+00 -0.38434823150E+03  0.38434823150E+03  0.00000000000E+00 0. -1.
         21    1    1    2  503  502 -0.95200916752E+02 -0.65002129944E+02 -0.16995942602E+03  0.20536479236E+03  0.00000000000E+00 0. -1.
         21    1    1    2  504  501  0.26764712633E+02  0.84189860251E+02 -0.39817975680E+02  0.96900740960E+02  0.00000000000E+00 0.  1.
         21    1    1    2  505  503 -0.55536717660E+02 -0.89247021387E+02 -0.27103024218E+02  0.10855381963E+03  0.00000000000E+00 0. -1.
          2    1    1    2  501    0  0.12397292178E+03  0.70059291080E+02  0.23295646766E+02  0.14429233091E+03  0.00000000000E+00 0.  1.
<scales pt_clust_3="128.50017" pt_clust_4="84.04731" pt_clust_5="105.11593" pt_clust_6="84.04731"></scales>
<clustering>
<clus scale="   84.047">  4  6 -1 -1</clus>
<clus scale="  105.116">  1  5  2 -1</clus>
<clus scale="  128.500">  2  3  1 -1</clus>
<clus scale="  128.500">  2  3  1 -1</clus>
</clustering>
</event>
<event>
 6    0  0.5775861E+002  0.1529105E+03  0.7546771E-02  0.1196942E+00
          2   -1    0    0  505    0 -0.00000000000E+00  0.00000000000E+00  0.90099191799E+03  0.90099191799E+03  0.00000000000E+00 0. -1.
         21   -1    0    0  504  502  0.00000000000E+00 -0.00000000000E+00 -0.28192057416E+03  0.28192057416E+03  0.00000000000E+00 0. -1.
         21    1    1    2  503  501  0.11174291118E+03  0.11402024695E+03 -0.21418507074E+03  0.26713730448E+03  0.00000000000E+00 0. -1.
         21    1    1    2  504  503 -0.33577384080E+02  0.22289859805E+02 -0.12787594782E+02  0.42282397662E+02  0.00000000000E+00 0. -1.
         21    1    1    2  505  502 -0.44007578578E+02 -0.64215154044E+02  0.11974492125E+03  0.14282541491E+03  0.00000000000E+00 0.  1.
          2    1    1    2  501    0 -0.34157948526E+02 -0.72094952714E+02  0.72629908810E+03  0.73066737509E+03  0.00000000000E+00 0. -1.
<scales pt_clust_3="14000.00000" pt_clust_4="40.30234" pt_clust_5="77.89607" pt_clust_6="152.91047"></scales>
<clustering>
<clus scale="   40.302">  2  4  1 -1</clus>
<clus scale="   77.896">  1  5  2 -1</clus>
<clus scale="  152.910">  1  6  2 -1</clus>
<clus scale="   40.302">  2  3  1 -1</clus>
</clustering>
</event>
<event>
 6    0  0.5775861E+002  0.1090673E+03  0.7546771E-02  0.1262307E+00
          2   -1    0    0  503    0 -0.00000000000E+00  0.00000000000E+00  0.12417876965E+04  0.12417876965E+04  0.00000000000E+00 0.  1.
         21   -1    0    0  505  502  0.00000000000E+00 -0.00000000000E+00 -0.47726043889E+03  0.47726043889E+03  0.00000000000E+00 0.  1.
         21    1    1    2  503  502 -0.28126327193E+02  0.14782664649E+03  0.80872902792E+02  0.17083393720E+03  0.00000000000E+00 0.  1.
         21    1    1    2  504  501 -0.29947419338E+02 -0.17035778117E+02 -0.15524167749E+03  0.15901900544E+03  0.00000000000E+00 0.  1.
         21    1    1    2  505  504 -0.51688443272E+01 -0.72505863106E+02 -0.26865233914E+03  0.27831258769E+03  0.00000000000E+00 0.  1.
          2    1    1    2  501    0  0.63242590858E+02 -0.58285005267E+02  0.11075483715E+04  0.11108826051E+04  0.00000000000E+00 0.  1.
<scales pt_clust_3="97.84551" pt_clust_4="33.17463" pt_clust_5="33.17463" pt_clust_6="86.00446"></scales>
<clustering>
<clus scale="   33.175">  4  5 -1 -1</clus>
<clus scale="   86.004">  1  6  2 -1</clus>
<clus scale="   97.846">  1  3  2 -1</clus>
<clus scale="  109.067">  2  3  1 -1</clus>
</clustering>
</event>
<event>
 6    0  0.5775861E+002  0.8707623E+02  0.7546771E-02  0.1310091E+00
         21   -1    0    0  505  502  0.00000000000E+00  0.00000000000E+00  0.41126613385E+03  0.41126613385E+03  0.00000000000E+00 0.  1.
         -1   -1    0    0    0  501 -0.00000000000E+00 -0.00000000000E+00 -0.40277915387E+03  0.40277915387E+03  0.00000000000E+00 0.  1.
         21    1    1    2  503  502 -0.58168013853E+02  0.63565122570E+02  0.16150089974E+03  0.18304803539E+03  0.00000000000E+00 0.  1.
         21    1    1    2  504  503  0.36377489424E+01 -0.46038451335E+02 -0.13411340360E+03  0.14184208559E+03  0.00000000000E+00 0.  1.
         21    1    1    2  505  501  0.90180591405E+02 -0.26584428016E+02  0.22429032351E+03  0.24319831434E+03  0.00000000000E+00 0.  1.
         -1    1    1    2    0  504 -0.35650326495E+02  0.90577567806E+01 -0.24319083967E+03  0.24595685239E+03  0.00000000000E+00 0.  1.
<scales pt_clust_3="14000.00000" pt_clust_4="46.99270" pt_clust_5="87.07623" pt_clust_6="36.78300"></scales>
<clustering>
<clus scale="   36.783">  2  6  1 -1</clus>
<clus scale="   46.993">  2  4  1 -1</clus>
<clus scale="   87.076">  1  5  2 -1</clus>
<clus scale="   87.076">  1  3  2 -1</clus>
</clustering>
</event>
<event>
 6    0  0.5775861E+002  0.9647219E+02  0.7546771E-02  0.1287894E+00
         21   -1    0    0  505  502  0.00000000000E+00  0.00000000000E+00  0.19316065912E+03  0.19316065912E+03  0.00000000000E+00 0. -1.
          2   -1    0    0  503    0 -0.00000000000E+00 -0.00000000000E+00 -0.13142926839E+03  0.13142926839E+03  0.00000000000E+00 0. -1.
         21    1    1    2  503  502  0.31715747725E+02 -0.30372958936E+02  0.39184319276E+02  0.58854194119E+02  0.00000000000E+00 0. -1.
         21    1    1    2  504  501  0.47075340978E+02  0.65718759278E+02  0.11490171630E+02  0.81652110158E+02  0.00000000000E+00 0.  1.
         21    1    1    2  505  504  0.52567276657E+01  0.36095859729E+02  0.54456854869E+02  0.65544590300E+02  0.00000000000E+00 0. -1.
          2    1    1    2  501    0 -0.84047816368E+02 -0.71441660071E+02 -0.43399955050E+02  0.11853903293E+03  0.00000000000E+00 0. -1.
<scales pt_clust_3="37.73972" pt_clust_4="96.47219" pt_clust_5="36.47663" pt_clust_6="14000.00000"></scales>
<clustering>
<clus scale="   36.477">  1  5  2 -1</clus>
<clus scale="   37.740">  1  3  2 -1</clus>
<clus scale="   96.472">  1  4  2 -1</clus>
<clus scale="   36.477">  1  3  2 -1</clus>
</clustering>
</event>
<event>
 6    0  0.5775861E+002  0.7824374E+02  0.7546771E-02  0.1334111E+00
         21   -1    0    0  503  502  0.00000000000E+00  0.00000000000E+00  0.12926214789E+03  0.12926214789E+03  0.00000000000E+00 0.  1.
          2   -1    0    0  504    0 -0.00000000000E+00 -0.00000000000E+00 -0.13460802780E+04  0.13460802780E+04  0.00000000000E+00 0. -1.
         21    1    1    2  503  505 -0.25597164703E+01  0.32256128559E+02 -0.17409941322E+01  0.32404336725E+02  0.00000000000E+00 0. -1.
         21    1    1    2  504  502 -0.90216059856E+02 -0.10549520414E+03  0.53922254739E+02  0.14891536223E+03  0.00000000000E+00 0.  1.
         21    1    1    2  505  501  0.16311296381E+02  0.58565681449E+02 -0.70899422017E+02  0.93395532417E+02  0.00000000000E+00 0.  1.
          2    1    1    2  501    0  0.76464479945E+02  0.14673394134E+02 -0.11980999687E+04  0.12006271945E+04  0.00000000000E+00 0. -1.
<scales pt_clust_3="32.35753" pt_clust_4="14000.00000" pt_clust_5="63.80416" pt_clust_6="78.24374"></scales>
<clustering>
<clus scale="   32.358">  1  3  2 -1</clus>
<clus scale="   63.804">  1  5  2 -1</clus>
<clus scale="   78.244">  2  6  1 -1</clus>
<clus scale="   32.358">  1  3  2 -1</clus>
</clustering>
</event>
<event>
 6    0  0.5775861E+002  0.1115166E+03  0.7546771E-02  0.1257787E+00
         21   -1    0    0  504  502  0.00000000000E+00  0.00000000000E+00  0.49676207018E+04  0.49676207018E+04  0.00000000000E+00 0. -1.
         -1   -1    0    0    0  501 -0.00000000000E+00 -0.00000000000E+00 -0.53404853283E+02  0.53404853283E+02  0.00000000000E+00 0.  1.
         21    1    1    2  503  505 -0.22411823541E+02 -0.10531573547E+03  0.12069575119E+03  0.16174411373E+03  0.00000000000E+00 0.  1.
         21    1    1    2  504  501  0.27809302529E+02 -0.17985437150E+02  0.10353916408E+04  0.10359211761E+04  0.00000000000E+00 0. -1.
         21    1    1    2  505  502  0.30110640970E+02  0.11381457426E+03  0.37791742601E+04  0.37810076033E+04  0.00000000000E+00 0. -1.
         -1    1    1    2    0  503 -0.35508119958E+02  0.94865983589E+01 -0.21045803530E+02  0.42352661989E+02  0.00000000000E+00 0.  1.
<scales pt_clust_3="111.51659" pt_clust_4="33.11847" pt_clust_5="14000.00000" pt_clust_6="36.66817"></scales>
<clustering>
<clus scale="   33.118">  1  4  2 -1</clus>
<clus scale="   36.668">  2  6  1 -1</clus>
<clus scale="  111.517">  2  3  1 -1</clus>
<clus scale="   33.118">  1  3  2 -1</clus>
</clustering>
</event>
<event>
 6    0  0.5775861E+002  0.7625171E+02  0.7546771E-02  0.1340038E+00
         -1   -1    0    0    0  501 -0.00000000000E+00  0.00000000000E+00  0.60457959435E+03  0.60457959435E+03  0.00000000000E+00 0.  1.
         21   -1    0    0  501  502  0.00000000000E+00 -0.00000000000E+00 -0.68362465731E+03  0.68362465731E+03  0.00000000000E+00 0.  1.
         21    1    1    2  503  502  0.33102691463E+02 -0.15831710675E+02 -0.61039218921E+03  0.61149411763E+03  0.00000000000E+00 0.  1.
         21    1    1    2  504  503  0.19992822885E+02  0.67438750254E+02 -0.29958145610E+02  0.76453832416E+02  0.00000000000E+00 0. -1.
         21    1    1    2  505  504 -0.49055125672E+02 -0.11883375297E+03  0.24308781508E+03  0.27499009444E+03  0.00000000000E+00 0.  1.
         -1    1    1    2    0  505 -0.40403886766E+01  0.67226713388E+02  0.31821745677E+03  0.32526620717E+03  0.00000000000E+00 0.  1.
<scales pt_clust_3="36.69375" pt_clust_4="14000.00000" pt_clust_5="76.25171" pt_clust_6="66.50362"></scales>
<clustering>
<clus scale="   36.694">  2  3  1 -1</clus>
<clus scale="   66.504">  1  6  2 -1</clus>
<clus scale="   76.252">  1  5  2 -1</clus>
<clus scale="   36.694">  2  3  1 -1</clus>
</clustering>
</event>
<event>
 6    0  0.5775861E+002  0.1574133E+03  0.7546771E-02  0.1191648E+00
          2   -1    0    0  504    0 -0.00000000000E+00  0.00000000000E+00  0.14055723576E+04  0.14055723576E+04  0.00000000000E+00 0.  1.
         21   -1    0    0  503  502  0.00000000000E+00 -0.00000000000E+00 -0.34902387222E+02  0.34902387222E+02  0.00000000000E+00 0.  1.
         21    1    1    2  503  501 -0.17928304211E+02 -0.26057840764E+02  0.67571985673E+02  0.74608366856E+02  0.00000000000E+00 0.  1.
         21    1    1    2  504  505 -0.27610476481E+02  0.46091357600E+02  0.77927085964E+02  0.94654014092E+02  0.00000000000E+00 0.  1.
         21    1    1    2  505  502 -0.96132089430E+02  0.14199765460E+02  0.11090515313E+03  0.14745495905E+03  0.00000000000E+00 0.  1.
          2    1    1    2  501    0  0.14167087012E+03 -0.34233282296E+02  0.11142657456E+04  0.11237574048E+04  0.00000000000E+00 0.  1.
<scales pt_clust_3="31.62966" pt_clust_4="43.73338" pt_clust_5="43.73338" pt_clust_6="144.10779"></scales>
<clustering>
<clus scale="   31.630">  2  3  1 -1</clus>
<clus scale="   43.733">  4  5 -1 -1</clus>
<clus scale="  144.108">  1  6  2 -1</clus>
<clus scale="   31.630">  2  3  1 -1</clus>
</clustering>
</event>
<event>
 6    0  0.5775861E+002  0.1226710E+03  0.7546771E-02  0.1238755E+00
         21   -1    0    0  504  502  0.00000000000E+00  0.00000000000E+00  0.48580849141E+03  0.48580849141E+03  0.00000000000E+00 0. -1.
          1   -1    0    0  502    0 -0.00000000000E+00 -0.00000000000E+00 -0.16489572379E+04  0.16489572379E+04  0.00000000000E+00 0. -1.
         21    1    1    2  503  505  0.11930217345E+02  0.57361686634E+02  0.12893146075E+03  0.14161925981E+03  0.00000000000E+00 0. -1.
         21    1    1    2  504  503  0.18214907699E+01  0.64362312874E+02  0.30442104366E+03  0.31115590461E+03  0.00000000000E+00 0. -1.
         21    1    1    2  505  501 -0.29066934744E+02 -0.74506441671E+02  0.46115710552E+01  0.80108446081E+02  0.00000000000E+00 0.  1.
          1    1    1    2  501    0  0.15315226629E+02 -0.47217557838E+02 -0.16011128220E+04  0.16018821188E+04  0.00000000000E+00 0. -1.
<scales pt_clust_3="44.79418" pt_clust_4="44.79418" pt_clust_5="113.32725" pt_clust_6="49.63924"></scales>
<clustering>
<clus scale="   44.794">  3  4 -1 -1</clus>
<clus scale="   49.639">  2  6  1 -1</clus>
<clus scale="  113.327">  2  5  1 -1</clus>
<clus scale="  122.671">  1  3  2 -1</clus>
</clustering>
</event>
<event>
 6    0  0.5775861E+002  0.7248132E+02  0.7546771E-02  0.1351853E+00
         21   -1    0    0  504  502  0.00000000000E+00  0.00000000000E+00  0.90605665049E+03  0.90605665049E+03  0.00000000000E+00 0.  1.
          2   -1    0    0  503    0 -0.00000000000E+00 -0.00000000000E+00 -0.52215460148E+03  0.52215460148E+03  0.00000000000E+00 0.  1.
         21    1    1    2  503  505  0.20189493168E+02  0.30274092646E+02 -0.12976668172E+02  0.38633278877E+02  0.00000000000E+00 0. -1.
         21    1    1    2  504  501  0.37878929705E+02 -0.38965983010E+02  0.71544858380E+03  0.71750946837E+03  0.00000000000E+00 0.  1.
         21    1    1    2  505  502  0.32563060126E+02  0.61403979931E+02  0.16406327886E+03  0.17817845298E+03  0.00000000000E+00 0. -1.
          2    1    1    2  501    0 -0.90631482999E+02 -0.52712089567E+02 -0.48263314547E+03  0.49389005174E+03  0.00000000000E+00 0.  1.
<scales pt_clust_3="36.38868" pt_clust_4="54.32720" pt_clust_5="72.48132" pt_clust_6="14000.00000"></scales>
<clustering>
<clus scale="   36.389">  2  3  1 -1</clus>
<clus scale="   54.327">  1  4  2 -1</clus>
<clus scale="   72.481">  1  5  2 -1</clus>
<clus scale="   54.327">  1  3  2 -1</clus>
</clustering>
</event>
<event>
 6    0  0.5775861E+002  0.1948364E+03  0.7546771E-02  0.1154170E+00
         21   -1    0    0  504  502  0.00000000000E+00  0.00000000000E+00  0.35356648264E+03  0.35356648264E+03  0.00000000000E+00 0. -1.
          1   -1    0    0  503    0 -0.00000000000E+00 -0.00000000000E+00 -0.12839277382E+04  0.12839277382E+04  0.00000000000E+00 0.  1.
         21    1    1    2  503  502  0.71722728796E+02  0.17199909362E+03  0.63291084649E+02  0.19680853495E+03  0.00000000000E+00 0.  1.
         21    1    1    2  504  505 -0.30335154788E+02 -0.17138971749E+01  0.21467952936E+03  0.21681895532E+03  0.00000000000E+00 0. -1.
         21    1    1    2  505  501 -0.39628048723E+02 -0.10763739849E+03 -0.51053721734E+03  0.52326326270E+03  0.00000000000E+00 0.  1.
          1    1    1    2  501    0 -0.17595252843E+01 -0.62647797950E+02 -0.69779465219E+03  0.70060346783E+03  0.00000000000E+00 0.  1.
<scales pt_clust_3="175.74792" pt_clust_4="30.38353" pt_clust_5="62.03126" pt_clust_6="62.03126"></scales>
<clustering>
<clus scale="   30.384">  1  4  2 -1</clus>
<clus scale="   62.031">  5  6 -1 -1</clus>
<clus scale="  175.748">  1  3  2 -1</clus>
<clus scale="   30.384">  1  3  2 -1</clus>
</clustering>
</event>
<event>
 6    0  0.5775861E+002  0.7179035E+02  0.7546771E-02  0.1354109E+00
         21   -1    0    0  505  502  0.00000000000E+00  0.00000000000E+00  0.38513934655E+02  0.38513934655E+02  0.00000000000E+00 0.  1.
          1   -1    0    0  504    0 -0.00000000000E+00 -0.00000000000E+00 -0.13346155350E+04  0.13346155350E+04  0.00000000000E+00 0.  1.
         21    1    1    2  503  501  0.23462556230E+02 -0.10116490062E+03 -0.89894164226E+02  0.13735279183E+03  0.00000000000E+00 0.  1.
         21    1    1    2  504  502  0.24736944724E+01  0.87464700740E+02 -0.41118128408E+03  0.42038820323E+03  0.00000000000E+00 0.  1.
         21    1    1    2  505  503 -0.38640507041E+02  0.44101604180E+02 -0.77876232088E+02  0.97482038345E+02  0.00000000000E+00 0.  1.
          1    1    1    2  501    0  0.12704256339E+02 -0.30401404299E+02 -0.71714992000E+03  0.71790643629E+03  0.00000000000E+00 0.  1.
<scales pt_clust_3="71.79035" pt_clust_4="14000.00000" pt_clust_5="54.21675" pt_clust_6="32.94910"></scales>
<clustering>
<clus scale="   32.949">  2  6  1 -1</clus>
<clus scale="   54.217">  1  5  2 -1</clus>
<clus scale="   71.790">  1  3  2 -1</clus>
<clus scale="   54.217">  1  3  2 -1</clus>
</clustering>
</event>
<event>
 6    0  0.5775861E+002  0.8286611E+02  0.7546771E-02  0.1321109E+00
          1   -1    0    0  503    0 -0.00000000000E+00  0.00000000000E+00  0.10036985324E+04  0.10036985324E+04  0.00000000000E+00 0. -1.
         21   -1    0    0  505  502  0.00000000000E+00 -0.00000000000E+00 -0.38238979844E+03  0.38238979844E+03  0.00000000000E+00 0. -1.
         21    1    1    2  503  504  0.49252489724E+02  0.17179718543E+02  0.86950664191E+02  0.10139708318E+03  0.00000000000E+00 0. -1.
         21    1    1    2  504  502  0.41309711721E+02 -0.40780445855E+02 -0.94833729138E+02  0.11118890785E+03  0.00000000000E+00 0.  1.
         21    1    1    2  505  501 -0.12885569719E+03  0.45449876978E+02 -0.25442129702E+03  0.28879002474E+03  0.00000000000E+00 0. -1.
          1    1    1    2  501    0  0.38293495741E+02 -0.21849149666E+02  0.88361309591E+03  0.88471231506E+03  0.00000000000E+00 0. -1.
<scales pt_clust_3="82.86611" pt_clust_4="60.96707" pt_clust_5="14000.00000" pt_clust_6="44.08829"></scales>
<clustering>
<clus scale="   44.088">  1  6  2 -1</clus>
<clus scale="   60.967">  2  4  1 -1</clus>
<clus scale="   82.866">  1  3  2 -1</clus>
<clus scale="   60.967">  2  3  1 -1</clus>
</clustering>
</event>
<event>
 6    0  0.5775861E+002  0.1533714E+03  0.7546771E-02  0.1196390E+00
          2   -1    0    0  504    0 -0.00000000000E+00  0.00000000000E+00  0.50213911253E+04  0.50213911253E+04  0.00000000000E+00 0.  1.
         21   -1    0    0  505  502  0.00000000000E+00 -0.00000000000E+00 -0.34867951307E+02  0.34867951307E+02  0.00000000000E+00 0.  1.
         21    1    1    2  503  502  0.34628719660E+02  0.51125047880E+00  0.97991601680E+02  0.10393153324E+03  0.00000000000E+00 0.  1.
         21    1    1    2  504  503 -0.16124480092E+03  0.11921713727E+03  0.27532481370E+04  0.27605412359E+04  0.00000000000E+00 0.  1.
         21    1    1    2  505  501  0.48166539160E+02 -0.15820762184E+02 -0.18100688238E+01  0.50730546615E+02  0.00000000000E+00 0.  1.
          2    1    1    2  501    0  0.78449542100E+02 -0.10390762557E+03  0.21370935042E+04  0.21410557608E+04  0.00000000000E+00 0.  1.
<scales pt_clust_3="34.63249" pt_clust_4="14000.00000" pt_clust_5="78.21677" pt_clust_6="153.37143"></scales>
<clustering>
<clus scale="   34.632">  2  3  1 -1</clus>
<clus scale="   78.217">  2  5  1 -1</clus>
<clus scale="  153.371">  1  6  2 -1</clus>
<clus scale="   34.632">  2  3  1 -1</clus>
</clustering>
</event>
<event>
 6    0  0.5775861E+002  0.2461282E+03  0.7546771E-02  0.1115776E+00
         21   -1    0    0  504  502  0.00000000000E+00  0.00000000000E+00  0.30834538721E+04  0.30834538721E+04  0.00000000000E+00 0.  1.
          2   -1    0    0  503    0 -0.00000000000E+00 -0.00000000000E+00 -0.64978263031E+03  0.64978263031E+03  0.00000000000E+00 0.  1.
         21    1    1    2  503  505 -0.15930173950E+03 -0.17011729698E+03  0.26528301892E+03  0.35311757117E+03  0.00000000000E+00 0.  1.
         21    1    1    2  504  501  0.14406123498E+03  0.20196310598E+03 -0.28810090493E+03  0.38019056672E+03  0.00000000000E+00 0.  1.
         21    1    1    2  505  502 -0.36651250463E+02  0.14897567118E+02  0.27235748995E+04  0.27238622367E+04  0.00000000000E+00 0.  1.
          2    1    1    2  501    0  0.51891754988E+02 -0.46743376123E+02 -0.26708577170E+03  0.27606612775E+03  0.00000000000E+00 0.  1.
<scales pt_clust_3="246.12821" pt_clust_4="14000.00000" pt_clust_5="39.56326" pt_clust_6="69.37636"></scales>
<clustering>
<clus scale="   39.563">  1  5  2 -1</clus>
<clus scale="   69.376">  2  6  1 -1</clus>
<clus scale="  246.128">  1  3  2 -1</clus>
<clus scale="   39.563">  1  3  2 -1</clus>
</clustering>
</event>
<event>
 6    0  0.5775861E+002  0.9451957E+02  0.7546771E-02  0.1292262E+00
         21   -1    0    0  503  502  0.00000000000E+00  0.00000000000E+00  0.32155984622E+03  0.32155984622E+03  0.00000000000E+00 0.  1.
         -3   -1    0    0    0  501 -0.00000000000E+00 -0.00000000000E+00 -0.23418512158E+03  0.23418512158E+03  0.00000000000E+00 0.  1.
         21    1    1    2  503  504 -0.18522332066E+02  0.65481355367E+02  0.65581620151E+02  0.94508378398E+02  0.00000000000E+00 0.  1.
         21    1    1    2  504  501  0.38248468342E+02  0.32359263040E+02 -0.16595778591E+02  0.52777714066E+02  0.00000000000E+00 0. -1.
         21    1    1    2  505  502 -0.80693314616E+02 -0.85893242515E+02  0.20176861434E+03  0.23366564545E+03  0.00000000000E+00 0.  1.
         -3    1    1    2    0  505  0.60967178339E+02 -0.11947375893E+02 -0.16337973126E+03  0.17479322988E+03  0.00000000000E+00 0.  1.
<scales pt_clust_3="69.63184" pt_clust_4="50.10057" pt_clust_5="94.51957" pt_clust_6="14000.00000"></scales>
<clustering>
<clus scale="   50.101">  2  4  1 -1</clus>
<clus scale="   69.632">  1  3  2 -1</clus>
<clus scale="   94.520">  1  5  2 -1</clus>
<clus scale="   69.632">  1  3  2 -1</clus>
</clustering>
</event>
<event>
 6    0  0.5775861E+002  0.9845458E+02  0.7546771E-02  0.1283580E+00
         21   -1    0    0  503  502  0.00000000000E+00  0.00000000000E+00  0.28821992080E+02  0.28821992080E+02  0.00000000000E+00 0. -1.
          2   -1    0    0  505    0 -0.00000000000E+00 -0.00000000000E+00 -0.42198764214E+04  0.42198764214E+04  0.00000000000E+00 0.  1.
         21    1    1    2  503  501 -0.46189945495E+02 -0.64842901815E+02 -0.12967034797E+03  0.15215949567E+03  0.00000000000E+00 0. -1.
         21    1    1    2  504  502  0.98042833426E+01 -0.39821970775E+02 -0.17869836379E+02  0.44735269983E+02  0.00000000000E+00 0. -1.
         21    1    1    2  505  504 -0.63950654693E+02  0.89291059241E+02 -0.90377647713E+03  0.91042545006E+03  0.00000000000E+00 0. -1.
          2    1    1    2  501    0  0.10033631685E+03  0.15373813349E+02 -0.31397377678E+04  0.31413781978E+04  0.00000000000E+00 0.  1.
<scales pt_clust_3="98.45458" pt_clust_4="41.01114" pt_clust_5="101.65583" pt_clust_6="14000.00000"></scales>
<clustering>
<clus scale="   41.011">  1  4  2 -1</clus>
<clus scale="  101.656">  1  5  2 -1</clus>
<clus scale="   98.455">  1  3  2 -1</clus>
<clus scale="   41.011">  1  3  2 -1</clus>
</clustering>
</event>
<event>
 6    0  0.5775861E+002  0.7414427E+02  0.7546771E-02  0.1346542E+00
         21   -1    0    0  501  502  0.00000000000E+00  0.00000000000E+00  0.14664578809E+04  0.14664578809E+04  0.00000000000E+00 0. -1.
         -1   -1    0    0    0  501 -0.00000000000E+00 -0.00000000000E+00 -0.40789192074E+02  0.40789192074E+02  0.00000000000E+00 0.  1.
         21    1    1    2  503  502 -0.58760541317E+02 -0.15390441828E+02  0.51565776179E+03  0.51922306788E+03  0.00000000000E+00 0. -1.
         21    1    1    2  504  503  0.93431088057E+02  0.28495675587E+02  0.76011763464E+03  0.76636818191E+03  0.00000000000E+00 0. -1.
         21    1    1    2  505  504 -0.65396165695E+02 -0.71752668738E+01  0.17146197755E+03  0.18365008219E+03  0.00000000000E+00 0. -1.
         -1    1    1    2    0  505  0.30725618955E+02 -0.59299668851E+01 -0.21568685180E+02  0.38005740985E+02  0.00000000000E+00 0.  1.
<scales pt_clust_3="14000.00000" pt_clust_4="74.14427" pt_clust_5="49.49497" pt_clust_6="31.29262"></scales>
<clustering>
<clus scale="   31.293">  2  6  1 -1</clus>
<clus scale="   49.495">  2  5  1 -1</clus>
<clus scale="   74.144">  2  4  1 -1</clus>
<clus scale="   74.144">  1  3  2 -1</clus>
</clustering>
</event>
<event>
 6    0  0.5775861E+002  0.9049632E+02  0.7546771E-02  0.1301654E+00
          1   -1    0    0  504    0 -0.00000000000E+00  0.00000000000E+00  0.10541403641E+04  0.10541403641E+04  0.00000000000E+00 0.  1.
         21   -1    0    0  505  502  0.00000000000E+00 -0.00000000000E+00 -0.76381224611E+02  0.76381224611E+02  0.00000000000E+00 0.  1.
         21    1    1    2  503  502 -0.55325372081E+01 -0.70572359847E+02  0.43059300011E+02  0.82856322992E+02  0.00000000000E+00 0.  1.
         21    1    1    2  504  503  0.18067999339E+02  0.11286865619E+03  0.97276503447E+02  0.15009498417E+03  0.00000000000E+00 0. -1.
         21    1    1    2  505  501 -0.79726216092E+01  0.46053147236E+02 -0.80970197937E+01  0.47434341940E+02  0.00000000000E+00 0. -1.
          1    1    1    2  501    0 -0.45628405219E+01 -0.88349443584E+02  0.84552035583E+03  0.85013593961E+03  0.00000000000E+00 0.  1.
<scales pt_clust_3="52.46520" pt_clust_4="90.49632" pt_clust_5="46.73815" pt_clust_6="14000.00000"></scales>
<clustering>
<clus scale="   46.738">  2  5  1 -1</clus>
<clus scale="   52.465">  2  3  1 -1</clus>
<clus scale="   90.496">  2  4  1 -1</clus>
<clus scale="   46.738">  2  3  1 -1</clus>
</clustering>
</event>
<event>
 6    0  0.5775861E+002  0.1244269E+03  0.7546771E-02  0.1235968E+00
          1   -1    0    0  505    0 -0.00000000000E+00  0.00000000000E+00  0.48543454041E+03  0.48543454041E+03  0.00000000000E+00 0.  1.
         21   -1    0    0  504  502  0.00000000000E+00 -0.00000000000E+00 -0.35541564889E+03  0.35541564889E+03  0.00000000000E+00 0.  1.
         21    1    1    2  503  502 -0.32857033421E+02  0.86586487230E+01 -0.54445359243E+02  0.64178298404E+02  0.00000000000E+00 0.  1.
         21    1    1    2  504  501 -0.19065684473E+02 -0.61489843916E+02 -0.23205662166E+03  0.24082104743E+03  0.00000000000E+00 0.  1.
         21    1    1    2  505  503 -0.77138307614E+01 -0.58944354444E+02 -0.33569359918E+02  0.68270359829E+02  0.00000000000E+00 0.  1.
          1    1    1    2  501    0  0.59636548655E+02  0.11177554964E+03  0.45009023234E+03  0.46758048364E+03  0.00000000000E+00 0.  1.
<scales pt_clust_3="33.97877" pt_clust_4="124.42689" pt_clust_5="58.98914" pt_clust_6="14000.00000"></scales>
<clustering>
<clus scale="   33.979">  2  3  1 -1</clus>
<clus scale="   58.989">  2  5  1 -1</clus>
<clus scale="  124.427">  2  4  1 -1</clus>
<clus scale="   33.979">  2  3  1 -1</clus>
</clustering>
</event>
<event>
 6    0  0.5775861E+002  0.1047532E+03  0.7546771E-02  0.1270607E+00
          2   -1    0    0  504    0 -0.00000000000E+00  0.00000000000E+00  0.17984322413E+04  0.17984322413E+04  0.00000000000E+00 0. -1.
         21   -1    0    0  505  502  0.00000000000E+00 -0.00000000000E+00 -0.17988888766E+03  0.17988888766E+03  0.00000000000E+00 0. -1.
         21    1    1    2  503  501  0.24501280291E+02  0.24487587328E+02  0.98015919786E+02  0.10395708346E+03  0.00000000000E+00 0.  1.
         21    1    1    2  504  502  0.43645944876E+02  0.45784596080E+02  0.24600355323E+02  0.67870282336E+02  0.00000000000E+00 0.  1.
         21    1    1    2  505  503 -0.94655888250E+02 -0.87364722010E+02 -0.12839087829E+03  0.18186959465E+03  0.00000000000E+00 0. -1.
          2    1    1    2  501    0  0.26508663083E+02  0.17092538602E+02  0.16243179569E+04  0.16246241686E+04  0.00000000000E+00 0. -1.
<scales pt_clust_3="52.68064" pt_clust_4="14000.00000" pt_clust_5="104.75324" pt_clust_6="31.54147"></scales>
<clustering>
<clus scale="   31.541">  1  6  2 -1</clus>
<clus scale="   52.681">  1  3  2 -1</clus>
<clus scale="  104.753">  2  5  1 -1</clus>
<clus scale="  104.753">  2  3  1 -1</clus>
</clustering>
</event>
<event>
 6    0  0.5775861E+002  0.4362947E+03  0.7546771E-02  0.1031890E+00
         21   -1    0    0  505  502  0.00000000000E+00  0.00000000000E+00  0.40698168284E+03  0.40698168284E+03  0.00000000000E+00 0.  1.
          1   -1    0    0  503    0 -0.00000000000E+00 -0.00000000000E+00 -0.26095127050E+04  0.26095127050E+04  0.00000000000E+00 0. -1.
         21    1    1    2  503  504 -0.16611690135E+03  0.45851607515E+03 -0.12219404154E+04  0.13156634049E+04  0.00000000000E+00 0. -1.
         21    1    1    2  504  502  0.14935021316E+02 -0.67694640475E+02  0.28514404878E+02  0.74957924839E+02  0.00000000000E+00 0.  1.
         21    1    1    2  505  501  0.35803874006E+02 -0.49031265069E+01  0.27639348081E+03  0.27874596729E+03  0.00000000000E+00 0.  1.
          1    1    1    2  501    0  0.11537800603E+03 -0.38591830817E+03 -0.12854984924E+04  0.13471270908E+04  0.00000000000E+00 0. -1.
<scales pt_clust_3="14000.00000" pt_clust_4="75.54651" pt_clust_5="36.13804" pt_clust_6="436.29473"></scales>
<clustering>
<clus scale="   36.138">  1  5  2 -1</clus>
<clus scale="   75.547">  1  4  2 -1</clus>
<clus scale="  436.295">  2  6  1 -1</clus>
<clus scale="   36.138">  1  3  2 -1</clus>
</clustering>
</event>
<event>
 6    0  0.5775861E+002  0.9077085E+02  0.7546771E-02  0.1300996E+00
         21   -1    0    0  505  502  0.00000000000E+00  0.00000000000E+00  0.50583869632E+03  0.50583869632E+03  0.00000000000E+00 0. -1.
          2   -1    0    0  503    0 -0.00000000000E+00 -0.00000000000E+00 -0.48108032744E+03  0.48108032744E+03  0.00000000000E+00 0. -1.
         21    1    1    2  503  504  0.12582983118E+03  0.26079528927E+02 -0.36868976603E+02  0.13368847998E+03  0.00000000000E+00 0. -1.
         21    1    1    2  504  502 -0.88872954760E+02  0.47176782101E+01  0.43815663400E+03  0.44710389676E+03  0.00000000000E+00 0. -1.
         21    1    1    2  505  501 -0.68635750619E+02 -0.69034524898E+02 -0.19528916956E+03  0.21820745093E+03  0.00000000000E+00 0. -1.
          2    1    1    2  501    0  0.31678874198E+02  0.38237317761E+02 -0.18124011896E+03  0.18791919609E+03  0.00000000000E+00 0. -1.
<scales pt_clust_3="90.77085" pt_clust_4="14000.00000" pt_clust_5="62.94384" pt_clust_6="49.65525"></scales>
<clustering>
<clus scale="   49.655">  2  6  1 -1</clus>
<clus scale="   62.944">  2  5  1 -1</clus>
<clus scale="   90.771">  2  3  1 -1</clus>
<clus scale="   90.771">  1  3  2 -1</clus>
</clustering>
</event>
<event>
 6    0  0.5775861E+002  0.1261193E+03  0.7546771E-02  0.1233330E+00
          2   -1    0    0  505    0 -0.00000000000E+00  0.00000000000E+00  0.23424093894E+04  0.23424093894E+04  0.00000000000E+00 0. -1.
         21   -1    0    0  501  502  0.00000000000E+00 -0.00000000000E+00 -0.10732712720E+03  0.10732712720E+03  0.00000000000E+00 0.  1.
         21    1    1    2  503  504 -0.28260585532E+02  0.72830510954E+02  0.71495288113E+02  0.10589863192E+03  0.00000000000E+00 0.  1.
         21    1    1    2  504  502  0.33739870667E+01  0.61665820868E+02 -0.69556611387E+02  0.93017092191E+02  0.00000000000E+00 0.  1.
         21    1    1    2  505  503  0.61751955400E+02 -0.16647328545E+03  0.93202107301E+03  0.94878339957E+03  0.00000000000E+00 0. -1.
          2    1    1    2  501    0 -0.36865356935E+02  0.31976953625E+02  0.13011225125E+04  0.13020373930E+04  0.00000000000E+00 0. -1.
<scales pt_clust_3="126.11931" pt_clust_4="62.09672" pt_clust_5="14000.00000" pt_clust_6="48.80144"></scales>
<clustering>
<clus scale="   48.801">  1  6  2 -1</clus>
<clus scale="   62.097">  2  4  1 -1</clus>
<clus scale="  126.119">  2  3  1 -1</clus>
<clus scale="   62.097">  2  3  1 -1</clus>
</clustering>
</event>
<event>
 6    0  0.5775861E+002  0.1021243E+03  0.7546771E-02  0.1275891E+00
          1   -1    0    0  503    0 -0.00000000000E+00  0.00000000000E+00  0.34628125002E+04  0.34628125002E+04  0.00000000000E+00 0.  1.
         21   -1    0    0  505  502  0.00000000000E+00 -0.00000000000E+00 -0.34605690905E+02  0.34605690905E+02  0.00000000000E+00 0. -1.
         21    1    1    2  503  504 -0.11101053726E+02  0.66106863982E+02  0.28045286792E+03  0.28835249606E+03  0.00000000000E+00 0. -1.
         21    1    1    2  504  502 -0.26258786312E+02  0.58540143055E+02  0.14904481263E+03  0.16226776753E+03  0.00000000000E+00 0. -1.
         21    1    1    2  505  501  0.45831669783E+02 -0.33237698981E+02  0.10994049504E+02  0.57672833407E+02  0.00000000000E+00 0. -1.
          1    1    1    2  501    0 -0.84718297454E+01 -0.91409308055E+02  0.29877150792E+04  0.29891250941E+04  0.00000000000E+00 0.  1.
<scales pt_clust_3="39.83324" pt_clust_4="39.83324" pt_clust_5="56.61525" pt_clust_6="93.65701"></scales>
<clustering>
<clus scale="   39.833">  3  4 -1 -1</clus>
<clus scale="   56.615">  2  5  1 -1</clus>
<clus scale="   93.657">  1  6  2 -1</clus>
<clus scale="   56.615">  2  3  1 -1</clus>
</clustering>
</event>
<event>
 6    0  0.5775861E+002  0.1019871E+03  0.7546771E-02  0.1276172E+00
          1   -1    0    0  505    0 -0.00000000000E+00  0.00000000000E+00  0.34167643105E+03  0.34167643105E+03  0.00000000000E+00 0. -1.
         21   -1    0    0  503  502  0.00000000000E+00 -0.00000000000E+00 -0.56656204680E+03  0.56656204680E+03  0.00000000000E+00 0. -1.
         21    1    1    2  503  501 -0.21251700869E+02  0.59722077494E+02 -0.39416671228E+03  0.39923145968E+03  0.00000000000E+00 0. -1.
         21    1    1    2  504  502  0.71517070084E+02  0.38106372647E+02 -0.14554803344E+03  0.16658636495E+03  0.00000000000E+00 0. -1.
         21    1    1    2  505  504 -0.54409473172E+02 -0.61917732970E+02  0.12883768757E+03  0.15294883513E+03  0.00000000000E+00 0.  1.
          1    1    1    2  501    0  0.41441039578E+01 -0.35910717171E+02  0.18599144239E+03  0.18947181808E+03  0.00000000000E+00 0. -1.
<scales pt_clust_3="62.81129" pt_clust_4="101.98711" pt_clust_5="14000.00000" pt_clust_6="36.14904"></scales>
<clustering>
<clus scale="   36.149">  1  6  2 -1</clus>
<clus scale="   62.811">  2  3  1 -1</clus>
<clus scale="  101.987">  2  4  1 -1</clus>
<clus scale="   62.811">  2  3  1 -1</clus>
</clustering>
</event>
<event>
 6    0  0.5775861E+002  0.7483397E+02  0.7546771E-02  0.1344386E+00
          2   -1    0    0  503    0 -0.00000000000E+00  0.00000000000E+00  0.45207525745E+04  0.45207525745E+04  0.00000000000E+00 0.  1.
         21   -1    0    0  504  502  0.00000000000E+00 -0.00000000000E+00 -0.38732307659E+02  0.38732307659E+02  0.00000000000E+00 0. -1.
         21    1    1    2  503  505  0.57782059840E+02  0.43739620197E+01  0.12250400660E+04  0.12264098260E+04  0.00000000000E+00 0.  1.
         21    1    1    2  504  501  0.52148752855E+02 -0.21162700343E+02 -0.76119341625E+01  0.56791670620E+02  0.00000000000E+00 0. -1.
         21    1    1    2  505  502 -0.22169173186E+02  0.48231280537E+02  0.13156958711E+03  0.14187418692E+03  0.00000000000E+00 0. -1.
          2    1    1    2  501    0 -0.87761639508E+02 -0.31442542214E+02  0.31330225479E+04  0.31344091986E+04  0.00000000000E+00 0.  1.
<scales pt_clust_3="74.83397" pt_clust_4="39.79471" pt_clust_5="53.08228" pt_clust_6="14000.00000"></scales>
<clustering>
<clus scale="   53.082">  2  5  1 -1</clus>
<clus scale="   39.795">  2  4  1 -1</clus>
<clus scale="   74.834">  1  3  2 -1</clus>
<clus scale="   53.082">  2  3  1 -1</clus>
</clustering>
</event>
<event>
 6    0  0.5775861E+002  0.7257771E+02  0.7546771E-02  0.1351540E+00
          3   -1    0    0  505    0 -0.00000000000E+00  0.00000000000E+00  0.26950958611E+03  0.26950958611E+03  0.00000000000E+00 0. -1.
         21   -1    0    0  503  502  0.00000000000E+00 -0.00000000000E+00 -0.33725053631E+03  0.33725053631E+03  0.00000000000E+00 0.  1.
         21    1    1    2  503  501 -0.46675681416E+01  0.66101628084E+02 -0.10345913438E+03  0.12286172681E+03  0.00000000000E+00 0. -1.
         21    1    1    2  504  502 -0.48559751737E+02 -0.74753482514E+02 -0.15486714015E+03  0.17868957366E+03  0.00000000000E+00 0.  1.
         21    1    1    2  505  504  0.70208172689E+02 -0.39334553224E+02 -0.24547021573E+02  0.84136501340E+02  0.00000000000E+00 0. -1.
          3    1    1    2  501    0 -0.16980852810E+02  0.47986407654E+02  0.21513234591E+03  0.22107232061E+03  0.00000000000E+00 0. -1.
<scales pt_clust_3="72.57771" pt_clust_4="14000.00000" pt_clust_5="61.45621" pt_clust_6="50.90231"></scales>
<clustering>
<clus scale="   50.902">  1  6  2 -1</clus>
<clus scale="   61.456">  1  5  2 -1</clus>
<clus scale="   72.578">  2  3  1 -1</clus>
<clus scale="   72.578">  2  3  1 -1</clus>
</clustering>
</event>
<event>
 6    0  0.5775861E+002  0.7872374E+02  0.7546771E-02  0.1332713E+00
         21   -1    0    0  504  502  0.00000000000E+00  0.00000000000E+00  0.56061495748E+03  0.56061495748E+03  0.00000000000E+00 0. -1.
          1   -1    0    0  502    0 -0.00000000000E+00 -0.00000000000E+00 -0.14262393362E+03  0.14262393362E+03  0.00000000000E+00 0. -1.
         21    1    1    2  503  501  0.72254624759E+02 -0.95299482863E+02  0.24773020417E+03  0.27508721579E+03  0.00000000000E+00 0. -1.
         21    1    1    2  504  505 -0.18885621498E+02  0.24474462074E+02  0.28212947815E+02  0.41852555688E+02  0.00000000000E+00 0.  1.
         21    1    1    2  505  503 -0.52129844759E+02  0.13317154162E+02  0.25442727234E+03  0.26005404096E+03  0.00000000000E+00 0.  1.
          1    1    1    2  501    0 -0.12391585025E+01  0.57507866627E+02 -0.11237940046E+03  0.12624507866E+03  0.00000000000E+00 0. -1.
<scales pt_clust_3="14000.00000" pt_clust_4="30.91385" pt_clust_5="78.72374" pt_clust_6="57.84985"></scales>
<clustering>
<clus scale="   30.914">  1  4  2 -1</clus>
<clus scale="   57.850">  2  6  1 -1</clus>
<clus scale="   78.724">  1  5  2 -1</clus>
<clus scale="   30.914">  1  3  2 -1</clus>
</clustering>
</event>
<event>
 6    0  0.5775861E+002  0.1047685E+03  0.7546771E-02  0.1270576E+00
          2   -1    0    0  504    0 -0.00000000000E+00  0.00000000000E+00  0.87971034802E+03  0.87971034802E+03  0.00000000000E+00 0.  1.
         21   -1    0    0  503  502  0.00000000000E+00 -0.00000000000E+00 -0.30055945138E+03  0.30055945138E+03  0.00000000000E+00 0.  1.
         21    1    1    2  503  505 -0.77776787214E+02 -0.58936031240E+02 -0.24461518782E+03  0.26336149020E+03  0.00000000000E+00 0.  1.
         21    1    1    2  504  502  0.43178662089E+01 -0.34563720362E+02 -0.14532509031E+02  0.37742397282E+02  0.00000000000E+00 0.  1.
         21    1    1    2  505  501  0.51157991059E+02  0.51641036028E+02  0.47252181138E+02  0.86698934674E+02  0.00000000000E+00 0.  1.
          2    1    1    2  501    0  0.22300929946E+02  0.41858715574E+02  0.79104641235E+03  0.79246697725E+03  0.00000000000E+00 0.  1.
<scales pt_clust_3="104.76852" pt_clust_4="34.83238" pt_clust_5="14000.00000" pt_clust_6="47.35505"></scales>
<clustering>
<clus scale="   34.832">  2  4  1 -1</clus>
<clus scale="   47.355">  1  6  2 -1</clus>
<clus scale="  104.769">  2  3  1 -1</clus>
<clus scale="   34.832">  2  3  1 -1</clus>
</clustering>
</event>
<event>
 6    0  0.5775861E+002  0.1247511E+03  0.7546771E-02  0.1235459E+00
         21   -1    0    0  503  502  0.00000000000E+00  0.00000000000E+00  0.78685013643E+02  0.78685013643E+02  0.00000000000E+00 0. -1.
          2   -1    0    0  505    0 -0.00000000000E+00 -0.00000000000E+00 -0.15362189510E+04  0.15362189510E+04  0.00000000000E+00 0. -1.
         21    1    1    2  503  504  0.48210859579E+02  0.20118474989E+01  0.18693877978E+02  0.51747421052E+02  0.00000000000E+00 0. -1.
         21    1    1    2  504  501  0.57530390702E+02 -0.17687258755E+02 -0.30733862716E+02  0.67580731677E+02  0.00000000000E+00 0. -1.
         21    1    1    2  505  502 -0.12118649176E+03  0.84789029035E+02 -0.20353057421E+03  0.25159499174E+03  0.00000000000E+00 0. -1.
          2    1    1    2  501    0  0.15445241483E+02 -0.69113617778E+02 -0.12419633784E+04  0.12439808201E+04  0.00000000000E+00 0. -1.
<scales pt_clust_3="46.24278" pt_clust_4="46.24278" pt_clust_5="113.55845" pt_clust_6="70.81841"></scales>
<clustering>
<clus scale="   46.243">  3  4 -1 -1</clus>
<clus scale="   70.818">  2  6  1 -1</clus>
<clus scale="  113.558">  2  5  1 -1</clus>
<clus scale="  124.751">  1  3  2 -1</clus>
</clustering>
</event>
<event>
 6    0  0.5775861E+002  0.1639452E+03  0.7546771E-02  0.1184313E+00
         21   -1    0    0  503  502  0.00000000000E+00  0.00000000000E+00  0.33131731049E+03  0.33131731049E+03  0.00000000000E+00 0.  1.
          1   -1    0    0  505    0 -0.00000000000E+00 -0.00000000000E+00 -0.11800301042E+04  0.11800301042E+04  0.00000000000E+00 0. -1.
         21    1    1    2  503  501  0.10382584392E+02  0.32690727197E+02  0.17530842353E+03  0.17863237407E+03  0.00000000000E+00 0.  1.
         21    1    1    2  504  502 -0.23991042460E+02  0.13586279704E+03  0.44235275189E+02  0.14488281233E+03  0.00000000000E+00 0.  1.
         21    1    1    2  505  504 -0.87580162316E+02 -0.19657616936E+03 -0.14701350460E+03  0.26062510571E+03  0.00000000000E+00 0. -1.
          1    1    1    2  501    0  0.10118862038E+03  0.28022645127E+02 -0.92124298786E+03  0.92720712261E+03  0.00000000000E+00 0. -1.
<scales pt_clust_3="34.29988" pt_clust_4="163.94521" pt_clust_5="14000.00000" pt_clust_6="105.36052"></scales>
<clustering>
<clus scale="   34.300">  1  3  2 -1</clus>
<clus scale="  105.361">  2  6  1 -1</clus>
<clus scale="  163.945">  1  4  2 -1</clus>
<clus scale="   34.300">  1  3  2 -1</clus>
</clustering>
</event>
<event>
 6    0  0.5775861E+002  0.3184803E+03  0.7546771E-02  0.1076351E+00
         -4   -1    0    0    0  501 -0.00000000000E+00  0.00000000000E+00  0.23942745562E+04  0.23942745562E+04  0.00000000000E+00 0.  1.
         21   -1    0    0  503  502  0.00000000000E+00 -0.00000000000E+00 -0.78725474481E+02  0.78725474481E+02  0.00000000000E+00 0.  1.
         21    1    1    2  503  505 -0.38950848160E+02 -0.16009777095E+02  0.24030014294E+02  0.48486318916E+02  0.00000000000E+00 0.  1.
         21    1    1    2  504  502  0.21556718977E+03  0.24622995307E+03  0.78226163708E+03  0.84795735266E+03  0.00000000000E+00 0.  1.
         21    1    1    2  505  501 -0.19518666581E+03 -0.16030764902E+03  0.45978386501E+03  0.52459277480E+03  0.00000000000E+00 0.  1.
         -4    1    1    2    0  504  0.18570324197E+02 -0.69912526951E+02  0.10494735653E+04  0.10519635843E+04  0.00000000000E+00 0.  1.
<scales pt_clust_3="37.50290" pt_clust_4="304.94937" pt_clust_5="37.50290" pt_clust_6="72.33684"></scales>
<clustering>
<clus scale="   37.503">  3  5 -1 -1</clus>
<clus scale="   72.337">  1  6  2 -1</clus>
<clus scale="  304.949">  1  4  2 -1</clus>
<clus scale="  318.480">  2  3  1 -1</clus>
</clustering>
</event>
<event>
 6    0  0.5775861E+002  0.1955924E+03  0.7546771E-02  0.1153512E+00
         21   -1    0    0  504  502  0.00000000000E+00  0.00000000000E+00  0.13820893595E+03  0.13820893595E+03  0.00000000000E+00 0. -1.
         -2   -1    0    0    0  501 -0.00000000000E+00 -0.00000000000E+00 -0.79399885255E+03  0.79399885255E+03  0.00000000000E+00 0. -1.
         21    1    1    2  503  502  0.53012740516E+02  0.94687394714E+02  0.44231606043E+02  0.11718570027E+03  0.00000000000E+00 0. -1.
         21    1    1    2  504  501  0.41776683120E+02 -0.36958676914E+01 -0.81356057278E+01  0.42721642888E+02  0.00000000000E+00 0.  1.
         21    1    1    2  505  503  0.24672386706E+02  0.59105107002E+02 -0.11099536169E+02  0.65002615660E+02  0.00000000000E+00 0. -1.
         -2    1    1    2    0  505 -0.11946181034E+03 -0.15009663402E+03 -0.68078638074E+03  0.70729782969E+03  0.00000000000E+00 0. -1.
<scales pt_clust_3="37.69703" pt_clust_4="41.93985" pt_clust_5="37.69703" pt_clust_6="189.33740"></scales>
<clustering>
<clus scale="   37.697">  3  5 -1 -1</clus>
<clus scale="   41.940">  1  4  2 -1</clus>
<clus scale="  189.337">  2  6  1 -1</clus>
<clus scale="   41.940">  1  3  2 -1</clus>
</clustering>
</event>
<event>
 6    0  0.5775861E+002  0.7828873E+02  0.7546771E-02  0.1333979E+00
          2   -1    0    0  503    0 -0.00000000000E+00  0.00000000000E+00  0.50973358592E+03  0.50973358592E+03  0.00000000000E+00 0.  1.
         21   -1    0    0  505  502  0.00000000000E+00 -0.00000000000E+00 -0.30390977401E+03  0.30390977401E+03  0.00000000000E+00 0.  1.
         21    1    1    2  503  504  0.36201186089E+02  0.41346416297E+02 -0.90387902251E+02  0.10578291397E+03  0.00000000000E+00 0.  1.
         21    1    1    2  504  502  0.10176182071E+02  0.30243688162E+02 -0.18798483609E+03  0.19067389427E+03  0.00000000000E+00 0.  1.
         21    1    1    2  505  501  0.30133226049E+02 -0.86956063160E+02  0.16856553085E+03  0.19205131196E+03  0.00000000000E+00 0.  1.
          2    1    1    2  501    0 -0.76510594209E+02  0.15365958701E+02  0.31563101940E+03  0.32513523974E+03  0.00000000000E+00 0.  1.
<scales pt_clust_3="78.28873" pt_clust_4="31.90980" pt_clust_5="14000.00000" pt_clust_6="77.88261"></scales>
<clustering>
<clus scale="   31.910">  2  4  1 -1</clus>
<clus scale="   77.883">  1  6  2 -1</clus>
<clus scale="   78.289">  2  3  1 -1</clus>
<clus scale="   31.910">  2  3  1 -1</clus>
</clustering>
</event>
<event>
 6    0  0.5775861E+002  0.1418858E+03  0.7546771E-02  0.1210814E+00
         -3   -1    0    0    0  501 -0.00000000000E+00  0.00000000000E+00  0.19941877019E+04  0.19941877019E+04  0.00000000000E+00 0.  1.
         21   -1    0    0  505  502  0.00000000000E+00 -0.00000000000E+00 -0.24794781839E+03  0.24794781839E+03  0.00000000000E+00 0.  1.
         21    1    1    2  503  502  0.82338387444E+01 -0.29765951478E+02 -0.39922354365E+01  0.31140743595E+02  0.00000000000E+00 0. -1.
         21    1    1    2  504  501  0.70363004533E+02 -0.94142940450E+02  0.51467612722E+03  0.52792552654E+03  0.00000000000E+00 0.  1.
         21    1    1    2  505  504  0.45537716976E+02  0.23631695002E+02 -0.21638570970E+03  0.22238461286E+03  0.00000000000E+00 0.  1.
         -3    1    1    2    0  503 -0.12413456025E+03  0.10027719693E+03  0.14519417014E+04  0.14606846373E+04  0.00000000000E+00 0.  1.
<scales pt_clust_3="30.88378" pt_clust_4="141.88581" pt_clust_5="53.58626" pt_clust_6="14000.00000"></scales>
<clustering>
<clus scale="   30.884">  2  3  1 -1</clus>
<clus scale="   53.586">  2  5  1 -1</clus>
<clus scale="  141.886">  2  4  1 -1</clus>
<clus scale="   30.884">  2  3  1 -1</clus>
</clustering>
</event>
<event>
 6    0  0.5775861E+002  0.9952580E+02  0.7546771E-02  0.1281296E+00
         21   -1    0    0  503  502  0.00000000000E+00  0.00000000000E+00  0.32795607783E+02  0.32795607783E+02  0.00000000000E+00 0. -1.
          2   -1    0    0  505    0 -0.00000000000E+00 -0.00000000000E+00 -0.19042398654E+04  0.19042398654E+04  0.00000000000E+00 0.  1.
         21    1    1    2  503  501  0.19253975568E+02 -0.48517787536E+02 -0.34843830625E+02  0.62759730841E+02  0.00000000000E+00 0. -1.
         21    1    1    2  504  502  0.80437445625E+02  0.89711018265E+02 -0.24317666246E+03  0.27139111743E+03  0.00000000000E+00 0.  1.
         21    1    1    2  505  504 -0.38171771724E+02  0.13185723427E+02 -0.12143072400E+04  0.12149786091E+04  0.00000000000E+00 0. -1.
          2    1    1    2  501    0 -0.61519649468E+02 -0.54378954155E+02 -0.37911652454E+03  0.38790601581E+03  0.00000000000E+00 0.  1.
<scales pt_clust_3="50.38143" pt_clust_4="14000.00000" pt_clust_5="40.38499" pt_clust_6="99.52580"></scales>
<clustering>
<clus scale="   40.385">  2  5  1 -1</clus>
<clus scale="   50.381">  1  3  2 -1</clus>
<clus scale="   99.526">  2  6  1 -1</clus>
<clus scale="   50.381">  1  3  2 -1</clus>
</clustering>
</event>
<event>
 6    0  0.5775861E+002  0.7656532E+02  0.7546771E-02  0.1339091E+00
          1   -1    0    0  504    0 -0.00000000000E+00  0.00000000000E+00  0.23515287545E+04  0.23515287545E+04  0.00000000000E+00 0. -1.
         21   -1    0    0  505  502  0.00000000000E+00 -0.00000000000E+00 -0.20044624287E+03  0.20044624287E+03  0.00000000000E+00 0.  1.
         21    1    1    2  503  501 -0.42017273908E+02  0.57318672497E+02  0.45173466447E+03  0.45729103272E+03  0.00000000000E+00 0.  1.
         21    1    1    2  504  502  0.39671297372E+02 -0.70974626764E+02 -0.14375747648E+01  0.81322051749E+02  0.00000000000E+00 0. -1.
         21    1    1    2  505  503 -0.50730563518E+02 -0.84521747732E+01 -0.15159906477E+03  0.16008530779E+03  0.00000000000E+00 0.  1.
          1    1    1    2  501    0  0.53076540054E+02  0.22108129040E+02  0.18523844867E+04  0.18532766051E+04  0.00000000000E+00 0. -1.
<scales pt_clust_3="76.56532" pt_clust_4="14000.00000" pt_clust_5="51.42985" pt_clust_6="56.99615"></scales>
<clustering>
<clus scale="   51.430">  2  5  1 -1</clus>
<clus scale="   56.996">  1  6  2 -1</clus>
<clus scale="   76.565">  1  3  2 -1</clus>
<clus scale="   51.430">  2  3  1 -1</clus>
</clustering>
</event>
<event>
 6    0  0.5775861E+002  0.1311448E+03  0.7546771E-02  0.1225767E+00
         21   -1    0    0  503  502  0.00000000000E+00  0.00000000000E+00  0.24936953772E+03  0.24936953772E+03  0.00000000000E+00 0.  1.
          1   -1    0    0  504    0 -0.00000000000E+00 -0.00000000000E+00 -0.54858403788E+03  0.54858403788E+03  0.00000000000E+00 0. -1.
         21    1    1    2  503  501 -0.45507586351E+01 -0.34572680629E+02 -0.29027006807E+01  0.34991503558E+02  0.00000000000E+00 0.  1.
         21    1    1    2  504  505 -0.61051471043E+02 -0.41148456647E+02  0.57114465570E+02  0.93180146911E+02  0.00000000000E+00 0.  1.
         21    1    1    2  505  502 -0.45571575976E+02 -0.66508614880E+01  0.14519238501E+03  0.15232147308E+03  0.00000000000E+00 0.  1.
          1    1    1    2  501    0  0.11117380565E+03  0.82371998764E+02 -0.49861865007E+03  0.51746045205E+03  0.00000000000E+00 0. -1.
<scales pt_clust_3="34.87090" pt_clust_4="131.14483" pt_clust_5="56.32848" pt_clust_6="14000.00000"></scales>
<clustering>
<clus scale="   34.871">  1  3  2 -1</clus>
<clus scale="   56.328">  1  5  2 -1</clus>
<clus scale="  131.145">  1  4  2 -1</clus>
<clus scale="   34.871">  1  3  2 -1</clus>
</clustering>
</event>
<event>
 6    0  0.5775861E+002  0.8538188E+02  0.7546771E-02  0.1314437E+00
         -2   -1    0    0    0  501 -0.00000000000E+00  0.00000000000E+00  0.23615770712E+02  0.23615770712E+02  0.00000000000E+00 0. -1.
         21   -1    0    0  504  502  0.00000000000E+00 -0.00000000000E+00 -0.20940673557E+04  0.20940673557E+04  0.00000000000E+00 0. -1.
         21    1    1    2  503  505 -0.63250704377E+02  0.11014513555E+03 -0.11001948253E+04  0.11075022601E+04  0.00000000000E+00 0. -1.
         21    1    1    2  504  501  0.36434363111E+02 -0.48946277296E+02 -0.23398078728E+03  0.24180614072E+03  0.00000000000E+00 0. -1.
         21    1    1    2  505  502 -0.21169933616E+01 -0.48862875176E+02 -0.73528078149E+03  0.73690561801E+03  0.00000000000E+00 0. -1.
         -2    1    1    2    0  503  0.28933334627E+02 -0.12335983074E+02 -0.99519098330E+00  0.31469107647E+02  0.00000000000E+00 0. -1.
<scales pt_clust_3="14000.00000" pt_clust_4="85.38188" pt_clust_5="50.06372" pt_clust_6="31.45337"></scales>
<clustering>
<clus scale="   31.453">  1  6  2 -1</clus>
<clus scale="   50.064">  2  5  1 -1</clus>
<clus scale="   85.382">  1  4  2 -1</clus>
<clus scale="   50.064">  2  3  1 -1</clus>
</clustering>
</event>
<event>
 6    0  0.5775861E+002  0.1648822E+03  0.7546771E-02  0.1183293E+00
         21   -1    0    0  501  502  0.00000000000E+00  0.00000000000E+00  0.11119103583E+04  0.11119103583E+04  0.00000000000E+00 0. -1.
          3   -1    0    0  505    0 -0.00000000000E+00 -0.00000000000E+00 -0.23915475543E+03  0.23915475543E+03  0.00000000000E+00 0. -1.
         21    1    1    2  503  502 -0.32540485963E+02 -0.11669051018E+02  0.33701508737E+03  0.33878343982E+03  0.00000000000E+00 0.  1.
         21    1    1    2  504  503  0.25428441323E+02 -0.16271241438E+03  0.66505892352E+03  0.68514619401E+03  0.00000000000E+00 0. -1.
         21    1    1    2  505  504 -0.41969304577E+02  0.13155223375E+03  0.41607755269E+02  0.14421725982E+03  0.00000000000E+00 0. -1.
          3    1    1    2  501    0  0.49081349217E+02  0.42829231646E+02 -0.17092616331E+03  0.18291822006E+03  0.00000000000E+00 0. -1.
<scales pt_clust_3="34.56949" pt_clust_4="14000.00000" pt_clust_5="164.88217" pt_clust_6="64.89149"></scales>
<clustering>
<clus scale="   34.569">  1  3  2 -1</clus>
<clus scale="   64.891">  2  6  1 -1</clus>
<clus scale="  164.882">  2  5  1 -1</clus>
<clus scale="   34.569">  1  3  2 -1</clus>
</clustering>
</event>
<event>
 6    0  0.5775861E+002  0.1178285E+03  0.7546771E-02  0.1246723E+00
         21   -1    0    0  505  502  0.00000000000E+00  0.00000000000E+00  0.21513814276E+03  0.21513814276E+03  0.00000000000E+00 0. -1.
          2   -1    0    0  503    0 -0.00000000000E+00 -0.00000000000E+00 -0.61151636062E+03  0.61151636062E+03  0.00000000000E+00 0. -1.
         21    1    1    2  503  504 -0.17240746988E+02  0.30658516972E+02 -0.83522800698E+02  0.90626962081E+02  0.00000000000E+00 0. -1.
         21    1    1    2  504  502 -0.80168288075E+02 -0.18570666113E+02 -0.55256457218E+01  0.82476401554E+02  0.00000000000E+00 0.  1.
         21    1    1    2  505  501  0.14407738995E+03 -0.37556789071E+02  0.13922412241E+03  0.20384347662E+03  0.00000000000E+00 0. -1.
          2    1    1    2  501    0 -0.46668354892E+02  0.25468938212E+02 -0.44655389384E+03  0.44970766312E+03  0.00000000000E+00 0. -1.
<scales pt_clust_3="35.17368" pt_clust_4="117.82855" pt_clust_5="14000.00000" pt_clust_6="80.24604"></scales>
<clustering>
<clus scale="   35.174">  2  3  1 -1</clus>
<clus scale="   80.246">  2  6  1 -1</clus>
<clus scale="  117.829">  2  4  1 -1</clus>
<clus scale="  117.829">  1  3  2 -1</clus>
</clustering>
</event>
<event>
 6    0  0.5775861E+002  0.1614883E+03  0.7546771E-02  0.1187027E+00
         -2   -1    0    0    0  501 -0.00000000000E+00  0.00000000000E+00  0.17753481210E+03  0.17753481210E+03  0.00000000000E+00 0. -1.
         21   -1    0    0  504  502  0.00000000000E+00 -0.00000000000E+00 -0.15879365535E+04  0.15879365535E+04  0.00000000000E+00 0.  1.
         21    1    1    2  503  502  0.24483694355E+02  0.92445992221E+02 -0.37160879747E+02  0.10259943348E+03  0.00000000000E+00 0.  1.
         21    1    1    2  504  501 -0.11594796747E+03 -0.12855874980E+03 -0.14840987446E+04  0.14941620953E+04  0.00000000000E+00 0.  1.
         21    1    1    2  505  503  0.75074327731E+02 -0.79390817608E+01  0.45292122402E+02  0.88037265150E+02  0.00000000000E+00 0.  1.
         -2    1    1    2    0  505  0.16389945383E+02  0.44051839344E+02  0.65565760561E+02  0.80672571653E+02  0.00000000000E+00 0. -1.
<scales pt_clust_3="161.48825" pt_clust_4="14000.00000" pt_clust_5="87.88813" pt_clust_6="47.00207"></scales>
<clustering>
<clus scale="   47.002">  1  6  2 -1</clus>
<clus scale="   87.888">  1  5  2 -1</clus>
<clus scale="  161.488">  1  3  2 -1</clus>
<clus scale="  161.488">  2  3  1 -1</clus>
</clustering>
</event>
<event>
 6    0  0.5775861E+002  0.7053134E+02  0.7546771E-02  0.1358295E+00
          2   -1    0    0  503    0 -0.00000000000E+00  0.00000000000E+00  0.96368077568E+03  0.96368077568E+03  0.00000000000E+00 0. -1.
         21   -1    0    0  504  502  0.00000000000E+00 -0.00000000000E+00 -0.17457425478E+03  0.17457425478E+03  0.00000000000E+00 0.  1.
         21    1    1    2  503  502  0.79852773554E+02  0.87845322979E+02  0.17335491190E+03  0.21010757172E+03  0.00000000000E+00 0.  1.
         21    1    1    2  504  505 -0.69072440443E+02 -0.83890000419E+01 -0.13183401468E+03  0.14906906043E+03  0.00000000000E+00 0.  1.
         21    1    1    2  505  501  0.15399175738E+02 -0.60323454212E+02  0.47670506168E+02  0.78412568506E+02  0.00000000000E+00 0. -1.
          2    1    1    2  501    0 -0.26179508849E+02 -0.19132868725E+02  0.69991511751E+03  0.70066582981E+03  0.00000000000E+00 0. -1.
<scales pt_clust_3="70.53134" pt_clust_4="14000.00000" pt_clust_5="65.54231" pt_clust_6="32.42581"></scales>
<clustering>
<clus scale="   32.426">  1  6  2 -1</clus>
<clus scale="   65.542">  1  5  2 -1</clus>
<clus scale="   70.531">  1  3  2 -1</clus>
<clus scale="   70.531">  2  3  1 -1</clus>
</clustering>
</event>
<event>
 6    0  0.5775861E+002  0.9459530E+02  0.7546771E-02  0.1292090E+00
          2   -1    0    0  504    0 -0.00000000000E+00  0.00000000000E+00  0.23381517169E+04  0.23381517169E+04  0.00000000000E+00 0.  1.
         21   -1    0    0  505  502  0.00000000000E+00 -0.00000000000E+00 -0.75162911025E+02  0.75162911025E+02  0.00000000000E+00 0. -1.
         21    1    1    2  503  502 -0.54848808070E+01 -0.59882229821E+02 -0.52208282398E+02  0.79634603765E+02  0.00000000000E+00 0. -1.
         21    1    1    2  504  503 -0.68385079818E+02 -0.41941614670E+02  0.28133063759E+03  0.29254494668E+03  0.00000000000E+00 0.  1.
         21    1    1    2  505  501  0.72063347424E+02  0.68929359148E+02  0.72190283806E+03  0.72875790918E+03  0.00000000000E+00 0.  1.
          2    1    1    2  501    0  0.18066132011E+01  0.32894485343E+02  0.13119636126E+04  0.13123771683E+04  0.00000000000E+00 0.  1.
<scales pt_clust_3="59.69287" pt_clust_4="14000.00000" pt_clust_5="94.59530" pt_clust_6="32.94406"></scales>
<clustering>
<clus scale="   32.944">  1  6  2 -1</clus>
<clus scale="   59.693">  2  3  1 -1</clus>
<clus scale="   94.595">  1  5  2 -1</clus>
<clus scale="   59.693">  2  3  1 -1</clus>
</clustering>
</event>
<event>
 6    0  0.5775861E+002  0.9181085E+02  0.7546771E-02  0.1298525E+00
         21   -1    0    0  503  502  0.00000000000E+00  0.00000000000E+00  0.38688463293E+03  0.38688463293E+03  0.00000000000E+00 0.  1.
          1   -1    0    0  504    0 -0.00000000000E+00 -0.00000000000E+00 -0.16568510415E+03  0.16568510415E+03  0.00000000000E+00 0.  1.
         21    1    1    2  503  505  0.60612324774E+02 -0.42253377573E+02  0.14741932005E+03  0.16489893194E+03  0.00000000000E+00 0.  1.
         21    1    1    2  504  502 -0.51005745035E+02 -0.58870339980E+02  0.19058224015E+03  0.20588563140E+03  0.00000000000E+00 0.  1.
         21    1    1    2  505  501 -0.35867864754E+02  0.86578161617E+02 -0.44996104423E+02  0.10395639088E+03  0.00000000000E+00 0.  1.
          1    1    1    2  501    0  0.26261285014E+02  0.14545555936E+02 -0.71805927000E+02  0.77828782853E+02  0.00000000000E+00 0.  1.
<scales pt_clust_3="75.20311" pt_clust_4="91.81085" pt_clust_5="14000.00000" pt_clust_6="30.02046"></scales>
<clustering>
<clus scale="   30.020">  2  6  1 -1</clus>
<clus scale="   75.203">  1  3  2 -1</clus>
<clus scale="   91.811">  1  4  2 -1</clus>
<clus scale="   75.203">  1  3  2 -1</clus>
</clustering>
</event>
<event>
 6    0  0.5775861E+002  0.1812740E+03  0.7546771E-02  0.1166576E+00
         21   -1    0    0  505  502  0.00000000000E+00  0.00000000000E+00  0.76888572009E+03  0.76888572009E+03  0.00000000000E+00 0.  1.
          1   -1    0    0  503    0 -0.00000000000E+00 -0.00000000000E+00 -0.22738185565E+03  0.22738185565E+03  0.00000000000E+00 0. -1.
         21    1    1    2  503  504 -0.12688687291E+03  0.13934204385E+03 -0.38016081858E+02  0.19225427481E+03  0.00000000000E+00 0. -1.
         21    1    1    2  504  502  0.61924358305E+02 -0.74330461882E+01  0.62787069117E+03  0.63096076040E+03  0.00000000000E+00 0.  1.
         21    1    1    2  505  501  0.25541148165E+02 -0.70636184960E+02  0.14892264115E+02  0.76574149723E+02  0.00000000000E+00 0. -1.
          1    1    1    2  501    0  0.39421366439E+02 -0.61272812702E+02 -0.63243008988E+02  0.96478390814E+02  0.00000000000E+00 0. -1.
<scales pt_clust_3="163.92377" pt_clust_4="62.36887" pt_clust_5="73.49845" pt_clust_6="73.49845"></scales>
<clustering>
<clus scale="   62.369">  1  4  2 -1</clus>
<clus scale="   73.498">  5  6 -1 -1</clus>
<clus scale="  163.924">  1  3  2 -1</clus>
<clus scale="   62.369">  1  3  2 -1</clus>
</clustering>
</event>
<event>
 6    0  0.5775861E+002  0.2226769E+03  0.7546771E-02  0.1131903E+00
         -4   -1    0    0    0  501 -0.00000000000E+00  0.00000000000E+00  0.20545067503E+04  0.20545067503E+04  0.00000000000E+00 0.  1.
         21   -1    0    0  504  502  0.00000000000E+00 -0.00000000000E+00 -0.25559213092E+03  0.25559213092E+03  0.00000000000E+00 0.  1.
         21    1    1    2  503  501 -0.28115594449E+03 -0.38886264031E+02 -0.41291015583E+02  0.28682007360E+03  0.00000000000E+00 0.  1.
         21    1    1    2  504  503  0.52078536684E+02  0.74140037439E+01 -0.65141452889E+01  0.53005429189E+02  0.00000000000E+00 0.  1.
         21    1    1    2  505  502  0.12137964245E+02  0.72710293789E+02 -0.30741922018E+02  0.79869786329E+02  0.00000000000E+00 0.  1.
         -4    1    1    2    0  505  0.21693944356E+03 -0.41238033502E+02  0.18774617022E+04  0.18904035921E+04  0.00000000000E+00 0.  1.
<scales pt_clust_3="14000.00000" pt_clust_4="52.60363" pt_clust_5="78.57306" pt_clust_6="222.67689"></scales>
<clustering>
<clus scale="   52.604">  2  4  1 -1</clus>
<clus scale="   78.573">  2  5  1 -1</clus>
<clus scale="  222.677">  1  6  2 -1</clus>
<clus scale="   52.604">  2  3  1 -1</clus>
</clustering>
</event>
<event>
 6    0  0.5775861E+002  0.2192420E+03  0.7546771E-02  0.1134449E+00
         21   -1    0    0  503  502  0.00000000000E+00  0.00000000000E+00  0.40363646672E+03  0.40363646672E+03  0.00000000000E+00 0. -1.
         -3   -1    0    0    0  501 -0.00000000000E+00 -0.00000000000E+00 -0.22681877401E+03  0.22681877401E+03  0.00000000000E+00 0. -1.
         21    1    1    2  503  504  0.11634868746E+02 -0.38267727111E+02  0.19074039691E+03  0.19488891226E+03  0.00000000000E+00 0. -1.
         21    1    1    2  504  501 -0.17826357014E+03 -0.85572864384E+02  0.47828711051E+02  0.20344090336E+03  0.00000000000E+00 0. -1.
         21    1    1    2  505  502  0.13803057361E+03  0.53869221448E+02 -0.40553969983E+02  0.15361951944E+03  0.00000000000E+00 0.  1.
         -3    1    1    2    0  505  0.28598127788E+02  0.69971370047E+02 -0.21197445273E+02  0.78505905672E+02  0.00000000000E+00 0. -1.
<scales pt_clust_3="39.99736" pt_clust_4="202.73061" pt_clust_5="58.05167" pt_clust_6="58.05167"></scales>
<clustering>
<clus scale="   39.997">  1  3  2 -1</clus>
<clus scale="   58.052">  5  6 -1 -1</clus>
<clus scale="  202.731">  1  4  2 -1</clus>
<clus scale="   39.997">  1  3  2 -1</clus>
</clustering>
</event>
<event>
 6    0  0.5775861E+002  0.1537356E+03  0.7546771E-02  0.1195956E+00
          2   -1    0    0  504    0 -0.00000000000E+00  0.00000000000E+00  0.81552601025E+03  0.81552601025E+03  0.00000000000E+00 0.  1.
         21   -1    0    0  505  502  0.00000000000E+00 -0.00000000000E+00 -0.12461262113E+03  0.12461262113E+03  0.00000000000E+00 0.  1.
         21    1    1    2  503  501  0.53637348049E+02  0.10348313826E+03  0.76307496497E+02  0.13931460452E+03  0.00000000000E+00 0.  1.
         21    1    1    2  504  502 -0.97134264159E+01 -0.21784441351E+03  0.24660452613E+03  0.32918738047E+03  0.00000000000E+00 0.  1.
         21    1    1    2  505  503 -0.23465878721E+02 -0.20984711764E+02 -0.34376702073E+02  0.46612908485E+02  0.00000000000E+00 0.  1.
          2    1    1    2  501    0 -0.20458042912E+02  0.13534598701E+03  0.40237806856E+03  0.42502373790E+03  0.00000000000E+00 0.  1.
<scales pt_clust_3="105.61904" pt_clust_4="153.73562" pt_clust_5="31.48024" pt_clust_6="14000.00000"></scales>
<clustering>
<clus scale="   31.480">  2  5  1 -1</clus>
<clus scale="  105.619">  2  3  1 -1</clus>
<clus scale="  153.736">  2  4  1 -1</clus>
<clus scale="   31.480">  2  3  1 -1</clus>
</clustering>
</event>
<event>
 6    0  0.5775861E+002  0.2473899E+03  0.7546771E-02  0.1114966E+00
         21   -1    0    0  503  502  0.00000000000E+00  0.00000000000E+00  0.51839256743E+03  0.51839256743E+03  0.00000000000E+00 0. -1.
          2   -1    0    0  504    0 -0.00000000000E+00 -0.00000000000E+00 -0.15886179379E+04  0.15886179379E+04  0.00000000000E+00 0.  1.
         21    1    1    2  503  501  0.56082087390E+01  0.22187671153E+03  0.32468628072E+03  0.39329620900E+03  0.00000000000E+00 0. -1.
         21    1    1    2  504  505  0.77401314692E+02  0.50618473649E+02 -0.11040014944E+04  0.11078684457E+04  0.00000000000E+00 0.  1.
         21    1    1    2  505  502  0.11531056034E+03 -0.13657176458E+02  0.56709831315E+02  0.12922479933E+03  0.00000000000E+00 0. -1.
          2    1    1    2  501    0 -0.19832008377E+03 -0.25883800872E+03 -0.34761998809E+03  0.47662105126E+03  0.00000000000E+00 0.  1.
<scales pt_clust_3="247.38989" pt_clust_4="92.48348" pt_clust_5="121.52492" pt_clust_6="14000.00000"></scales>
<clustering>
<clus scale="   92.483">  2  4  1 -1</clus>
<clus scale="  121.525">  1  5  2 -1</clus>
<clus scale="  247.390">  1  3  2 -1</clus>
<clus scale="  121.525">  1  3  2 -1</clus>
</clustering>
</event>
<event>
 6    0  0.5775861E+002  0.1134358E+03  0.7546771E-02  0.1254336E+00
         21   -1    0    0  504  502  0.00000000000E+00  0.00000000000E+00  0.50749195313E+02  0.50749195313E+02  0.00000000000E+00 0.  1.
          2   -1    0    0  503    0 -0.00000000000E+00 -0.00000000000E+00 -0.24022275839E+04  0.24022275839E+04  0.00000000000E+00 0.  1.
         21    1    1    2  503  502 -0.36916485368E+02  0.34633812409E+01 -0.10247873492E+04  0.10254579138E+04  0.00000000000E+00 0.  1.
         21    1    1    2  504  505 -0.18555294984E+02 -0.73064232896E+02 -0.99083294190E+01  0.76031941265E+02  0.00000000000E+00 0.  1.
         21    1    1    2  505  501 -0.46333548541E+02  0.14323992204E+03 -0.42458086064E+03  0.45048127620E+03  0.00000000000E+00 0.  1.
          2    1    1    2  501    0  0.10180532889E+03 -0.73639070388E+02 -0.89220184939E+03  0.90100564801E+03  0.00000000000E+00 0.  1.
<scales pt_clust_3="37.07859" pt_clust_4="75.57100" pt_clust_5="113.43577" pt_clust_6="14000.00000"></scales>
<clustering>
<clus scale="   37.079">  2  3  1 -1</clus>
<clus scale="   75.571">  1  4  2 -1</clus>
<clus scale="  113.436">  1  5  2 -1</clus>
<clus scale="   75.571">  1  3  2 -1</clus>
</clustering>
</event>
<event>
 6    0  0.5775861E+002  0.1047340E+03  0.7546771E-02  0.1270645E+00
         21   -1    0    0  501  502  0.00000000000E+00  0.00000000000E+00  0.20093580294E+04  0.20093580294E+04  0.00000000000E+00 0.  1.
          2   -1    0    0  503    0 -0.00000000000E+00 -0.00000000000E+00 -0.14178304054E+03  0.14178304054E+03  0.00000000000E+00 0. -1.
         21    1    1    2  503  505  0.30001098644E+01 -0.30841563984E+02 -0.67627427420E+01  0.31716516479E+02  0.00000000000E+00 0. -1.
         21    1    1    2  504  502  0.84894349988E+02  0.68772088185E+02  0.18008902508E+04  0.18042013043E+04  0.00000000000E+00 0.  1.
         21    1    1    2  505  504 -0.53934884917E+02 -0.61491973463E+02  0.18174704855E+03  0.19930435085E+03  0.00000000000E+00 0.  1.
          2    1    1    2  501    0 -0.33959574935E+02  0.23561449262E+02 -0.10829956776E+03  0.11591889836E+03  0.00000000000E+00 0. -1.
<scales pt_clust_3="30.98714" pt_clust_4="104.73400" pt_clust_5="14000.00000" pt_clust_6="31.55996"></scales>
<clustering>
<clus scale="   30.987">  2  3  1 -1</clus>
<clus scale="   31.560">  2  6  1 -1</clus>
<clus scale="  104.734">  1  4  2 -1</clus>
<clus scale="  104.734">  1  3  2 -1</clus>
</clustering>
</event>
<event>
 6    0  0.5775861E+002  0.6916106E+02  0.7546771E-02  0.1362969E+00
          1   -1    0    0  504    0 -0.00000000000E+00  0.00000000000E+00  0.55645649220E+03  0.55645649220E+03  0.00000000000E+00 0. -1.
         21   -1    0    0  503  502  0.00000000000E+00 -0.00000000000E+00 -0.16610973976E+03  0.16610973976E+03  0.00000000000E+00 0. -1.
         21    1    1    2  503  505  0.37362971397E+02 -0.57234093027E+02 -0.12549458674E+03  0.14290074995E+03  0.00000000000E+00 0. -1.
         21    1    1    2  504  502  0.51905930446E+02 -0.40108167881E+02  0.34167278969E+02  0.73961433858E+02  0.00000000000E+00 0.  1.
         21    1    1    2  505  501 -0.46709125887E+02  0.72806675045E+02  0.17601031389E+03  0.19611778341E+03  0.00000000000E+00 0. -1.
          1    1    1    2  501    0 -0.42559775956E+02  0.24535585862E+02  0.30566374631E+03  0.30958626474E+03  0.00000000000E+00 0. -1.
<scales pt_clust_3="14000.00000" pt_clust_4="55.03848" pt_clust_5="69.16106" pt_clust_6="49.12565"></scales>
<clustering>
<clus scale="   49.126">  1  6  2 -1</clus>
<clus scale="   55.038">  1  4  2 -1</clus>
<clus scale="   69.161">  1  5  2 -1</clus>
<clus scale="   69.161">  2  3  1 -1</clus>
</clustering>
</event>
<event>
 6    0  0.5775861E+002  0.1198612E+03  0.7546771E-02  0.1243326E+00
          2   -1    0    0  505    0 -0.00000000000E+00  0.00000000000E+00  0.11148595139E+04  0.11148595139E+04  0.00000000000E+00 0.  1.
         21   -1    0    0  503  502  0.00000000000E+00 -0.00000000000E+00 -0.50697869260E+03  0.50697869260E+03  0.00000000000E+00 0. -1.
         21    1    1    2  503  504 -0.47407388548E+02 -0.27286779139E+02 -0.44945391546E+03  0.45277019660E+03  0.00000000000E+00 0. -1.
         21    1    1    2  504  501  0.13946727112E+03  0.10274164597E+03  0.11069964874E+03  0.20557572270E+03  0.00000000000E+00 0. -1.
         21    1    1    2  505  502 -0.95677475122E+02 -0.10788548274E+02  0.33878597765E+03  0.35220237176E+03  0.00000000000E+00 0.  1.
          2    1    1    2  501    0  0.36175925480E+01 -0.64666318563E+02  0.60784911036E+03  0.61128991542E+03  0.00000000000E+00 0.  1.
<scales pt_clust_3="54.69944" pt_clust_4="119.86119" pt_clust_5="14000.00000" pt_clust_6="65.54214"></scales>
<clustering>
<clus scale="   54.699">  2  3  1 -1</clus>
<clus scale="   65.542">  1  6  2 -1</clus>
<clus scale="  119.861">  2  4  1 -1</clus>
<clus scale="   54.699">  2  3  1 -1</clus>
</clustering>
</event>
<event>
 6    0  0.5775861E+002  0.1750445E+03  0.7546771E-02  0.1172687E+00
          1   -1    0    0  503    0 -0.00000000000E+00  0.00000000000E+00  0.31063297346E+03  0.31063297346E+03  0.00000000000E+00 0.  1.
         21   -1    0    0  505  502  0.00000000000E+00 -0.00000000000E+00 -0.21855343728E+03  0.21855343728E+03  0.00000000000E+00 0. -1.
         21    1    1    2  503  502  0.33022411745E+02 -0.42265957587E+02  0.97585004213E+01  0.54517145731E+02  0.00000000000E+00 0.  1.
         21    1    1    2  504  501  0.19459870282E+03  0.51327514328E+02 -0.13461266546E+02  0.20170368010E+03  0.00000000000E+00 0. -1.
         21    1    1    2  505  504 -0.48099871453E+02 -0.28375222420E+02 -0.19027021064E+02  0.58998122103E+02  0.00000000000E+00 0. -1.
          1    1    1    2  501    0 -0.17952124312E+03  0.19313665678E+02  0.11480932337E+03  0.21396746282E+03  0.00000000000E+00 0.  1.
<scales pt_clust_3="53.63666" pt_clust_4="175.04449" pt_clust_5="55.47725" pt_clust_6="14000.00000"></scales>
<clustering>
<clus scale="   53.637">  1  3  2 -1</clus>
<clus scale="   55.477">  2  5  1 -1</clus>
<clus scale="  175.044">  2  4  1 -1</clus>
<clus scale="   55.477">  2  3  1 -1</clus>
</clustering>
</event>
<event>
 6    0  0.5775861E+002  0.9417505E+02  0.7546771E-02  0.1293045E+00
         21   -1    0    0  505  502  0.00000000000E+00  0.00000000000E+00  0.76731656491E+03  0.76731656491E+03  0.00000000000E+00 0. -1.
         -1   -1    0    0    0  501 -0.00000000000E+00 -0.00000000000E+00 -0.99316944803E+02  0.99316944803E+02  0.00000000000E+00 0. -1.
         21    1    1    2  503  501 -0.54305869519E+00  0.38442755298E+02  0.58155592727E+02  0.69715230137E+02  0.00000000000E+00 0. -1.
         21    1    1    2  504  502  0.61052549982E+02 -0.69904396948E+02  0.66583946527E+01  0.93050377706E+02  0.00000000000E+00 0. -1.
         21    1    1    2  505  503  0.26908689983E+02 -0.14424161214E+02  0.60436107185E+03  0.60513175358E+03  0.00000000000E+00 0. -1.
         -1    1    1    2    0  504 -0.87418181269E+02  0.45885802864E+02 -0.11754391285E+01  0.98736148284E+02  0.00000000000E+00 0. -1.
<scales pt_clust_3="34.27343" pt_clust_4="14000.00000" pt_clust_5="30.53087" pt_clust_6="94.17505"></scales>
<clustering>
<clus scale="   30.531">  1  5  2 -1</clus>
<clus scale="   34.273">  1  3  2 -1</clus>
<clus scale="   94.175">  2  6  1 -1</clus>
<clus scale="   30.531">  1  3  2 -1</clus>
</clustering>
</event>
<event>
 6    0  0.5775861E+002  0.1117623E+03  0.7546771E-02  0.1257341E+00
         -1   -1    0    0    0  501 -0.00000000000E+00  0.00000000000E+00  0.31738295626E+02  0.31738295626E+02  0.00000000000E+00 0.  1.
         21   -1    0    0  503  502  0.00000000000E+00 -0.00000000000E+00 -0.22822007434E+04  0.22822007434E+04  0.00000000000E+00 0.  1.
         21    1    1    2  503  501 -0.16461067756E+02 -0.11811179682E+03 -0.56698337153E+03  0.57938890816E+03  0.00000000000E+00 0. -1.
         21    1    1    2  504  505  0.30053904907E+02 -0.13536795173E+02 -0.39107057042E+03  0.39245722452E+03  0.00000000000E+00 0.  1.
         21    1    1    2  505  502  0.20296675010E+02  0.24684449797E+02 -0.11892337701E+04  0.11896630771E+04  0.00000000000E+00 0.  1.
         -1    1    1    2    0  504 -0.33889512162E+02  0.10696414220E+03 -0.10317473568E+03  0.15242982921E+03  0.00000000000E+00 0.  1.
<scales pt_clust_3="111.76233" pt_clust_4="37.62359" pt_clust_5="31.95743" pt_clust_6="14000.00000"></scales>
<clustering>
<clus scale="   31.957">  2  5  1 -1</clus>
<clus scale="   37.624">  2  4  1 -1</clus>
<clus scale="  111.762">  2  3  1 -1</clus>
<clus scale="   31.957">  2  3  1 -1</clus>
</clustering>
</event>
<event>
 6    0  0.7118056E+002  0.1114770E+03  0.7546771E-02  0.1257859E+00
         21   -1    0    0  505  502  0.00000000000E+00  0.00000000000E+00  0.27225132374E+03  0.27225132374E+03  0.00000000000E+00 0.  1.
          1   -1    0    0  504    0 -0.00000000000E+00 -0.00000000000E+00 -0.93903987939E+03  0.93903987939E+03  0.00000000000E+00 0. -1.
         21    1    1    2  503  502 -0.76942844788E+02 -0.91685544585E+02  0.12293171852E+03  0.17157694445E+03  0.00000000000E+00 0.  1.
         21    1    1    2  504  503  0.91213923817E+01  0.29550961149E+02 -0.20835775574E+02  0.37290597308E+02  0.00000000000E+00 0.  1.
         21    1    1    2  505  501 -0.16645256366E+02  0.30234983430E+02  0.11185983149E+03  0.11706340454E+03  0.00000000000E+00 0.  1.
          1    1    1    2  501    0  0.84466708773E+02  0.31899600006E+02 -0.88074433009E+03  0.88536025682E+03  0.00000000000E+00 0. -1.
<scales pt_clust_3="14000.00000" pt_clust_4="30.92667" pt_clust_5="34.57553" pt_clust_6="111.47704"></scales>
<clustering>
<clus scale="   30.927">  2  4  1 -1</clus>
<clus scale="   34.576">  1  5  2 -1</clus>
<clus scale="  111.477">  2  6  1 -1</clus>
<clus scale="   34.576">  1  3  2 -1</clus>
</clustering>
</event>
<event>
 6    0  0.5775861E+002  0.1088111E+03  0.7546771E-02  0.1262787E+00
          1   -1    0    0  503    0 -0.00000000000E+00  0.00000000000E+00  0.14724484175E+04  0.14724484175E+04  0.00000000000E+00 0.  1.
         21   -1    0    0  504  502  0.00000000000E+00 -0.00000000000E+00 -0.25080589924E+03  0.25080589924E+03  0.00000000000E+00 0. -1.
         21    1    1    2  503  505  0.33676254614E+02  0.88515142323E+02  0.14405604841E+03  0.17239827617E+03  0.00000000000E+00 0.  1.
         21    1    1    2  504  501 -0.38011074616E+02 -0.14695760629E+02 -0.18702024210E+03  0.19140892907E+03  0.00000000000E+00 0. -1.
         21    1    1    2  505  502 -0.33220933283E+02 -0.93619776263E+02  0.53588145923E+01  0.99483716303E+02  0.00000000000E+00 0. -1.
          1    1    1    2  501    0  0.37555753285E+02  0.19800394568E+02  0.12592478974E+04  0.12599633952E+04  0.00000000000E+00 0.  1.
<scales pt_clust_3="14000.00000" pt_clust_4="40.75300" pt_clust_5="108.81111" pt_clust_6="42.22064"></scales>
<clustering>
<clus scale="   40.753">  2  4  1 -1</clus>
<clus scale="   42.221">  1  6  2 -1</clus>
<clus scale="  108.811">  2  5  1 -1</clus>
<clus scale="   40.753">  2  3  1 -1</clus>
</clustering>
</event>
<event>
 6    0  0.5775861E+002  0.8416155E+02  0.7546771E-02  0.1317640E+00
          2   -1    0    0  505    0 -0.00000000000E+00  0.00000000000E+00  0.23665445160E+04  0.23665445160E+04  0.00000000000E+00 0. -1.
         21   -1    0    0  501  502  0.00000000000E+00 -0.00000000000E+00 -0.10939083158E+02  0.10939083158E+02  0.00000000000E+00 0. -1.
         21    1    1    2  503  502 -0.48105875315E+02 -0.66916830925E+02  0.30490081504E+03  0.31584259452E+03  0.00000000000E+00 0. -1.
         21    1    1    2  504  503  0.97668426629E+02  0.27953671970E+02  0.61888714242E+03  0.62716969346E+03  0.00000000000E+00 0. -1.
         21    1    1    2  505  504 -0.33187784178E+02 -0.53183497161E+01  0.87868820340E+03  0.87933080957E+03  0.00000000000E+00 0. -1.
          2    1    1    2  501    0 -0.16374767135E+02  0.44281508671E+02  0.55312927198E+03  0.55514050161E+03  0.00000000000E+00 0. -1.
<scales pt_clust_3="14000.00000" pt_clust_4="84.16155" pt_clust_5="33.61122" pt_clust_6="51.13884"></scales>
<clustering>
<clus scale="   33.611">  1  5  2 -1</clus>
<clus scale="   51.139">  1  6  2 -1</clus>
<clus scale="   84.162">  1  4  2 -1</clus>
<clus scale="   84.162">  2  3  1 -1</clus>
</clustering>
</event>
<event>
 6    0  0.5775861E+002  0.9252811E+02  0.7546771E-02  0.1296842E+00
         21   -1    0    0  505  502  0.00000000000E+00  0.00000000000E+00  0.76926798144E+02  0.76926798144E+02  0.00000000000E+00 0.  1.
          1   -1    0    0  503    0 -0.00000000000E+00 -0.00000000000E+00 -0.74081859280E+03  0.74081859280E+03  0.00000000000E+00 0.  1.
         21    1    1    2  503  504  0.59076713034E+02 -0.51220583584E+02 -0.13320879602E+03  0.15446096446E+03  0.00000000000E+00 0.  1.
         21    1    1    2  504  502  0.28957274423E+02 -0.32977487700E+02  0.28699801805E+02  0.52437744618E+02  0.00000000000E+00 0.  1.
         21    1    1    2  505  501  0.33326917136E+01  0.44498603328E+02 -0.20387702220E+01  0.44669778555E+02  0.00000000000E+00 0.  1.
          1    1    1    2  501    0 -0.91366679170E+02  0.39699467956E+02 -0.55734403022E+03  0.56617690331E+03  0.00000000000E+00 0.  1.
<scales pt_clust_3="92.52811" pt_clust_4="43.88665" pt_clust_5="32.33803" pt_clust_6="14000.00000"></scales>
<clustering>
<clus scale="   43.887">  1  4  2 -1</clus>
<clus scale="   32.338">  1  5  2 -1</clus>
<clus scale="   92.528">  1  3  2 -1</clus>
<clus scale="   43.887">  1  3  2 -1</clus>
</clustering>
</event>
<event>
 6    0  0.5775861E+002  0.1693326E+03  0.7546771E-02  0.1178546E+00
         -2   -1    0    0    0  501 -0.00000000000E+00  0.00000000000E+00  0.20964512724E+04  0.20964512724E+04  0.00000000000E+00 0.  1.
         21   -1    0    0  504  502  0.00000000000E+00 -0.00000000000E+00 -0.21375348196E+03  0.21375348196E+03  0.00000000000E+00 0.  1.
         21    1    1    2  503  505  0.81732500359E+01 -0.10777001345E+03  0.15463773721E+04  0.15501497201E+04  0.00000000000E+00 0.  1.
         21    1    1    2  504  501  0.11132459233E+03 -0.42443301463E+01 -0.11583980118E+03  0.16071726333E+03  0.00000000000E+00 0.  1.
         21    1    1    2  505  502 -0.15002243802E+03  0.17362619252E+03  0.11770916140E+03  0.25789190238E+03  0.00000000000E+00 0.  1.
         -2    1    1    2    0  503  0.30524595650E+02 -0.61611848922E+02  0.33445105815E+03  0.34144586857E+03  0.00000000000E+00 0.  1.
<scales pt_clust_3="169.33261" pt_clust_4="111.82730" pt_clust_5="14000.00000" pt_clust_6="68.75879"></scales>
<clustering>
<clus scale="   68.759">  1  6  2 -1</clus>
<clus scale="  111.827">  2  4  1 -1</clus>
<clus scale="  169.333">  1  3  2 -1</clus>
<clus scale="  111.827">  2  3  1 -1</clus>
</clustering>
</event>
<event>
 6    0  0.5775861E+002  0.6592609E+02  0.7546771E-02  0.1374521E+00
         21   -1    0    0  505  502  0.00000000000E+00  0.00000000000E+00  0.22479366285E+03  0.22479366285E+03  0.00000000000E+00 0.  1.
          2   -1    0    0  504    0 -0.00000000000E+00 -0.00000000000E+00 -0.15412232215E+03  0.15412232215E+03  0.00000000000E+00 0.  1.
         21    1    1    2  503  502  0.48605027489E+02 -0.18692663749E+02  0.10147917072E+03  0.11406088929E+03  0.00000000000E+00 0.  1.
         21    1    1    2  504  503  0.49929707635E+02  0.75749567490E+01 -0.48933558875E+02  0.70319619299E+02  0.00000000000E+00 0.  1.
         21    1    1    2  505  501 -0.75158709369E+02 -0.49277510462E+02  0.68079137358E+02  0.11274694486E+03  0.00000000000E+00 0.  1.
          2    1    1    2  501    0 -0.23376025755E+02  0.60395217462E+02 -0.49953408501E+02  0.81788531550E+02  0.00000000000E+00 0.  1.
<scales pt_clust_3="55.02216" pt_clust_4="50.50105" pt_clust_5="65.92609" pt_clust_6="14000.00000"></scales>
<clustering>
<clus scale="   50.501">  2  4  1 -1</clus>
<clus scale="   55.022">  1  3  2 -1</clus>
<clus scale="   65.926">  1  5  2 -1</clus>
<clus scale="   55.022">  1  3  2 -1</clus>
</clustering>
</event>
<event>
 6    0  0.5775861E+002  0.1420763E+03  0.7546771E-02  0.1210562E+00
         21   -1    0    0  503  502  0.00000000000E+00  0.00000000000E+00  0.16728468839E+03  0.16728468839E+03  0.00000000000E+00 0. -1.
          2   -1    0    0  505    0 -0.00000000000E+00 -0.00000000000E+00 -0.84925516276E+03  0.84925516276E+03  0.00000000000E+00 0. -1.
         21    1    1    2  503  504 -0.72868665809E+01  0.52053764989E+02  0.45739754561E+02  0.69676524177E+02  0.00000000000E+00 0. -1.
         21    1    1    2  504  501 -0.58187817617E+02  0.11747674982E+03 -0.35731213334E+02  0.13587983100E+03  0.00000000000E+00 0. -1.
         21    1    1    2  505  502  0.35683131725E+02 -0.15889384567E+03 -0.53053341021E+02  0.17127520858E+03  0.00000000000E+00 0. -1.
          2    1    1    2  501    0  0.29791552473E+02 -0.10636669137E+02 -0.63892567457E+03  0.63970828739E+03  0.00000000000E+00 0. -1.
<scales pt_clust_3="51.75001" pt_clust_4="14000.00000" pt_clust_5="142.07626" pt_clust_6="31.63345"></scales>
<clustering>
<clus scale="   31.633">  2  6  1 -1</clus>
<clus scale="   51.750">  1  3  2 -1</clus>
<clus scale="  142.076">  1  5  2 -1</clus>
<clus scale="   51.750">  1  3  2 -1</clus>
</clustering>
</event>
<event>
 6    0  0.5775861E+002  0.9373783E+02  0.7546771E-02  0.1294044E+00
         21   -1    0    0  504  502  0.00000000000E+00  0.00000000000E+00  0.29939530675E+03  0.29939530675E+03  0.00000000000E+00 0. -1.
          2   -1    0    0  505    0 -0.00000000000E+00 -0.00000000000E+00 -0.17961181348E+04  0.17961181348E+04  0.00000000000E+00 0.  1.
         21    1    1    2  503  502 -0.35983917615E+02 -0.41364913112E+01  0.26190813584E+03  0.26440087842E+03  0.00000000000E+00 0. -1.
         21    1    1    2  504  501  0.78817569740E+02 -0.31595276135E+01 -0.57572272268E+02  0.97656328257E+02  0.00000000000E+00 0.  1.
         21    1    1    2  505  503 -0.12312454415E+03  0.48126158298E+02 -0.28099072681E+03  0.31053432828E+03  0.00000000000E+00 0.  1.
          2    1    1    2  501    0  0.80290892021E+02 -0.40830139374E+02 -0.14200679648E+04  0.14229219066E+04  0.00000000000E+00 0.  1.
<scales pt_clust_3="36.22089" pt_clust_4="59.16887" pt_clust_5="93.73783" pt_clust_6="14000.00000"></scales>
<clustering>
<clus scale="   36.221">  1  3  2 -1</clus>
<clus scale="   59.169">  1  4  2 -1</clus>
<clus scale="   93.738">  1  5  2 -1</clus>
<clus scale="   36.221">  1  3  2 -1</clus>
</clustering>
</event>
<event>
 6    0  0.5775861E+002  0.1166340E+03  0.7546771E-02  0.1248755E+00
         21   -1    0    0  504  502  0.00000000000E+00  0.00000000000E+00  0.88106722887E+03  0.88106722887E+03  0.00000000000E+00 0.  1.
          3   -1    0    0  503    0 -0.00000000000E+00 -0.00000000000E+00 -0.12667499460E+03  0.12667499460E+03  0.00000000000E+00 0. -1.
         21    1    1    2  503  505 -0.76581217448E+01  0.68404456731E+02  0.49252715954E+02  0.84638327950E+02  0.00000000000E+00 0. -1.
         21    1    1    2  504  501  0.76507203136E+02 -0.35749870092E+02  0.70399741680E+03  0.70904426393E+03  0.00000000000E+00 0.  1.
         21    1    1    2  505  502  0.32117181806E+02 -0.24946108612E+02  0.77308017867E+02  0.87351882227E+02  0.00000000000E+00 0.  1.
          3    1    1    2  501    0 -0.10096626320E+03 -0.77084780273E+01 -0.76165916354E+02  0.12670774937E+03  0.00000000000E+00 0. -1.
<scales pt_clust_3="66.49932" pt_clust_4="116.63400" pt_clust_5="40.66721" pt_clust_6="14000.00000"></scales>
<clustering>
<clus scale="   40.667">  1  5  2 -1</clus>
<clus scale="   66.499">  2  3  1 -1</clus>
<clus scale="  116.634">  1  4  2 -1</clus>
<clus scale="   40.667">  1  3  2 -1</clus>
</clustering>
</event>
<event>
 6    0  0.5775861E+002  0.7238241E+02  0.7546771E-02  0.1352174E+00
         -4   -1    0    0    0  501 -0.00000000000E+00  0.00000000000E+00  0.94601868938E+02  0.94601868938E+02  0.00000000000E+00 0.  1.
         21   -1    0    0  504  502  0.00000000000E+00 -0.00000000000E+00 -0.49899300005E+03  0.49899300005E+03  0.00000000000E+00 0.  1.
         21    1    1    2  503  501  0.54904665922E+02 -0.28819676353E+02 -0.48262693946E+02  0.78577246783E+02  0.00000000000E+00 0.  1.
         21    1    1    2  504  503 -0.10546060753E+03  0.15531711674E+02 -0.53993781516E+02  0.11949268702E+03  0.00000000000E+00 0.  1.
         21    1    1    2  505  502  0.30349397620E+02 -0.62977069784E+02 -0.30854764656E+03  0.31636821498E+03  0.00000000000E+00 0.  1.
         -4    1    1    2    0  505  0.20206543992E+02  0.76265034463E+02  0.64129909021E+01  0.79156720208E+02  0.00000000000E+00 0.  1.
<scales pt_clust_3="62.00884" pt_clust_4="14000.00000" pt_clust_5="72.38241" pt_clust_6="72.11556"></scales>
<clustering>
<clus scale="   62.009">  1  3  2 -1</clus>
<clus scale="   72.382">  2  5  1 -1</clus>
<clus scale="   72.116">  1  6  2 -1</clus>
<clus scale="   72.382">  2  3  1 -1</clus>
</clustering>
</event>
<event>
 6    0  0.5775861E+002  0.1379970E+03  0.7546771E-02  0.1216050E+00
         21   -1    0    0  503  502  0.00000000000E+00  0.00000000000E+00  0.41736458659E+03  0.41736458659E+03  0.00000000000E+00 0. -1.
         -2   -1    0    0    0  501 -0.00000000000E+00 -0.00000000000E+00 -0.34545318068E+03  0.34545318068E+03  0.00000000000E+00 0. -1.
         21    1    1    2  503  504  0.67465835338E+02  0.14828030038E+03  0.54981950383E+02  0.17193516594E+03  0.00000000000E+00 0. -1.
         21    1    1    2  504  501  0.40736663347E+02 -0.13494122493E+03 -0.86033421672E+02  0.16513739604E+03  0.00000000000E+00 0. -1.
         21    1    1    2  505  502 -0.13900767889E+03 -0.23545719001E+02  0.24357536656E+03  0.28143648461E+03  0.00000000000E+00 0. -1.
         -2    1    1    2    0  505  0.30805180208E+02  0.10206643548E+02 -0.14061248936E+03  0.14430872068E+03  0.00000000000E+00 0. -1.
<scales pt_clust_3="136.71267" pt_clust_4="14000.00000" pt_clust_5="137.99705" pt_clust_6="32.45204"></scales>
<clustering>
<clus scale="   32.452">  2  6  1 -1</clus>
<clus scale="  137.997">  1  5  2 -1</clus>
<clus scale="  136.713">  1  3  2 -1</clus>
<clus scale="  137.997">  1  3  2 -1</clus>
</clustering>
</event>
<event>
 6    0  0.5775861E+002  0.4328487E+03  0.7546771E-02  0.1032964E+00
         -1   -1    0    0    0  501 -0.00000000000E+00  0.00000000000E+00  0.46490030282E+03  0.46490030282E+03  0.00000000000E+00 0.  1.
         21   -1    0    0  504  502  0.00000000000E+00 -0.00000000000E+00 -0.14477391609E+04  0.14477391609E+04  0.00000000000E+00 0.  1.
         21    1    1    2  503  501  0.11335960681E+02  0.14910547542E+03 -0.16796326053E+03  0.22488353362E+03  0.00000000000E+00 0.  1.
         21    1    1    2  504  505  0.41872154910E+03 -0.19910463882E+03 -0.77774792650E+03  0.90546243989E+03  0.00000000000E+00 0.  1.
         21    1    1    2  505  503 -0.16079002370E+03  0.22569173441E+03 -0.26875538262E+03  0.38603062882E+03  0.00000000000E+00 0.  1.
         -1    1    1    2    0  502 -0.26926748608E+03 -0.17569257100E+03  0.23162771155E+03  0.39626286140E+03  0.00000000000E+00 0.  1.
<scales pt_clust_3="103.06163" pt_clust_4="409.48080" pt_clust_5="103.06163" pt_clust_6="321.51650"></scales>
<clustering>
<clus scale="  103.062">  3  5 -1 -1</clus>
<clus scale="  321.516">  1  6  2 -1</clus>
<clus scale="  409.481">  2  4  1 -1</clus>
<clus scale="  409.481">  2  3  1 -1</clus>
</clustering>
</event>
<event>
 6    0  0.5775861E+002  0.1398563E+03  0.7546771E-02  0.1213522E+00
         21   -1    0    0  504  502  0.00000000000E+00  0.00000000000E+00  0.11014493968E+03  0.11014493968E+03  0.00000000000E+00 0.  1.
          2   -1    0    0  503    0 -0.00000000000E+00 -0.00000000000E+00 -0.61599489607E+03  0.61599489607E+03  0.00000000000E+00 0.  1.
         21    1    1    2  503  502  0.36815538459E+01 -0.17652518804E+03 -0.14543045228E+02  0.17716149699E+03  0.00000000000E+00 0.  1.
         21    1    1    2  504  505 -0.73139814299E+01  0.30224725738E+02 -0.91856480019E+01  0.32425368148E+02  0.00000000000E+00 0. -1.
         21    1    1    2  505  501  0.30252136934E+02  0.10492018031E+03 -0.18060754654E+03  0.21105099358E+03  0.00000000000E+00 0.  1.
          2    1    1    2  501    0 -0.26619709350E+02  0.41380281991E+02 -0.30151371661E+03  0.30550197703E+03  0.00000000000E+00 0.  1.
<scales pt_clust_3="14000.00000" pt_clust_4="31.09708" pt_clust_5="139.85635" pt_clust_6="49.79801"></scales>
<clustering>
<clus scale="   31.097">  1  4  2 -1</clus>
<clus scale="   49.798">  2  6  1 -1</clus>
<clus scale="  139.856">  2  5  1 -1</clus>
<clus scale="   31.097">  1  3  2 -1</clus>
</clustering>
</event>
<event>
 6    0  0.5775861E+002  0.2680879E+03  0.7546771E-02  0.1102379E+00
         21   -1    0    0  505  502  0.00000000000E+00  0.00000000000E+00  0.47335290251E+03  0.47335290251E+03  0.00000000000E+00 0.  1.
          2   -1    0    0  503    0 -0.00000000000E+00 -0.00000000000E+00 -0.56734593631E+03  0.56734593631E+03  0.00000000000E+00 0. -1.
         21    1    1    2  503  502  0.30768988238E+03 -0.11783400953E+03  0.12379125152E+03  0.35196902062E+03  0.00000000000E+00 0.  1.
         21    1    1    2  504  501 -0.20158783880E+03  0.10909306594E+03 -0.17578310519E+02  0.22988682170E+03  0.00000000000E+00 0.  1.
         21    1    1    2  505  504 -0.10830008289E+03 -0.57144337933E+02  0.95870170724E+02  0.15551679314E+03  0.00000000000E+00 0.  1.
          2    1    1    2  501    0  0.21980393132E+01  0.65885281524E+02 -0.29607614553E+03  0.30332620337E+03  0.00000000000E+00 0. -1.
<scales pt_clust_3="268.08794" pt_clust_4="14000.00000" pt_clust_5="118.97999" pt_clust_6="65.92194"></scales>
<clustering>
<clus scale="   65.922">  2  6  1 -1</clus>
<clus scale="  118.980">  1  5  2 -1</clus>
<clus scale="  268.088">  1  3  2 -1</clus>
<clus scale="  118.980">  1  3  2 -1</clus>
</clustering>
</event>
<event>
 6    0  0.5775861E+002  0.1031253E+03  0.7546771E-02  0.1273858E+00
         21   -1    0    0  503  502  0.00000000000E+00  0.00000000000E+00  0.29642590360E+02  0.29642590360E+02  0.00000000000E+00 0. -1.
          2   -1    0    0  505    0 -0.00000000000E+00 -0.00000000000E+00 -0.37310192667E+04  0.37310192667E+04  0.00000000000E+00 0. -1.
         21    1    1    2  503  504 -0.32880126762E+02  0.25631890187E+02 -0.80900480037E+02  0.91010901548E+02  0.00000000000E+00 0. -1.
         21    1    1    2  504  501  0.15614704264E+03  0.28524615334E+02 -0.17578438172E+04  0.17649958749E+04  0.00000000000E+00 0. -1.
         21    1    1    2  505  502 -0.69761664953E+02 -0.20509111019E+02 -0.44135911410E+02  0.85060520854E+02  0.00000000000E+00 0. -1.
          2    1    1    2  501    0 -0.53505250924E+02 -0.33647394502E+02 -0.18184964677E+04  0.18195945598E+04  0.00000000000E+00 0. -1.
<scales pt_clust_3="41.69048" pt_clust_4="14000.00000" pt_clust_5="103.12534" pt_clust_6="63.52856"></scales>
<clustering>
<clus scale="   41.690">  1  3  2 -1</clus>
<clus scale="   63.529">  2  6  1 -1</clus>
<clus scale="  103.125">  1  5  2 -1</clus>
<clus scale="   41.690">  1  3  2 -1</clus>
</clustering>
</event>
<event>
 6    0  0.5775861E+002  0.2088188E+03  0.7546771E-02  0.1142505E+00
         -2   -1    0    0    0  501 -0.00000000000E+00  0.00000000000E+00  0.23013495284E+03  0.23013495284E+03  0.00000000000E+00 0.  1.
         21   -1    0    0  504  502  0.00000000000E+00 -0.00000000000E+00 -0.91998686941E+03  0.91998686941E+03  0.00000000000E+00 0. -1.
         21    1    1    2  503  501 -0.23069459754E+02  0.21348929067E+03  0.46465014754E+02  0.21970178607E+03  0.00000000000E+00 0. -1.
         21    1    1    2  504  505 -0.25288135980E+02 -0.39752574224E+02 -0.27348788623E+03  0.27751645157E+03  0.00000000000E+00 0. -1.
         21    1    1    2  505  503 -0.35125698226E+01 -0.15603478310E+03 -0.53782601967E+03  0.56001430260E+03  0.00000000000E+00 0. -1.
         -2    1    1    2    0  502  0.51870165556E+02 -0.17701933351E+02  0.74996974569E+02  0.92889282018E+02  0.00000000000E+00 0.  1.
<scales pt_clust_3="198.84655" pt_clust_4="35.03153" pt_clust_5="35.03153" pt_clust_6="54.80760"></scales>
<clustering>
<clus scale="   35.032">  4  5 -1 -1</clus>
<clus scale="   54.808">  1  6  2 -1</clus>
<clus scale="  198.847">  1  3  2 -1</clus>
<clus scale="  208.819">  2  3  1 -1</clus>
</clustering>
</event>
<event>
 6    0  0.5775861E+002  0.1551796E+03  0.7546771E-02  0.1194249E+00
         21   -1    0    0  501  502  0.00000000000E+00  0.00000000000E+00  0.21038648169E+03  0.21038648169E+03  0.00000000000E+00 0. -1.
          1   -1    0    0  505    0 -0.00000000000E+00 -0.00000000000E+00 -0.47527590565E+03  0.47527590565E+03  0.00000000000E+00 0. -1.
         21    1    1    2  503  504  0.90748328976E+02  0.61089841466E+02  0.40009802399E+02  0.11648181073E+03  0.00000000000E+00 0.  1.
         21    1    1    2  504  502 -0.10323697363E+03 -0.74178423231E+02  0.33002679475E+02  0.13133730639E+03  0.00000000000E+00 0. -1.
         21    1    1    2  505  503  0.18479706239E+02  0.64595196280E+02  0.24677096171E+02  0.71575121380E+02  0.00000000000E+00 0. -1.
          1    1    1    2  501    0 -0.59910615848E+01 -0.51506614515E+02 -0.36257900200E+03  0.36626814883E+03  0.00000000000E+00 0. -1.
<scales pt_clust_3="46.05471" pt_clust_4="143.62162" pt_clust_5="46.05471" pt_clust_6="51.85387"></scales>
<clustering>
<clus scale="   46.055">  3  5 -1 -1</clus>
<clus scale="   51.854">  2  6  1 -1</clus>
<clus scale="  143.622">  1  4  2 -1</clus>
<clus scale="  143.622">  1  3  2 -1</clus>
</clustering>
</event>
<event>
 6    0  0.5775861E+002  0.1732415E+03  0.7546771E-02  0.1174509E+00
          2   -1    0    0  505    0 -0.00000000000E+00  0.00000000000E+00  0.10579603414E+04  0.10579603414E+04  0.00000000000E+00 0. -1.
         21   -1    0    0  501  502  0.00000000000E+00 -0.00000000000E+00 -0.53474839346E+02  0.53474839346E+02  0.00000000000E+00 0. -1.
         21    1    1    2  503  504 -0.95473891289E+02  0.47077527804E+00  0.69743965271E+02  0.11823580777E+03  0.00000000000E+00 0. -1.
         21    1    1    2  504  502 -0.76486654357E+02  0.38482001147E+02  0.93637314210E+02  0.12688191092E+03  0.00000000000E+00 0.  1.
         21    1    1    2  505  503  0.14029451724E+03 -0.37939701965E+02  0.42804116066E+03  0.45204115717E+03  0.00000000000E+00 0. -1.
          2    1    1    2  501    0  0.31666028407E+02 -0.10130744605E+01  0.41306306196E+03  0.41427630493E+03  0.00000000000E+00 0. -1.
<scales pt_clust_3="45.22334" pt_clust_4="45.22334" pt_clust_5="166.46658" pt_clust_6="31.68223"></scales>
<clustering>
<clus scale="   31.682">  1  6  2 -1</clus>
<clus scale="   45.223">  3  4 -1 -1</clus>
<clus scale="  166.467">  1  5  2 -1</clus>
<clus scale="  173.242">  2  3  1 -1</clus>
</clustering>
</event>
<event>
 6    0  0.5775861E+002  0.1374291E+03  0.7546771E-02  0.1216831E+00
          2   -1    0    0  504    0 -0.00000000000E+00  0.00000000000E+00  0.16536125812E+04  0.16536125812E+04  0.00000000000E+00 0.  1.
         21   -1    0    0  505  502  0.00000000000E+00 -0.00000000000E+00 -0.57736177874E+03  0.57736177874E+03  0.00000000000E+00 0.  1.
         21    1    1    2  503  502  0.41216590265E+02 -0.24538026799E+02 -0.30851615961E+03  0.31222290565E+03  0.00000000000E+00 0.  1.
         21    1    1    2  504  503  0.11657747277E+03  0.61385626723E+01 -0.85322087747E+02  0.14459546247E+03  0.00000000000E+00 0.  1.
         21    1    1    2  505  501 -0.16123563836E+03 -0.24436294763E+02 -0.10792604233E+03  0.19555585952E+03  0.00000000000E+00 0.  1.
          2    1    1    2  501    0  0.34415753326E+01  0.42835758890E+02  0.15780150922E+04  0.15786001324E+04  0.00000000000E+00 0.  1.
<scales pt_clust_3="47.51089" pt_clust_4="14000.00000" pt_clust_5="137.42915" pt_clust_6="42.97379"></scales>
<clustering>
<clus scale="   42.974">  1  6  2 -1</clus>
<clus scale="   47.511">  2  3  1 -1</clus>
<clus scale="  137.429">  2  5  1 -1</clus>
<clus scale="   47.511">  2  3  1 -1</clus>
</clustering>
</event>
<event>
 6    0  0.5775861E+002  0.9298015E+02  0.7546771E-02  0.1295791E+00
          2   -1    0    0  503    0 -0.00000000000E+00  0.00000000000E+00  0.51502155670E+03  0.51502155670E+03  0.00000000000E+00 0.  1.
         21   -1    0    0  501  502  0.00000000000E+00 -0.00000000000E+00 -0.70957853882E+02  0.70957853882E+02  0.00000000000E+00 0.  1.
         21    1    1    2  503  504  0.14049276735E+02 -0.37900062612E+02  0.13928948950E+03  0.14503571562E+03  0.00000000000E+00 0.  1.
         21    1    1    2  504  505  0.79565968279E+02 -0.50293515225E+02  0.56575549623E+02  0.10982246490E+03  0.00000000000E+00 0.  1.
         21    1    1    2  505  502 -0.49003575906E+02  0.83261413162E+02  0.20140935192E+02  0.98688756421E+02  0.00000000000E+00 0.  1.
          2    1    1    2  501    0 -0.44611669107E+02  0.49321646749E+01  0.22805772851E+03  0.23243247364E+03  0.00000000000E+00 0.  1.
<scales pt_clust_3="40.42025" pt_clust_4="14000.00000" pt_clust_5="92.98015" pt_clust_6="40.40545"></scales>
<clustering>
<clus scale="   40.420">  1  3  2 -1</clus>
<clus scale="   40.405">  1  6  2 -1</clus>
<clus scale="   92.980">  2  5  1 -1</clus>
<clus scale="   92.980">  2  3  1 -1</clus>
</clustering>
</event>
<event>
 6    0  0.5775861E+002  0.5149364E+02  0.7546771E-02  0.1437448E+00
         21   -1    0    0  504  502  0.00000000000E+00  0.00000000000E+00  0.15923538625E+03  0.15923538625E+03  0.00000000000E+00 0.  1.
         -1   -1    0    0    0  501 -0.00000000000E+00 -0.00000000000E+00 -0.53273636785E+03  0.53273636785E+03  0.00000000000E+00 0. -1.
         21    1    1    2  503  501 -0.36525080909E+02  0.15873234858E+02 -0.60047665786E+02  0.72053891544E+02  0.00000000000E+00 0. -1.
         21    1    1    2  504  503  0.43433329891E+01  0.48807440331E+02  0.31276270123E+02  0.58131195119E+02  0.00000000000E+00 0.  1.
         21    1    1    2  505  502 -0.44844652231E+02 -0.74493620096E+02  0.87075941155E+02  0.12305511691E+03  0.00000000000E+00 0.  1.
         -1    1    1    2    0  505  0.77026400150E+02  0.98129449064E+01 -0.43180552709E+03  0.43873155053E+03  0.00000000000E+00 0. -1.
<scales pt_clust_3="39.82513" pt_clust_4="49.37404" pt_clust_5="14000.00000" pt_clust_6="51.49364"></scales>
<clustering>
<clus scale="   39.825">  2  3  1 -1</clus>
<clus scale="   49.374">  1  4  2 -1</clus>
<clus scale="   51.494">  2  6  1 -1</clus>
<clus scale="   49.374">  1  3  2 -1</clus>
</clustering>
</event>
<event>
 6    0  0.5775861E+002  0.1202625E+03  0.7546771E-02  0.1242665E+00
         21   -1    0    0  505  502  0.00000000000E+00  0.00000000000E+00  0.27300593437E+03  0.27300593437E+03  0.00000000000E+00 0. -1.
          2   -1    0    0  504    0 -0.00000000000E+00 -0.00000000000E+00 -0.92352100275E+03  0.92352100275E+03  0.00000000000E+00 0. -1.
         21    1    1    2  503  502 -0.71864062984E+02  0.10120480158E+03  0.16920474774E+03  0.20985018959E+03  0.00000000000E+00 0. -1.
         21    1    1    2  504  503  0.23958949937E+02 -0.36117228668E+02 -0.52010135854E+02  0.67701844290E+02  0.00000000000E+00 0.  1.
         21    1    1    2  505  501 -0.23580847242E+02 -0.25927635548E+02  0.69484171097E+02  0.77822546057E+02  0.00000000000E+00 0.  1.
          2    1    1    2  501    0  0.71485960289E+02 -0.39159937366E+02 -0.83719385137E+03  0.84115235718E+03  0.00000000000E+00 0. -1.
<scales pt_clust_3="120.26251" pt_clust_4="43.69928" pt_clust_5="35.04709" pt_clust_6="14000.00000"></scales>
<clustering>
<clus scale="   35.047">  1  5  2 -1</clus>
<clus scale="   43.699">  2  4  1 -1</clus>
<clus scale="  120.263">  1  3  2 -1</clus>
<clus scale="   35.047">  1  3  2 -1</clus>
</clustering>
</event>
<event>
 6    0  0.5775861E+002  0.8812939E+02  0.7546771E-02  0.1307446E+00
          2   -1    0    0  503    0 -0.00000000000E+00  0.00000000000E+00  0.31888598302E+04  0.31888598302E+04  0.00000000000E+00 0.  1.
         21   -1    0    0  505  502  0.00000000000E+00 -0.00000000000E+00 -0.37468038564E+03  0.37468038564E+03  0.00000000000E+00 0.  1.
         21    1    1    2  503  502 -0.13836628123E+02 -0.11171927846E+03  0.14482954500E+03  0.18343458388E+03  0.00000000000E+00 0.  1.
         21    1    1    2  504  501  0.41070579087E+02  0.11166427032E+03  0.28373368221E+03  0.30766947225E+03  0.00000000000E+00 0.  1.
         21    1    1    2  505  504 -0.26698270858E+01  0.61738477851E+02 -0.34022241743E+03  0.34578904110E+03  0.00000000000E+00 0.  1.
          2    1    1    2  501    0 -0.24564123879E+02 -0.61683469711E+02  0.27258386348E+04  0.27266471186E+04  0.00000000000E+00 0.  1.
<scales pt_clust_3="14000.00000" pt_clust_4="88.12939" pt_clust_5="61.79618" pt_clust_6="65.67601"></scales>
<clustering>
<clus scale="   61.796">  2  5  1 -1</clus>
<clus scale="   65.676">  1  6  2 -1</clus>
<clus scale="   88.129">  1  4  2 -1</clus>
<clus scale="   61.796">  2  3  1 -1</clus>
</clustering>
</event>
<event>
 6    0  0.5775861E+002  0.8554546E+02  0.7546771E-02  0.1314012E+00
          2   -1    0    0  503    0 -0.00000000000E+00  0.00000000000E+00  0.19874354442E+04  0.19874354442E+04  0.00000000000E+00 0. -1.
         21   -1    0    0  504  502  0.00000000000E+00 -0.00000000000E+00 -0.93449990274E+02  0.93449990274E+02  0.00000000000E+00 0.  1.
         21    1    1    2  503  505 -0.10397884277E+03 -0.52560369683E+02  0.91390436607E+03  0.92130091855E+03  0.00000000000E+00 0.  1.
         21    1    1    2  504  501  0.31396706830E+02 -0.15127864597E+02 -0.42439846351E+02  0.54915808702E+02  0.00000000000E+00 0.  1.
         21    1    1    2  505  502  0.48932112159E+02  0.45442140434E+02 -0.13508269848E+02  0.68130852643E+02  0.00000000000E+00 0. -1.
          2    1    1    2  501    0  0.23650023782E+02  0.22246093847E+02  0.10360292040E+04  0.10365378545E+04  0.00000000000E+00 0. -1.
<scales pt_clust_3="14000.00000" pt_clust_4="34.92816" pt_clust_5="85.54546" pt_clust_6="32.46864"></scales>
<clustering>
<clus scale="   32.469">  1  6  2 -1</clus>
<clus scale="   34.928">  2  4  1 -1</clus>
<clus scale="   85.545">  2  5  1 -1</clus>
<clus scale="   34.928">  2  3  1 -1</clus>
</clustering>
</event>
<event>
 6    0  0.5775861E+002  0.8900741E+02  0.7546771E-02  0.1305273E+00
         21   -1    0    0  504  502  0.00000000000E+00  0.00000000000E+00  0.13767279422E+04  0.13767279422E+04  0.00000000000E+00 0. -1.
          2   -1    0    0  502    0 -0.00000000000E+00 -0.00000000000E+00 -0.29199932084E+04  0.29199932084E+04  0.00000000000E+00 0. -1.
         21    1    1    2  503  505  0.14032277787E+03 -0.18343904653E+02  0.64004320116E+03  0.65550154857E+03  0.00000000000E+00 0. -1.
         21    1    1    2  504  503 -0.54961195261E+02 -0.72195776123E+01  0.72696488879E+03  0.72907530805E+03  0.00000000000E+00 0. -1.
         21    1    1    2  505  501 -0.50580134142E+02  0.24757709495E+02 -0.10219085210E+04  0.10234589975E+04  0.00000000000E+00 0. -1.
          2    1    1    2  501    0 -0.34781448468E+02  0.80577277006E+00 -0.18883648352E+04  0.18886852965E+04  0.00000000000E+00 0. -1.
<scales pt_clust_3="14000.00000" pt_clust_4="55.46851" pt_clust_5="89.00741" pt_clust_6="34.79078"></scales>
<clustering>
<clus scale="   34.791">  2  6  1 -1</clus>
<clus scale="   55.469">  1  4  2 -1</clus>
<clus scale="   89.007">  2  5  1 -1</clus>
<clus scale="   55.469">  1  3  2 -1</clus>
</clustering>
</event>
<event>
 6    0  0.5775861E+002  0.1580509E+03  0.7546771E-02  0.1190915E+00
          2   -1    0    0  504    0 -0.00000000000E+00  0.00000000000E+00  0.26135460434E+04  0.26135460434E+04  0.00000000000E+00 0.  1.
         21   -1    0    0  503  502  0.00000000000E+00 -0.00000000000E+00 -0.17737049668E+03  0.17737049668E+03  0.00000000000E+00 0. -1.
         21    1    1    2  503  505 -0.62107771134E+01 -0.87065557011E+02 -0.33363503814E+02  0.93445750875E+02  0.00000000000E+00 0.  1.
         21    1    1    2  504  502  0.43151385101E+02  0.98877225848E+02  0.23728093558E+03  0.26065492556E+03  0.00000000000E+00 0.  1.
         21    1    1    2  505  501 -0.26445065161E+02 -0.59793737329E+02 -0.91544316596E+02  0.11249441940E+03  0.00000000000E+00 0. -1.
          2    1    1    2  501    0 -0.10495542826E+02  0.47982068491E+02  0.23238024316E+04  0.23243214443E+04  0.00000000000E+00 0.  1.
<scales pt_clust_3="56.92362" pt_clust_4="144.23857" pt_clust_5="56.92362" pt_clust_6="49.11655"></scales>
<clustering>
<clus scale="   49.117">  1  6  2 -1</clus>
<clus scale="   56.924">  3  5 -1 -1</clus>
<clus scale="  144.239">  1  4  2 -1</clus>
<clus scale="  158.051">  2  3  1 -1</clus>
</clustering>
</event>
<event>
 6    0  0.5775861E+002  0.8734225E+02  0.7546771E-02  0.1309419E+00
          3   -1    0    0  504    0 -0.00000000000E+00  0.00000000000E+00  0.15568106475E+04  0.15568106475E+04  0.00000000000E+00 0. -1.
         21   -1    0    0  505  502  0.00000000000E+00 -0.00000000000E+00 -0.18630113517E+03  0.18630113517E+03  0.00000000000E+00 0. -1.
         21    1    1    2  503  502 -0.73417451835E+02 -0.78256910328E+01 -0.14759360586E+03  0.16503101576E+03  0.00000000000E+00 0. -1.
         21    1    1    2  504  503  0.56921163528E+01 -0.49126433004E+02  0.50781854457E+03  0.51022101174E+03  0.00000000000E+00 0. -1.
         21    1    1    2  505  501  0.63870294888E+01  0.67830264720E+02  0.13905159501E+02  0.69534828815E+02  0.00000000000E+00 0. -1.
          3    1    1    2  501    0  0.61338305994E+02 -0.10878140683E+02  0.99637941415E+03  0.99832492640E+03  0.00000000000E+00 0. -1.
<scales pt_clust_3="14000.00000" pt_clust_4="49.45510" pt_clust_5="66.20536" pt_clust_6="87.34225"></scales>
<clustering>
<clus scale="   49.455">  1  4  2 -1</clus>
<clus scale="   66.205">  2  5  1 -1</clus>
<clus scale="   87.342">  1  6  2 -1</clus>
<clus scale="   66.205">  2  3  1 -1</clus>
</clustering>
</event>
<event>
 6    0  0.5775861E+002  0.3055970E+03  0.7546771E-02  0.1082476E+00
          2   -1    0    0  502    0 -0.00000000000E+00  0.00000000000E+00  0.51480654433E+03  0.51480654433E+03  0.00000000000E+00 0.  1.
         21   -1    0    0  503  502  0.00000000000E+00 -0.00000000000E+00 -0.98299684242E+03  0.98299684242E+03  0.00000000000E+00 0.  1.
         21    1    1    2  503  505 -0.45113926125E+02  0.25533936911E+03 -0.42816037137E+03  0.50055445594E+03  0.00000000000E+00 0.  1.
         21    1    1    2  504  501  0.30938099149E+02 -0.56474222835E+02 -0.36926080127E+02  0.74229638402E+02  0.00000000000E+00 0.  1.
         21    1    1    2  505  504 -0.12752604816E+02 -0.26107371851E+03 -0.42324111669E+03  0.49744864889E+03  0.00000000000E+00 0.  1.
          2    1    1    2  501    0  0.26928431792E+02  0.62208572234E+02  0.42013727010E+03  0.42557064352E+03  0.00000000000E+00 0.  1.
<scales pt_clust_3="281.94811" pt_clust_4="58.50682" pt_clust_5="58.50682" pt_clust_6="67.78678"></scales>
<clustering>
<clus scale="   58.507">  4  5 -1 -1</clus>
<clus scale="   67.787">  1  6  2 -1</clus>
<clus scale="  281.948">  2  3  1 -1</clus>
<clus scale="  281.948">  2  3  1 -1</clus>
</clustering>
</event>
<event>
 6    0  0.5775861E+002  0.2337481E+03  0.7546771E-02  0.1124029E+00
          2   -1    0    0  502    0 -0.00000000000E+00  0.00000000000E+00  0.12316544570E+04  0.12316544570E+04  0.00000000000E+00 0. -1.
         21   -1    0    0  503  502  0.00000000000E+00 -0.00000000000E+00 -0.12018869001E+03  0.12018869001E+03  0.00000000000E+00 0. -1.
         21    1    1    2  503  505  0.22735265645E+03 -0.82924856147E+02  0.88665670944E+02  0.25773506429E+03  0.00000000000E+00 0. -1.
         21    1    1    2  504  501 -0.55855606933E+02  0.57527003906E+02  0.10149512796E+03  0.12934630263E+03  0.00000000000E+00 0. -1.
         21    1    1    2  505  504 -0.12261565635E+03  0.52627795599E+02  0.19486934381E+03  0.23617439575E+03  0.00000000000E+00 0. -1.
          2    1    1    2  501    0 -0.48881393164E+02 -0.27229943358E+02  0.72643562424E+03  0.72858738431E+03  0.00000000000E+00 0. -1.
<scales pt_clust_3="229.89294" pt_clust_4="32.77330" pt_clust_5="32.77330" pt_clust_6="55.95409"></scales>
<clustering>
<clus scale="   32.773">  4  5 -1 -1</clus>
<clus scale="   55.954">  1  6  2 -1</clus>
<clus scale="  229.893">  2  3  1 -1</clus>
<clus scale="  229.893">  2  3  1 -1</clus>
</clustering>
</event>
<event>
 6    0  0.5775861E+002  0.1002780E+03  0.7546771E-02  0.1279713E+00
         21   -1    0    0  503  502  0.00000000000E+00  0.00000000000E+00  0.48935088341E+03  0.48935088341E+03  0.00000000000E+00 0.  1.
         -2   -1    0    0    0  501 -0.00000000000E+00 -0.00000000000E+00 -0.14209547332E+03  0.14209547332E+03  0.00000000000E+00 0.  1.
         21    1    1    2  503  501  0.49480244560E+02 -0.16217731026E+03  0.18805821693E+03  0.25321071762E+03  0.00000000000E+00 0.  1.
         21    1    1    2  504  505  0.50328413308E+02  0.73464158085E+02  0.14339504280E+03  0.16879594192E+03  0.00000000000E+00 0.  1.
         21    1    1    2  505  502 -0.31720848522E+02  0.22971559741E+02  0.84067709485E+02  0.92743110611E+02  0.00000000000E+00 0. -1.
         -2    1    1    2    0  504 -0.68087809345E+02  0.65741592429E+02 -0.68265559124E+02  0.11669658658E+03  0.00000000000E+00 0.  1.
<scales pt_clust_3="100.27795" pt_clust_4="90.73797" pt_clust_5="39.16510" pt_clust_6="14000.00000"></scales>
<clustering>
<clus scale="   39.165">  1  5  2 -1</clus>
<clus scale="   90.738">  1  4  2 -1</clus>
<clus scale="  100.278">  1  3  2 -1</clus>
<clus scale="   39.165">  1  3  2 -1</clus>
</clustering>
</event>
<event>
 6    0  0.5775861E+002  0.9177207E+02  0.7546771E-02  0.1298616E+00
          1   -1    0    0  504    0 -0.00000000000E+00  0.00000000000E+00  0.27844824111E+04  0.27844824111E+04  0.00000000000E+00 0. -1.
         21   -1    0    0  505  502  0.00000000000E+00 -0.00000000000E+00 -0.48580888518E+02  0.48580888518E+02  0.00000000000E+00 0.  1.
         21    1    1    2  503  502  0.28909413747E+02  0.21052286758E+02 -0.19061257915E+02  0.40525109923E+02  0.00000000000E+00 0.  1.
         21    1    1    2  504  503 -0.48198687396E+02  0.66691787468E+02  0.12294512927E+03  0.14794057183E+03  0.00000000000E+00 0. -1.
         21    1    1    2  505  501  0.91476931631E+02 -0.94082125461E+02  0.76491104405E+03  0.77608529213E+03  0.00000000000E+00 0.  1.
          1    1    1    2  501    0 -0.72187657982E+02  0.63380512341E+01  0.18671066072E+04  0.18685123257E+04  0.00000000000E+00 0. -1.
<scales pt_clust_3="35.76245" pt_clust_4="91.77207" pt_clust_5="14000.00000" pt_clust_6="71.46228"></scales>
<clustering>
<clus scale="   35.762">  2  3  1 -1</clus>
<clus scale="   71.462">  1  6  2 -1</clus>
<clus scale="   91.772">  2  4  1 -1</clus>
<clus scale="   35.762">  2  3  1 -1</clus>
</clustering>
</event>
<event>
 6    0  0.5775861E+002  0.9406799E+02  0.7546771E-02  0.1293289E+00
         21   -1    0    0  504  502  0.00000000000E+00  0.00000000000E+00  0.90988761529E+03  0.90988761529E+03  0.00000000000E+00 0. -1.
         -3   -1    0    0    0  501 -0.00000000000E+00 -0.00000000000E+00 -0.11627828411E+04  0.11627828411E+04  0.00000000000E+00 0. -1.
         21    1    1    2  503  505  0.61646199426E+02 -0.43324660676E+02 -0.98723730756E+02  0.12419200917E+03  0.00000000000E+00 0. -1.
         21    1    1    2  504  501 -0.41718962951E+02 -0.44078367100E+02  0.39756317711E+03  0.40216893727E+03  0.00000000000E+00 0. -1.
         21    1    1    2  505  502  0.91743361699E+01  0.13416111800E+03  0.48745386429E+03  0.50566257903E+03  0.00000000000E+00 0. -1.
         -3    1    1    2    0  503 -0.29101572645E+02 -0.46758090222E+02 -0.10391885364E+04  0.10406469309E+04  0.00000000000E+00 0. -1.
<scales pt_clust_3="94.06799" pt_clust_4="61.70261" pt_clust_5="14000.00000" pt_clust_6="55.07468"></scales>
<clustering>
<clus scale="   55.075">  2  6  1 -1</clus>
<clus scale="   61.703">  1  4  2 -1</clus>
<clus scale="   94.068">  2  3  1 -1</clus>
<clus scale="   61.703">  1  3  2 -1</clus>
</clustering>
</event>
<event>
 6    0  0.5775861E+002  0.2763406E+03  0.7546771E-02  0.1097705E+00
         21   -1    0    0  503  502  0.00000000000E+00  0.00000000000E+00  0.12067918718E+04  0.12067918718E+04  0.00000000000E+00 0. -1.
         -3   -1    0    0    0  501 -0.00000000000E+00 -0.00000000000E+00 -0.59562464087E+03  0.59562464087E+03  0.00000000000E+00 0. -1.
         21    1    1    2  503  504  0.23492207358E+02  0.24736166414E+02  0.46785640765E+02  0.57902140869E+02  0.00000000000E+00 0. -1.
         21    1    1    2  504  501 -0.12945028954E+03 -0.13726861449E+03 -0.53398569568E+02  0.19609043123E+03  0.00000000000E+00 0.  1.
         21    1    1    2  505  502  0.71201997440E+02  0.26050810392E+03  0.10531796986E+04  0.10872541903E+04  0.00000000000E+00 0. -1.
         -3    1    1    2    0  505  0.34756084743E+02 -0.14797565584E+03 -0.43539953889E+03  0.46116975032E+03  0.00000000000E+00 0. -1.
<scales pt_clust_3="34.11395" pt_clust_4="14000.00000" pt_clust_5="276.34057" pt_clust_6="151.79408"></scales>
<clustering>
<clus scale="   34.114">  1  3  2 -1</clus>
<clus scale="  151.794">  2  6  1 -1</clus>
<clus scale="  276.341">  1  5  2 -1</clus>
<clus scale="   34.114">  1  3  2 -1</clus>
</clustering>
</event>
<event>
 6    0  0.5775861E+002  0.9508822E+02  0.7546771E-02  0.1290978E+00
         21   -1    0    0  503  502  0.00000000000E+00  0.00000000000E+00  0.63291142600E+02  0.63291142600E+02  0.00000000000E+00 0.  1.
          3   -1    0    0  505    0 -0.00000000000E+00 -0.00000000000E+00 -0.50868623558E+04  0.50868623558E+04  0.00000000000E+00 0. -1.
         21    1    1    2  503  501  0.51153807714E+01 -0.85555134827E+02 -0.69278752524E+01  0.85987462291E+02  0.00000000000E+00 0.  1.
         21    1    1    2  504  502  0.16990062681E+02  0.30693897514E+02  0.60567199339E+01  0.35601424562E+02  0.00000000000E+00 0.  1.
         21    1    1    2  505  504  0.71995255875E+02  0.75539938454E+02 -0.11657320078E+04  0.11703934011E+04  0.00000000000E+00 0.  1.
          3    1    1    2  501    0 -0.94100699327E+02 -0.20678701141E+02 -0.38569680500E+04  0.38581712104E+04  0.00000000000E+00 0. -1.
<scales pt_clust_3="60.70398" pt_clust_4="35.08244" pt_clust_5="95.08822" pt_clust_6="14000.00000"></scales>
<clustering>
<clus scale="   35.082">  1  4  2 -1</clus>
<clus scale="   60.704">  1  3  2 -1</clus>
<clus scale="   95.088">  1  5  2 -1</clus>
<clus scale="   35.082">  1  3  2 -1</clus>
</clustering>
</event>
<event>
 6    0  0.5775861E+002  0.8971005E+02  0.7546771E-02  0.1303555E+00
         21   -1    0    0  504  502  0.00000000000E+00  0.00000000000E+00  0.11399858738E+04  0.11399858738E+04  0.00000000000E+00 0. -1.
          1   -1    0    0  505    0 -0.00000000000E+00 -0.00000000000E+00 -0.17283978237E+03  0.17283978237E+03  0.00000000000E+00 0. -1.
         21    1    1    2  503  502 -0.54033273785E+02 -0.86651793197E-01  0.71008724035E+03  0.71214007828E+03  0.00000000000E+00 0. -1.
         21    1    1    2  504  501  0.52525481555E+02 -0.91704501898E+02  0.34201917527E+03  0.35797452163E+03  0.00000000000E+00 0. -1.
         21    1    1    2  505  503  0.37312465027E+02  0.83258276276E+02  0.49155569849E+02  0.10363604905E+03  0.00000000000E+00 0. -1.
          1    1    1    2  501    0 -0.35804672797E+02  0.85328774148E+01 -0.13411589406E+03  0.13907500721E+03  0.00000000000E+00 0. -1.
<scales pt_clust_3="55.04746" pt_clust_4="14000.00000" pt_clust_5="89.71005" pt_clust_6="36.80740"></scales>
<clustering>
<clus scale="   36.807">  2  6  1 -1</clus>
<clus scale="   55.047">  1  3  2 -1</clus>
<clus scale="   89.710">  2  5  1 -1</clus>
<clus scale="   55.047">  1  3  2 -1</clus>
</clustering>
</event>
<event>
 6    0  0.5775861E+002  0.5868861E+02  0.7546771E-02  0.1403419E+00
          1   -1    0    0  505    0 -0.00000000000E+00  0.00000000000E+00  0.23330551460E+03  0.23330551460E+03  0.00000000000E+00 0.  1.
         21   -1    0    0  504  502  0.00000000000E+00 -0.00000000000E+00 -0.59703364651E+03  0.59703364651E+03  0.00000000000E+00 0.  1.
         21    1    1    2  503  502  0.38356365243E+02  0.32860135957E+02 -0.44597600589E+03  0.44882691221E+03  0.00000000000E+00 0.  1.
         21    1    1    2  504  501 -0.86463590658E+02 -0.64974871556E+02 -0.11865366305E+03  0.16055023575E+03  0.00000000000E+00 0.  1.
         21    1    1    2  505  503  0.24894595289E+01  0.44549415334E+02  0.92599291045E+02  0.10278850382E+03  0.00000000000E+00 0.  1.
          1    1    1    2  501    0  0.45617765886E+02 -0.12434679735E+02  0.10830224598E+03  0.11817350934E+03  0.00000000000E+00 0.  1.
<scales pt_clust_3="50.83308" pt_clust_4="14000.00000" pt_clust_5="44.61892" pt_clust_6="58.68861"></scales>
<clustering>
<clus scale="   44.619">  1  5  2 -1</clus>
<clus scale="   50.833">  2  3  1 -1</clus>
<clus scale="   58.689">  1  6  2 -1</clus>
<clus scale="   50.833">  2  3  1 -1</clus>
</clustering>
</event>
<event>
 6    0  0.5775861E+002  0.1813156E+03  0.7546771E-02  0.1166536E+00
         21   -1    0    0  503  502  0.00000000000E+00  0.00000000000E+00  0.82213353237E+03  0.82213353237E+03  0.00000000000E+00 0. -1.
          2   -1    0    0  504    0 -0.00000000000E+00 -0.00000000000E+00 -0.22592226472E+04  0.22592226472E+04  0.00000000000E+00 0.  1.
         21    1    1    2  503  505  0.27436961927E+02  0.98696602148E+02  0.59741742395E+03  0.60613644058E+03  0.00000000000E+00 0. -1.
         21    1    1    2  504  502  0.10948632328E+03 -0.67502940653E+01 -0.17734168329E+03  0.20852552383E+03  0.00000000000E+00 0.  1.
         21    1    1    2  505  501 -0.22158530120E+03 -0.14901111439E+03  0.11582342331E+03  0.29106601194E+03  0.00000000000E+00 0.  1.
          2    1    1    2  501    0  0.84662015987E+02  0.57064806306E+02 -0.19729882788E+04  0.19756282032E+04  0.00000000000E+00 0.  1.
<scales pt_clust_3="103.63246" pt_clust_4="181.31561" pt_clust_5="14000.00000" pt_clust_6="102.09823"></scales>
<clustering>
<clus scale="  102.098">  2  6  1 -1</clus>
<clus scale="  103.632">  1  3  2 -1</clus>
<clus scale="  181.316">  2  4  1 -1</clus>
<clus scale="  103.632">  1  3  2 -1</clus>
</clustering>
</event>
<event>
 6    0  0.5775861E+002  0.9827423E+02  0.7546771E-02  0.1283967E+00
          2   -1    0    0  503    0 -0.00000000000E+00  0.00000000000E+00  0.10893523309E+04  0.10893523309E+04  0.00000000000E+00 0. -1.
         21   -1    0    0  505  502  0.00000000000E+00 -0.00000000000E+00 -0.35325426562E+03  0.35325426562E+03  0.00000000000E+00 0. -1.
         21    1    1    2  503  504 -0.41600216079E+02 -0.12079172093E+02  0.30212098813E+02  0.52813400676E+02  0.00000000000E+00 0. -1.
         21    1    1    2  504  502  0.41476503033E+02 -0.34208084952E+02  0.17769605408E+03  0.18565123488E+03  0.00000000000E+00 0.  1.
         21    1    1    2  505  501  0.44176580775E+02  0.88171462539E+02 -0.32968350190E+03  0.34411769573E+03  0.00000000000E+00 0. -1.
          2    1    1    2  501    0 -0.44052867729E+02 -0.41884205493E+02  0.85787341430E+03  0.86002426523E+03  0.00000000000E+00 0. -1.
<scales pt_clust_3="43.31841" pt_clust_4="49.91869" pt_clust_5="98.27423" pt_clust_6="14000.00000"></scales>
<clustering>
<clus scale="   43.318">  1  3  2 -1</clus>
<clus scale="   49.919">  1  4  2 -1</clus>
<clus scale="   98.274">  2  5  1 -1</clus>
<clus scale="   98.274">  2  3  1 -1</clus>
</clustering>
</event>
<event>
 6    0  0.5775861E+002  0.9657592E+02  0.7546771E-02  0.1287666E+00
          2   -1    0    0  505    0 -0.00000000000E+00  0.00000000000E+00  0.43721343364E+04  0.43721343364E+04  0.00000000000E+00 0. -1.
         21   -1    0    0  504  502  0.00000000000E+00 -0.00000000000E+00 -0.12756500931E+02  0.12756500931E+02  0.00000000000E+00 0. -1.
         21    1    1    2  503  502  0.22757261308E+02  0.25751433250E+02  0.89799433523E+02  0.96150754119E+02  0.00000000000E+00 0. -1.
         21    1    1    2  504  501  0.39070100373E+01 -0.11397191105E+03  0.40674500822E+03  0.42242912180E+03  0.00000000000E+00 0. -1.
         21    1    1    2  505  503 -0.49766072819E+02 -0.18766876574E+02  0.15026502593E+04  0.15035912541E+04  0.00000000000E+00 0. -1.
          2    1    1    2  501    0  0.23101801474E+02  0.10698735437E+03  0.23601831345E+04  0.23627197073E+04  0.00000000000E+00 0. -1.
<scales pt_clust_3="34.36611" pt_clust_4="96.57592" pt_clust_5="51.70113" pt_clust_6="14000.00000"></scales>
<clustering>
<clus scale="   34.366">  2  3  1 -1</clus>
<clus scale="   51.701">  1  5  2 -1</clus>
<clus scale="   96.576">  2  4  1 -1</clus>
<clus scale="   34.366">  2  3  1 -1</clus>
</clustering>
</event>
<event>
 6    0  0.5775861E+002  0.1696872E+03  0.7546771E-02  0.1178174E+00
         21   -1    0    0  504  502  0.00000000000E+00  0.00000000000E+00  0.92974625543E+03  0.92974625543E+03  0.00000000000E+00 0.  1.
          2   -1    0    0  503    0 -0.00000000000E+00 -0.00000000000E+00 -0.89270145293E+03  0.89270145293E+03  0.00000000000E+00 0. -1.
         21    1    1    2  503  505 -0.14537136436E+03  0.12712232269E+03 -0.17174012763E+03  0.25843295056E+03  0.00000000000E+00 0. -1.
         21    1    1    2  504  501 -0.50546345324E+02 -0.11736999194E+02  0.37109271274E+03  0.37470320471E+03  0.00000000000E+00 0.  1.
         21    1    1    2  505  502  0.13526092751E+03 -0.13230371056E+03  0.49451549534E+03  0.52947650134E+03  0.00000000000E+00 0.  1.
          2    1    1    2  501    0  0.60656782166E+02  0.16918387068E+02 -0.65682327795E+03  0.65983505174E+03  0.00000000000E+00 0. -1.
<scales pt_clust_3="169.68724" pt_clust_4="51.89114" pt_clust_5="14000.00000" pt_clust_6="62.83184"></scales>
<clustering>
<clus scale="   51.891">  1  4  2 -1</clus>
<clus scale="   62.832">  2  6  1 -1</clus>
<clus scale="  169.687">  2  3  1 -1</clus>
<clus scale="   51.891">  1  3  2 -1</clus>
</clustering>
</event>
<event>
 6    0  0.5775861E+002  0.7727838E+02  0.7546771E-02  0.1336957E+00
          1   -1    0    0  504    0 -0.00000000000E+00  0.00000000000E+00  0.95535103400E+03  0.95535103400E+03  0.00000000000E+00 0. -1.
         21   -1    0    0  505  502  0.00000000000E+00 -0.00000000000E+00 -0.28684204269E+03  0.28684204269E+03  0.00000000000E+00 0. -1.
         21    1    1    2  503  502 -0.11703785561E+02  0.38294893521E+02 -0.23725767576E+03  0.24061313799E+03  0.00000000000E+00 0. -1.
         21    1    1    2  504  503 -0.18882684868E+02 -0.11746379551E+03  0.51200879909E+03  0.52564941681E+03  0.00000000000E+00 0. -1.
         21    1    1    2  505  501 -0.16955321312E+02  0.34140422246E+02 -0.29147520574E+02  0.47985719829E+02  0.00000000000E+00 0.  1.
          1    1    1    2  501    0  0.47541791741E+02  0.45028479744E+02  0.42290538855E+03  0.42794480207E+03  0.00000000000E+00 0. -1.
<scales pt_clust_3="14000.00000" pt_clust_4="77.27838" pt_clust_5="38.11891" pt_clust_6="65.59556"></scales>
<clustering>
<clus scale="   38.119">  2  5  1 -1</clus>
<clus scale="   65.596">  1  6  2 -1</clus>
<clus scale="   77.278">  1  4  2 -1</clus>
<clus scale="   38.119">  2  3  1 -1</clus>
</clustering>
</event>
<event>
 6    0  0.5775861E+002  0.1262341E+03  0.7546771E-02  0.1233153E+00
          3   -1    0    0  504    0 -0.00000000000E+00  0.00000000000E+00  0.27172129374E+03  0.27172129374E+03  0.00000000000E+00 0.  1.
         21   -1    0    0  503  502  0.00000000000E+00 -0.00000000000E+00 -0.49041661712E+03  0.49041661712E+03  0.00000000000E+00 0.  1.
         21    1    1    2  503  505 -0.11762700506E+02  0.44059438394E+02 -0.18619863737E+03  0.19170166351E+03  0.00000000000E+00 0.  1.
         21    1    1    2  504  502  0.12616687514E+03 -0.58077738431E+01  0.44292884433E+02  0.13384195991E+03  0.00000000000E+00 0. -1.
         21    1    1    2  505  501 -0.11027980068E+03  0.74438212557E+01 -0.24151100877E+03  0.26560235743E+03  0.00000000000E+00 0.  1.
          3    1    1    2  501    0 -0.41243739551E+01 -0.45695485807E+02  0.16472143833E+03  0.17099193001E+03  0.00000000000E+00 0.  1.
<scales pt_clust_3="45.60258" pt_clust_4="14000.00000" pt_clust_5="126.23411" pt_clust_6="45.43616"></scales>
<clustering>
<clus scale="   45.603">  2  3  1 -1</clus>
<clus scale="   45.436">  1  6  2 -1</clus>
<clus scale="  126.234">  2  5  1 -1</clus>
<clus scale="   45.603">  2  3  1 -1</clus>
</clustering>
</event>
<event>
 6    0  0.5775861E+002  0.9680080E+02  0.7546771E-02  0.1287171E+00
         -2   -1    0    0    0  501 -0.00000000000E+00  0.00000000000E+00  0.34589556650E+03  0.34589556650E+03  0.00000000000E+00 0.  1.
         21   -1    0    0  505  502  0.00000000000E+00 -0.00000000000E+00 -0.51492464303E+03  0.51492464303E+03  0.00000000000E+00 0.  1.
         21    1    1    2  503  501 -0.65048516327E+02 -0.61197181001E+02 -0.33507064349E+03  0.34676900174E+03  0.00000000000E+00 0.  1.
         21    1    1    2  504  502 -0.12437233585E+02 -0.36861528262E+02 -0.21944324360E+02  0.44665539475E+02  0.00000000000E+00 0.  1.
         21    1    1    2  505  503  0.49830531216E+02  0.48592669755E+01 -0.12870977990E+03  0.13810467681E+03  0.00000000000E+00 0.  1.
         -2    1    1    2    0  504  0.27655218696E+02  0.93199442287E+02  0.31669567122E+03  0.33128099150E+03  0.00000000000E+00 0.  1.
<scales pt_clust_3="96.80080" pt_clust_4="38.90318" pt_clust_5="46.69311" pt_clust_6="14000.00000"></scales>
<clustering>
<clus scale="   38.903">  2  4  1 -1</clus>
<clus scale="   46.693">  2  5  1 -1</clus>
<clus scale="   96.801">  2  3  1 -1</clus>
<clus scale="   38.903">  2  3  1 -1</clus>
</clustering>
</event>
<event>
 6    0  0.5775861E+002  0.1926804E+03  0.7546771E-02  0.1156066E+00
          2   -1    0    0  505    0 -0.00000000000E+00  0.00000000000E+00  0.83820489700E+03  0.83820489700E+03  0.00000000000E+00 0.  1.
         21   -1    0    0  503  502  0.00000000000E+00 -0.00000000000E+00 -0.21761358893E+03  0.21761358893E+03  0.00000000000E+00 0. -1.
         21    1    1    2  503  501  0.84029513769E+02 -0.14006732774E+03  0.82824999091E+02  0.18313873419E+03  0.00000000000E+00 0. -1.
         21    1    1    2  504  502  0.48896500073E+02 -0.87091014325E+01 -0.66861374273E+02  0.83289612419E+02  0.00000000000E+00 0. -1.
         21    1    1    2  505  504 -0.45822850443E+02  0.22774066095E+03  0.70923985426E+02  0.24289041558E+03  0.00000000000E+00 0. -1.
          2    1    1    2  501    0 -0.87103163399E+02 -0.78964231776E+02  0.53370369783E+03  0.54649972375E+03  0.00000000000E+00 0.  1.
<scales pt_clust_3="14000.00000" pt_clust_4="49.66605" pt_clust_5="192.68040" pt_clust_6="116.21821"></scales>
<clustering>
<clus scale="   49.666">  2  4  1 -1</clus>
<clus scale="  116.218">  1  6  2 -1</clus>
<clus scale="  192.680">  2  5  1 -1</clus>
<clus scale="   49.666">  2  3  1 -1</clus>
</clustering>
</event>
<event>
 6    0  0.5775861E+002  0.1384168E+03  0.7546771E-02  0.1215475E+00
         -4   -1    0    0    0  501 -0.00000000000E+00  0.00000000000E+00  0.42914624506E+03  0.42914624506E+03  0.00000000000E+00 0. -1.
         21   -1    0    0  505  502  0.00000000000E+00 -0.00000000000E+00 -0.72600356935E+03  0.72600356935E+03  0.00000000000E+00 0.  1.
         21    1    1    2  503  504  0.43931239797E+02  0.17692699400E+03 -0.29201430145E+02  0.18462350489E+03  0.00000000000E+00 0.  1.
         21    1    1    2  504  501 -0.43922004028E+02 -0.89439991082E+02  0.35678270635E+02  0.10583758046E+03  0.00000000000E+00 0. -1.
         21    1    1    2  505  503  0.50988002817E+02 -0.27325577084E+02 -0.57699615159E+03  0.57988880188E+03  0.00000000000E+00 0.  1.
         -4    1    1    2    0  502 -0.50997238586E+02 -0.60161425830E+02  0.27366198681E+03  0.28479992719E+03  0.00000000000E+00 0. -1.
<scales pt_clust_3="14000.00000" pt_clust_4="138.41679" pt_clust_5="57.84863" pt_clust_6="78.43915"></scales>
<clustering>
<clus scale="   57.849">  2  5  1 -1</clus>
<clus scale="   78.439">  1  6  2 -1</clus>
<clus scale="  138.417">  1  4  2 -1</clus>
<clus scale="   57.849">  2  3  1 -1</clus>
</clustering>
</event>
<event>
 6    0  0.5775861E+002  0.9537590E+02  0.7546771E-02  0.1290332E+00
         21   -1    0    0  505  502  0.00000000000E+00  0.00000000000E+00  0.24495852730E+04  0.24495852730E+04  0.00000000000E+00 0.  1.
          1   -1    0    0  503    0 -0.00000000000E+00 -0.00000000000E+00 -0.11186053381E+04  0.11186053381E+04  0.00000000000E+00 0.  1.
         21    1    1    2  503  502  0.69842557581E+02 -0.50616440869E+02 -0.19701146517E+02  0.88476788537E+02  0.00000000000E+00 0.  1.
         21    1    1    2  504  501 -0.37551635529E+02 -0.20934046232E+02 -0.35540249949E+02  0.55780543104E+02  0.00000000000E+00 0.  1.
         21    1    1    2  505  504 -0.32930120996E+02 -0.26831447853E+02  0.24025140599E+04  0.24028895371E+04  0.00000000000E+00 0.  1.
          1    1    1    2  501    0  0.63919894297E+00  0.98381934954E+02 -0.10162927286E+04  0.10210437424E+04  0.00000000000E+00 0.  1.
<scales pt_clust_3="95.37590" pt_clust_4="52.04586" pt_clust_5="42.47728" pt_clust_6="14000.00000"></scales>
<clustering>
<clus scale="   42.477">  1  5  2 -1</clus>
<clus scale="   52.046">  1  4  2 -1</clus>
<clus scale="   95.376">  1  3  2 -1</clus>
<clus scale="   42.477">  1  3  2 -1</clus>
</clustering>
</event>
<event>
 6    0  0.5775861E+002  0.7748716E+02  0.7546771E-02  0.1336338E+00
         -2   -1    0    0    0  501 -0.00000000000E+00  0.00000000000E+00  0.79944074141E+03  0.79944074141E+03  0.00000000000E+00 0.  1.
         21   -1    0    0  503  502  0.00000000000E+00 -0.00000000000E+00 -0.10831653784E+03  0.10831653784E+03  0.00000000000E+00 0. -1.
         21    1    1    2  503  501 -0.96838714584E+01  0.50574459841E+02 -0.87665920731E+01  0.52234150622E+02  0.00000000000E+00 0.  1.
         21    1    1    2  504  505  0.33098562863E+02 -0.11206306323E+03  0.10047347123E+03  0.15410568914E+03  0.00000000000E+00 0.  1.
         21    1    1    2  505  502 -0.34878174210E+02 -0.12714972223E+02 -0.41750495441E+02  0.55868250594E+02  0.00000000000E+00 0. -1.
         -2    1    1    2    0  504  0.11463482805E+02  0.74203575616E+02  0.64116781985E+03  0.64554918890E+03  0.00000000000E+00 0.  1.
<scales pt_clust_3="51.96773" pt_clust_4="77.48716" pt_clust_5="37.12354" pt_clust_6="14000.00000"></scales>
<clustering>
<clus scale="   37.124">  2  5  1 -1</clus>
<clus scale="   51.968">  2  3  1 -1</clus>
<clus scale="   77.487">  2  4  1 -1</clus>
<clus scale="   37.124">  2  3  1 -1</clus>
</clustering>
</event>
<event>
 6    0  0.5775861E+002  0.1305588E+03  0.7546771E-02  0.1226629E+00
          2   -1    0    0  503    0 -0.00000000000E+00  0.00000000000E+00  0.12769584902E+04  0.12769584902E+04  0.00000000000E+00 0. -1.
         21   -1    0    0  504  502  0.00000000000E+00 -0.00000000000E+00 -0.10256737764E+04  0.10256737764E+04  0.00000000000E+00 0.  1.
         21    1    1    2  503  502 -0.25561932155E+02 -0.10728680306E+03 -0.71307336134E+02  0.13133395095E+03  0.00000000000E+00 0.  1.
         21    1    1    2  504  505 -0.26013376903E+02  0.26208667593E+02 -0.55808657049E+03  0.55930690161E+03  0.00000000000E+00 0.  1.
         21    1    1    2  505  501 -0.39191922513E+02 -0.14425051263E+02 -0.36096699773E+03  0.36337482348E+03  0.00000000000E+00 0.  1.
          2    1    1    2  501    0  0.90767231571E+02  0.95503186730E+02  0.12416456181E+04  0.12486165905E+04  0.00000000000E+00 0. -1.
<scales pt_clust_3="130.55880" pt_clust_4="36.92682" pt_clust_5="59.65958" pt_clust_6="14000.00000"></scales>
<clustering>
<clus scale="   36.927">  2  4  1 -1</clus>
<clus scale="   59.660">  2  5  1 -1</clus>
<clus scale="  130.559">  2  3  1 -1</clus>
<clus scale="   36.927">  2  3  1 -1</clus>
</clustering>
</event>
<event>
 6    0  0.5775861E+002  0.2768312E+03  0.7546771E-02  0.1097432E+00
         21   -1    0    0  505  502  0.00000000000E+00  0.00000000000E+00  0.22257870361E+03  0.22257870361E+03  0.00000000000E+00 0. -1.
         -4   -1    0    0    0  501 -0.00000000000E+00 -0.00000000000E+00 -0.91874003794E+03  0.91874003794E+03  0.00000000000E+00 0. -1.
         21    1    1    2  503  504 -0.31621415203E+01  0.46305678013E+02  0.33061975632E+02  0.56985166385E+02  0.00000000000E+00 0. -1.
         21    1    1    2  504  501 -0.48985527998E+02 -0.19450979001E+03 -0.13707098850E+03  0.24294463618E+03  0.00000000000E+00 0. -1.
         21    1    1    2  505  503  0.50715900708E+02  0.26223860506E+03 -0.31145039153E+02  0.26890742279E+03  0.00000000000E+00 0. -1.
         -4    1    1    2    0  502  0.14317688103E+01 -0.11403449306E+03 -0.56100728231E+03  0.57248151619E+03  0.00000000000E+00 0. -1.
<scales pt_clust_3="38.97418" pt_clust_4="260.56506" pt_clust_5="38.97418" pt_clust_6="114.04348"></scales>
<clustering>
<clus scale="   38.974">  3  5 -1 -1</clus>
<clus scale="  114.043">  2  6  1 -1</clus>
<clus scale="  260.565">  2  4  1 -1</clus>
<clus scale="  276.831">  1  3  2 -1</clus>
</clustering>
</event>
<event>
 6    0  0.5775861E+002  0.1424684E+03  0.7546771E-02  0.1210046E+00
         21   -1    0    0  504  502  0.00000000000E+00  0.00000000000E+00  0.71525129939E+02  0.71525129939E+02  0.00000000000E+00 0. -1.
          4   -1    0    0  505    0 -0.00000000000E+00 -0.00000000000E+00 -0.99664959606E+03  0.99664959606E+03  0.00000000000E+00 0. -1.
         21    1    1    2  503  502 -0.67754203767E+02 -0.87663728612E+02 -0.32706851866E+02  0.11552185768E+03  0.00000000000E+00 0. -1.
         21    1    1    2  504  501  0.87856614428E+02 -0.29964717704E+02 -0.13758334762E+03  0.16596941449E+03  0.00000000000E+00 0. -1.
         21    1    1    2  505  503 -0.44087081496E+02 -0.10154805399E+02 -0.40840300609E+02  0.60948510904E+02  0.00000000000E+00 0. -1.
          4    1    1    2  501    0  0.23984670836E+02  0.12778325172E+03 -0.71399396603E+03  0.72573494292E+03  0.00000000000E+00 0. -1.
<scales pt_clust_3="38.63594" pt_clust_4="92.82601" pt_clust_5="38.63594" pt_clust_6="129.00219"></scales>
<clustering>
<clus scale="   38.636">  3  5 -1 -1</clus>
<clus scale="   92.826">  1  4  2 -1</clus>
<clus scale="  129.002">  2  6  1 -1</clus>
<clus scale="   92.826">  1  3  2 -1</clus>
</clustering>
</event>
<event>
 6    0  0.5775861E+002  0.1405192E+03  0.7546771E-02  0.1212632E+00
         21   -1    0    0  503  502  0.00000000000E+00  0.00000000000E+00  0.15596388727E+03  0.15596388727E+03  0.00000000000E+00 0.  1.
          2   -1    0    0  505    0 -0.00000000000E+00 -0.00000000000E+00 -0.16217247731E+04  0.16217247731E+04  0.00000000000E+00 0.  1.
         21    1    1    2  503  504 -0.88519855207E+02  0.75298392868E+02  0.89774432945E+02  0.14685047342E+03  0.00000000000E+00 0.  1.
         21    1    1    2  504  501  0.13041570457E+03 -0.10296687557E+03 -0.29764443195E+03  0.34088508523E+03  0.00000000000E+00 0. -1.
         21    1    1    2  505  502 -0.42370029587E+02 -0.22854637949E+02 -0.21828749566E+02  0.52858756991E+02  0.00000000000E+00 0. -1.
          2    1    1    2  501    0  0.47418022165E+00  0.50523120652E+02 -0.12360621373E+04  0.12370943448E+04  0.00000000000E+00 0.  1.
<scales pt_clust_3="14000.00000" pt_clust_4="140.51916" pt_clust_5="48.14098" pt_clust_6="50.44014"></scales>
<clustering>
<clus scale="   48.141">  1  5  2 -1</clus>
<clus scale="   50.440">  2  6  1 -1</clus>
<clus scale="  140.519">  2  4  1 -1</clus>
<clus scale="   48.141">  1  3  2 -1</clus>
</clustering>
</event>
<event>
 6    0  0.5775861E+002  0.1884067E+03  0.7546771E-02  0.1159906E+00
         21   -1    0    0  503  502  0.00000000000E+00  0.00000000000E+00  0.10601619508E+03  0.10601619508E+03  0.00000000000E+00 0. -1.
         -2   -1    0    0    0  501 -0.00000000000E+00 -0.00000000000E+00 -0.57267022434E+03  0.57267022434E+03  0.00000000000E+00 0. -1.
         21    1    1    2  503  501  0.11224909260E+03 -0.12309021062E+03 -0.31305410627E+03  0.35461800884E+03  0.00000000000E+00 0. -1.
         21    1    1    2  504  502  0.34363445218E+02 -0.28513538800E+02  0.15618325347E+02  0.47305394499E+02  0.00000000000E+00 0. -1.
         21    1    1    2  505  504 -0.10234506784E+03  0.11062461109E+03 -0.84550179713E+02  0.17280350222E+03  0.00000000000E+00 0. -1.
         -2    1    1    2    0  505 -0.44267469978E+02  0.40979138333E+02 -0.84668068626E+02  0.10395951386E+03  0.00000000000E+00 0. -1.
<scales pt_clust_3="178.92198" pt_clust_4="44.65275" pt_clust_5="37.34370" pt_clust_6="37.34370"></scales>
<clustering>
<clus scale="   37.344">  5  6 -1 -1</clus>
<clus scale="   44.653">  1  4  2 -1</clus>
<clus scale="  178.922">  2  3  1 -1</clus>
<clus scale="   44.653">  1  3  2 -1</clus>
</clustering>
</event>
<event>
 6    0  0.5775861E+002  0.1099340E+03  0.7546771E-02  0.1260692E+00
          2   -1    0    0  503    0 -0.00000000000E+00  0.00000000000E+00  0.17378709991E+04  0.17378709991E+04  0.00000000000E+00 0. -1.
         21   -1    0    0  505  502  0.00000000000E+00 -0.00000000000E+00 -0.78240031359E+02  0.78240031359E+02  0.00000000000E+00 0. -1.
         21    1    1    2  503  502  0.80833079252E+02  0.33625194904E+02  0.87618118971E+02  0.12386111256E+03  0.00000000000E+00 0.  1.
         21    1    1    2  504  501 -0.55248500780E+02  0.21904478939E+02 -0.19475595231E+02  0.62542000652E+02  0.00000000000E+00 0. -1.
         21    1    1    2  505  504 -0.54717020336E+02 -0.13453741043E+01  0.21960524799E+02  0.58974799664E+02  0.00000000000E+00 0.  1.
          2    1    1    2  501    0  0.29132441864E+02 -0.54184299739E+02  0.15695279192E+04  0.15707331176E+04  0.00000000000E+00 0. -1.
<scales pt_clust_3="99.19890" pt_clust_4="45.47052" pt_clust_5="45.47052" pt_clust_6="61.51941"></scales>
<clustering>
<clus scale="   45.471">  4  5 -1 -1</clus>
<clus scale="   61.519">  1  6  2 -1</clus>
<clus scale="   99.199">  1  3  2 -1</clus>
<clus scale="  109.934">  2  3  1 -1</clus>
</clustering>
</event>
<event>
 6    0  0.5775861E+002  0.1016458E+03  0.7546771E-02  0.1276873E+00
          2   -1    0    0  504    0 -0.00000000000E+00  0.00000000000E+00  0.16984912033E+04  0.16984912033E+04  0.00000000000E+00 0.  1.
         21   -1    0    0  503  502  0.00000000000E+00 -0.00000000000E+00 -0.55417126165E+03  0.55417126165E+03  0.00000000000E+00 0. -1.
         21    1    1    2  503  505  0.36730096959E+02  0.26509732539E+02 -0.49740029909E+03  0.49945863040E+03  0.00000000000E+00 0. -1.
         21    1    1    2  504  502  0.19047126051E+02  0.39939802346E+02  0.42103204027E+00  0.44251080102E+02  0.00000000000E+00 0.  1.
         21    1    1    2  505  501 -0.14998745865E+03 -0.32701938880E+02  0.15110708678E+03  0.21540428555E+03  0.00000000000E+00 0.  1.
          2    1    1    2  501    0  0.94210235641E+02 -0.33747596004E+02  0.14901921219E+04  0.14935484689E+04  0.00000000000E+00 0.  1.
<scales pt_clust_3="84.03672" pt_clust_4="44.24908" pt_clust_5="101.64584" pt_clust_6="14000.00000"></scales>
<clustering>
<clus scale="   44.249">  2  4  1 -1</clus>
<clus scale="   84.037">  2  3  1 -1</clus>
<clus scale="  101.646">  2  5  1 -1</clus>
<clus scale="   44.249">  2  3  1 -1</clus>
</clustering>
</event>
<event>
 6    0  0.5775861E+002  0.1219789E+03  0.7546771E-02  0.1239868E+00
          2   -1    0    0  502    0 -0.00000000000E+00  0.00000000000E+00  0.29590640969E+04  0.29590640969E+04  0.00000000000E+00 0.  1.
         21   -1    0    0  503  502  0.00000000000E+00 -0.00000000000E+00 -0.31721484229E+03  0.31721484229E+03  0.00000000000E+00 0. -1.
         21    1    1    2  503  504  0.71078775231E+02 -0.45029692936E+02 -0.20858577644E+03  0.22491752192E+03  0.00000000000E+00 0. -1.
         21    1    1    2  504  505 -0.18185768572E+03  0.90802326863E+01 -0.55073070739E+01  0.18216750235E+03  0.00000000000E+00 0. -1.
         21    1    1    2  505  501  0.13120397614E+03  0.10447016990E+03  0.11948328791E+04  0.12065463558E+04  0.00000000000E+00 0.  1.
          2    1    1    2  501    0 -0.20425065649E+02 -0.68520709648E+02  0.16611094590E+04  0.16626475591E+04  0.00000000000E+00 0.  1.
<scales pt_clust_3="84.26527" pt_clust_4="121.97892" pt_clust_5="14000.00000" pt_clust_6="71.50015"></scales>
<clustering>
<clus scale="   71.500">  1  6  2 -1</clus>
<clus scale="   84.265">  2  3  1 -1</clus>
<clus scale="  121.979">  2  4  1 -1</clus>
<clus scale="   84.265">  2  3  1 -1</clus>
</clustering>
</event>
<event>
 6    0  0.5775861E+002  0.9328282E+02  0.7546771E-02  0.1295091E+00
         21   -1    0    0  503  502  0.00000000000E+00  0.00000000000E+00  0.49976102191E+02  0.49976102191E+02  0.00000000000E+00 0. -1.
          2   -1    0    0  505    0 -0.00000000000E+00 -0.00000000000E+00 -0.11760351845E+04  0.11760351845E+04  0.00000000000E+00 0. -1.
         21    1    1    2  503  504  0.27155471792E+02 -0.19981980487E+02 -0.18287020765E+02  0.38355108146E+02  0.00000000000E+00 0. -1.
         21    1    1    2  504  501 -0.31447827686E+02  0.12511428903E+03 -0.18636037649E+03  0.22665555611E+03  0.00000000000E+00 0. -1.
         21    1    1    2  505  502 -0.98934475025E+01 -0.70299919620E+02 -0.45587579421E+02  0.84369345141E+02  0.00000000000E+00 0. -1.
          2    1    1    2  501    0  0.14185803396E+02 -0.34832388925E+02 -0.87582410560E+03  0.87663127727E+03  0.00000000000E+00 0. -1.
<scales pt_clust_3="33.71497" pt_clust_4="14000.00000" pt_clust_5="93.28282" pt_clust_6="37.90117"></scales>
<clustering>
<clus scale="   33.715">  1  3  2 -1</clus>
<clus scale="   37.901">  2  6  1 -1</clus>
<clus scale="   93.283">  1  5  2 -1</clus>
<clus scale="   33.715">  1  3  2 -1</clus>
</clustering>
</event>
<event>
 6    0  0.5775861E+002  0.1065801E+03  0.7546771E-02  0.1267037E+00
          2   -1    0    0  505    0 -0.00000000000E+00  0.00000000000E+00  0.10354691748E+04  0.10354691748E+04  0.00000000000E+00 0. -1.
         21   -1    0    0  504  502  0.00000000000E+00 -0.00000000000E+00 -0.44863047581E+03  0.44863047581E+03  0.00000000000E+00 0.  1.
         21    1    1    2  503  501 -0.86685626295E+02 -0.19704109913E+02  0.14356124129E+03  0.16885638796E+03  0.00000000000E+00 0.  1.
         21    1    1    2  504  503  0.13730642912E+03 -0.54287497682E+02 -0.29482615681E+03  0.32973117933E+03  0.00000000000E+00 0.  1.
         21    1    1    2  505  502 -0.30124120504E+02  0.46442770202E+02 -0.11714944331E+03  0.12957000273E+03  0.00000000000E+00 0.  1.
          2    1    1    2  501    0 -0.20496682317E+02  0.27548837394E+02  0.85525305783E+03  0.85594208061E+03  0.00000000000E+00 0. -1.
<scales pt_clust_3="106.58006" pt_clust_4="14000.00000" pt_clust_5="56.54011" pt_clust_6="34.33733"></scales>
<clustering>
<clus scale="   34.337">  1  6  2 -1</clus>
<clus scale="   56.540">  2  5  1 -1</clus>
<clus scale="  106.580">  1  3  2 -1</clus>
<clus scale="   56.540">  2  3  1 -1</clus>
</clustering>
</event>
<event>
 6    0  0.5775861E+002  0.8749382E+02  0.7546771E-02  0.1309037E+00
          2   -1    0    0  502    0 -0.00000000000E+00  0.00000000000E+00  0.71812848929E+03  0.71812848929E+03  0.00000000000E+00 0. -1.
         21   -1    0    0  505  502  0.00000000000E+00 -0.00000000000E+00 -0.31981718015E+03  0.31981718015E+03  0.00000000000E+00 0. -1.
         21    1    1    2  503  504 -0.52739570507E+02 -0.53194519333E+02 -0.41042264732E+02  0.85414206539E+02  0.00000000000E+00 0. -1.
         21    1    1    2  504  501  0.28604942848E+02  0.12683286595E+03  0.17348220458E+03  0.21679689561E+03  0.00000000000E+00 0. -1.
         21    1    1    2  505  503  0.37307890865E+02  0.63446012938E+01 -0.23009567230E+03  0.23318694452E+03  0.00000000000E+00 0. -1.
          2    1    1    2  501    0 -0.13173263206E+02 -0.79982947907E+02  0.49596704158E+03  0.50254762277E+03  0.00000000000E+00 0. -1.
<scales pt_clust_3="55.15135" pt_clust_4="87.49382" pt_clust_5="37.84353" pt_clust_6="14000.00000"></scales>
<clustering>
<clus scale="   37.844">  2  5  1 -1</clus>
<clus scale="   55.151">  2  3  1 -1</clus>
<clus scale="   87.494">  2  4  1 -1</clus>
<clus scale="   37.844">  2  3  1 -1</clus>
</clustering>
</event>
<event>
 6    0  0.5775861E+002  0.1486516E+03  0.7546771E-02  0.1202140E+00
          1   -1    0    0  504    0 -0.00000000000E+00  0.00000000000E+00  0.12028023130E+04  0.12028023130E+04  0.00000000000E+00 0.  1.
         21   -1    0    0  503  502  0.00000000000E+00 -0.00000000000E+00 -0.36948077702E+03  0.36948077702E+03  0.00000000000E+00 0. -1.
         21    1    1    2  503  501  0.34154517481E+02  0.18775128191E+02 -0.70781077540E+01  0.39612322733E+02  0.00000000000E+00 0.  1.
         21    1    1    2  504  505  0.16076565522E+03 -0.37436808427E+02  0.15834971452E+03  0.22873946448E+03  0.00000000000E+00 0.  1.
         21    1    1    2  505  502 -0.17500832980E+03 -0.46436491584E+02 -0.28328105905E+03  0.33620294714E+03  0.00000000000E+00 0. -1.
          1    1    1    2  501    0 -0.19911842899E+02  0.65098171819E+02  0.96533098826E+03  0.96772835566E+03  0.00000000000E+00 0.  1.
<scales pt_clust_3="38.97482" pt_clust_4="148.65161" pt_clust_5="14000.00000" pt_clust_6="68.10306"></scales>
<clustering>
<clus scale="   38.975">  2  3  1 -1</clus>
<clus scale="   68.103">  1  6  2 -1</clus>
<clus scale="  148.652">  1  4  2 -1</clus>
<clus scale="   38.975">  2  3  1 -1</clus>
</clustering>
</event>
<event>
 6    0  0.5775861E+002  0.7918441E+02  0.7546771E-02  0.1331382E+00
         21   -1    0    0  505  502  0.00000000000E+00  0.00000000000E+00  0.45685648476E+02  0.45685648476E+02  0.00000000000E+00 0.  1.
          2   -1    0    0  503    0 -0.00000000000E+00 -0.00000000000E+00 -0.16425298880E+04  0.16425298880E+04  0.00000000000E+00 0. -1.
         21    1    1    2  503  504 -0.44310751643E+02  0.22839962031E+02 -0.65529082468E+03  0.65718427513E+03  0.00000000000E+00 0. -1.
         21    1    1    2  504  502  0.96293165880E+02  0.54879918384E+02 -0.94503455080E+02  0.14565398127E+03  0.00000000000E+00 0.  1.
         21    1    1    2  505  501 -0.15477522468E+02 -0.41178300265E+02 -0.79676519174E+01  0.44706706337E+02  0.00000000000E+00 0.  1.
          2    1    1    2  501    0 -0.36504891769E+02 -0.36541580151E+02 -0.83908230785E+03  0.84067057374E+03  0.00000000000E+00 0. -1.
<scales pt_clust_3="49.69685" pt_clust_4="79.18441" pt_clust_5="43.99098" pt_clust_6="14000.00000"></scales>
<clustering>
<clus scale="   43.991">  1  5  2 -1</clus>
<clus scale="   49.697">  2  3  1 -1</clus>
<clus scale="   79.184">  1  4  2 -1</clus>
<clus scale="   43.991">  1  3  2 -1</clus>
</clustering>
</event>
<event>
 6    0  0.5775861E+002  0.1693768E+03  0.7546771E-02  0.1178499E+00
         21   -1    0    0  505  502  0.00000000000E+00  0.00000000000E+00  0.17623747400E+03  0.17623747400E+03  0.00000000000E+00 0.  1.
         -3   -1    0    0    0  501 -0.00000000000E+00 -0.00000000000E+00 -0.58233448668E+03  0.58233448668E+03  0.00000000000E+00 0.  1.
         21    1    1    2  503  501 -0.46350752549E+02 -0.14217292974E+03 -0.39626674935E+03  0.42354323375E+03  0.00000000000E+00 0.  1.
         21    1    1    2  504  502 -0.44543866784E+02 -0.31992991656E+02  0.24263964081E+02  0.59970388828E+02  0.00000000000E+00 0.  1.
         21    1    1    2  505  503  0.13969759799E+03  0.16450478736E+03 -0.19484223421E+01  0.21582641242E+03  0.00000000000E+00 0.  1.
         -3    1    1    2    0  504 -0.48802978656E+02  0.96611340343E+01 -0.32145805067E+02  0.59231925682E+02  0.00000000000E+00 0.  1.
<scales pt_clust_3="14000.00000" pt_clust_4="55.98681" pt_clust_5="169.37680" pt_clust_6="49.75006"></scales>
<clustering>
<clus scale="   49.750">  2  6  1 -1</clus>
<clus scale="   55.987">  1  4  2 -1</clus>
<clus scale="  169.377">  1  5  2 -1</clus>
<clus scale="   55.987">  1  3  2 -1</clus>
</clustering>
</event>
<event>
 6    0  0.5775861E+002  0.1219937E+03  0.7546771E-02  0.1239844E+00
         21   -1    0    0  504  502  0.00000000000E+00  0.00000000000E+00  0.72811699799E+02  0.72811699799E+02  0.00000000000E+00 0.  1.
          2   -1    0    0  503    0 -0.00000000000E+00 -0.00000000000E+00 -0.15550046057E+04  0.15550046057E+04  0.00000000000E+00 0. -1.
         21    1    1    2  503  505  0.35610636980E+02 -0.11144982628E+02 -0.19425248373E+03  0.19780383095E+03  0.00000000000E+00 0. -1.
         21    1    1    2  504  501 -0.98757103197E+02  0.10606461562E+03 -0.34620120631E+02  0.14900074118E+03  0.00000000000E+00 0.  1.
         21    1    1    2  505  502  0.67562598087E+02 -0.55286505824E+02 -0.12771982732E+03  0.15470506352E+03  0.00000000000E+00 0. -1.
          2    1    1    2  501    0 -0.44161318710E+01 -0.39633127173E+02 -0.11256004742E+04  0.11263066699E+04  0.00000000000E+00 0. -1.
<scales pt_clust_3="37.31391" pt_clust_4="14000.00000" pt_clust_5="121.99374" pt_clust_6="54.93103"></scales>
<clustering>
<clus scale="   37.314">  2  3  1 -1</clus>
<clus scale="   54.931">  2  6  1 -1</clus>
<clus scale="  121.994">  2  5  1 -1</clus>
<clus scale="  121.994">  1  3  2 -1</clus>
</clustering>
</event>
<event>
 6    0  0.5775861E+002  0.1601359E+03  0.7546771E-02  0.1188543E+00
          2   -1    0    0  503    0 -0.00000000000E+00  0.00000000000E+00  0.34274107708E+04  0.34274107708E+04  0.00000000000E+00 0.  1.
         21   -1    0    0  504  502  0.00000000000E+00 -0.00000000000E+00 -0.88729338005E+02  0.88729338005E+02  0.00000000000E+00 0.  1.
         21    1    1    2  503  505  0.48086208712E+02  0.20051797145E+03  0.54989424342E+03  0.58728478551E+03  0.00000000000E+00 0.  1.
         21    1    1    2  504  501 -0.74568756656E+02 -0.13010276821E+03  0.19798104548E+03  0.24836208272E+03  0.00000000000E+00 0.  1.
         21    1    1    2  505  502 -0.27734715938E+02  0.25937435018E+02 -0.35427568740E+02  0.51933396098E+02  0.00000000000E+00 0.  1.
          2    1    1    2  501    0  0.54217263882E+02 -0.96352638252E+02  0.26262337126E+04  0.26285598445E+04  0.00000000000E+00 0.  1.
<scales pt_clust_3="160.13590" pt_clust_4="14000.00000" pt_clust_5="37.97321" pt_clust_6="109.62488"></scales>
<clustering>
<clus scale="   37.973">  2  5  1 -1</clus>
<clus scale="  109.625">  1  6  2 -1</clus>
<clus scale="  160.136">  1  3  2 -1</clus>
<clus scale="   37.973">  2  3  1 -1</clus>
</clustering>
</event>
<event>
 6    0  0.5775861E+002  0.1795521E+03  0.7546771E-02  0.1168237E+00
          1   -1    0    0  503    0 -0.00000000000E+00  0.00000000000E+00  0.37560982382E+03  0.37560982382E+03  0.00000000000E+00 0.  1.
         21   -1    0    0  504  502  0.00000000000E+00 -0.00000000000E+00 -0.57440520731E+03  0.57440520731E+03  0.00000000000E+00 0.  1.
         21    1    1    2  503  502  0.10933688654E+03  0.17347517150E+03 -0.47999171397E+03  0.52195807817E+03  0.00000000000E+00 0.  1.
         21    1    1    2  504  505 -0.69820345388E+02 -0.91786072975E+02 -0.94233884012E+01  0.11570809855E+03  0.00000000000E+00 0.  1.
         21    1    1    2  505  501 -0.54515920729E+02 -0.36456249015E+02  0.14530343870E+03  0.15941810751E+03  0.00000000000E+00 0.  1.
          1    1    1    2  501    0  0.14999379576E+02 -0.45232849505E+02  0.14531628018E+03  0.15293074690E+03  0.00000000000E+00 0.  1.
<scales pt_clust_3="14000.00000" pt_clust_4="179.55211" pt_clust_5="80.29476" pt_clust_6="47.65493"></scales>
<clustering>
<clus scale="   47.655">  1  6  2 -1</clus>
<clus scale="   80.295">  1  5  2 -1</clus>
<clus scale="  179.552">  1  4  2 -1</clus>
<clus scale="  179.552">  2  3  1 -1</clus>
</clustering>
</event>
<event>
 6    0  0.5775861E+002  0.6800598E+02  0.7546771E-02  0.1367008E+00
         21   -1    0    0  503  502  0.00000000000E+00  0.00000000000E+00  0.59426457678E+02  0.59426457678E+02  0.00000000000E+00 0. -1.
          2   -1    0    0  505    0 -0.00000000000E+00 -0.00000000000E+00 -0.73319470849E+03  0.73319470849E+03  0.00000000000E+00 0.  1.
         21    1    1    2  503  501 -0.37725534202E+01 -0.11447236250E+03 -0.91509393142E+02  0.14660192007E+03  0.00000000000E+00 0. -1.
         21    1    1    2  504  502 -0.46916437032E+02  0.54807397890E+01 -0.11995564137E+02  0.48734834886E+02  0.00000000000E+00 0. -1.
         21    1    1    2  505  504  0.50314726841E+02  0.44598792001E+02 -0.88024075414E+02  0.11076489443E+03  0.00000000000E+00 0.  1.
          2    1    1    2  501    0  0.37426361150E+00  0.64392830709E+02 -0.48223921812E+03  0.48651951679E+03  0.00000000000E+00 0.  1.
<scales pt_clust_3="68.00598" pt_clust_4="47.23548" pt_clust_5="59.32657" pt_clust_6="14000.00000"></scales>
<clustering>
<clus scale="   47.235">  1  4  2 -1</clus>
<clus scale="   59.327">  1  5  2 -1</clus>
<clus scale="   68.006">  1  3  2 -1</clus>
<clus scale="   47.235">  1  3  2 -1</clus>
</clustering>
</event>
<event>
 6    0  0.5775861E+002  0.1139148E+03  0.7546771E-02  0.1253487E+00
         21   -1    0    0  505  502  0.00000000000E+00  0.00000000000E+00  0.12775036487E+04  0.12775036487E+04  0.00000000000E+00 0.  1.
          2   -1    0    0  503    0 -0.00000000000E+00 -0.00000000000E+00 -0.29040011589E+03  0.29040011589E+03  0.00000000000E+00 0. -1.
         21    1    1    2  503  504  0.49210922053E+02 -0.76476360017E+02  0.35943926877E+03  0.37076533876E+03  0.00000000000E+00 0.  1.
         21    1    1    2  504  502 -0.38656502532E+02  0.13839953413E+03  0.73452458594E+03  0.74844847758E+03  0.00000000000E+00 0.  1.
         21    1    1    2  505  501 -0.22068371150E+02 -0.21019596349E+02  0.16790989372E+03  0.17065335873E+03  0.00000000000E+00 0. -1.
          2    1    1    2  501    0  0.11513951630E+02 -0.40903577762E+02 -0.27477021559E+03  0.27803658956E+03  0.00000000000E+00 0. -1.
<scales pt_clust_3="14000.00000" pt_clust_4="113.91481" pt_clust_5="30.47682" pt_clust_6="42.51424"></scales>
<clustering>
<clus scale="   30.477">  1  5  2 -1</clus>
<clus scale="   42.514">  2  6  1 -1</clus>
<clus scale="  113.915">  1  4  2 -1</clus>
<clus scale="   30.477">  1  3  2 -1</clus>
</clustering>
</event>
<event>
 6    0  0.5775861E+002  0.6269042E+02  0.7546771E-02  0.1386876E+00
         21   -1    0    0  505  502  0.00000000000E+00  0.00000000000E+00  0.89068590106E+03  0.89068590106E+03  0.00000000000E+00 0.  1.
          2   -1    0    0  503    0 -0.00000000000E+00 -0.00000000000E+00 -0.46976131408E+03  0.46976131408E+03  0.00000000000E+00 0.  1.
         21    1    1    2  503  504 -0.96379854242E+01  0.74500421019E+02  0.88845177912E+02  0.11634719220E+03  0.00000000000E+00 0. -1.
         21    1    1    2  504  502 -0.68031777829E+02 -0.46387743534E+02  0.56236220173E+03  0.56835850612E+03  0.00000000000E+00 0.  1.
         21    1    1    2  505  501  0.29665685712E+02  0.12432932011E+02  0.21937195782E+03  0.22171758294E+03  0.00000000000E+00 0.  1.
          2    1    1    2  501    0  0.48004077541E+02 -0.40545609496E+02 -0.44965475047E+03  0.45402393388E+03  0.00000000000E+00 0.  1.
<scales pt_clust_3="14000.00000" pt_clust_4="56.01884" pt_clust_5="32.16568" pt_clust_6="62.69042"></scales>
<clustering>
<clus scale="   32.166">  1  5  2 -1</clus>
<clus scale="   56.019">  1  4  2 -1</clus>
<clus scale="   62.690">  2  6  1 -1</clus>
<clus scale="   32.166">  1  3  2 -1</clus>
</clustering>
</event>
<event>
 6    0  0.5775861E+002  0.1517912E+03  0.7546771E-02  0.1198289E+00
         21   -1    0    0  505  502  0.00000000000E+00  0.00000000000E+00  0.31260056579E+03  0.31260056579E+03  0.00000000000E+00 0. -1.
          2   -1    0    0  503    0 -0.00000000000E+00 -0.00000000000E+00 -0.10625480702E+04  0.10625480702E+04  0.00000000000E+00 0. -1.
         21    1    1    2  503  504 -0.40228092290E+02  0.22799053796E+02 -0.36380892961E+02  0.58835921306E+02  0.00000000000E+00 0.  1.
         21    1    1    2  504  502  0.63377590634E+02  0.10895603964E+03 -0.19612568827E+03  0.23313820615E+03  0.00000000000E+00 0.  1.
         21    1    1    2  505  501 -0.23900279828E+01 -0.15585280158E+03  0.26104453364E+03  0.30403956411E+03  0.00000000000E+00 0. -1.
          2    1    1    2  501    0 -0.20759470360E+02  0.24097708152E+02 -0.77848545679E+03  0.77913494440E+03  0.00000000000E+00 0. -1.
<scales pt_clust_3="51.29518" pt_clust_4="14000.00000" pt_clust_5="151.79120" pt_clust_6="31.80653"></scales>
<clustering>
<clus scale="   31.807">  2  6  1 -1</clus>
<clus scale="   51.295">  2  3  1 -1</clus>
<clus scale="  151.791">  1  5  2 -1</clus>
<clus scale="  151.791">  1  3  2 -1</clus>
</clustering>
</event>
<event>
 6    0  0.5775861E+002  0.2113189E+03  0.7546771E-02  0.1140526E+00
         -1   -1    0    0    0  501 -0.00000000000E+00  0.00000000000E+00  0.17760213300E+03  0.17760213300E+03  0.00000000000E+00 0.  1.
         21   -1    0    0  501  502  0.00000000000E+00 -0.00000000000E+00 -0.16972948783E+04  0.16972948783E+04  0.00000000000E+00 0.  1.
         21    1    1    2  503  504 -0.15470566872E+03  0.11107686433E+03 -0.60744140197E+03  0.63659796619E+03  0.00000000000E+00 0.  1.
         21    1    1    2  504  505 -0.75846700533E+02 -0.65979788718E+02 -0.45849703708E+03  0.46938852512E+03  0.00000000000E+00 0.  1.
         21    1    1    2  505  502  0.38446712721E+02  0.49346429169E+02 -0.53596347209E+03  0.53960176353E+03  0.00000000000E+00 0.  1.
         -1    1    1    2    0  503  0.19210565653E+03 -0.94443504785E+02  0.82209165794E+02  0.22930875650E+03  0.00000000000E+00 0.  1.
<scales pt_clust_3="211.31889" pt_clust_4="76.11528" pt_clust_5="62.55573" pt_clust_6="14000.00000"></scales>
<clustering>
<clus scale="   62.556">  2  5  1 -1</clus>
<clus scale="   76.115">  2  4  1 -1</clus>
<clus scale="  211.319">  2  3  1 -1</clus>
<clus scale="   62.556">  2  3  1 -1</clus>
</clustering>
</event>
<event>
 6    0  0.5775861E+002  0.6709845E+02  0.7546771E-02  0.1370247E+00
          3   -1    0    0  503    0 -0.00000000000E+00  0.00000000000E+00  0.97919726011E+02  0.97919726011E+02  0.00000000000E+00 0.  1.
         21   -1    0    0  504  502  0.00000000000E+00 -0.00000000000E+00 -0.10121614777E+04  0.10121614777E+04  0.00000000000E+00 0. -1.
         21    1    1    2  503  505 -0.49774377829E+02 -0.19576052973E+02 -0.27175851182E+01  0.53554605845E+02  0.00000000000E+00 0.  1.
         21    1    1    2  504  501 -0.10346689261E+02  0.33825563708E+02 -0.29655698958E+03  0.29865912142E+03  0.00000000000E+00 0. -1.
         21    1    1    2  505  502  0.26485372943E+02 -0.95797761337E+02 -0.65392494407E+03  0.66143519602E+03  0.00000000000E+00 0. -1.
          3    1    1    2  501    0  0.33635694147E+02  0.81548250603E+02  0.38957767061E+02  0.96432280443E+02  0.00000000000E+00 0.  1.
<scales pt_clust_3="53.39532" pt_clust_4="35.37263" pt_clust_5="14000.00000" pt_clust_6="67.09845"></scales>
<clustering>
<clus scale="   35.373">  2  4  1 -1</clus>
<clus scale="   53.395">  1  3  2 -1</clus>
<clus scale="   67.098">  1  6  2 -1</clus>
<clus scale="   35.373">  2  3  1 -1</clus>
</clustering>
</event>
<event>
 6    0  0.5775861E+002  0.1351511E+03  0.7546771E-02  0.1220007E+00
          2   -1    0    0  505    0 -0.00000000000E+00  0.00000000000E+00  0.18985923754E+04  0.18985923754E+04  0.00000000000E+00 0. -1.
         21   -1    0    0  503  502  0.00000000000E+00 -0.00000000000E+00 -0.99943447497E+03  0.99943447497E+03  0.00000000000E+00 0.  1.
         21    1    1    2  503  504  0.30030075747E+01  0.30298174649E+02 -0.29758098793E+03  0.29913448784E+03  0.00000000000E+00 0.  1.
         21    1    1    2  504  501 -0.15723054375E+03  0.67045458545E+02 -0.64297105891E+03  0.66530317901E+03  0.00000000000E+00 0.  1.
         21    1    1    2  505  502  0.28730080191E+02 -0.47541783962E+02 -0.27167148383E+02  0.61836014436E+02  0.00000000000E+00 0. -1.
          2    1    1    2  501    0  0.12549745599E+03 -0.49801849232E+02  0.18668770957E+04  0.18717531691E+04  0.00000000000E+00 0. -1.
<scales pt_clust_3="30.44663" pt_clust_4="14000.00000" pt_clust_5="54.01353" pt_clust_6="135.15105"></scales>
<clustering>
<clus scale="   30.447">  2  3  1 -1</clus>
<clus scale="   54.014">  2  5  1 -1</clus>
<clus scale="  135.151">  1  6  2 -1</clus>
<clus scale="   30.447">  2  3  1 -1</clus>
</clustering>
</event>
<event>
 6    0  0.5775861E+002  0.8896573E+02  0.7546771E-02  0.1305376E+00
         21   -1    0    0  505  502  0.00000000000E+00  0.00000000000E+00  0.55090702971E+03  0.55090702971E+03  0.00000000000E+00 0.  1.
          2   -1    0    0  504    0 -0.00000000000E+00 -0.00000000000E+00 -0.44006306882E+03  0.44006306882E+03  0.00000000000E+00 0. -1.
         21    1    1    2  503  502 -0.38802435278E+02  0.68100067375E+02  0.33256080906E+03  0.34167226970E+03  0.00000000000E+00 0.  1.
         21    1    1    2  504  503  0.86981913806E+02 -0.10451202296E+02  0.18827344436E+02  0.89607755565E+02  0.00000000000E+00 0.  1.
         21    1    1    2  505  501 -0.43970614584E+02 -0.16987786041E+02  0.15501532450E+03  0.16202392000E+03  0.00000000000E+00 0.  1.
          2    1    1    2  501    0 -0.42088639441E+01 -0.40661079037E+02 -0.39555951711E+03  0.39766615327E+03  0.00000000000E+00 0. -1.
<scales pt_clust_3="88.96573" pt_clust_4="14000.00000" pt_clust_5="48.72513" pt_clust_6="40.87833"></scales>
<clustering>
<clus scale="   40.878">  2  6  1 -1</clus>
<clus scale="   48.725">  1  5  2 -1</clus>
<clus scale="   88.966">  1  3  2 -1</clus>
<clus scale="   48.725">  1  3  2 -1</clus>
</clustering>
</event>
<event>
 6    0  0.5775861E+002  0.6294063E+02  0.7546771E-02  0.1385890E+00
          1   -1    0    0  504    0 -0.00000000000E+00  0.00000000000E+00  0.71153369849E+02  0.71153369849E+02  0.00000000000E+00 0. -1.
         21   -1    0    0  503  502  0.00000000000E+00 -0.00000000000E+00 -0.16126132392E+04  0.16126132392E+04  0.00000000000E+00 0.  1.
         21    1    1    2  503  501  0.63844746094E+02 -0.16026665006E+02 -0.11068057063E+03  0.12877575203E+03  0.00000000000E+00 0. -1.
         21    1    1    2  504  505 -0.77896794472E+02 -0.14674265915E+02 -0.59638490708E+03  0.60162962200E+03  0.00000000000E+00 0.  1.
         21    1    1    2  505  502 -0.47381245880E+02  0.19270310455E+02 -0.87651298970E+03  0.87800418475E+03  0.00000000000E+00 0.  1.
          1    1    1    2  501    0  0.61433294257E+02  0.11430620466E+02  0.42118598044E+02  0.75357050292E+02  0.00000000000E+00 0. -1.
<scales pt_clust_3="57.59113" pt_clust_4="14000.00000" pt_clust_5="51.15005" pt_clust_6="62.94063"></scales>
<clustering>
<clus scale="   51.150">  2  5  1 -1</clus>
<clus scale="   57.591">  2  3  1 -1</clus>
<clus scale="   62.941">  1  6  2 -1</clus>
<clus scale="   51.150">  2  3  1 -1</clus>
</clustering>
</event>
<event>
 6    0  0.5775861E+002  0.1280108E+03  0.7546771E-02  0.1230438E+00
          2   -1    0    0  505    0 -0.00000000000E+00  0.00000000000E+00  0.10378491461E+04  0.10378491461E+04  0.00000000000E+00 0. -1.
         21   -1    0    0  504  502  0.00000000000E+00 -0.00000000000E+00 -0.11632703430E+03  0.11632703430E+03  0.00000000000E+00 0.  1.
         21    1    1    2  503  501 -0.72100755074E+02  0.12060033199E+03  0.23952595891E+03  0.27769703626E+03  0.00000000000E+00 0. -1.
         21    1    1    2  504  503 -0.47982471999E+01 -0.12488098470E+03  0.28746269803E+03  0.31345348343E+03  0.00000000000E+00 0. -1.
         21    1    1    2  505  502  0.17278684630E+02  0.26295656599E+02 -0.79109813609E+02  0.85137401345E+02  0.00000000000E+00 0.  1.
          2    1    1    2  501    0  0.59620317644E+02 -0.22015003891E+02  0.47364326842E+03  0.47788825931E+03  0.00000000000E+00 0. -1.
<scales pt_clust_3="14000.00000" pt_clust_4="128.01081" pt_clust_5="31.46450" pt_clust_6="64.02391"></scales>
<clustering>
<clus scale="   31.464">  2  5  1 -1</clus>
<clus scale="   64.024">  1  6  2 -1</clus>
<clus scale="  128.011">  2  4  1 -1</clus>
<clus scale="   31.464">  2  3  1 -1</clus>
</clustering>
</event>
<event>
 6    0  0.5775861E+002  0.1248470E+03  0.7546771E-02  0.1235309E+00
         21   -1    0    0  503  502  0.00000000000E+00  0.00000000000E+00  0.16488312797E+04  0.16488312797E+04  0.00000000000E+00 0.  1.
         -1   -1    0    0    0  501 -0.00000000000E+00 -0.00000000000E+00 -0.38334172655E+03  0.38334172655E+03  0.00000000000E+00 0. -1.
         21    1    1    2  503  505 -0.56011292295E+02 -0.28964963393E+02  0.10813738476E+04  0.10832107977E+04  0.00000000000E+00 0.  1.
         21    1    1    2  504  502 -0.12273106282E+02 -0.94923976857E+02  0.22961921036E+03  0.24876931541E+03  0.00000000000E+00 0.  1.
         21    1    1    2  505  501 -0.39639922073E+01  0.16388884564E+03  0.30166781509E+03  0.34333473115E+03  0.00000000000E+00 0.  1.
         -1    1    1    2    0  504  0.72248390784E+02 -0.39999905386E+02 -0.34717131991E+03  0.35685816198E+03  0.00000000000E+00 0. -1.
<scales pt_clust_3="63.05739" pt_clust_4="124.84701" pt_clust_5="14000.00000" pt_clust_6="82.28445"></scales>
<clustering>
<clus scale="   63.057">  1  3  2 -1</clus>
<clus scale="   82.284">  2  6  1 -1</clus>
<clus scale="  124.847">  1  4  2 -1</clus>
<clus scale="   63.057">  1  3  2 -1</clus>
</clustering>
</event>
<event>
 6    0  0.5775861E+002  0.9076640E+02  0.7546771E-02  0.1301006E+00
          1   -1    0    0  504    0 -0.00000000000E+00  0.00000000000E+00  0.31137915728E+03  0.31137915728E+03  0.00000000000E+00 0. -1.
         21   -1    0    0  503  502  0.00000000000E+00 -0.00000000000E+00 -0.56250329394E+03  0.56250329394E+03  0.00000000000E+00 0. -1.
         21    1    1    2  503  505 -0.53594567664E+02  0.27450372181E+02 -0.49252700985E+03  0.49619427248E+03  0.00000000000E+00 0. -1.
         21    1    1    2  504  502  0.15109854107E+03  0.23632761544E+02  0.81300240124E+02  0.17320221007E+03  0.00000000000E+00 0.  1.
         21    1    1    2  505  501 -0.48621536531E+02 -0.27781823546E+02  0.29922685892E+02  0.63492130735E+02  0.00000000000E+00 0. -1.
          1    1    1    2  501    0 -0.48882436870E+02 -0.23301310179E+02  0.13017994717E+03  0.14099383794E+03  0.00000000000E+00 0. -1.
<scales pt_clust_3="60.56013" pt_clust_4="14000.00000" pt_clust_5="90.76640" pt_clust_6="54.15204"></scales>
<clustering>
<clus scale="   54.152">  1  6  2 -1</clus>
<clus scale="   60.560">  2  3  1 -1</clus>
<clus scale="   90.766">  2  5  1 -1</clus>
<clus scale="   60.560">  2  3  1 -1</clus>
</clustering>
</event>
<event>
 6    0  0.6346103E+002  0.1329916E+03  0.7546771E-02  0.1223083E+00
         21   -1    0    0  504  502  0.00000000000E+00  0.00000000000E+00  0.96474994733E+03  0.96474994733E+03  0.00000000000E+00 0.  1.
          2   -1    0    0  505    0 -0.00000000000E+00 -0.00000000000E+00 -0.21177170508E+04  0.21177170508E+04  0.00000000000E+00 0. -1.
         21    1    1    2  503  502  0.13852679892E+02  0.44838667572E+02 -0.13083639261E+02  0.48719446488E+02  0.00000000000E+00 0. -1.
         21    1    1    2  504  501 -0.60252788804E+02 -0.12093878565E+03  0.93246192086E+03  0.94220052127E+03  0.00000000000E+00 0.  1.
         21    1    1    2  505  503  0.11571725398E+03 -0.59451454838E+02 -0.10117796196E+04  0.10201092868E+04  0.00000000000E+00 0. -1.
          2    1    1    2  501    0 -0.69317145073E+02  0.13555157291E+03 -0.10605657654E+04  0.10714377436E+04  0.00000000000E+00 0. -1.
<scales pt_clust_3="46.92977" pt_clust_4="89.59158" pt_clust_5="14000.00000" pt_clust_6="132.99160"></scales>
<clustering>
<clus scale="   46.930">  1  3  2 -1</clus>
<clus scale="   89.592">  1  4  2 -1</clus>
<clus scale="  132.992">  1  6  2 -1</clus>
<clus scale="   46.930">  1  3  2 -1</clus>
</clustering>
</event>
<event>
 6    0  0.8574824E+002  0.2398108E+03  0.7546771E-02  0.1119919E+00
          1   -1    0    0  503    0 -0.00000000000E+00  0.00000000000E+00  0.13120768115E+04  0.13120768115E+04  0.00000000000E+00 0. -1.
         21   -1    0    0  505  502  0.00000000000E+00 -0.00000000000E+00 -0.10173274307E+04  0.10173274307E+04  0.00000000000E+00 0.  1.
         21    1    1    2  503  502  0.74940262503E+02  0.35629287254E+01  0.70040550314E+01  0.75351139288E+02  0.00000000000E+00 0.  1.
         21    1    1    2  504  501 -0.26991740453E+03  0.52198887811E+02 -0.85726674960E+02  0.28797429044E+03  0.00000000000E+00 0.  1.
         21    1    1    2  505  504  0.16934269347E+03  0.58816410100E+02 -0.78320452241E+03  0.80345855018E+03  0.00000000000E+00 0.  1.
          1    1    1    2  501    0  0.25634448559E+02 -0.11457822664E+03  0.11566765232E+04  0.11626202623E+04  0.00000000000E+00 0. -1.
<scales pt_clust_3="75.02491" pt_clust_4="239.81077" pt_clust_5="14000.00000" pt_clust_6="117.44996"></scales>
<clustering>
<clus scale="   75.025">  2  3  1 -1</clus>
<clus scale="  117.450">  1  6  2 -1</clus>
<clus scale="  239.811">  1  4  2 -1</clus>
<clus scale="   75.025">  2  3  1 -1</clus>
</clustering>
</event>
<event>
 6    0  0.5775861E+002  0.7225901E+02  0.7546771E-02  0.1352575E+00
          1   -1    0    0  502    0 -0.00000000000E+00  0.00000000000E+00  0.10922792538E+04  0.10922792538E+04  0.00000000000E+00 0.  1.
         21   -1    0    0  503  502  0.00000000000E+00 -0.00000000000E+00 -0.28866298895E+02  0.28866298895E+02  0.00000000000E+00 0.  1.
         21    1    1    2  503  504 -0.48688012425E+02  0.41431728690E+02  0.16225093470E+03  0.17439173291E+03  0.00000000000E+00 0.  1.
         21    1    1    2  504  505  0.69803679840E+02 -0.18578805595E+02  0.16309268970E+03  0.17837306739E+03  0.00000000000E+00 0.  1.
         21    1    1    2  505  501 -0.35375062664E+02 -0.89970001059E+02  0.16513184875E+03  0.19134921902E+03  0.00000000000E+00 0.  1.
          1    1    1    2  501    0  0.14259395249E+02  0.67117077964E+02  0.57293748177E+03  0.57703153339E+03  0.00000000000E+00 0.  1.
<scales pt_clust_3="63.93051" pt_clust_4="53.69106" pt_clust_5="14000.00000" pt_clust_6="72.25901"></scales>
<clustering>
<clus scale="   63.931">  2  3  1 -1</clus>
<clus scale="   53.691">  2  4  1 -1</clus>
<clus scale="   72.259">  1  6  2 -1</clus>
<clus scale="   63.931">  2  3  1 -1</clus>
</clustering>
</event>
<event>
 6    0  0.5775861E+002  0.1682401E+03  0.7546771E-02  0.1179696E+00
         -2   -1    0    0    0  501 -0.00000000000E+00  0.00000000000E+00  0.11058181259E+04  0.11058181259E+04  0.00000000000E+00 0.  1.
         21   -1    0    0  505  502  0.00000000000E+00 -0.00000000000E+00 -0.20277092735E+03  0.20277092735E+03  0.00000000000E+00 0.  1.
         21    1    1    2  503  501  0.14627395604E+03  0.20535103886E+02  0.28163504656E+02  0.15036935759E+03  0.00000000000E+00 0.  1.
         21    1    1    2  504  502 -0.23771729650E+03  0.58940390853E+02  0.19120861614E+03  0.31071565395E+03  0.00000000000E+00 0.  1.
         21    1    1    2  505  503 -0.85447855523E+01 -0.40754739709E+02 -0.72584681240E+02  0.83680930442E+02  0.00000000000E+00 0.  1.
         -2    1    1    2    0  504  0.99988126010E+02 -0.38720755031E+02  0.75625975902E+03  0.76382311128E+03  0.00000000000E+00 0.  1.
<scales pt_clust_3="168.24013" pt_clust_4="14000.00000" pt_clust_5="41.64087" pt_clust_6="107.43572"></scales>
<clustering>
<clus scale="   41.641">  2  5  1 -1</clus>
<clus scale="  107.436">  1  6  2 -1</clus>
<clus scale="  168.240">  2  3  1 -1</clus>
<clus scale="   41.641">  2  3  1 -1</clus>
</clustering>
</event>
<event>
 6    0  0.1134734E+003  0.9232096E+02  0.7546771E-02  0.1297327E+00
         21   -1    0    0  505  502  0.00000000000E+00  0.00000000000E+00  0.10456286072E+04  0.10456286072E+04  0.00000000000E+00 0. -1.
          2   -1    0    0  503    0 -0.00000000000E+00 -0.00000000000E+00 -0.11540551706E+04  0.11540551706E+04  0.00000000000E+00 0.  1.
         21    1    1    2  503  502  0.11145950157E+03  0.47916373407E+02 -0.40282013493E+03  0.42069378464E+03  0.00000000000E+00 0.  1.
         21    1    1    2  504  501 -0.11597428008E+03  0.64890265286E+01  0.43207337356E+03  0.44741428368E+03  0.00000000000E+00 0. -1.
         21    1    1    2  505  504  0.28329837547E+02 -0.32756974600E+02  0.59580912105E+03  0.59738104071E+03  0.00000000000E+00 0. -1.
          2    1    1    2  501    0 -0.23815059039E+02 -0.21648425336E+02 -0.73348892307E+03  0.73419466875E+03  0.00000000000E+00 0.  1.
<scales pt_clust_3="92.32096" pt_clust_4="14000.00000" pt_clust_5="43.30972" pt_clust_6="32.18402"></scales>
<clustering>
<clus scale="   32.184">  2  6  1 -1</clus>
<clus scale="   43.310">  1  5  2 -1</clus>
<clus scale="   92.321">  2  3  1 -1</clus>
<clus scale="   43.310">  1  3  2 -1</clus>
</clustering>
</event>
<event>
 6    0  0.5775861E+002  0.1064646E+03  0.7546771E-02  0.1267261E+00
         21   -1    0    0  505  502  0.00000000000E+00  0.00000000000E+00  0.78363320340E+02  0.78363320340E+02  0.00000000000E+00 0. -1.
          2   -1    0    0  503    0 -0.00000000000E+00 -0.00000000000E+00 -0.41335756273E+03  0.41335756273E+03  0.00000000000E+00 0. -1.
         21    1    1    2  503  504 -0.11096111900E+03 -0.16499958267E+02 -0.77234455319E+02  0.13619757575E+03  0.00000000000E+00 0. -1.
         21    1    1    2  504  502 -0.18720804164E+02 -0.26547244519E+02 -0.27555858625E+01  0.32600888846E+02  0.00000000000E+00 0. -1.
         21    1    1    2  505  501  0.47234233617E+02  0.41454642562E+02 -0.90270828798E+01  0.63490538198E+02  0.00000000000E+00 0. -1.
          2    1    1    2  501    0  0.82447689548E+02  0.15925602238E+01 -0.24597711833E+03  0.25943188027E+03  0.00000000000E+00 0. -1.
<scales pt_clust_3="31.48810" pt_clust_4="31.48810" pt_clust_5="62.84553" pt_clust_6="88.94189"></scales>
<clustering>
<clus scale="   31.488">  3  4 -1 -1</clus>
<clus scale="   62.846">  1  5  2 -1</clus>
<clus scale="   88.942">  2  6  1 -1</clus>
<clus scale="   62.846">  1  3  2 -1</clus>
</clustering>
</event>
<event>
 6    0  0.5775861E+002  0.9655840E+02  0.7546771E-02  0.1287704E+00
         21   -1    0    0  504  502  0.00000000000E+00  0.00000000000E+00  0.56083747168E+03  0.56083747168E+03  0.00000000000E+00 0.  1.
          2   -1    0    0  505    0 -0.00000000000E+00 -0.00000000000E+00 -0.42503065759E+03  0.42503065759E+03  0.00000000000E+00 0.  1.
         21    1    1    2  503  501  0.45252204236E+02 -0.84209248787E+02 -0.13464720531E+03  0.16513276316E+03  0.00000000000E+00 0.  1.
         21    1    1    2  504  503 -0.42383265457E+02  0.16208020146E+01  0.47528824528E+03  0.47717699472E+03  0.00000000000E+00 0.  1.
         21    1    1    2  505  502 -0.32070157650E+02 -0.23008322326E+02  0.51445489149E+02  0.64842241338E+02  0.00000000000E+00 0.  1.
          2    1    1    2  501    0  0.29201218871E+02  0.10559676910E+03 -0.25627971502E+03  0.27871613007E+03  0.00000000000E+00 0.  1.
<scales pt_clust_3="96.55840" pt_clust_4="75.51077" pt_clust_5="39.46996" pt_clust_6="14000.00000"></scales>
<clustering>
<clus scale="   39.470">  1  5  2 -1</clus>
<clus scale="   75.511">  1  4  2 -1</clus>
<clus scale="   96.558">  1  3  2 -1</clus>
<clus scale="   39.470">  1  3  2 -1</clus>
</clustering>
</event>
<event>
 6    0  0.5775861E+002  0.6605384E+02  0.7546771E-02  0.1374051E+00
         21   -1    0    0  503  502  0.00000000000E+00  0.00000000000E+00  0.18105731713E+03  0.18105731713E+03  0.00000000000E+00 0. -1.
          2   -1    0    0  504    0 -0.00000000000E+00 -0.00000000000E+00 -0.22125350420E+04  0.22125350420E+04  0.00000000000E+00 0. -1.
         21    1    1    2  503  501 -0.53444956278E+02 -0.11165779567E+03 -0.32740910421E+03  0.35002935334E+03  0.00000000000E+00 0.  1.
         21    1    1    2  504  505 -0.12264707919E+02  0.52673886516E+02  0.81789034477E+02  0.98053085325E+02  0.00000000000E+00 0. -1.
         21    1    1    2  505  502  0.30225883050E+02  0.64894917534E+01  0.76273823751E+02  0.82300751509E+02  0.00000000000E+00 0. -1.
          2    1    1    2  501    0  0.35483781146E+02  0.52494417396E+02 -0.18621314789E+04  0.18632091690E+04  0.00000000000E+00 0. -1.
<scales pt_clust_3="14000.00000" pt_clust_4="60.16680" pt_clust_5="30.91468" pt_clust_6="66.05384"></scales>
<clustering>
<clus scale="   30.915">  1  5  2 -1</clus>
<clus scale="   60.167">  1  4  2 -1</clus>
<clus scale="   66.054">  2  6  1 -1</clus>
<clus scale="   30.915">  1  3  2 -1</clus>
</clustering>
</event>
<event>
 6    0  0.5775861E+002  0.1054679E+03  0.7546771E-02  0.1269201E+00
         21   -1    0    0  504  502  0.00000000000E+00  0.00000000000E+00  0.63528569033E+02  0.63528569033E+02  0.00000000000E+00 0.  1.
          2   -1    0    0  503    0 -0.00000000000E+00 -0.00000000000E+00 -0.22371304599E+04  0.22371304599E+04  0.00000000000E+00 0. -1.
         21    1    1    2  503  502  0.93679944888E+02  0.40407986461E+02 -0.65062070731E+03  0.65857121272E+03  0.00000000000E+00 0. -1.
         21    1    1    2  504  505 -0.10567397511E+03  0.16697427571E+02 -0.23945252475E+01  0.10701180708E+03  0.00000000000E+00 0.  1.
         21    1    1    2  505  501 -0.55320901913E+02 -0.66811931785E+02 -0.29208226429E+03  0.30469047496E+03  0.00000000000E+00 0. -1.
          2    1    1    2  501    0  0.67314932139E+02  0.97065177529E+01 -0.12285043941E+04  0.12303855342E+04  0.00000000000E+00 0. -1.
<scales pt_clust_3="105.46786" pt_clust_4="14000.00000" pt_clust_5="73.07777" pt_clust_6="68.01115"></scales>
<clustering>
<clus scale="   68.011">  2  6  1 -1</clus>
<clus scale="   73.078">  2  5  1 -1</clus>
<clus scale="  105.468">  2  3  1 -1</clus>
<clus scale="  105.468">  1  3  2 -1</clus>
</clustering>
</event>
<event>
 6    0  0.5775861E+002  0.8213557E+02  0.7546771E-02  0.1323098E+00
         21   -1    0    0  503  502  0.00000000000E+00  0.00000000000E+00  0.59079054568E+02  0.59079054568E+02  0.00000000000E+00 0.  1.
          1   -1    0    0  504    0 -0.00000000000E+00 -0.00000000000E+00 -0.18506741521E+04  0.18506741521E+04  0.00000000000E+00 0. -1.
         21    1    1    2  503  501 -0.40668000657E+02  0.54560691715E+02 -0.14888858369E+03  0.16370267472E+03  0.00000000000E+00 0.  1.
         21    1    1    2  504  505 -0.32350708038E+02  0.28045401721E+02 -0.32786385344E+03  0.33064757561E+03  0.00000000000E+00 0. -1.
         21    1    1    2  505  502  0.86309272915E+02 -0.21913586884E+02  0.95458304097E+01  0.89557907297E+02  0.00000000000E+00 0.  1.
          1    1    1    2  501    0 -0.13290564220E+02 -0.60692506552E+02 -0.13243884908E+04  0.13258450491E+04  0.00000000000E+00 0. -1.
<scales pt_clust_3="14000.00000" pt_clust_4="42.81487" pt_clust_5="82.13557" pt_clust_6="55.08837"></scales>
<clustering>
<clus scale="   42.815">  2  4  1 -1</clus>
<clus scale="   55.088">  2  6  1 -1</clus>
<clus scale="   82.136">  1  5  2 -1</clus>
<clus scale="   82.136">  1  3  2 -1</clus>
</clustering>
</event>
<event>
 6    0  0.5775861E+002  0.2476841E+03  0.7546771E-02  0.1114777E+00
         21   -1    0    0  501  502  0.00000000000E+00  0.00000000000E+00  0.30249554766E+03  0.30249554766E+03  0.00000000000E+00 0.  1.
          2   -1    0    0  504    0 -0.00000000000E+00 -0.00000000000E+00 -0.12156116927E+04  0.12156116927E+04  0.00000000000E+00 0.  1.
         21    1    1    2  503  502 -0.21334329089E+02 -0.45388549469E+02 -0.10727746627E+02  0.51287021440E+02  0.00000000000E+00 0.  1.
         21    1    1    2  504  505  0.20717181686E+03  0.12618944683E+03  0.19117122709E+03  0.30885332483E+03  0.00000000000E+00 0.  1.
         21    1    1    2  505  503  0.18022674358E+02  0.60426585731E+02 -0.37905620662E+02  0.73573263702E+02  0.00000000000E+00 0. -1.
          2    1    1    2  501    0 -0.20386016213E+03 -0.14122748309E+03 -0.10556540049E+04  0.10843936304E+04  0.00000000000E+00 0.  1.
<scales pt_clust_3="50.15251" pt_clust_4="247.68405" pt_clust_5="59.92501" pt_clust_6="14000.00000"></scales>
<clustering>
<clus scale="   50.153">  1  3  2 -1</clus>
<clus scale="   59.925">  1  5  2 -1</clus>
<clus scale="  247.684">  1  4  2 -1</clus>
<clus scale="   50.153">  1  3  2 -1</clus>
</clustering>
</event>
<event>
 6    0  0.5775861E+002  0.6822291E+02  0.7546771E-02  0.1366243E+00
          3   -1    0    0  504    0 -0.00000000000E+00  0.00000000000E+00  0.10829199251E+04  0.10829199251E+04  0.00000000000E+00 0. -1.
         21   -1    0    0  501  502  0.00000000000E+00 -0.00000000000E+00 -0.18356483251E+03  0.18356483251E+03  0.00000000000E+00 0. -1.
         21    1    1    2  503  505 -0.55166818005E+02 -0.30242388652E+02  0.92092445457E+02  0.11153025773E+03  0.00000000000E+00 0. -1.
         21    1    1    2  504  503 -0.90867605309E+01  0.10580230652E+03  0.21749198615E+03  0.24203194277E+03  0.00000000000E+00 0. -1.
         21    1    1    2  505  502  0.42557485911E+02 -0.39148629499E+02 -0.15578102338E+03  0.16616703056E+03  0.00000000000E+00 0. -1.
          3    1    1    2  501    0  0.21696092625E+02 -0.36411288368E+02  0.74555168434E+03  0.74675552651E+03  0.00000000000E+00 0. -1.
<scales pt_clust_3="14000.00000" pt_clust_4="68.22291" pt_clust_5="58.45186" pt_clust_6="42.38517"></scales>
<clustering>
<clus scale="   42.385">  1  6  2 -1</clus>
<clus scale="   58.452">  2  5  1 -1</clus>
<clus scale="   68.223">  1  4  2 -1</clus>
<clus scale="   58.452">  2  3  1 -1</clus>
</clustering>
</event>
<event>
 6    0  0.5775861E+002  0.2407791E+03  0.7546771E-02  0.1119275E+00
         -2   -1    0    0    0  501 -0.00000000000E+00  0.00000000000E+00  0.86686555118E+02  0.86686555118E+02  0.00000000000E+00 0. -1.
         21   -1    0    0  503  502  0.00000000000E+00 -0.00000000000E+00 -0.30591772251E+04  0.30591772251E+04  0.00000000000E+00 0.  1.
         21    1    1    2  503  504  0.60814058466E+02  0.13980611992E+02 -0.17400990125E+03  0.18486009021E+03  0.00000000000E+00 0. -1.
         21    1    1    2  504  501 -0.24438435268E+02  0.39137017834E+02 -0.11881155457E+03  0.12745637992E+03  0.00000000000E+00 0.  1.
         21    1    1    2  505  502 -0.23840010581E+03  0.45244875158E+02 -0.25737023229E+04  0.25851161204E+04  0.00000000000E+00 0.  1.
         -2    1    1    2    0  505  0.20202448261E+03 -0.98362504984E+02 -0.10596689129E+03  0.24843118969E+03  0.00000000000E+00 0. -1.
<scales pt_clust_3="61.47633" pt_clust_4="46.14047" pt_clust_5="240.77908" pt_clust_6="14000.00000"></scales>
<clustering>
<clus scale="   46.140">  1  4  2 -1</clus>
<clus scale="   61.476">  1  3  2 -1</clus>
<clus scale="  240.779">  2  5  1 -1</clus>
<clus scale="  240.779">  2  3  1 -1</clus>
</clustering>
</event>
<event>
 6    0  0.5775861E+002  0.8464982E+02  0.7546771E-02  0.1316351E+00
          2   -1    0    0  505    0 -0.00000000000E+00  0.00000000000E+00  0.15107087492E+04  0.15107087492E+04  0.00000000000E+00 0. -1.
         21   -1    0    0  503  502  0.00000000000E+00 -0.00000000000E+00 -0.29652951180E+03  0.29652951180E+03  0.00000000000E+00 0.  1.
         21    1    1    2  503  501 -0.45528229394E+02  0.50965894787E+02 -0.80205881866E+02  0.10537231889E+03  0.00000000000E+00 0.  1.
         21    1    1    2  504  502  0.24168757717E+02  0.33210605289E+02 -0.19455474801E+03  0.19884321242E+03  0.00000000000E+00 0.  1.
         21    1    1    2  505  504  0.57233302822E+02 -0.64431644053E+01  0.14020931405E+03  0.15157775914E+03  0.00000000000E+00 0. -1.
          2    1    1    2  501    0 -0.35873831146E+02 -0.77733335670E+02  0.13487305532E+04  0.13514449705E+04  0.00000000000E+00 0. -1.
<scales pt_clust_3="84.64982" pt_clust_4="41.07400" pt_clust_5="58.78596" pt_clust_6="14000.00000"></scales>
<clustering>
<clus scale="   41.074">  2  4  1 -1</clus>
<clus scale="   58.786">  1  5  2 -1</clus>
<clus scale="   84.650">  2  3  1 -1</clus>
<clus scale="   41.074">  2  3  1 -1</clus>
</clustering>
</event>
<event>
 6    0  0.5775861E+002  0.1779607E+03  0.7546771E-02  0.1169791E+00
         21   -1    0    0  505  502  0.00000000000E+00  0.00000000000E+00  0.20951729823E+04  0.20951729823E+04  0.00000000000E+00 0. -1.
         -2   -1    0    0    0  501 -0.00000000000E+00 -0.00000000000E+00 -0.71446063596E+02  0.71446063596E+02  0.00000000000E+00 0. -1.
         21    1    1    2  503  501  0.63542258113E+02  0.15118788198E+03  0.73478772203E+03  0.75286678149E+03  0.00000000000E+00 0. -1.
         21    1    1    2  504  502 -0.70606479870E+02 -0.15744443345E+03  0.18850557746E+03  0.25555503782E+03  0.00000000000E+00 0. -1.
         21    1    1    2  505  503  0.49409868042E+02  0.17622581405E+01  0.11127660955E+04  0.11138639162E+04  0.00000000000E+00 0. -1.
         -2    1    1    2    0  504 -0.42345646286E+02  0.44942933304E+01 -0.12332476304E+02  0.44333310317E+02  0.00000000000E+00 0. -1.
<scales pt_clust_3="177.96071" pt_clust_4="14000.00000" pt_clust_5="48.90459" pt_clust_6="42.58348"></scales>
<clustering>
<clus scale="   42.583">  2  6  1 -1</clus>
<clus scale="   48.905">  1  5  2 -1</clus>
<clus scale="  177.961">  1  3  2 -1</clus>
<clus scale="   48.905">  1  3  2 -1</clus>
</clustering>
</event>
<event>
 6    0  0.5775861E+002  0.9968352E+02  0.7546771E-02  0.1280963E+00
          2   -1    0    0  505    0 -0.00000000000E+00  0.00000000000E+00  0.67232697728E+03  0.67232697728E+03  0.00000000000E+00 0. -1.
         21   -1    0    0  503  502  0.00000000000E+00 -0.00000000000E+00 -0.21729104282E+03  0.21729104282E+03  0.00000000000E+00 0.  1.
         21    1    1    2  503  504 -0.10771870628E+03 -0.58890577243E+02 -0.46763206106E+02  0.13137053405E+03  0.00000000000E+00 0.  1.
         21    1    1    2  504  501  0.99041635789E+02  0.57495137072E+02  0.52438310960E+02  0.12595520181E+03  0.00000000000E+00 0.  1.
         21    1    1    2  505  502  0.60608902672E+02 -0.82675861097E+01 -0.79774174386E+02  0.10052716529E+03  0.00000000000E+00 0.  1.
          2    1    1    2  501    0 -0.51931832176E+02  0.96630262798E+01  0.52913500399E+03  0.53176511894E+03  0.00000000000E+00 0. -1.
<scales pt_clust_3="99.68352" pt_clust_4="14000.00000" pt_clust_5="57.31167" pt_clust_6="52.82319"></scales>
<clustering>
<clus scale="   52.823">  1  6  2 -1</clus>
<clus scale="   57.312">  2  5  1 -1</clus>
<clus scale="   99.684">  2  3  1 -1</clus>
<clus scale="   57.312">  2  3  1 -1</clus>
</clustering>
</event>
<event>
 6    0  0.5775861E+002  0.1430318E+03  0.7546771E-02  0.1209307E+00
          2   -1    0    0  504    0 -0.00000000000E+00  0.00000000000E+00  0.12688053465E+04  0.12688053465E+04  0.00000000000E+00 0.  1.
         21   -1    0    0  503  502  0.00000000000E+00 -0.00000000000E+00 -0.23917306711E+03  0.23917306711E+03  0.00000000000E+00 0. -1.
         21    1    1    2  503  505 -0.13664475584E+03 -0.43285077503E+02 -0.15508828445E+03  0.21118182499E+03  0.00000000000E+00 0. -1.
         21    1    1    2  504  502  0.23343690652E+02 -0.29540438357E+02  0.44130129760E+02  0.58008910903E+02  0.00000000000E+00 0.  1.
         21    1    1    2  505  501  0.16672960472E+02  0.14914311301E+03  0.78084940111E+02  0.16917125536E+03  0.00000000000E+00 0.  1.
          2    1    1    2  501    0  0.96628104714E+02 -0.76317597151E+02  0.10625054939E+04  0.10696164223E+04  0.00000000000E+00 0.  1.
<scales pt_clust_3="143.03183" pt_clust_4="37.65057" pt_clust_5="142.52962" pt_clust_6="14000.00000"></scales>
<clustering>
<clus scale="   37.651">  1  4  2 -1</clus>
<clus scale="  143.032">  2  3  1 -1</clus>
<clus scale="  142.530">  2  5  1 -1</clus>
<clus scale="  143.032">  2  3  1 -1</clus>
</clustering>
</event>
<event>
 6    0  0.5775861E+002  0.1005007E+03  0.7546771E-02  0.1279247E+00
          2   -1    0    0  504    0 -0.00000000000E+00  0.00000000000E+00  0.14271590075E+04  0.14271590075E+04  0.00000000000E+00 0. -1.
         21   -1    0    0  505  502  0.00000000000E+00 -0.00000000000E+00 -0.31767312318E+03  0.31767312318E+03  0.00000000000E+00 0.  1.
         21    1    1    2  503  501  0.12944919280E+03 -0.21517107887E+02  0.47852861470E+02  0.13967811496E+03  0.00000000000E+00 0. -1.
         21    1    1    2  504  502 -0.99449801691E+02 -0.24062017238E+02  0.17978292392E+03  0.20686020270E+03  0.00000000000E+00 0. -1.
         21    1    1    2  505  503  0.61809106275E+02  0.80122419435E+01 -0.25226420621E+03  0.25984955527E+03  0.00000000000E+00 0.  1.
          2    1    1    2  501    0 -0.91808497383E+02  0.37566883182E+02  0.11341143051E+04  0.11384442578E+04  0.00000000000E+00 0. -1.
<scales pt_clust_3="14000.00000" pt_clust_4="88.71757" pt_clust_5="62.32625" pt_clust_6="100.50072"></scales>
<clustering>
<clus scale="   62.326">  2  5  1 -1</clus>
<clus scale="   88.718">  2  4  1 -1</clus>
<clus scale="  100.501">  1  6  2 -1</clus>
<clus scale="   62.326">  2  3  1 -1</clus>
</clustering>
</event>
<event>
 6    0  0.5775861E+002  0.2748634E+03  0.7546771E-02  0.1098528E+00
         21   -1    0    0  504  502  0.00000000000E+00  0.00000000000E+00  0.16045805163E+03  0.16045805163E+03  0.00000000000E+00 0. -1.
          2   -1    0    0  503    0 -0.00000000000E+00 -0.00000000000E+00 -0.19732410019E+04  0.19732410019E+04  0.00000000000E+00 0. -1.
         21    1    1    2  503  505  0.62810683036E+02  0.28260125933E+03 -0.67775394747E+03  0.73699326116E+03  0.00000000000E+00 0. -1.
         21    1    1    2  504  501 -0.13692142932E+03 -0.22163002551E+03 -0.34655530659E+03  0.43355268024E+03  0.00000000000E+00 0. -1.
         21    1    1    2  505  502  0.10523312316E+03 -0.76878265116E+02  0.38148403555E+02  0.13579240977E+03  0.00000000000E+00 0. -1.
          2    1    1    2  501    0 -0.31122376878E+02  0.15907031293E+02 -0.82662209974E+03  0.82736070233E+03  0.00000000000E+00 0. -1.
<scales pt_clust_3="14000.00000" pt_clust_4="274.86342" pt_clust_5="128.85390" pt_clust_6="34.95191"></scales>
<clustering>
<clus scale="   34.952">  2  6  1 -1</clus>
<clus scale="  128.854">  1  5  2 -1</clus>
<clus scale="  274.863">  1  4  2 -1</clus>
<clus scale="  128.854">  1  3  2 -1</clus>
</clustering>
</event>
<event>
 6    0  0.5775861E+002  0.1329997E+03  0.7546771E-02  0.1223071E+00
          2   -1    0    0  504    0 -0.00000000000E+00  0.00000000000E+00  0.88802967356E+03  0.88802967356E+03  0.00000000000E+00 0. -1.
         21   -1    0    0  505  502  0.00000000000E+00 -0.00000000000E+00 -0.59162615903E+03  0.59162615903E+03  0.00000000000E+00 0.  1.
         21    1    1    2  503  502 -0.45371757424E+02 -0.25206530551E+02 -0.34201838202E+03  0.34593429895E+03  0.00000000000E+00 0.  1.
         21    1    1    2  504  503  0.57477994751E+02  0.91620003558E+02  0.13883673646E+03  0.17599313715E+03  0.00000000000E+00 0. -1.
         21    1    1    2  505  501  0.24101855214E+02 -0.11485034511E+03 -0.21267604758E+03  0.24290451295E+03  0.00000000000E+00 0.  1.
          2    1    1    2  501    0 -0.36208092541E+02  0.48436872102E+02  0.71226120766E+03  0.71482388354E+03  0.00000000000E+00 0. -1.
<scales pt_clust_3="51.90343" pt_clust_4="132.99969" pt_clust_5="14000.00000" pt_clust_6="60.51111"></scales>
<clustering>
<clus scale="   51.903">  2  3  1 -1</clus>
<clus scale="   60.511">  1  6  2 -1</clus>
<clus scale="  133.000">  1  4  2 -1</clus>
<clus scale="   51.903">  2  3  1 -1</clus>
</clustering>
</event>
<event>
 6    0  0.5775861E+002  0.9717905E+02  0.7546771E-02  0.1286342E+00
          1   -1    0    0  504    0 -0.00000000000E+00  0.00000000000E+00  0.20995357847E+04  0.20995357847E+04  0.00000000000E+00 0.  1.
         21   -1    0    0  503  502  0.00000000000E+00 -0.00000000000E+00 -0.13831786769E+03  0.13831786769E+03  0.00000000000E+00 0.  1.
         21    1    1    2  503  505  0.41101019458E+02  0.88671658060E+02 -0.58292631549E+02  0.11379801245E+03  0.00000000000E+00 0.  1.
         21    1    1    2  504  502  0.36397607919E+02 -0.33904558555E+02 -0.29686109033E+02  0.57927282195E+02  0.00000000000E+00 0.  1.
         21    1    1    2  505  501 -0.10495886919E+03 -0.88225528066E+02  0.56857082084E+03  0.58486997387E+03  0.00000000000E+00 0.  1.
          1    1    1    2  501    0  0.27460241815E+02  0.33458428560E+02  0.14806258368E+04  0.14812583839E+04  0.00000000000E+00 0.  1.
<scales pt_clust_3="97.17905" pt_clust_4="49.69026" pt_clust_5="14000.00000" pt_clust_6="43.28431"></scales>
<clustering>
<clus scale="   43.284">  1  6  2 -1</clus>
<clus scale="   49.690">  2  4  1 -1</clus>
<clus scale="   97.179">  2  3  1 -1</clus>
<clus scale="   49.690">  2  3  1 -1</clus>
</clustering>
</event>
<event>
 6    0  0.5775861E+002  0.9461617E+02  0.7546771E-02  0.1292043E+00
          2   -1    0    0  505    0 -0.00000000000E+00  0.00000000000E+00  0.29773244456E+04  0.29773244456E+04  0.00000000000E+00 0. -1.
         21   -1    0    0  503  502  0.00000000000E+00 -0.00000000000E+00 -0.56704796619E+02  0.56704796619E+02  0.00000000000E+00 0. -1.
         21    1    1    2  503  501 -0.38531265383E+02 -0.14081767630E+02  0.10758584085E+03  0.11514194606E+03  0.00000000000E+00 0. -1.
         21    1    1    2  504  502 -0.50530180771E+02 -0.48292479373E+01 -0.31736819802E+02  0.59865236453E+02  0.00000000000E+00 0. -1.
         21    1    1    2  505  504  0.13851338656E+03  0.56809788473E+02  0.83691396545E+03  0.85019897429E+03  0.00000000000E+00 0. -1.
          2    1    1    2  501    0 -0.49451940408E+02 -0.37898772906E+02  0.20078566625E+04  0.20088230854E+04  0.00000000000E+00 0. -1.
<scales pt_clust_3="41.02383" pt_clust_4="94.61617" pt_clust_5="14000.00000" pt_clust_6="62.66170"></scales>
<clustering>
<clus scale="   41.024">  2  3  1 -1</clus>
<clus scale="   62.662">  1  6  2 -1</clus>
<clus scale="   94.616">  2  4  1 -1</clus>
<clus scale="   41.024">  2  3  1 -1</clus>
</clustering>
</event>
<event>
 6    0  0.5775861E+002  0.1139221E+03  0.7546771E-02  0.1253474E+00
         21   -1    0    0  503  502  0.00000000000E+00  0.00000000000E+00  0.31519168385E+03  0.31519168385E+03  0.00000000000E+00 0.  1.
          2   -1    0    0  504    0 -0.00000000000E+00 -0.00000000000E+00 -0.75801536369E+03  0.75801536369E+03  0.00000000000E+00 0. -1.
         21    1    1    2  503  501 -0.16899631112E+03  0.10041153437E+02  0.12245946731E+02  0.16973668179E+03  0.00000000000E+00 0.  1.
         21    1    1    2  504  505  0.36541732789E+02 -0.59559060908E+02 -0.39527917630E+02  0.80280983076E+02  0.00000000000E+00 0.  1.
         21    1    1    2  505  502  0.10392913840E+03 -0.10387070882E+02  0.18850635344E+03  0.21550824192E+03  0.00000000000E+00 0.  1.
          2    1    1    2  501    0  0.28525439928E+02  0.59904978353E+02 -0.60404806238E+03  0.60768114075E+03  0.00000000000E+00 0. -1.
<scales pt_clust_3="14000.00000" pt_clust_4="59.80232" pt_clust_5="113.92211" pt_clust_6="66.34988"></scales>
<clustering>
<clus scale="   66.350">  2  6  1 -1</clus>
<clus scale="   59.802">  2  4  1 -1</clus>
<clus scale="  113.922">  1  5  2 -1</clus>
<clus scale="  113.922">  1  3  2 -1</clus>
</clustering>
</event>
<event>
 6    0  0.5775861E+002  0.9901567E+02  0.7546771E-02  0.1282380E+00
         21   -1    0    0  505  502  0.00000000000E+00  0.00000000000E+00  0.21785325667E+02  0.21785325667E+02  0.00000000000E+00 0. -1.
          2   -1    0    0  503    0 -0.00000000000E+00 -0.00000000000E+00 -0.32191552753E+04  0.32191552753E+04  0.00000000000E+00 0.  1.
         21    1    1    2  503  502 -0.26727324887E+02 -0.31665569922E+02 -0.36534236989E+03  0.36768479088E+03  0.00000000000E+00 0. -1.
         21    1    1    2  504  501  0.31706626819E+01  0.81417855373E+02 -0.55824949128E+03  0.56416435086E+03  0.00000000000E+00 0.  1.
         21    1    1    2  505  504  0.62481848319E+02 -0.88746646306E+02 -0.15294239861E+03  0.18754019807E+03  0.00000000000E+00 0. -1.
          2    1    1    2  501    0 -0.38925186114E+02  0.38994360855E+02 -0.21208356898E+04  0.21215512611E+04  0.00000000000E+00 0.  1.
<scales pt_clust_3="41.43740" pt_clust_4="14000.00000" pt_clust_5="99.01567" pt_clust_6="60.79480"></scales>
<clustering>
<clus scale="   41.437">  2  3  1 -1</clus>
<clus scale="   60.795">  2  6  1 -1</clus>
<clus scale="   99.016">  1  5  2 -1</clus>
<clus scale="   99.016">  1  3  2 -1</clus>
</clustering>
</event>
<event>
 6    0  0.5775861E+002  0.1030210E+03  0.7546771E-02  0.1274068E+00
         21   -1    0    0  503  502  0.00000000000E+00  0.00000000000E+00  0.42635795478E+02  0.42635795478E+02  0.00000000000E+00 0.  1.
          1   -1    0    0  505    0 -0.00000000000E+00 -0.00000000000E+00 -0.15627495186E+04  0.15627495186E+04  0.00000000000E+00 0. -1.
         21    1    1    2  503  501 -0.74662872145E+01  0.64473990120E+02 -0.27664064149E+03  0.28415257410E+03  0.00000000000E+00 0. -1.
         21    1    1    2  504  502 -0.73073433829E+02 -0.75833158940E+02 -0.54387286105E+02  0.11852582679E+03  0.00000000000E+00 0.  1.
         21    1    1    2  505  504  0.12025553718E+03 -0.12198155717E+01 -0.58762190935E+03  0.59980195942E+03  0.00000000000E+00 0. -1.
          1    1    1    2  501    0 -0.39715816137E+02  0.12578984392E+02 -0.60146388616E+03  0.60290495375E+03  0.00000000000E+00 0. -1.
<scales pt_clust_3="70.76110" pt_clust_4="14000.00000" pt_clust_5="103.02100" pt_clust_6="41.66026"></scales>
<clustering>
<clus scale="   41.660">  2  6  1 -1</clus>
<clus scale="   70.761">  2  3  1 -1</clus>
<clus scale="  103.021">  2  5  1 -1</clus>
<clus scale="  103.021">  1  3  2 -1</clus>
</clustering>
</event>
<event>
 6    0  0.5775861E+002  0.9536113E+02  0.7546771E-02  0.1290365E+00
         21   -1    0    0  503  502  0.00000000000E+00  0.00000000000E+00  0.17174284255E+04  0.17174284255E+04  0.00000000000E+00 0. -1.
          4   -1    0    0  505    0 -0.00000000000E+00 -0.00000000000E+00 -0.67412989209E+02  0.67412989209E+02  0.00000000000E+00 0.  1.
         21    1    1    2  503  504 -0.24367764823E+02  0.19447985688E+02  0.89925205825E+02  0.95176440112E+02  0.00000000000E+00 0. -1.
         21    1    1    2  504  501 -0.61094351090E+01 -0.13533525407E+03  0.12624857828E+04  0.12697335579E+04  0.00000000000E+00 0. -1.
         21    1    1    2  505  502  0.28428520839E+02  0.21715309815E+02  0.32090927702E+03  0.32289704173E+03  0.00000000000E+00 0.  1.
          4    1    1    2  501    0  0.20486790929E+01  0.94171958570E+02 -0.23304829333E+02  0.97034375029E+02  0.00000000000E+00 0.  1.
<scales pt_clust_3="31.17711" pt_clust_4="14000.00000" pt_clust_5="34.79567" pt_clust_6="95.36113"></scales>
<clustering>
<clus scale="   31.177">  1  3  2 -1</clus>
<clus scale="   34.796">  1  5  2 -1</clus>
<clus scale="   95.361">  2  6  1 -1</clus>
<clus scale="   31.177">  1  3  2 -1</clus>
</clustering>
</event>
<event>
 6    0  0.5775861E+002  0.6513859E+02  0.7546771E-02  0.1377451E+00
         21   -1    0    0  503  502  0.00000000000E+00  0.00000000000E+00  0.16349518573E+03  0.16349518573E+03  0.00000000000E+00 0. -1.
          2   -1    0    0  504    0 -0.00000000000E+00 -0.00000000000E+00 -0.94748829365E+03  0.94748829365E+03  0.00000000000E+00 0.  1.
         21    1    1    2  503  501  0.26583981238E+02 -0.37668329308E+02  0.26456167995E+02  0.53155807926E+02  0.00000000000E+00 0.  1.
         21    1    1    2  504  505 -0.57372133000E+01 -0.86951458377E+02 -0.79056391258E+02  0.11765791401E+03  0.00000000000E+00 0.  1.
         21    1    1    2  505  502 -0.48913311906E+02  0.66995785614E+02  0.86455005057E+02  0.11981408628E+03  0.00000000000E+00 0. -1.
          2    1    1    2  501    0  0.28066543968E+02  0.57624002070E+02 -0.81784788971E+03  0.82035567116E+03  0.00000000000E+00 0.  1.
<scales pt_clust_3="46.10435" pt_clust_4="14000.00000" pt_clust_5="44.51799" pt_clust_6="65.13859"></scales>
<clustering>
<clus scale="   46.104">  1  3  2 -1</clus>
<clus scale="   44.518">  1  5  2 -1</clus>
<clus scale="   65.139">  2  6  1 -1</clus>
<clus scale="   46.104">  1  3  2 -1</clus>
</clustering>
</event>
<event>
 6    0  0.5775861E+002  0.9383629E+02  0.7546771E-02  0.1293819E+00
         21   -1    0    0  503  502  0.00000000000E+00  0.00000000000E+00  0.14487203708E+03  0.14487203708E+03  0.00000000000E+00 0. -1.
          3   -1    0    0  504    0 -0.00000000000E+00 -0.00000000000E+00 -0.16256445748E+04  0.16256445748E+04  0.00000000000E+00 0. -1.
         21    1    1    2  503  505  0.43132793954E+02  0.30435561446E+02  0.81358359763E+02  0.96984246237E+02  0.00000000000E+00 0. -1.
         21    1    1    2  504  502 -0.65152618318E+02 -0.86399622273E+02 -0.22415313911E+03  0.24890638436E+03  0.00000000000E+00 0. -1.
         21    1    1    2  505  501 -0.70082521109E+01  0.66643436013E+02  0.17129627799E+02  0.69165651228E+02  0.00000000000E+00 0.  1.
          3    1    1    2  501    0  0.29028076476E+02 -0.10679375186E+02 -0.13551073862E+04  0.13554603301E+04  0.00000000000E+00 0. -1.
<scales pt_clust_3="53.30234" pt_clust_4="93.83629" pt_clust_5="14000.00000" pt_clust_6="30.93022"></scales>
<clustering>
<clus scale="   30.930">  2  6  1 -1</clus>
<clus scale="   53.302">  1  3  2 -1</clus>
<clus scale="   93.836">  2  4  1 -1</clus>
<clus scale="   53.302">  1  3  2 -1</clus>
</clustering>
</event>
<event>
 6    0  0.5775861E+002  0.1471629E+03  0.7546771E-02  0.1204003E+00
          2   -1    0    0  502    0 -0.00000000000E+00  0.00000000000E+00  0.16175531972E+04  0.16175531972E+04  0.00000000000E+00 0. -1.
         21   -1    0    0  504  502  0.00000000000E+00 -0.00000000000E+00 -0.11433825964E+03  0.11433825964E+03  0.00000000000E+00 0. -1.
         21    1    1    2  503  505 -0.16107772750E+03 -0.71498789006E+02  0.18628533887E+03  0.25643778701E+03  0.00000000000E+00 0. -1.
         21    1    1    2  504  503  0.10615945505E+03  0.91560970700E+02 -0.93526260917E+01  0.14050164721E+03  0.00000000000E+00 0. -1.
         21    1    1    2  505  501  0.85357413082E+02 -0.21934840713E+02  0.47394473716E+03  0.48206912273E+03  0.00000000000E+00 0. -1.
          2    1    1    2  501    0 -0.30439140634E+02  0.18726590189E+01  0.85233748757E+03  0.85288289985E+03  0.00000000000E+00 0. -1.
<scales pt_clust_3="14000.00000" pt_clust_4="147.16295" pt_clust_5="69.51018" pt_clust_6="30.49669"></scales>
<clustering>
<clus scale="   30.497">  1  6  2 -1</clus>
<clus scale="   69.510">  1  5  2 -1</clus>
<clus scale="  147.163">  2  4  1 -1</clus>
<clus scale="  147.163">  2  3  1 -1</clus>
</clustering>
</event>
<event>
 6    0  0.5775861E+002  0.1291154E+03  0.7546771E-02  0.1228774E+00
          2   -1    0    0  505    0 -0.00000000000E+00  0.00000000000E+00  0.91131127237E+03  0.91131127237E+03  0.00000000000E+00 0. -1.
         21   -1    0    0  504  502  0.00000000000E+00 -0.00000000000E+00 -0.14989387941E+03  0.14989387941E+03  0.00000000000E+00 0. -1.
         21    1    1    2  503  501 -0.13446654876E+03 -0.61907327153E+02  0.80993500311E+02  0.16874156863E+03  0.00000000000E+00 0. -1.
         21    1    1    2  504  503  0.93086688441E+01  0.35763659007E+02 -0.89651148349E+02  0.96969165313E+02  0.00000000000E+00 0. -1.
         21    1    1    2  505  502  0.27971026048E+01  0.33739033775E+02  0.47172205279E+03  0.47293534576E+03  0.00000000000E+00 0. -1.
          2    1    1    2  501    0  0.12236077731E+03 -0.75953656302E+01  0.29835298822E+03  0.32255907208E+03  0.00000000000E+00 0. -1.
<scales pt_clust_3="14000.00000" pt_clust_4="37.23331" pt_clust_5="33.85478" pt_clust_6="129.11541"></scales>
<clustering>
<clus scale="   33.855">  1  5  2 -1</clus>
<clus scale="   37.233">  2  4  1 -1</clus>
<clus scale="  129.115">  1  6  2 -1</clus>
<clus scale="   37.233">  2  3  1 -1</clus>
</clustering>
</event>
<event>
 6    0  0.5775861E+002  0.1027318E+03  0.7546771E-02  0.1274654E+00
          1   -1    0    0  503    0 -0.00000000000E+00  0.00000000000E+00  0.90500828716E+03  0.90500828716E+03  0.00000000000E+00 0. -1.
         21   -1    0    0  504  502  0.00000000000E+00 -0.00000000000E+00 -0.17696082390E+03  0.17696082390E+03  0.00000000000E+00 0.  1.
         21    1    1    2  503  502  0.76119398251E+02  0.86359177336E+02  0.60269910339E+02  0.12994049558E+03  0.00000000000E+00 0.  1.
         21    1    1    2  504  505  0.32993529976E+02 -0.77257614926E+02 -0.11516355715E+03  0.14254808655E+03  0.00000000000E+00 0.  1.
         21    1    1    2  505  501 -0.76524640792E+02 -0.72162866734E+02  0.24157465737E+03  0.26348019862E+03  0.00000000000E+00 0.  1.
          1    1    1    2  501    0 -0.32588287435E+02  0.63061304324E+02  0.54136645269E+03  0.54600033030E+03  0.00000000000E+00 0. -1.
<scales pt_clust_3="102.73179" pt_clust_4="81.32537" pt_clust_5="14000.00000" pt_clust_6="70.98397"></scales>
<clustering>
<clus scale="   70.984">  1  6  2 -1</clus>
<clus scale="   81.325">  2  4  1 -1</clus>
<clus scale="  102.732">  2  3  1 -1</clus>
<clus scale="   81.325">  2  3  1 -1</clus>
</clustering>
</event>
<event>
 6    0  0.5775861E+002  0.1010246E+03  0.7546771E-02  0.1278156E+00
         21   -1    0    0  504  502  0.00000000000E+00  0.00000000000E+00  0.31738256436E+03  0.31738256436E+03  0.00000000000E+00 0. -1.
          1   -1    0    0  502    0 -0.00000000000E+00 -0.00000000000E+00 -0.85761948952E+03  0.85761948952E+03  0.00000000000E+00 0.  1.
         21    1    1    2  503  501 -0.59362055375E+02 -0.57908525206E+02 -0.78541734340E+02  0.11421932824E+03  0.00000000000E+00 0.  1.
         21    1    1    2  504  505  0.31855464531E+02  0.31822722985E+02  0.51701263889E+02  0.68560024843E+02  0.00000000000E+00 0. -1.
         21    1    1    2  505  503  0.74161748602E+02  0.33212450876E+00  0.23269654530E+03  0.24422890381E+03  0.00000000000E+00 0. -1.
          1    1    1    2  501    0 -0.46655157758E+02  0.25753677712E+02 -0.74609300001E+03  0.74799379698E+03  0.00000000000E+00 0.  1.
<scales pt_clust_3="14000.00000" pt_clust_4="45.02728" pt_clust_5="101.02461" pt_clust_6="53.24526"></scales>
<clustering>
<clus scale="   45.027">  1  4  2 -1</clus>
<clus scale="   53.245">  2  6  1 -1</clus>
<clus scale="  101.025">  1  5  2 -1</clus>
<clus scale="   45.027">  1  3  2 -1</clus>
</clustering>
</event>
<event>
 6    0  0.5775861E+002  0.2695300E+03  0.7546771E-02  0.1101549E+00
         -1   -1    0    0    0  501 -0.00000000000E+00  0.00000000000E+00  0.16237314973E+04  0.16237314973E+04  0.00000000000E+00 0.  1.
         21   -1    0    0  504  502  0.00000000000E+00 -0.00000000000E+00 -0.25417427849E+03  0.25417427849E+03  0.00000000000E+00 0.  1.
         21    1    1    2  503  505  0.35313044775E+03  0.12656008715E+03  0.23197708931E+03  0.44105774990E+03  0.00000000000E+00 0.  1.
         21    1    1    2  504  501 -0.17354140759E+03  0.13047075435E+03  0.54028999340E+01  0.21718293952E+03  0.00000000000E+00 0.  1.
         21    1    1    2  505  502 -0.45024208385E+02 -0.28983780980E+02 -0.33718926060E+01  0.53652665920E+02  0.00000000000E+00 0.  1.
         -1    1    1    2    0  503 -0.13456483177E+03 -0.22804706052E+03  0.11355491222E+04  0.11660124205E+04  0.00000000000E+00 0.  1.
<scales pt_clust_3="269.52996" pt_clust_4="227.05629" pt_clust_5="53.54660" pt_clust_6="14000.00000"></scales>
<clustering>
<clus scale="   53.547">  2  5  1 -1</clus>
<clus scale="  227.056">  2  4  1 -1</clus>
<clus scale="  269.530">  2  3  1 -1</clus>
<clus scale="   53.547">  2  3  1 -1</clus>
</clustering>
</event>
<event>
 6    0  0.5775861E+002  0.9138596E+02  0.7546771E-02  0.1299530E+00
          3   -1    0    0  503    0 -0.00000000000E+00  0.00000000000E+00  0.10494504532E+04  0.10494504532E+04  0.00000000000E+00 0. -1.
         21   -1    0    0  504  502  0.00000000000E+00 -0.00000000000E+00 -0.21128753526E+04  0.21128753526E+04  0.00000000000E+00 0.  1.
         21    1    1    2  503  505  0.53717147274E+02 -0.19428451095E+02  0.25066494996E+02  0.62380492099E+02  0.00000000000E+00 0.  1.
         21    1    1    2  504  501 -0.89218493946E+02  0.20177146937E+02 -0.20848978739E+04  0.20869034960E+04  0.00000000000E+00 0.  1.
         21    1    1    2  505  502  0.70557003314E+01 -0.57016980751E+02  0.10738820407E+03  0.12179057999E+03  0.00000000000E+00 0. -1.
          3    1    1    2  501    0  0.28445646341E+02  0.56268284909E+02  0.88901827541E+03  0.89125123770E+03  0.00000000000E+00 0. -1.
<scales pt_clust_3="57.12265" pt_clust_4="14000.00000" pt_clust_5="60.67843" pt_clust_6="91.38596"></scales>
<clustering>
<clus scale="   57.123">  1  3  2 -1</clus>
<clus scale="   60.678">  1  5  2 -1</clus>
<clus scale="   91.386">  1  6  2 -1</clus>
<clus scale="   91.386">  2  3  1 -1</clus>
</clustering>
</event>
<event>
 6    0  0.5775861E+002  0.8155824E+02  0.7546771E-02  0.1324687E+00
         21   -1    0    0  505  502  0.00000000000E+00  0.00000000000E+00  0.77685532079E+02  0.77685532079E+02  0.00000000000E+00 0. -1.
          2   -1    0    0  504    0 -0.00000000000E+00 -0.00000000000E+00 -0.78375708517E+03  0.78375708517E+03  0.00000000000E+00 0.  1.
         21    1    1    2  503  502  0.19458885498E+02  0.25114251584E+02  0.79349770491E+00  0.31780552168E+02  0.00000000000E+00 0. -1.
         21    1    1    2  504  503  0.80742868088E+02  0.38557268334E+02 -0.37697702634E+03  0.38745032208E+03  0.00000000000E+00 0. -1.
         21    1    1    2  505  501 -0.62267161791E+02  0.10173515902E+02  0.32125692120E+02  0.70800847153E+02  0.00000000000E+00 0. -1.
          2    1    1    2  501    0 -0.37934591795E+02 -0.73845035820E+02 -0.36201371657E+03  0.37141089585E+03  0.00000000000E+00 0.  1.
<scales pt_clust_3="31.77064" pt_clust_4="81.55824" pt_clust_5="55.56059" pt_clust_6="14000.00000"></scales>
<clustering>
<clus scale="   31.771">  1  3  2 -1</clus>
<clus scale="   55.561">  1  5  2 -1</clus>
<clus scale="   81.558">  1  4  2 -1</clus>
<clus scale="   31.771">  1  3  2 -1</clus>
</clustering>
</event>
<event>
 6    0  0.5775861E+002  0.1132068E+03  0.7546771E-02  0.1254744E+00
          2   -1    0    0  505    0 -0.00000000000E+00  0.00000000000E+00  0.24030713879E+04  0.24030713879E+04  0.00000000000E+00 0. -1.
         21   -1    0    0  504  502  0.00000000000E+00 -0.00000000000E+00 -0.64558007775E+03  0.64558007775E+03  0.00000000000E+00 0. -1.
         21    1    1    2  503  502  0.32491338397E+02  0.11180711595E+02 -0.55448587362E+03  0.55554952923E+03  0.00000000000E+00 0. -1.
         21    1    1    2  504  501 -0.22292330329E+01 -0.12035565656E+03 -0.42766480088E+02  0.12774750630E+03  0.00000000000E+00 0. -1.
         21    1    1    2  505  503 -0.42926479330E+02  0.18552327958E+01  0.11123863406E+03  0.11924830491E+03  0.00000000000E+00 0. -1.
          2    1    1    2  501    0  0.12664373965E+02  0.10731971217E+03  0.22435050298E+04  0.22461061252E+04  0.00000000000E+00 0. -1.
<scales pt_clust_3="34.36125" pt_clust_4="113.20678" pt_clust_5="41.55613" pt_clust_6="14000.00000"></scales>
<clustering>
<clus scale="   34.361">  2  3  1 -1</clus>
<clus scale="   41.556">  1  5  2 -1</clus>
<clus scale="  113.207">  2  4  1 -1</clus>
<clus scale="   34.361">  2  3  1 -1</clus>
</clustering>
</event>
<event>
 6    0  0.5775861E+002  0.8330706E+02  0.7546771E-02  0.1319920E+00
         21   -1    0    0  504  502  0.00000000000E+00  0.00000000000E+00  0.89082661041E+02  0.89082661041E+02  0.00000000000E+00 0.  1.
          2   -1    0    0  505    0 -0.00000000000E+00 -0.00000000000E+00 -0.88481885757E+03  0.88481885757E+03  0.00000000000E+00 0.  1.
         21    1    1    2  503  501  0.71115762549E+02 -0.40361065251E+02 -0.10175971489E+03  0.13054312256E+03  0.00000000000E+00 0.  1.
         21    1    1    2  504  503  0.41897045385E+02 -0.35932729246E+01  0.53647786100E+02  0.68164205972E+02  0.00000000000E+00 0.  1.
         21    1    1    2  505  502 -0.72134139746E+02  0.53393028279E+02 -0.14111201852E+03  0.16723262647E+03  0.00000000000E+00 0.  1.
          2    1    1    2  501    0 -0.40878668188E+02 -0.94386901039E+01 -0.60651224922E+03  0.60796156362E+03  0.00000000000E+00 0.  1.
<scales pt_clust_3="14000.00000" pt_clust_4="41.00834" pt_clust_5="83.30706" pt_clust_6="41.95419"></scales>
<clustering>
<clus scale="   41.954">  2  6  1 -1</clus>
<clus scale="   41.008">  1  4  2 -1</clus>
<clus scale="   83.307">  1  5  2 -1</clus>
<clus scale="   41.008">  1  3  2 -1</clus>
</clustering>
</event>
<event>
 6    0  0.5775861E+002  0.1391029E+03  0.7546771E-02  0.1214541E+00
          1   -1    0    0  504    0 -0.00000000000E+00  0.00000000000E+00  0.15150865190E+04  0.15150865190E+04  0.00000000000E+00 0. -1.
         21   -1    0    0  503  502  0.00000000000E+00 -0.00000000000E+00 -0.14598501644E+03  0.14598501644E+03  0.00000000000E+00 0. -1.
         21    1    1    2  503  501  0.67113968163E+02 -0.12040851958E+03 -0.91269640158E+02  0.16532587071E+03  0.00000000000E+00 0. -1.
         21    1    1    2  504  505 -0.19106329464E+02 -0.45440557435E+02  0.13632427064E+03  0.14496276367E+03  0.00000000000E+00 0. -1.
         21    1    1    2  505  502 -0.16992963680E+02  0.17035487764E+03  0.54836603069E+03  0.57446918869E+03  0.00000000000E+00 0. -1.
          1    1    1    2  501    0 -0.31014675019E+02 -0.45058006191E+01  0.77568084135E+03  0.77631371233E+03  0.00000000000E+00 0. -1.
<scales pt_clust_3="14000.00000" pt_clust_4="52.62046" pt_clust_5="139.10289" pt_clust_6="31.34027"></scales>
<clustering>
<clus scale="   31.340">  1  6  2 -1</clus>
<clus scale="   52.620">  1  4  2 -1</clus>
<clus scale="  139.103">  1  5  2 -1</clus>
<clus scale="  139.103">  2  3  1 -1</clus>
</clustering>
</event>
<event>
 6    0  0.5775861E+002  0.1465252E+03  0.7546771E-02  0.1204809E+00
          2   -1    0    0  505    0 -0.00000000000E+00  0.00000000000E+00  0.66740382339E+03  0.66740382339E+03  0.00000000000E+00 0.  1.
         21   -1    0    0  503  502  0.00000000000E+00 -0.00000000000E+00 -0.13079150551E+03  0.13079150551E+03  0.00000000000E+00 0.  1.
         21    1    1    2  503  504 -0.30327585760E+02 -0.31747683489E+02 -0.51816243384E+01  0.44210033881E+02  0.00000000000E+00 0.  1.
         21    1    1    2  504  501 -0.72424978642E+02 -0.12800623567E+03  0.17528044682E+03  0.22881042139E+03  0.00000000000E+00 0.  1.
         21    1    1    2  505  502  0.30149369356E+02  0.16932518016E+03  0.22500780753E+02  0.17345398883E+03  0.00000000000E+00 0.  1.
          2    1    1    2  501    0  0.72603195046E+02 -0.95712609994E+01  0.34401271464E+03  0.35172088480E+03  0.00000000000E+00 0.  1.
<scales pt_clust_3="43.90533" pt_clust_4="14000.00000" pt_clust_5="146.52516" pt_clust_6="72.30132"></scales>
<clustering>
<clus scale="   43.905">  2  3  1 -1</clus>
<clus scale="   72.301">  1  6  2 -1</clus>
<clus scale="  146.525">  2  5  1 -1</clus>
<clus scale="   43.905">  2  3  1 -1</clus>
</clustering>
</event>
<event>
 6    0  0.5775861E+002  0.1347132E+03  0.7546771E-02  0.1220625E+00
         21   -1    0    0  503  502  0.00000000000E+00  0.00000000000E+00  0.94731732686E+02  0.94731732686E+02  0.00000000000E+00 0. -1.
          2   -1    0    0  504    0 -0.00000000000E+00 -0.00000000000E+00 -0.22314771161E+04  0.22314771161E+04  0.00000000000E+00 0. -1.
         21    1    1    2  503  505 -0.37466076542E+02 -0.55488035571E+02 -0.52600092427E+02  0.85143400838E+02  0.00000000000E+00 0. -1.
         21    1    1    2  504  502  0.22847218224E+01  0.16483634608E+03 -0.11653065663E+04  0.11769093569E+04  0.00000000000E+00 0. -1.
         21    1    1    2  505  501  0.54809695760E+02 -0.78980364757E+02  0.40368874930E+02  0.10426718961E+03  0.00000000000E+00 0. -1.
          2    1    1    2  501    0 -0.19628341040E+02 -0.30367945751E+02 -0.95920759956E+03  0.95988890136E+03  0.00000000000E+00 0. -1.
<scales pt_clust_3="68.90998" pt_clust_4="14000.00000" pt_clust_5="134.71318" pt_clust_6="36.15915"></scales>
<clustering>
<clus scale="   36.159">  2  6  1 -1</clus>
<clus scale="   68.910">  1  3  2 -1</clus>
<clus scale="  134.713">  1  5  2 -1</clus>
<clus scale="   68.910">  1  3  2 -1</clus>
</clustering>
</event>
<event>
 6    0  0.5775861E+002  0.1594518E+03  0.7546771E-02  0.1189317E+00
          3   -1    0    0  505    0 -0.00000000000E+00  0.00000000000E+00  0.20089913944E+04  0.20089913944E+04  0.00000000000E+00 0.  1.
         21   -1    0    0  503  502  0.00000000000E+00 -0.00000000000E+00 -0.83933112306E+02  0.83933112306E+02  0.00000000000E+00 0.  1.
         21    1    1    2  503  501 -0.98613456218E+02  0.12188587759E+03  0.28143209129E+03  0.32215648823E+03  0.00000000000E+00 0.  1.
         21    1    1    2  504  502 -0.38258685770E+02 -0.61296874935E+01 -0.36062676472E+02  0.52932190016E+02  0.00000000000E+00 0.  1.
         21    1    1    2  505  504  0.16208382083E+03 -0.59499633393E+02  0.38807018864E+03  0.42474679829E+03  0.00000000000E+00 0.  1.
          3    1    1    2  501    0 -0.25211678846E+02 -0.56256556707E+02  0.12916186787E+04  0.12930890302E+04  0.00000000000E+00 0.  1.
<scales pt_clust_3="159.45182" pt_clust_4="38.74661" pt_clust_5="14000.00000" pt_clust_6="62.04653"></scales>
<clustering>
<clus scale="   38.747">  2  4  1 -1</clus>
<clus scale="   62.047">  1  6  2 -1</clus>
<clus scale="  159.452">  1  3  2 -1</clus>
<clus scale="   38.747">  2  3  1 -1</clus>
</clustering>
</event>
<event>
 6    0  0.5775861E+002  0.9869779E+02  0.7546771E-02  0.1283058E+00
          2   -1    0    0  504    0 -0.00000000000E+00  0.00000000000E+00  0.13225029406E+03  0.13225029406E+03  0.00000000000E+00 0. -1.
         21   -1    0    0  505  502  0.00000000000E+00 -0.00000000000E+00 -0.20648739669E+04  0.20648739669E+04  0.00000000000E+00 0. -1.
         21    1    1    2  503  501  0.64076303989E+02 -0.79912053560E+02 -0.99082069167E+01  0.10290715039E+03  0.00000000000E+00 0. -1.
         21    1    1    2  504  502 -0.65103326696E+02 -0.64863426779E+01 -0.16372625629E+04  0.16385692587E+04  0.00000000000E+00 0. -1.
         21    1    1    2  505  503 -0.23260101032E+02  0.55208489020E+02 -0.36337060188E+03  0.36827598872E+03  0.00000000000E+00 0.  1.
          2    1    1    2  501    0  0.24287123740E+02  0.31189907217E+02  0.77917698791E+02  0.87371863187E+02  0.00000000000E+00 0. -1.
<scales pt_clust_3="14000.00000" pt_clust_4="98.69779" pt_clust_5="60.88716" pt_clust_6="39.53068"></scales>
<clustering>
<clus scale="   39.531">  1  6  2 -1</clus>
<clus scale="   60.887">  2  5  1 -1</clus>
<clus scale="   98.698">  2  4  1 -1</clus>
<clus scale="   60.887">  2  3  1 -1</clus>
</clustering>
</event>
<event>
 6    0  0.5775861E+002  0.8177928E+02  0.7546771E-02  0.1324077E+00
          1   -1    0    0  504    0 -0.00000000000E+00  0.00000000000E+00  0.21115810406E+03  0.21115810406E+03  0.00000000000E+00 0. -1.
         21   -1    0    0  505  502  0.00000000000E+00 -0.00000000000E+00 -0.22549825430E+04  0.22549825430E+04  0.00000000000E+00 0. -1.
         21    1    1    2  503  501 -0.25910441091E+02 -0.51933115067E+02 -0.46509273749E+02  0.74374134904E+02  0.00000000000E+00 0.  1.
         21    1    1    2  504  502  0.37072980003E+02 -0.39835941680E+02 -0.82120373059E+03  0.82300478445E+03  0.00000000000E+00 0. -1.
         21    1    1    2  505  503 -0.20290338146E+02  0.12303160271E+03 -0.13682310380E+04  0.13739012506E+04  0.00000000000E+00 0. -1.
          1    1    1    2  501    0  0.91277992335E+01 -0.31262545963E+02  0.19211960343E+03  0.19486047706E+03  0.00000000000E+00 0. -1.
<scales pt_clust_3="81.77928" pt_clust_4="55.90626" pt_clust_5="14000.00000" pt_clust_6="32.56783"></scales>
<clustering>
<clus scale="   32.568">  1  6  2 -1</clus>
<clus scale="   55.906">  2  4  1 -1</clus>
<clus scale="   81.779">  1  3  2 -1</clus>
<clus scale="   55.906">  2  3  1 -1</clus>
</clustering>
</event>
<event>
 6    0  0.5775861E+002  0.6425739E+02  0.7546771E-02  0.1380787E+00
          2   -1    0    0  505    0 -0.00000000000E+00  0.00000000000E+00  0.78601929234E+03  0.78601929234E+03  0.00000000000E+00 0. -1.
         21   -1    0    0  503  502  0.00000000000E+00 -0.00000000000E+00 -0.20383489136E+03  0.20383489136E+03  0.00000000000E+00 0. -1.
         21    1    1    2  503  504  0.18702102320E+02  0.55312278729E+02 -0.11008565935E+03  0.12461167363E+03  0.00000000000E+00 0. -1.
         21    1    1    2  504  501  0.54296616076E+02  0.44986198307E+02  0.60319733727E+02  0.92791976121E+02  0.00000000000E+00 0. -1.
         21    1    1    2  505  502 -0.29154466208E+02 -0.80486912298E+02 -0.42993264233E+02  0.95794293779E+02  0.00000000000E+00 0. -1.
          2    1    1    2  501    0 -0.43844252187E+02 -0.19811564738E+02  0.67494359084E+03  0.67665624017E+03  0.00000000000E+00 0. -1.
<scales pt_clust_3="14000.00000" pt_clust_4="39.28794" pt_clust_5="64.25739" pt_clust_6="48.11254"></scales>
<clustering>
<clus scale="   48.113">  1  6  2 -1</clus>
<clus scale="   39.288">  1  4  2 -1</clus>
<clus scale="   64.257">  1  5  2 -1</clus>
<clus scale="   64.257">  2  3  1 -1</clus>
</clustering>
</event>
<event>
 6    0  0.5775861E+002  0.6205026E+02  0.7546771E-02  0.1389424E+00
          1   -1    0    0  504    0 -0.00000000000E+00  0.00000000000E+00  0.18518814342E+04  0.18518814342E+04  0.00000000000E+00 0.  1.
         21   -1    0    0  503  502  0.00000000000E+00 -0.00000000000E+00 -0.37566994001E+02  0.37566994001E+02  0.00000000000E+00 0.  1.
         21    1    1    2  503  505 -0.52485894780E+02 -0.17798310967E+02 -0.46369752177E-01  0.55421576793E+02  0.00000000000E+00 0.  1.
         21    1    1    2  504  502  0.38952979101E+02  0.60848551707E+02  0.27196843485E+03  0.28140133330E+03  0.00000000000E+00 0. -1.
         21    1    1    2  505  501 -0.41471675179E+02 -0.68829852237E+02  0.36838830293E+03  0.37705091186E+03  0.00000000000E+00 0. -1.
          1    1    1    2  501    0  0.55004590858E+02  0.25779611497E+02  0.11740040721E+04  0.11755746062E+04  0.00000000000E+00 0.  1.
<scales pt_clust_3="55.42156" pt_clust_4="54.09552" pt_clust_5="62.05026" pt_clust_6="14000.00000"></scales>
<clustering>
<clus scale="   55.422">  2  3  1 -1</clus>
<clus scale="   54.096">  2  4  1 -1</clus>
<clus scale="   62.050">  2  5  1 -1</clus>
<clus scale="   55.422">  2  3  1 -1</clus>
</clustering>
</event>
<event>
 6    0  0.5775861E+002  0.1148861E+03  0.7546771E-02  0.1251780E+00
         21   -1    0    0  505  502  0.00000000000E+00  0.00000000000E+00  0.11842771472E+04  0.11842771472E+04  0.00000000000E+00 0. -1.
          4   -1    0    0  503    0 -0.00000000000E+00 -0.00000000000E+00 -0.11097700213E+03  0.11097700213E+03  0.00000000000E+00 0. -1.
         21    1    1    2  503  504  0.21480580633E+02  0.11693823142E+03  0.13185922658E+03  0.17754667259E+03  0.00000000000E+00 0. -1.
         21    1    1    2  504  502  0.61142880287E+01 -0.14514532470E+03  0.59509259601E+03  0.61256815754E+03  0.00000000000E+00 0. -1.
         21    1    1    2  505  501  0.11293860970E+02  0.42006161819E+02  0.41917971478E+03  0.42143054257E+03  0.00000000000E+00 0. -1.
          4    1    1    2  501    0 -0.38888729632E+02 -0.13799068542E+02 -0.72831392291E+02  0.83708776649E+02  0.00000000000E+00 0. -1.
<scales pt_clust_3="14000.00000" pt_clust_4="114.88611" pt_clust_5="42.70796" pt_clust_6="41.26436"></scales>
<clustering>
<clus scale="   41.264">  2  6  1 -1</clus>
<clus scale="   42.708">  1  5  2 -1</clus>
<clus scale="  114.886">  1  4  2 -1</clus>
<clus scale="   42.708">  1  3  2 -1</clus>
</clustering>
</event>
<event>
 6    0  0.5775861E+002  0.9607699E+02  0.7546771E-02  0.1288769E+00
          2   -1    0    0  504    0 -0.00000000000E+00  0.00000000000E+00  0.15700292907E+04  0.15700292907E+04  0.00000000000E+00 0. -1.
         21   -1    0    0  503  502  0.00000000000E+00 -0.00000000000E+00 -0.30991117286E+02  0.30991117286E+02  0.00000000000E+00 0. -1.
         21    1    1    2  503  501 -0.76616792669E+02 -0.56482094629E+02  0.19345847367E+03  0.21560737689E+03  0.00000000000E+00 0. -1.
         21    1    1    2  504  505  0.61718834022E+02  0.67773408359E+02  0.33995775051E+03  0.35209902227E+03  0.00000000000E+00 0. -1.
         21    1    1    2  505  502 -0.36429245073E+02  0.17993427642E+02  0.18877995468E+02  0.44802143339E+02  0.00000000000E+00 0. -1.
          2    1    1    2  501    0  0.51327203720E+02 -0.29284741372E+02  0.98674395372E+03  0.98851186544E+03  0.00000000000E+00 0. -1.
<scales pt_clust_3="96.07699" pt_clust_4="14000.00000" pt_clust_5="40.63069" pt_clust_6="57.10537"></scales>
<clustering>
<clus scale="   40.631">  2  5  1 -1</clus>
<clus scale="   57.105">  1  6  2 -1</clus>
<clus scale="   96.077">  2  3  1 -1</clus>
<clus scale="   40.631">  2  3  1 -1</clus>
</clustering>
</event>
<event>
 6    0  0.5775861E+002  0.1438203E+03  0.7546771E-02  0.1208279E+00
         -1   -1    0    0    0  501 -0.00000000000E+00  0.00000000000E+00  0.26779801406E+02  0.26779801406E+02  0.00000000000E+00 0. -1.
         21   -1    0    0  504  502  0.00000000000E+00 -0.00000000000E+00 -0.22829365415E+04  0.22829365415E+04  0.00000000000E+00 0.  1.
         21    1    1    2  503  501  0.97292455683E+02  0.52284095487E+02 -0.42334320493E+03  0.43751447717E+03  0.00000000000E+00 0. -1.
         21    1    1    2  504  503  0.45015604931E+02 -0.11670738021E+03 -0.14113801354E+04  0.14169124546E+04  0.00000000000E+00 0.  1.
         21    1    1    2  505  502 -0.65630278388E+02  0.44732847004E+02 -0.29995341840E+03  0.31029085428E+03  0.00000000000E+00 0. -1.
         -1    1    1    2    0  505 -0.76677782226E+02  0.19690437720E+02 -0.12147998128E+03  0.14499855681E+03  0.00000000000E+00 0. -1.
<scales pt_clust_3="110.45111" pt_clust_4="124.11238" pt_clust_5="72.54748" pt_clust_6="72.54748"></scales>
<clustering>
<clus scale="   72.547">  5  6 -1 -1</clus>
<clus scale="  110.451">  1  3  2 -1</clus>
<clus scale="  124.112">  2  4  1 -1</clus>
<clus scale="  124.112">  2  3  1 -1</clus>
</clustering>
</event>
<event>
 6    0  0.5775861E+002  0.7957098E+02  0.7546771E-02  0.1330273E+00
         -2   -1    0    0    0  501 -0.00000000000E+00  0.00000000000E+00  0.15597219194E+04  0.15597219194E+04  0.00000000000E+00 0.  1.
         21   -1    0    0  505  502  0.00000000000E+00 -0.00000000000E+00 -0.34703838075E+03  0.34703838075E+03  0.00000000000E+00 0.  1.
         21    1    1    2  503  501  0.45155218983E+02 -0.86403793918E+02  0.90726386170E+03  0.91248688985E+03  0.00000000000E+00 0.  1.
         21    1    1    2  504  502 -0.20102122377E+02 -0.24525232089E+02 -0.31512172278E+03  0.31671324965E+03  0.00000000000E+00 0.  1.
         21    1    1    2  505  503 -0.46319708338E+02  0.38586114563E+02  0.84893995921E+01  0.60880814080E+02  0.00000000000E+00 0.  1.
         -2    1    1    2    0  504  0.21266611732E+02  0.72342911443E+02  0.61205200016E+03  0.61667934659E+03  0.00000000000E+00 0.  1.
<scales pt_clust_3="79.57098" pt_clust_4="31.71092" pt_clust_5="65.73645" pt_clust_6="14000.00000"></scales>
<clustering>
<clus scale="   31.711">  2  4  1 -1</clus>
<clus scale="   65.736">  2  5  1 -1</clus>
<clus scale="   79.571">  2  3  1 -1</clus>
<clus scale="   31.711">  2  3  1 -1</clus>
</clustering>
</event>
<event>
 6    0  0.5775861E+002  0.1361768E+03  0.7546771E-02  0.1218568E+00
         21   -1    0    0  503  502  0.00000000000E+00  0.00000000000E+00  0.64250165743E+02  0.64250165743E+02  0.00000000000E+00 0.  1.
          2   -1    0    0  504    0 -0.00000000000E+00 -0.00000000000E+00 -0.34265681848E+04  0.34265681848E+04  0.00000000000E+00 0.  1.
         21    1    1    2  503  501  0.10968915151E+03  0.10207889338E+03 -0.79108480791E+02  0.16944014331E+03  0.00000000000E+00 0.  1.
         21    1    1    2  504  505 -0.10953092699E+03 -0.62063456792E+02 -0.63025911672E+03  0.64270946068E+03  0.00000000000E+00 0.  1.
         21    1    1    2  505  502 -0.32850682273E+02  0.13942378431E+02 -0.13024997381E+02  0.37989574871E+02  0.00000000000E+00 0.  1.
          2    1    1    2  501    0  0.32692457751E+02 -0.53957815017E+02 -0.26399254242E+04  0.26406791717E+04  0.00000000000E+00 0.  1.
<scales pt_clust_3="136.17679" pt_clust_4="14000.00000" pt_clust_5="35.68693" pt_clust_6="62.87861"></scales>
<clustering>
<clus scale="   35.687">  1  5  2 -1</clus>
<clus scale="   62.879">  2  6  1 -1</clus>
<clus scale="  136.177">  1  3  2 -1</clus>
<clus scale="   35.687">  1  3  2 -1</clus>
</clustering>
</event>
<event>
 6    0  0.5775861E+002  0.1817686E+03  0.7546771E-02  0.1166102E+00
         21   -1    0    0  505  502  0.00000000000E+00  0.00000000000E+00  0.14286433693E+03  0.14286433693E+03  0.00000000000E+00 0. -1.
          2   -1    0    0  503    0 -0.00000000000E+00 -0.00000000000E+00 -0.22005861715E+04  0.22005861715E+04  0.00000000000E+00 0. -1.
         21    1    1    2  503  504  0.25505884153E+03 -0.43341103159E+02 -0.68267582328E+03  0.73005461683E+03  0.00000000000E+00 0. -1.
         21    1    1    2  504  502  0.23111219682E+01 -0.31200487122E+02 -0.32284066314E+02  0.44956341256E+02  0.00000000000E+00 0. -1.
         21    1    1    2  505  501 -0.15849982160E+03 -0.58231324398E+02  0.41849888349E+02  0.17396693290E+03  0.00000000000E+00 0. -1.
          2    1    1    2  501    0 -0.98870141901E+02  0.13277291468E+03 -0.13846118333E+04  0.13944726174E+04  0.00000000000E+00 0. -1.
<scales pt_clust_3="181.76856" pt_clust_4="31.28597" pt_clust_5="14000.00000" pt_clust_6="164.58896"></scales>
<clustering>
<clus scale="   31.286">  1  4  2 -1</clus>
<clus scale="  164.589">  2  6  1 -1</clus>
<clus scale="  181.769">  2  3  1 -1</clus>
<clus scale="   31.286">  1  3  2 -1</clus>
</clustering>
</event>
<event>
 6    0  0.5775861E+002  0.3414189E+03  0.7546771E-02  0.1066193E+00
          2   -1    0    0  505    0 -0.00000000000E+00  0.00000000000E+00  0.15241029805E+04  0.15241029805E+04  0.00000000000E+00 0. -1.
         21   -1    0    0  503  502  0.00000000000E+00 -0.00000000000E+00 -0.14864136785E+03  0.14864136785E+03  0.00000000000E+00 0. -1.
         21    1    1    2  503  501  0.19205388864E+00 -0.46185071065E+02 -0.11095160690E+02  0.47499476468E+02  0.00000000000E+00 0. -1.
         21    1    1    2  504  502 -0.76855335981E+02  0.88451182656E+02  0.99050755948E+02  0.15343209128E+03  0.00000000000E+00 0. -1.
         21    1    1    2  505  504  0.10587093255E+03  0.31690262970E+03  0.78782327491E+03  0.85574613266E+03  0.00000000000E+00 0. -1.
          2    1    1    2  501    0 -0.29207650455E+02 -0.35916874129E+03  0.49968274250E+03  0.61606664795E+03  0.00000000000E+00 0. -1.
<scales pt_clust_3="46.18547" pt_clust_4="109.42071" pt_clust_5="14000.00000" pt_clust_6="341.41891"></scales>
<clustering>
<clus scale="   46.185">  2  3  1 -1</clus>
<clus scale="  109.421">  2  4  1 -1</clus>
<clus scale="  341.419">  2  6  1 -1</clus>
<clus scale="   46.185">  2  3  1 -1</clus>
</clustering>
</event>
<event>
 6    0  0.5775861E+002  0.8211128E+02  0.7546771E-02  0.1323164E+00
          1   -1    0    0  503    0 -0.00000000000E+00  0.00000000000E+00  0.33849946360E+04  0.33849946360E+04  0.00000000000E+00 0. -1.
         21   -1    0    0  504  502  0.00000000000E+00 -0.00000000000E+00 -0.26604938400E+02  0.26604938400E+02  0.00000000000E+00 0.  1.
         21    1    1    2  503  502  0.73040430529E+01  0.41915056919E+02  0.22550585374E+03  0.22948444635E+03  0.00000000000E+00 0.  1.
         21    1    1    2  504  505  0.51405232681E+02 -0.35499055654E+02  0.22118188883E+02  0.66271375260E+02  0.00000000000E+00 0.  1.
         21    1    1    2  505  501  0.27081857662E+02 -0.57227511628E+02  0.65448028341E+03  0.65753544123E+03  0.00000000000E+00 0.  1.
          1    1    1    2  501    0 -0.85791133396E+02  0.50811510364E+02  0.24562853716E+04  0.24583083116E+04  0.00000000000E+00 0. -1.
<scales pt_clust_3="42.54669" pt_clust_4="57.99364" pt_clust_5="82.11128" pt_clust_6="14000.00000"></scales>
<clustering>
<clus scale="   42.547">  2  3  1 -1</clus>
<clus scale="   57.994">  2  4  1 -1</clus>
<clus scale="   82.111">  2  5  1 -1</clus>
<clus scale="   42.547">  2  3  1 -1</clus>
</clustering>
</event>
<event>
 6    0  0.5775861E+002  0.6757691E+02  0.7546771E-02  0.1368532E+00
         21   -1    0    0  505  502  0.00000000000E+00  0.00000000000E+00  0.14607613309E+02  0.14607613309E+02  0.00000000000E+00 0. -1.
          1   -1    0    0  503    0 -0.00000000000E+00 -0.00000000000E+00 -0.23855441607E+04  0.23855441607E+04  0.00000000000E+00 0. -1.
         21    1    1    2  503  502  0.12948528464E+02  0.54854171451E+02 -0.27105924089E+03  0.27685692440E+03  0.00000000000E+00 0. -1.
         21    1    1    2  504  501 -0.77970993760E+02  0.68584481946E+01 -0.67874351342E+03  0.68324173700E+03  0.00000000000E+00 0. -1.
         21    1    1    2  505  504  0.29470146608E+02 -0.73365376343E+02 -0.16101389429E+03  0.17937793103E+03  0.00000000000E+00 0. -1.
          1    1    1    2  501    0  0.35552318688E+02  0.11652756698E+02 -0.12601198988E+04  0.12606751816E+04  0.00000000000E+00 0. -1.
<scales pt_clust_3="14000.00000" pt_clust_4="58.14179" pt_clust_5="67.57691" pt_clust_6="37.41329"></scales>
<clustering>
<clus scale="   37.413">  2  6  1 -1</clus>
<clus scale="   58.142">  2  4  1 -1</clus>
<clus scale="   67.577">  1  5  2 -1</clus>
<clus scale="   67.577">  1  3  2 -1</clus>
</clustering>
</event>
<event>
 6    0  0.5775861E+002  0.9352833E+02  0.7546771E-02  0.1294525E+00
         21   -1    0    0  503  502  0.00000000000E+00  0.00000000000E+00  0.27017967649E+03  0.27017967649E+03  0.00000000000E+00 0.  1.
          2   -1    0    0  505    0 -0.00000000000E+00 -0.00000000000E+00 -0.10387211213E+03  0.10387211213E+03  0.00000000000E+00 0.  1.
         21    1    1    2  503  504  0.26658035948E+02  0.19183248099E+02  0.69550498857E+02  0.76915016606E+02  0.00000000000E+00 0.  1.
         21    1    1    2  504  501  0.71525396028E+02 -0.52511050186E+02  0.71169892308E+02  0.11374729113E+03  0.00000000000E+00 0.  1.
         21    1    1    2  505  502  0.14760676821E+02  0.61988610147E+02  0.19779291118E+02  0.66720954170E+02  0.00000000000E+00 0.  1.
          2    1    1    2  501    0 -0.11294410880E+03 -0.28660808061E+02  0.58078820761E+01  0.11666852671E+03  0.00000000000E+00 0.  1.
<scales pt_clust_3="32.84278" pt_clust_4="93.52833" pt_clust_5="69.33676" pt_clust_6="14000.00000"></scales>
<clustering>
<clus scale="   32.843">  1  3  2 -1</clus>
<clus scale="   69.337">  2  5  1 -1</clus>
<clus scale="   93.528">  1  4  2 -1</clus>
<clus scale="   32.843">  1  3  2 -1</clus>
</clustering>
</event>
<event>
 6    0  0.5775861E+002  0.2275933E+03  0.7546771E-02  0.1128345E+00
         21   -1    0    0  503  502  0.00000000000E+00  0.00000000000E+00  0.14947710973E+04  0.14947710973E+04  0.00000000000E+00 0.  1.
          2   -1    0    0  504    0 -0.00000000000E+00 -0.00000000000E+00 -0.76025180590E+03  0.76025180590E+03  0.00000000000E+00 0.  1.
         21    1    1    2  503  501  0.11485632378E+02  0.11717048119E+03 -0.17461356754E+03  0.21059615235E+03  0.00000000000E+00 0.  1.
         21    1    1    2  504  505  0.63802125640E+00 -0.30761792758E+03  0.50409766380E+03  0.59054521511E+03  0.00000000000E+00 0.  1.
         21    1    1    2  505  502 -0.44060713153E+02  0.20273581380E+03  0.91730293442E+03  0.94047213150E+03  0.00000000000E+00 0.  1.
          2    1    1    2  501    0  0.31937059519E+02 -0.12288367406E+02 -0.51226773924E+03  0.51340940429E+03  0.00000000000E+00 0.  1.
<scales pt_clust_3="113.57750" pt_clust_4="227.59335" pt_clust_5="14000.00000" pt_clust_6="34.21958"></scales>
<clustering>
<clus scale="   34.220">  2  6  1 -1</clus>
<clus scale="  113.578">  2  3  1 -1</clus>
<clus scale="  227.593">  2  4  1 -1</clus>
<clus scale="  227.593">  1  3  2 -1</clus>
</clustering>
</event>
<event>
 6    0  0.5775861E+002  0.1345763E+03  0.7546771E-02  0.1220819E+00
         21   -1    0    0  504  502  0.00000000000E+00  0.00000000000E+00  0.10005763578E+04  0.10005763578E+04  0.00000000000E+00 0. -1.
          2   -1    0    0  505    0 -0.00000000000E+00 -0.00000000000E+00 -0.20769309719E+03  0.20769309719E+03  0.00000000000E+00 0. -1.
         21    1    1    2  503  501 -0.40688555697E+02 -0.77469652029E+02  0.44702576950E+02  0.98262026929E+02  0.00000000000E+00 0.  1.
         21    1    1    2  504  503  0.10275439579E+02 -0.32477208686E+02  0.15628029622E+03  0.15994963185E+03  0.00000000000E+00 0.  1.
         21    1    1    2  505  502 -0.69294793907E+02 -0.13348792777E+02  0.73385037818E+03  0.73723560433E+03  0.00000000000E+00 0. -1.
          2    1    1    2  501    0  0.99707910024E+02  0.12329565349E+03 -0.14194999074E+03  0.21282219189E+03  0.00000000000E+00 0. -1.
<scales pt_clust_3="14000.00000" pt_clust_4="34.06397" pt_clust_5="73.33595" pt_clust_6="134.57629"></scales>
<clustering>
<clus scale="   34.064">  1  4  2 -1</clus>
<clus scale="   73.336">  1  5  2 -1</clus>
<clus scale="  134.576">  2  6  1 -1</clus>
<clus scale="   34.064">  1  3  2 -1</clus>
</clustering>
</event>
<event>
 6    0  0.5775861E+002  0.1470102E+03  0.7546771E-02  0.1204196E+00
         -1   -1    0    0    0  501 -0.00000000000E+00  0.00000000000E+00  0.44989254384E+03  0.44989254384E+03  0.00000000000E+00 0. -1.
         21   -1    0    0  504  502  0.00000000000E+00 -0.00000000000E+00 -0.50745721568E+03  0.50745721568E+03  0.00000000000E+00 0.  1.
         21    1    1    2  503  502 -0.23663857284E+03 -0.11626576194E+02 -0.91754736359E+02  0.25407070487E+03  0.00000000000E+00 0.  1.
         21    1    1    2  504  505  0.21584868118E+02  0.37024694613E+02 -0.19866505628E+03  0.20323518182E+03  0.00000000000E+00 0.  1.
         21    1    1    2  505  501  0.77981634058E+02  0.48089814837E+01 -0.10691680125E+03  0.13242153882E+03  0.00000000000E+00 0.  1.
         -1    1    1    2    0  503  0.13707207067E+03 -0.30207099903E+02  0.33977192206E+03  0.36762233401E+03  0.00000000000E+00 0. -1.
<scales pt_clust_3="14000.00000" pt_clust_4="42.85714" pt_clust_5="88.53041" pt_clust_6="147.01024"></scales>
<clustering>
<clus scale="   42.857">  2  4  1 -1</clus>
<clus scale="   88.530">  2  5  1 -1</clus>
<clus scale="  147.010">  1  6  2 -1</clus>
<clus scale="   42.857">  2  3  1 -1</clus>
</clustering>
</event>
<event>
 6    0  0.5775861E+002  0.7830311E+02  0.7546771E-02  0.1333937E+00
          2   -1    0    0  503    0 -0.00000000000E+00  0.00000000000E+00  0.23256563485E+04  0.23256563485E+04  0.00000000000E+00 0.  1.
         21   -1    0    0  505  502  0.00000000000E+00 -0.00000000000E+00 -0.20064617421E+03  0.20064617421E+03  0.00000000000E+00 0.  1.
         21    1    1    2  503  504  0.13638449357E+02 -0.74339858586E+02  0.11251293297E+03  0.13554180891E+03  0.00000000000E+00 0. -1.
         21    1    1    2  504  502 -0.58410250455E+02 -0.55294653112E+01 -0.17263494106E+03  0.18233254021E+03  0.00000000000E+00 0.  1.
         21    1    1    2  505  501  0.62185254841E+01  0.82246668788E+02  0.13686918733E+03  0.15980099820E+03  0.00000000000E+00 0. -1.
          2    1    1    2  501    0  0.38553275614E+02 -0.23773448899E+01  0.20482629951E+04  0.20486271754E+04  0.00000000000E+00 0.  1.
<scales pt_clust_3="14000.00000" pt_clust_4="58.00406" pt_clust_5="78.30311" pt_clust_6="38.62650"></scales>
<clustering>
<clus scale="   38.627">  1  6  2 -1</clus>
<clus scale="   58.004">  2  4  1 -1</clus>
<clus scale="   78.303">  1  5  2 -1</clus>
<clus scale="   58.004">  2  3  1 -1</clus>
</clustering>
</event>
<event>
 6    0  0.5775861E+002  0.8186700E+02  0.7546771E-02  0.1323835E+00
         21   -1    0    0  504  502  0.00000000000E+00  0.00000000000E+00  0.21983609406E+03  0.21983609406E+03  0.00000000000E+00 0.  1.
          2   -1    0    0  505    0 -0.00000000000E+00 -0.00000000000E+00 -0.13088555276E+04  0.13088555276E+04  0.00000000000E+00 0. -1.
         21    1    1    2  503  502 -0.58344080781E+02 -0.58578363933E+02  0.19099137876E+03  0.20811814732E+03  0.00000000000E+00 0.  1.
         21    1    1    2  504  501  0.59759394355E+02  0.91246212932E+01 -0.34678703862E+03  0.35201661052E+03  0.00000000000E+00 0.  1.
         21    1    1    2  505  503 -0.25306542209E+02  0.70767757196E+02 -0.63916231716E+02  0.98659927093E+02  0.00000000000E+00 0. -1.
          2    1    1    2  501    0  0.23891228636E+02 -0.21314014556E+02 -0.86930754199E+03  0.86989693676E+03  0.00000000000E+00 0. -1.
<scales pt_clust_3="81.86700" pt_clust_4="14000.00000" pt_clust_5="70.01113" pt_clust_6="32.01684"></scales>
<clustering>
<clus scale="   32.017">  2  6  1 -1</clus>
<clus scale="   70.011">  2  5  1 -1</clus>
<clus scale="   81.867">  1  3  2 -1</clus>
<clus scale="   81.867">  1  3  2 -1</clus>
</clustering>
</event>
<event>
 6    0  0.5775861E+002  0.1132686E+03  0.7546771E-02  0.1254634E+00
         21   -1    0    0  504  502  0.00000000000E+00  0.00000000000E+00  0.25365444556E+03  0.25365444556E+03  0.00000000000E+00 0. -1.
          1   -1    0    0  505    0 -0.00000000000E+00 -0.00000000000E+00 -0.35565374669E+03  0.35565374669E+03  0.00000000000E+00 0.  1.
         21    1    1    2  503  501  0.94598629517E+02  0.29639658520E+01  0.74549632491E+01  0.94938202412E+02  0.00000000000E+00 0. -1.
         21    1    1    2  504  503 -0.12187400273E+03 -0.12677963008E+01  0.16354074906E+03  0.20396189952E+03  0.00000000000E+00 0. -1.
         21    1    1    2  505  502  0.23915741900E+02 -0.46364673207E+02 -0.24016411554E+02  0.57431991574E+02  0.00000000000E+00 0. -1.
          1    1    1    2  501    0  0.33596313151E+01  0.44668503656E+02 -0.24897860189E+03  0.25297609875E+03  0.00000000000E+00 0.  1.
<scales pt_clust_3="113.26863" pt_clust_4="14000.00000" pt_clust_5="38.42401" pt_clust_6="44.79467"></scales>
<clustering>
<clus scale="   44.795">  2  6  1 -1</clus>
<clus scale="   38.424">  2  5  1 -1</clus>
<clus scale="  113.269">  2  3  1 -1</clus>
<clus scale="  113.269">  1  3  2 -1</clus>
</clustering>
</event>
<event>
 6    0  0.5775861E+002  0.8871074E+02  0.7546771E-02  0.1306004E+00
         -2   -1    0    0    0  501 -0.00000000000E+00  0.00000000000E+00  0.12563437864E+04  0.12563437864E+04  0.00000000000E+00 0.  1.
         21   -1    0    0  503  502  0.00000000000E+00 -0.00000000000E+00 -0.55028688673E+02  0.55028688673E+02  0.00000000000E+00 0.  1.
         21    1    1    2  503  501  0.35767321906E+02  0.32321138365E+02  0.73680395035E+02  0.88049746814E+02  0.00000000000E+00 0. -1.
         21    1    1    2  504  505  0.82220507704E+02 -0.34742258478E+01  0.44638259038E+03  0.45390494504E+03  0.00000000000E+00 0.  1.
         21    1    1    2  505  502 -0.86647748989E+02 -0.23286791042E+02  0.23327522252E+01  0.89752709011E+02  0.00000000000E+00 0.  1.
         -2    1    1    2    0  504 -0.31340080620E+02 -0.55601214744E+01  0.67891936009E+03  0.67966507421E+03  0.00000000000E+00 0.  1.
<scales pt_clust_3="44.48951" pt_clust_4="88.71074" pt_clust_5="14000.00000" pt_clust_6="31.82948"></scales>
<clustering>
<clus scale="   31.829">  1  6  2 -1</clus>
<clus scale="   44.490">  1  3  2 -1</clus>
<clus scale="   88.711">  1  4  2 -1</clus>
<clus scale="   88.711">  2  3  1 -1</clus>
</clustering>
</event>
<event>
 6    0  0.5775861E+002  0.1295270E+03  0.7546771E-02  0.1228159E+00
         -3   -1    0    0    0  501 -0.00000000000E+00  0.00000000000E+00  0.22413193457E+04  0.22413193457E+04  0.00000000000E+00 0. -1.
         21   -1    0    0  503  502  0.00000000000E+00 -0.00000000000E+00 -0.21740076962E+03  0.21740076962E+03  0.00000000000E+00 0. -1.
         21    1    1    2  503  504  0.47128740489E+02  0.11958673417E+03 -0.17308798319E+03  0.21559581418E+03  0.00000000000E+00 0. -1.
         21    1    1    2  504  501  0.84852062789E+02  0.11397625684E+02  0.12190497126E+03  0.14896509809E+03  0.00000000000E+00 0. -1.
         21    1    1    2  505  502 -0.16598625489E+03 -0.13565677703E+03  0.12429857102E+04  0.12613356705E+04  0.00000000000E+00 0. -1.
         -3    1    1    2    0  505  0.34005451614E+02  0.46724171767E+01  0.83211587782E+03  0.83282353253E+03  0.00000000000E+00 0. -1.
<scales pt_clust_3="129.52702" pt_clust_4="88.91382" pt_clust_5="14000.00000" pt_clust_6="34.32495"></scales>
<clustering>
<clus scale="   34.325">  1  6  2 -1</clus>
<clus scale="   88.914">  1  4  2 -1</clus>
<clus scale="  129.527">  2  3  1 -1</clus>
<clus scale="  129.527">  2  3  1 -1</clus>
</clustering>
</event>
<event>
 6    0  0.5775861E+002  0.6385702E+02  0.7546771E-02  0.1382323E+00
         21   -1    0    0  505  502  0.00000000000E+00  0.00000000000E+00  0.61743010008E+03  0.61743010008E+03  0.00000000000E+00 0. -1.
          2   -1    0    0  503    0 -0.00000000000E+00 -0.00000000000E+00 -0.96906834427E+02  0.96906834427E+02  0.00000000000E+00 0.  1.
         21    1    1    2  503  502  0.67964298051E+02 -0.94509029403E+02  0.15641587785E+03  0.19497956121E+03  0.00000000000E+00 0. -1.
         21    1    1    2  504  501 -0.63399295821E+02  0.10068885165E+02  0.19057038532E+03  0.20109183205E+03  0.00000000000E+00 0. -1.
         21    1    1    2  505  504  0.22181612627E+02  0.30578415793E+02  0.23160710628E+03  0.23466766955E+03  0.00000000000E+00 0. -1.
          2    1    1    2  501    0 -0.26746614857E+02  0.53861728445E+02 -0.58070103790E+02  0.83597871693E+02  0.00000000000E+00 0.  1.
<scales pt_clust_3="63.85702" pt_clust_4="58.06859" pt_clust_5="37.77649" pt_clust_6="14000.00000"></scales>
<clustering>
<clus scale="   37.776">  1  5  2 -1</clus>
<clus scale="   58.069">  1  4  2 -1</clus>
<clus scale="   63.857">  1  3  2 -1</clus>
<clus scale="   37.776">  1  3  2 -1</clus>
</clustering>
</event>
<event>
 6    0  0.5775861E+002  0.1280317E+03  0.7546771E-02  0.1230406E+00
         21   -1    0    0  501  502  0.00000000000E+00  0.00000000000E+00  0.24328590568E+03  0.24328590568E+03  0.00000000000E+00 0. -1.
          2   -1    0    0  505    0 -0.00000000000E+00 -0.00000000000E+00 -0.17998542716E+04  0.17998542716E+04  0.00000000000E+00 0. -1.
         21    1    1    2  503  502 -0.61709966277E+02  0.98882799759E+02  0.21925963257E+03  0.24831575565E+03  0.00000000000E+00 0. -1.
         21    1    1    2  504  503  0.62544763356E+02 -0.67188166379E+02 -0.48956596881E+03  0.49809731473E+03  0.00000000000E+00 0. -1.
         21    1    1    2  505  504  0.14528441903E+02 -0.79481997558E+02 -0.35354534559E+03  0.36266068845E+03  0.00000000000E+00 0. -1.
          2    1    1    2  501    0 -0.15363238981E+02  0.47787364177E+02 -0.93271668412E+03  0.93406641848E+03  0.00000000000E+00 0. -1.
<scales pt_clust_3="117.37500" pt_clust_4="47.97904" pt_clust_5="47.97904" pt_clust_6="50.19623"></scales>
<clustering>
<clus scale="   47.979">  4  5 -1 -1</clus>
<clus scale="   50.196">  2  6  1 -1</clus>
<clus scale="  117.375">  1  3  2 -1</clus>
<clus scale="  117.375">  1  3  2 -1</clus>
</clustering>
</event>
<event>
 6    0  0.5775861E+002  0.1239561E+03  0.7546771E-02  0.1236710E+00
         21   -1    0    0  504  502  0.00000000000E+00  0.00000000000E+00  0.20172942977E+04  0.20172942977E+04  0.00000000000E+00 0. -1.
          2   -1    0    0  503    0 -0.00000000000E+00 -0.00000000000E+00 -0.12195855941E+04  0.12195855941E+04  0.00000000000E+00 0. -1.
         21    1    1    2  503  502  0.87075442252E+02  0.38891718836E+02  0.18783923316E+04  0.18808116466E+04  0.00000000000E+00 0. -1.
         21    1    1    2  504  505  0.22147420531E+02  0.23057732744E+02  0.12794105331E+03  0.13187524558E+03  0.00000000000E+00 0.  1.
         21    1    1    2  505  501 -0.51717915592E+02 -0.42778415878E+02 -0.15601463656E+03  0.16983904875E+03  0.00000000000E+00 0.  1.
          2    1    1    2  501    0 -0.57504947190E+02 -0.19171035702E+02 -0.10526100447E+04  0.10543539509E+04  0.00000000000E+00 0. -1.
<scales pt_clust_3="123.95613" pt_clust_4="31.97135" pt_clust_5="14000.00000" pt_clust_6="60.60332"></scales>
<clustering>
<clus scale="   31.971">  1  4  2 -1</clus>
<clus scale="   60.603">  2  6  1 -1</clus>
<clus scale="  123.956">  1  3  2 -1</clus>
<clus scale="   31.971">  1  3  2 -1</clus>
</clustering>
</event>
<event>
 6    0  0.5775861E+002  0.1155895E+03  0.7546771E-02  0.1250556E+00
          2   -1    0    0  503    0 -0.00000000000E+00  0.00000000000E+00  0.11624783684E+04  0.11624783684E+04  0.00000000000E+00 0. -1.
         21   -1    0    0  505  502  0.00000000000E+00 -0.00000000000E+00 -0.22546252784E+03  0.22546252784E+03  0.00000000000E+00 0.  1.
         21    1    1    2  503  502  0.67421305303E+02 -0.12234509814E+03 -0.90009607182E+02  0.16617967636E+03  0.00000000000E+00 0.  1.
         21    1    1    2  504  501 -0.75180273694E+02  0.20011011573E+02  0.31789390607E+02  0.84042129269E+02  0.00000000000E+00 0. -1.
         21    1    1    2  505  504 -0.30024558485E+02 -0.74483827193E+01 -0.64556655482E+02  0.71585712851E+02  0.00000000000E+00 0.  1.
          2    1    1    2  501    0  0.37783526875E+02  0.10978246929E+03  0.10597927126E+04  0.10661333777E+04  0.00000000000E+00 0. -1.
<scales pt_clust_3="115.58954" pt_clust_4="82.33341" pt_clust_5="30.93465" pt_clust_6="14000.00000"></scales>
<clustering>
<clus scale="   30.935">  2  5  1 -1</clus>
<clus scale="   82.333">  2  4  1 -1</clus>
<clus scale="  115.590">  2  3  1 -1</clus>
<clus scale="   30.935">  2  3  1 -1</clus>
</clustering>
</event>
<event>
 6    0  0.5775861E+002  0.1059147E+03  0.7546771E-02  0.1268328E+00
          2   -1    0    0  504    0 -0.00000000000E+00  0.00000000000E+00  0.67347299865E+03  0.67347299865E+03  0.00000000000E+00 0. -1.
         21   -1    0    0  505  502  0.00000000000E+00 -0.00000000000E+00 -0.14567622099E+03  0.14567622099E+03  0.00000000000E+00 0.  1.
         21    1    1    2  503  502 -0.29971135151E+02 -0.16128865693E+02 -0.33114349101E+02  0.47486517741E+02  0.00000000000E+00 0.  1.
         21    1    1    2  504  503  0.45832215493E+02  0.40140572696E+02  0.14978146084E+03  0.16169831033E+03  0.00000000000E+00 0. -1.
         21    1    1    2  505  501  0.20826600256E+02 -0.94088468339E+02 -0.72069001216E+02  0.12033423490E+03  0.00000000000E+00 0.  1.
          2    1    1    2  501    0 -0.36687680598E+02  0.70076761337E+02  0.48319866715E+03  0.48963015667E+03  0.00000000000E+00 0. -1.
<scales pt_clust_3="34.03541" pt_clust_4="59.05083" pt_clust_5="105.91471" pt_clust_6="14000.00000"></scales>
<clustering>
<clus scale="   34.035">  2  3  1 -1</clus>
<clus scale="   59.051">  1  4  2 -1</clus>
<clus scale="  105.915">  2  5  1 -1</clus>
<clus scale="   34.035">  2  3  1 -1</clus>
</clustering>
</event>
<event>
 6    0  0.5775861E+002  0.1793201E+03  0.7546771E-02  0.1168463E+00
         21   -1    0    0  505  502  0.00000000000E+00  0.00000000000E+00  0.22004432738E+03  0.22004432738E+03  0.00000000000E+00 0. -1.
          3   -1    0    0  503    0 -0.00000000000E+00 -0.00000000000E+00 -0.64308609576E+03  0.64308609576E+03  0.00000000000E+00 0. -1.
         21    1    1    2  503  504 -0.14212100997E+03 -0.12943885149E+03 -0.76020171163E+02  0.20671686959E+03  0.00000000000E+00 0. -1.
         21    1    1    2  504  502  0.92175155568E+02  0.16885847662E+03  0.52648127874E+02  0.19945242490E+03  0.00000000000E+00 0. -1.
         21    1    1    2  505  501  0.10427385041E+02 -0.46854245655E+02  0.68241207153E+01  0.48483185933E+02  0.00000000000E+00 0. -1.
          3    1    1    2  501    0  0.39518469363E+02  0.74346205227E+01 -0.40649384581E+03  0.40847794272E+03  0.00000000000E+00 0. -1.
<scales pt_clust_3="179.32008" pt_clust_4="14000.00000" pt_clust_5="48.24892" pt_clust_6="40.21173"></scales>
<clustering>
<clus scale="   40.212">  2  6  1 -1</clus>
<clus scale="   48.249">  1  5  2 -1</clus>
<clus scale="  179.320">  2  3  1 -1</clus>
<clus scale="   48.249">  1  3  2 -1</clus>
</clustering>
</event>
<event>
 6    0  0.5775861E+002  0.1838670E+03  0.7546771E-02  0.1164112E+00
          1   -1    0    0  505    0 -0.00000000000E+00  0.00000000000E+00  0.11114077588E+04  0.11114077588E+04  0.00000000000E+00 0. -1.
         21   -1    0    0  504  502  0.00000000000E+00 -0.00000000000E+00 -0.51319943034E+03  0.51319943034E+03  0.00000000000E+00 0. -1.
         21    1    1    2  503  501 -0.15600470235E+03  0.17421023661E+02 -0.27086378558E+03  0.31306253299E+03  0.00000000000E+00 0. -1.
         21    1    1    2  504  503 -0.32342913275E+02 -0.10630796375E+02 -0.13622779716E+03  0.14041755799E+03  0.00000000000E+00 0. -1.
         21    1    1    2  505  502  0.72877087678E+02 -0.13470947103E+03  0.20380039338E+01  0.15317266386E+03  0.00000000000E+00 0.  1.
          1    1    1    2  501    0  0.11547052795E+03  0.12791924374E+03  0.10032619073E+04  0.10179544343E+04  0.00000000000E+00 0. -1.
<scales pt_clust_3="30.89054" pt_clust_4="30.89054" pt_clust_5="153.15911" pt_clust_6="171.48581"></scales>
<clustering>
<clus scale="   30.891">  3  4 -1 -1</clus>
<clus scale="  153.159">  2  5  1 -1</clus>
<clus scale="  171.486">  1  6  2 -1</clus>
<clus scale="  153.159">  2  3  1 -1</clus>
</clustering>
</event>
<event>
 6    0  0.5775861E+002  0.1390854E+03  0.7546771E-02  0.1214565E+00
         21   -1    0    0  504  502  0.00000000000E+00  0.00000000000E+00  0.66119433210E+03  0.66119433210E+03  0.00000000000E+00 0. -1.
          2   -1    0    0  505    0 -0.00000000000E+00 -0.00000000000E+00 -0.10365650220E+04  0.10365650220E+04  0.00000000000E+00 0. -1.
         21    1    1    2  503  502 -0.22448451222E+02  0.24439758487E+02  0.30935320595E+03  0.31112801351E+03  0.00000000000E+00 0. -1.
         21    1    1    2  504  501  0.35808434763E+02  0.12253557825E+03  0.30421085605E+03  0.32991128638E+03  0.00000000000E+00 0. -1.
         21    1    1    2  505  503  0.26313356977E+02 -0.11088519303E+03 -0.64936479448E+02  0.13116655500E+03  0.00000000000E+00 0. -1.
          2    1    1    2  501    0 -0.39673340518E+02 -0.36090143713E+02 -0.92399827243E+03  0.92555349920E+03  0.00000000000E+00 0. -1.
<scales pt_clust_3="33.18486" pt_clust_4="139.08541" pt_clust_5="14000.00000" pt_clust_6="53.63316"></scales>
<clustering>
<clus scale="   33.185">  1  3  2 -1</clus>
<clus scale="   53.633">  2  6  1 -1</clus>
<clus scale="  139.085">  1  4  2 -1</clus>
<clus scale="   33.185">  1  3  2 -1</clus>
</clustering>
</event>
<event>
 6    0  0.5775861E+002  0.6558867E+02  0.7546771E-02  0.1375771E+00
         21   -1    0    0  503  502  0.00000000000E+00  0.00000000000E+00  0.52265085873E+02  0.52265085873E+02  0.00000000000E+00 0. -1.
          2   -1    0    0  505    0 -0.00000000000E+00 -0.00000000000E+00 -0.28338100235E+04  0.28338100235E+04  0.00000000000E+00 0. -1.
         21    1    1    2  503  501  0.50547137729E+02 -0.48899098650E+02 -0.57940660439E+02  0.91122198797E+02  0.00000000000E+00 0. -1.
         21    1    1    2  504  502 -0.44350515305E+02  0.21014447268E+02  0.13121519486E+02  0.50801077503E+02  0.00000000000E+00 0. -1.
         21    1    1    2  505  504 -0.31732791452E+02  0.84540966063E+02 -0.62275480867E+03  0.62926758753E+03  0.00000000000E+00 0. -1.
          2    1    1    2  501    0  0.25536169027E+02 -0.56656314681E+02 -0.21139709880E+04  0.21148842456E+04  0.00000000000E+00 0. -1.
<scales pt_clust_3="34.80426" pt_clust_4="49.07724" pt_clust_5="14000.00000" pt_clust_6="65.58867"></scales>
<clustering>
<clus scale="   49.077">  1  4  2 -1</clus>
<clus scale="   34.804">  1  3  2 -1</clus>
<clus scale="   65.589">  2  6  1 -1</clus>
<clus scale="   49.077">  1  3  2 -1</clus>
</clustering>
</event>
<event>
 6    0  0.5775861E+002  0.9059467E+02  0.7546771E-02  0.1301418E+00
         21   -1    0    0  505  502  0.00000000000E+00  0.00000000000E+00  0.83489475857E+03  0.83489475857E+03  0.00000000000E+00 0.  1.
          2   -1    0    0  504    0 -0.00000000000E+00 -0.00000000000E+00 -0.31797053966E+03  0.31797053966E+03  0.00000000000E+00 0.  1.
         21    1    1    2  503  502  0.62560498539E+00 -0.36544633379E+02  0.48210427614E+03  0.48348778132E+03  0.00000000000E+00 0.  1.
         21    1    1    2  504  503 -0.74052408682E+02 -0.99576515080E+02 -0.29678738293E+02  0.12759337402E+03  0.00000000000E+00 0. -1.
         21    1    1    2  505  501  0.50707823215E+02  0.10171369840E+03  0.29055821236E+03  0.31199524764E+03  0.00000000000E+00 0.  1.
          2    1    1    2  501    0  0.22718980482E+02  0.34407450061E+02 -0.22605953129E+03  0.22978889525E+03  0.00000000000E+00 0.  1.
<scales pt_clust_3="36.54999" pt_clust_4="90.59467" pt_clust_5="14000.00000" pt_clust_6="41.07182"></scales>
<clustering>
<clus scale="   36.550">  1  3  2 -1</clus>
<clus scale="   41.072">  2  6  1 -1</clus>
<clus scale="   90.595">  2  4  1 -1</clus>
<clus scale="   36.550">  1  3  2 -1</clus>
</clustering>
</event>
<event>
 6    0  0.5775861E+002  0.1173582E+03  0.7546771E-02  0.1247520E+00
         -3   -1    0    0    0  501 -0.00000000000E+00  0.00000000000E+00  0.44047682442E+03  0.44047682442E+03  0.00000000000E+00 0. -1.
         21   -1    0    0  505  502  0.00000000000E+00 -0.00000000000E+00 -0.88860187816E+03  0.88860187816E+03  0.00000000000E+00 0.  1.
         21    1    1    2  503  501 -0.67048770515E+01 -0.30188888146E+02  0.37000669698E+03  0.37129675484E+03  0.00000000000E+00 0. -1.
         21    1    1    2  504  502  0.67287442285E+02 -0.62841177353E+02 -0.24575133749E+03  0.26243157840E+03  0.00000000000E+00 0. -1.
         21    1    1    2  505  503 -0.10120274703E+03  0.99159007563E+02 -0.61795751843E+03  0.63399211302E+03  0.00000000000E+00 0.  1.
         -3    1    1    2    0  504  0.40620181793E+02 -0.61289420644E+01  0.45577105209E+02  0.61358256323E+02  0.00000000000E+00 0. -1.
<scales pt_clust_3="30.92449" pt_clust_4="117.35816" pt_clust_5="14000.00000" pt_clust_6="45.98443"></scales>
<clustering>
<clus scale="   30.924">  1  3  2 -1</clus>
<clus scale="   45.984">  1  6  2 -1</clus>
<clus scale="  117.358">  1  4  2 -1</clus>
<clus scale="  117.358">  2  3  1 -1</clus>
</clustering>
</event>
<event>
 6    0  0.5775861E+002  0.1415000E+03  0.7546771E-02  0.1211325E+00
         21   -1    0    0  505  502  0.00000000000E+00  0.00000000000E+00  0.39566210065E+02  0.39566210065E+02  0.00000000000E+00 0.  1.
          2   -1    0    0  502    0 -0.00000000000E+00 -0.00000000000E+00 -0.17899490825E+04  0.17899490825E+04  0.00000000000E+00 0.  1.
         21    1    1    2  503  501  0.52469854048E+02  0.31800500873E+02 -0.22451092343E+03  0.23274344712E+03  0.00000000000E+00 0.  1.
         21    1    1    2  504  503 -0.10757907566E+03  0.13196985683E+03 -0.80784838883E+03  0.82559573640E+03  0.00000000000E+00 0.  1.
         21    1    1    2  505  504  0.47718365930E+02 -0.12814019034E+03 -0.15385660710E+03  0.20583684406E+03  0.00000000000E+00 0.  1.
          2    1    1    2  501    0  0.73908556854E+01 -0.35630167361E+02 -0.56416695304E+03  0.56533926493E+03  0.00000000000E+00 0.  1.
<scales pt_clust_3="59.43339" pt_clust_4="141.49995" pt_clust_5="14000.00000" pt_clust_6="36.38865"></scales>
<clustering>
<clus scale="   36.389">  2  6  1 -1</clus>
<clus scale="   59.433">  2  3  1 -1</clus>
<clus scale="  141.500">  2  4  1 -1</clus>
<clus scale="  141.500">  1  3  2 -1</clus>
</clustering>
</event>
<event>
 6    0  0.5775861E+002  0.1056740E+03  0.7546771E-02  0.1268797E+00
          2   -1    0    0  503    0 -0.00000000000E+00  0.00000000000E+00  0.21327215121E+04  0.21327215121E+04  0.00000000000E+00 0.  1.
         21   -1    0    0  504  502  0.00000000000E+00 -0.00000000000E+00 -0.89432992766E+03  0.89432992766E+03  0.00000000000E+00 0. -1.
         21    1    1    2  503  502  0.76043571178E+02  0.89810031455E+01 -0.91092140653E+02  0.11900025724E+03  0.00000000000E+00 0. -1.
         21    1    1    2  504  505  0.31096216105E+02  0.14338970087E+02 -0.76639259256E+03  0.76715721117E+03  0.00000000000E+00 0. -1.
         21    1    1    2  505  501 -0.12711370830E+03  0.12208805569E+02  0.16056621050E+03  0.20515471656E+03  0.00000000000E+00 0. -1.
          2    1    1    2  501    0  0.19973921021E+02 -0.35528778802E+02  0.19353101071E+04  0.19357392548E+04  0.00000000000E+00 0.  1.
<scales pt_clust_3="14000.00000" pt_clust_4="34.24297" pt_clust_5="105.67404" pt_clust_6="40.76310"></scales>
<clustering>
<clus scale="   34.243">  2  4  1 -1</clus>
<clus scale="   40.763">  1  6  2 -1</clus>
<clus scale="  105.674">  1  5  2 -1</clus>
<clus scale="   34.243">  2  3  1 -1</clus>
</clustering>
</event>
<event>
 6    0  0.5775861E+002  0.7833507E+02  0.7546771E-02  0.1333844E+00
          2   -1    0    0  504    0 -0.00000000000E+00  0.00000000000E+00  0.12403978966E+04  0.12403978966E+04  0.00000000000E+00 0. -1.
         21   -1    0    0  501  502  0.00000000000E+00 -0.00000000000E+00 -0.59619858762E+02  0.59619858762E+02  0.00000000000E+00 0. -1.
         21    1    1    2  503  505 -0.17320082348E+02  0.70306906364E+02  0.15313237075E+03  0.16938881104E+03  0.00000000000E+00 0. -1.
         21    1    1    2  504  503  0.21105430795E+02 -0.88866736879E+02  0.40922759839E+03  0.41929698713E+03  0.00000000000E+00 0. -1.
         21    1    1    2  505  502  0.49855784439E+02  0.73900135130E+01 -0.31286145227E+02  0.59321449957E+02  0.00000000000E+00 0. -1.
          2    1    1    2  501    0 -0.53641132887E+02  0.11169817002E+02  0.64970421396E+03  0.65201050726E+03  0.00000000000E+00 0. -1.
<scales pt_clust_3="14000.00000" pt_clust_4="78.33507" pt_clust_5="50.40051" pt_clust_6="51.00085"></scales>
<clustering>
<clus scale="   50.401">  2  5  1 -1</clus>
<clus scale="   51.001">  1  6  2 -1</clus>
<clus scale="   78.335">  1  4  2 -1</clus>
<clus scale="   50.401">  2  3  1 -1</clus>
</clustering>
</event>
<event>
 6    0  0.5775861E+002  0.1939979E+03  0.7546771E-02  0.1154904E+00
          2   -1    0    0  503    0 -0.00000000000E+00  0.00000000000E+00  0.75682631075E+03  0.75682631075E+03  0.00000000000E+00 0. -1.
         21   -1    0    0  505  502  0.00000000000E+00 -0.00000000000E+00 -0.41058174171E+03  0.41058174171E+03  0.00000000000E+00 0. -1.
         21    1    1    2  503  504 -0.75241036959E+02  0.19153282559E+02 -0.54285314423E+02  0.94736250915E+02  0.00000000000E+00 0. -1.
         21    1    1    2  504  502 -0.91761093765E+02  0.50386327307E+02 -0.13555490847E+03  0.17127175342E+03  0.00000000000E+00 0. -1.
         21    1    1    2  505  501  0.15644006482E+03 -0.13581857753E+03 -0.12165154327E+03  0.24024836703E+03  0.00000000000E+00 0. -1.
          2    1    1    2  501    0  0.10562065905E+02  0.66278967660E+02  0.65773633520E+03  0.66115168110E+03  0.00000000000E+00 0. -1.
<scales pt_clust_3="38.47038" pt_clust_4="38.47038" pt_clust_5="188.78481" pt_clust_6="67.11526"></scales>
<clustering>
<clus scale="   38.470">  3  4 -1 -1</clus>
<clus scale="   67.115">  1  6  2 -1</clus>
<clus scale="  188.785">  1  5  2 -1</clus>
<clus scale="  193.998">  2  3  1 -1</clus>
</clustering>
</event>
<event>
 6    0  0.5775861E+002  0.7920866E+02  0.7546771E-02  0.1331312E+00
         -1   -1    0    0    0  501 -0.00000000000E+00  0.00000000000E+00  0.12161174193E+04  0.12161174193E+04  0.00000000000E+00 0.  1.
         21   -1    0    0  503  502  0.00000000000E+00 -0.00000000000E+00 -0.39571040439E+02  0.39571040439E+02  0.00000000000E+00 0. -1.
         21    1    1    2  503  504  0.30820012497E+02  0.76809466683E+02  0.14678512565E+03  0.16850946696E+03  0.00000000000E+00 0.  1.
         21    1    1    2  504  501 -0.89375596490E+01 -0.93209999696E+02  0.21399960644E+03  0.23358898856E+03  0.00000000000E+00 0. -1.
         21    1    1    2  505  502 -0.28146557799E+02 -0.21354271172E+02 -0.15677266261E+01  0.35365115298E+02  0.00000000000E+00 0. -1.
         -1    1    1    2    0  505  0.62641049515E+01  0.37754804186E+02  0.81732937342E+03  0.81822488896E+03  0.00000000000E+00 0.  1.
<scales pt_clust_3="14000.00000" pt_clust_4="79.20866" pt_clust_5="35.33035" pt_clust_6="37.72976"></scales>
<clustering>
<clus scale="   35.330">  2  5  1 -1</clus>
<clus scale="   37.730">  1  6  2 -1</clus>
<clus scale="   79.209">  1  4  2 -1</clus>
<clus scale="   35.330">  2  3  1 -1</clus>
</clustering>
</event>
<event>
 6    0  0.5775861E+002  0.1018418E+03  0.7546771E-02  0.1276470E+00
         21   -1    0    0  501  502  0.00000000000E+00  0.00000000000E+00  0.45014177362E+03  0.45014177362E+03  0.00000000000E+00 0.  1.
          2   -1    0    0  503    0 -0.00000000000E+00 -0.00000000000E+00 -0.39064530320E+03  0.39064530320E+03  0.00000000000E+00 0. -1.
         21    1    1    2  503  504  0.47630673785E+02  0.30358148860E+02 -0.25615253574E+03  0.26230596611E+03  0.00000000000E+00 0. -1.
         21    1    1    2  504  505  0.25621259139E+02 -0.81808725807E+02  0.15013703863E+03  0.17288796056E+03  0.00000000000E+00 0. -1.
         21    1    1    2  505  502  0.45449371909E+02  0.38073587301E+01  0.24880950793E+03  0.25295515932E+03  0.00000000000E+00 0.  1.
          2    1    1    2  501    0 -0.11870130483E+03  0.47643218218E+02 -0.83297540403E+02  0.15263799084E+03  0.00000000000E+00 0. -1.
<scales pt_clust_3="57.10705" pt_clust_4="14000.00000" pt_clust_5="45.60857" pt_clust_6="101.84176"></scales>
<clustering>
<clus scale="   45.609">  1  5  2 -1</clus>
<clus scale="   57.107">  2  3  1 -1</clus>
<clus scale="  101.842">  2  6  1 -1</clus>
<clus scale="   45.609">  1  3  2 -1</clus>
</clustering>
</event>
<event>
 6    0  0.5775861E+002  0.1286070E+03  0.7546771E-02  0.1229537E+00
         21   -1    0    0  503  502  0.00000000000E+00  0.00000000000E+00  0.70378346088E+03  0.70378346088E+03  0.00000000000E+00 0.  1.
          1   -1    0    0  502    0 -0.00000000000E+00 -0.00000000000E+00 -0.36564560828E+03  0.36564560828E+03  0.00000000000E+00 0.  1.
         21    1    1    2  503  505 -0.55519545699E+00 -0.35387594033E+02  0.40571013464E+03  0.40725090964E+03  0.00000000000E+00 0.  1.
         21    1    1    2  504  501 -0.42990747514E+02  0.34919695437E+02  0.12491778863E+03  0.13664568569E+03  0.00000000000E+00 0.  1.
         21    1    1    2  505  504 -0.30659917076E+02  0.91879310899E+02  0.14145521661E+03  0.17143925044E+03  0.00000000000E+00 0.  1.
          1    1    1    2  501    0  0.74205860047E+02 -0.91411412304E+02 -0.33394528727E+03  0.35409322339E+03  0.00000000000E+00 0.  1.
<scales pt_clust_3="35.39195" pt_clust_4="38.27325" pt_clust_5="38.27325" pt_clust_6="118.66096"></scales>
<clustering>
<clus scale="   35.392">  1  3  2 -1</clus>
<clus scale="   38.273">  4  5 -1 -1</clus>
<clus scale="  118.661">  2  6  1 -1</clus>
<clus scale="   35.392">  1  3  2 -1</clus>
</clustering>
</event>
<event>
 6    0  0.5775861E+002  0.1076079E+03  0.7546771E-02  0.1265065E+00
          1   -1    0    0  503    0 -0.00000000000E+00  0.00000000000E+00  0.69661578115E+03  0.69661578115E+03  0.00000000000E+00 0.  1.
         21   -1    0    0  504  502  0.00000000000E+00 -0.00000000000E+00 -0.15264194954E+03  0.15264194954E+03  0.00000000000E+00 0. -1.
         21    1    1    2  503  505 -0.58274661724E+02  0.73772928558E+02  0.29010835136E+03  0.30496104131E+03  0.00000000000E+00 0.  1.
         21    1    1    2  504  501  0.78585595833E+02 -0.13327844351E+03  0.91345096460E+01  0.15499122119E+03  0.00000000000E+00 0.  1.
         21    1    1    2  505  502 -0.43194491760E+02  0.34431290002E+02 -0.60655053496E+02  0.82038487091E+02  0.00000000000E+00 0. -1.
          1    1    1    2  501    0  0.22883557651E+02  0.25074224955E+02  0.30538602410E+03  0.30726698111E+03  0.00000000000E+00 0.  1.
<scales pt_clust_3="14000.00000" pt_clust_4="107.60788" pt_clust_5="55.18413" pt_clust_6="33.94663"></scales>
<clustering>
<clus scale="   33.947">  1  6  2 -1</clus>
<clus scale="   55.184">  2  5  1 -1</clus>
<clus scale="  107.608">  2  4  1 -1</clus>
<clus scale="   55.184">  2  3  1 -1</clus>
</clustering>
</event>
<event>
 6    0  0.5775861E+002  0.1113121E+03  0.7546771E-02  0.1258159E+00
          1   -1    0    0  505    0 -0.00000000000E+00  0.00000000000E+00  0.15090494520E+04  0.15090494520E+04  0.00000000000E+00 0. -1.
         21   -1    0    0  504  502  0.00000000000E+00 -0.00000000000E+00 -0.10176074796E+03  0.10176074796E+03  0.00000000000E+00 0.  1.
         21    1    1    2  503  502  0.12059885134E+02  0.38355672702E+02 -0.32745479812E+02  0.51854266034E+02  0.00000000000E+00 0.  1.
         21    1    1    2  504  501  0.51608942596E+02  0.69645894791E+02  0.47705512522E+02  0.98943668530E+02  0.00000000000E+00 0. -1.
         21    1    1    2  505  503 -0.47169508383E+02 -0.13632574609E+03  0.12106277871E+03  0.18832383800E+03  0.00000000000E+00 0. -1.
          1    1    1    2  501    0 -0.16499319346E+02  0.28324178598E+02  0.12712658926E+04  0.12716884274E+04  0.00000000000E+00 0. -1.
<scales pt_clust_3="41.10613" pt_clust_4="111.31211" pt_clust_5="14000.00000" pt_clust_6="32.77936"></scales>
<clustering>
<clus scale="   32.779">  1  6  2 -1</clus>
<clus scale="   41.106">  2  3  1 -1</clus>
<clus scale="  111.312">  2  4  1 -1</clus>
<clus scale="   41.106">  2  3  1 -1</clus>
</clustering>
</event>
<event>
 6    0  0.5775861E+002  0.1363067E+03  0.7546771E-02  0.1218387E+00
          1   -1    0    0  503    0 -0.00000000000E+00  0.00000000000E+00  0.95036967852E+03  0.95036967852E+03  0.00000000000E+00 0.  1.
         21   -1    0    0  504  502  0.00000000000E+00 -0.00000000000E+00 -0.92947811460E+02  0.92947811460E+02  0.00000000000E+00 0.  1.
         21    1    1    2  503  505  0.61128319030E+01 -0.57915571608E+02 -0.10737608805E+02  0.59218885429E+02  0.00000000000E+00 0.  1.
         21    1    1    2  504  501  0.67470880196E+02  0.11510321167E+03  0.82199233733E+02  0.15670923086E+03  0.00000000000E+00 0.  1.
         21    1    1    2  505  502 -0.19929858699E+02 -0.65541447924E+02  0.39741601356E+02  0.79197699096E+02  0.00000000000E+00 0.  1.
          1    1    1    2  501    0 -0.53653853401E+02  0.83538078660E+01  0.74621864078E+03  0.74819167460E+03  0.00000000000E+00 0.  1.
<scales pt_clust_3="49.52696" pt_clust_4="125.27625" pt_clust_5="49.52696" pt_clust_6="54.30030"></scales>
<clustering>
<clus scale="   49.527">  3  5 -1 -1</clus>
<clus scale="   54.300">  1  6  2 -1</clus>
<clus scale="  125.276">  1  4  2 -1</clus>
<clus scale="  136.307">  2  3  1 -1</clus>
</clustering>
</event>
<event>
 6    0  0.5775861E+002  0.1315326E+03  0.7546771E-02  0.1225199E+00
         21   -1    0    0  504  502  0.00000000000E+00  0.00000000000E+00  0.24914577178E+04  0.24914577178E+04  0.00000000000E+00 0. -1.
          4   -1    0    0  505    0 -0.00000000000E+00 -0.00000000000E+00 -0.93891631966E+03  0.93891631966E+03  0.00000000000E+00 0. -1.
         21    1    1    2  503  502 -0.95253775449E+02 -0.20897020578E+01  0.22470946244E+04  0.22491135809E+04  0.00000000000E+00 0. -1.
         21    1    1    2  504  501 -0.36766508121E+02  0.11139218502E+02  0.18491557480E+03  0.18886404663E+03  0.00000000000E+00 0. -1.
         21    1    1    2  505  503  0.13708325719E+03  0.29873876620E+02 -0.31851437770E+02  0.14387071277E+03  0.00000000000E+00 0. -1.
          4    1    1    2  501    0 -0.50629736160E+01 -0.38923393064E+02 -0.84761736330E+03  0.84852569719E+03  0.00000000000E+00 0. -1.
<scales pt_clust_3="14000.00000" pt_clust_4="38.41690" pt_clust_5="131.53255" pt_clust_6="39.25005"></scales>
<clustering>
<clus scale="   38.417">  1  4  2 -1</clus>
<clus scale="   39.250">  2  6  1 -1</clus>
<clus scale="  131.533">  2  5  1 -1</clus>
<clus scale="   38.417">  1  3  2 -1</clus>
</clustering>
</event>
<event>
 6    0  0.5775861E+002  0.1288304E+03  0.7546771E-02  0.1229202E+00
         21   -1    0    0  505  502  0.00000000000E+00  0.00000000000E+00  0.82701117068E+03  0.82701117068E+03  0.00000000000E+00 0.  1.
         -2   -1    0    0    0  501 -0.00000000000E+00 -0.00000000000E+00 -0.76673824994E+02  0.76673824994E+02  0.00000000000E+00 0. -1.
         21    1    1    2  503  502 -0.13377808972E+03 -0.15537131846E+02  0.21025989482E+03  0.24969421925E+03  0.00000000000E+00 0. -1.
         21    1    1    2  504  501  0.45435224981E+02  0.17275502986E+02  0.16930825449E+03  0.17614791430E+03  0.00000000000E+00 0.  1.
         21    1    1    2  505  504  0.63514711089E+02 -0.34210075117E+02  0.41289209373E+03  0.41914714460E+03  0.00000000000E+00 0.  1.
         -2    1    1    2    0  503  0.24828153650E+02  0.32471703976E+02 -0.42122897365E+02  0.58695717520E+02  0.00000000000E+00 0. -1.
<scales pt_clust_3="115.47807" pt_clust_4="48.73764" pt_clust_5="48.73764" pt_clust_6="40.87602"></scales>
<clustering>
<clus scale="   40.876">  2  6  1 -1</clus>
<clus scale="   48.738">  4  5 -1 -1</clus>
<clus scale="  115.478">  2  3  1 -1</clus>
<clus scale="  128.830">  1  3  2 -1</clus>
</clustering>
</event>
<event>
 6    0  0.5775861E+002  0.1096239E+03  0.7546771E-02  0.1261268E+00
          1   -1    0    0  504    0 -0.00000000000E+00  0.00000000000E+00  0.38316690112E+03  0.38316690112E+03  0.00000000000E+00 0.  1.
         21   -1    0    0  505  502  0.00000000000E+00 -0.00000000000E+00 -0.11914044617E+03  0.11914044617E+03  0.00000000000E+00 0. -1.
         21    1    1    2  503  502 -0.25197217074E+01  0.63407821007E+02  0.13152075533E+02  0.64806464594E+02  0.00000000000E+00 0.  1.
         21    1    1    2  504  503  0.72974263330E+01  0.61736733256E+02  0.48874735196E+02  0.79078545793E+02  0.00000000000E+00 0.  1.
         21    1    1    2  505  501  0.86250112678E+02 -0.69104019144E+02 -0.19734072257E+02  0.11226700765E+03  0.00000000000E+00 0. -1.
          1    1    1    2  501    0 -0.91027817304E+02 -0.56040535119E+02  0.22173371647E+03  0.24615532925E+03  0.00000000000E+00 0.  1.
<scales pt_clust_3="33.87837" pt_clust_4="33.87837" pt_clust_5="104.14322" pt_clust_6="106.89530"></scales>
<clustering>
<clus scale="   33.878">  3  4 -1 -1</clus>
<clus scale="  106.895">  1  6  2 -1</clus>
<clus scale="  104.143">  2  5  1 -1</clus>
<clus scale="  104.143">  2  3  1 -1</clus>
</clustering>
</event>
<event>
 6    0  0.5775861E+002  0.6305977E+02  0.7546771E-02  0.1385422E+00
         21   -1    0    0  505  502  0.00000000000E+00  0.00000000000E+00  0.10398988427E+03  0.10398988427E+03  0.00000000000E+00 0. -1.
         -1   -1    0    0    0  501 -0.00000000000E+00 -0.00000000000E+00 -0.13671018543E+04  0.13671018543E+04  0.00000000000E+00 0. -1.
         21    1    1    2  503  501 -0.51801748166E+02  0.39159255173E+01 -0.75557748089E+03  0.75736126467E+03  0.00000000000E+00 0.  1.
         21    1    1    2  504  503 -0.70896552838E+02  0.68362393751E+02 -0.10207487211E+03  0.14184152283E+03  0.00000000000E+00 0.  1.
         21    1    1    2  505  504  0.42616691193E+02 -0.28284731169E+02  0.70577150182E+02  0.87162735807E+02  0.00000000000E+00 0. -1.
         -1    1    1    2    0  502  0.80081609811E+02 -0.43993588099E+02 -0.47603676724E+03  0.48472621529E+03  0.00000000000E+00 0. -1.
<scales pt_clust_3="50.37285" pt_clust_4="63.05977" pt_clust_5="51.14888" pt_clust_6="14000.00000"></scales>
<clustering>
<clus scale="   51.149">  1  5  2 -1</clus>
<clus scale="   50.373">  2  3  1 -1</clus>
<clus scale="   63.060">  1  4  2 -1</clus>
<clus scale="   51.149">  1  3  2 -1</clus>
</clustering>
</event>
<event>
 6    0  0.5775861E+002  0.1042010E+03  0.7546771E-02  0.1271702E+00
         21   -1    0    0  505  502  0.00000000000E+00  0.00000000000E+00  0.10091041885E+03  0.10091041885E+03  0.00000000000E+00 0. -1.
          1   -1    0    0  503    0 -0.00000000000E+00 -0.00000000000E+00 -0.15602364303E+04  0.15602364303E+04  0.00000000000E+00 0. -1.
         21    1    1    2  503  504  0.50923071691E+02 -0.32661115745E+01 -0.32328054865E+03  0.32728296603E+03  0.00000000000E+00 0.  1.
         21    1    1    2  504  502 -0.69048725655E+02  0.27118666246E+01  0.29798684384E+02  0.75253188146E+02  0.00000000000E+00 0. -1.
         21    1    1    2  505  501 -0.10590658711E+02  0.74133039019E+02  0.13951410598E+02  0.76174217317E+02  0.00000000000E+00 0. -1.
          1    1    1    2  501    0  0.28716312675E+02 -0.73578794069E+02 -0.11797955578E+04  0.11824364777E+04  0.00000000000E+00 0. -1.
<scales pt_clust_3="51.02771" pt_clust_4="68.16317" pt_clust_5="104.20097" pt_clust_6="14000.00000"></scales>
<clustering>
<clus scale="   51.028">  2  3  1 -1</clus>
<clus scale="   68.163">  1  4  2 -1</clus>
<clus scale="  104.201">  1  5  2 -1</clus>
<clus scale="   68.163">  1  3  2 -1</clus>
</clustering>
</event>
<event>
 6    0  0.5775861E+002  0.6652547E+02  0.7546771E-02  0.1372323E+00
          3   -1    0    0  505    0 -0.00000000000E+00  0.00000000000E+00  0.61783837502E+03  0.61783837502E+03  0.00000000000E+00 0.  1.
         21   -1    0    0  504  502  0.00000000000E+00 -0.00000000000E+00 -0.20905800914E+03  0.20905800914E+03  0.00000000000E+00 0. -1.
         21    1    1    2  503  502  0.15299764345E+02  0.41274189277E+02  0.47286118938E+01  0.44271901472E+02  0.00000000000E+00 0. -1.
         21    1    1    2  504  501  0.89913657515E+01 -0.73955301509E+02 -0.17335656132E+03  0.18868685336E+03  0.00000000000E+00 0. -1.
         21    1    1    2  505  503  0.54462395701E+02  0.15593323897E+02  0.19143147921E+03  0.19963796114E+03  0.00000000000E+00 0. -1.
          3    1    1    2  501    0 -0.78753525798E+02  0.17087788335E+02  0.38597683610E+03  0.39429966820E+03  0.00000000000E+00 0.  1.
<scales pt_clust_3="44.01865" pt_clust_4="41.79886" pt_clust_5="66.52547" pt_clust_6="14000.00000"></scales>
<clustering>
<clus scale="   44.019">  2  3  1 -1</clus>
<clus scale="   41.799">  2  4  1 -1</clus>
<clus scale="   66.525">  1  5  2 -1</clus>
<clus scale="   44.019">  2  3  1 -1</clus>
</clustering>
</event>
<event>
 6    0  0.5775861E+002  0.1084606E+03  0.7546771E-02  0.1263447E+00
         21   -1    0    0  504  502  0.00000000000E+00  0.00000000000E+00  0.15489831628E+03  0.15489831628E+03  0.00000000000E+00 0.  1.
         -2   -1    0    0    0  501 -0.00000000000E+00 -0.00000000000E+00 -0.11312363630E+04  0.11312363630E+04  0.00000000000E+00 0. -1.
         21    1    1    2  503  502 -0.48962647228E+02  0.95802158491E+01  0.36745494393E+02  0.61962510580E+02  0.00000000000E+00 0. -1.
         21    1    1    2  504  501  0.41990670245E+02 -0.93855057604E+02 -0.27314433826E+03  0.29185581671E+03  0.00000000000E+00 0. -1.
         21    1    1    2  505  503  0.37008989954E+02  0.10173366064E+03  0.65235442808E+02  0.12639250786E+03  0.00000000000E+00 0.  1.
         -2    1    1    2    0  505 -0.30037012971E+02 -0.17458818886E+02 -0.80517464563E+03  0.80592384409E+03  0.00000000000E+00 0. -1.
<scales pt_clust_3="50.91023" pt_clust_4="108.46059" pt_clust_5="14000.00000" pt_clust_6="34.74237"></scales>
<clustering>
<clus scale="   34.742">  2  6  1 -1</clus>
<clus scale="   50.910">  1  3  2 -1</clus>
<clus scale="  108.461">  2  4  1 -1</clus>
<clus scale="   50.910">  1  3  2 -1</clus>
</clustering>
</event>
<event>
 6    0  0.5775861E+002  0.1805583E+03  0.7546771E-02  0.1167264E+00
          1   -1    0    0  505    0 -0.00000000000E+00  0.00000000000E+00  0.50105830951E+04  0.50105830951E+04  0.00000000000E+00 0.  1.
         21   -1    0    0  503  502  0.00000000000E+00 -0.00000000000E+00 -0.62018311597E+02  0.62018311597E+02  0.00000000000E+00 0. -1.
         21    1    1    2  503  501 -0.43331977991E+00 -0.46796372336E+02 -0.41061313594E+02  0.62258491019E+02  0.00000000000E+00 0. -1.
         21    1    1    2  504  502  0.11731115586E+03  0.64311327495E+02  0.59974695015E+03  0.61448698794E+03  0.00000000000E+00 0. -1.
         21    1    1    2  505  504  0.40870154606E+02  0.29470771753E+02  0.50900805769E+03  0.51149594204E+03  0.00000000000E+00 0. -1.
          1    1    1    2  501    0 -0.15774799069E+03 -0.46985726911E+02  0.38808710893E+04  0.38843599857E+04  0.00000000000E+00 0.  1.
<scales pt_clust_3="46.79838" pt_clust_4="41.99963" pt_clust_5="41.99963" pt_clust_6="167.08623"></scales>
<clustering>
<clus scale="   42.000">  4  5 -1 -1</clus>
<clus scale="   46.798">  2  3  1 -1</clus>
<clus scale="  167.086">  1  6  2 -1</clus>
<clus scale="   46.798">  2  3  1 -1</clus>
</clustering>
</event>
<event>
 6    0  0.5775861E+002  0.1761589E+03  0.7546771E-02  0.1171573E+00
          2   -1    0    0  503    0 -0.00000000000E+00  0.00000000000E+00  0.16319516549E+04  0.16319516549E+04  0.00000000000E+00 0. -1.
         21   -1    0    0  505  502  0.00000000000E+00 -0.00000000000E+00 -0.78471919445E+02  0.78471919445E+02  0.00000000000E+00 0. -1.
         21    1    1    2  503  502 -0.17547762576E+03  0.85724673440E+02  0.13962389716E+03  0.24007488297E+03  0.00000000000E+00 0. -1.
         21    1    1    2  504  501  0.14947253885E+03 -0.61651517490E+02  0.35541663268E+03  0.39046630106E+03  0.00000000000E+00 0. -1.
         21    1    1    2  505  504  0.28743047138E+02  0.12276737030E+02  0.13070002119E+02  0.33877809644E+02  0.00000000000E+00 0. -1.
          2    1    1    2  501    0 -0.27379602337E+01 -0.36349892981E+02  0.10453692035E+04  0.10460045807E+04  0.00000000000E+00 0. -1.
<scales pt_clust_3="14000.00000" pt_clust_4="176.15886" pt_clust_5="31.25510" pt_clust_6="36.38588"></scales>
<clustering>
<clus scale="   31.255">  2  5  1 -1</clus>
<clus scale="   36.386">  1  6  2 -1</clus>
<clus scale="  176.159">  1  4  2 -1</clus>
<clus scale="   31.255">  2  3  1 -1</clus>
</clustering>
</event>
<event>
 6    0  0.5775861E+002  0.9109197E+02  0.7546771E-02  0.1300229E+00
          2   -1    0    0  504    0 -0.00000000000E+00  0.00000000000E+00  0.25476222941E+04  0.25476222941E+04  0.00000000000E+00 0.  1.
         21   -1    0    0  503  502  0.00000000000E+00 -0.00000000000E+00 -0.18206790347E+03  0.18206790347E+03  0.00000000000E+00 0.  1.
         21    1    1    2  503  501 -0.90680356937E+02 -0.49754842001E+02  0.14685977316E+03  0.17962812811E+03  0.00000000000E+00 0.  1.
         21    1    1    2  504  505  0.49974034935E+02  0.28632808618E+02  0.12582682881E+04  0.12595857759E+04  0.00000000000E+00 0.  1.
         21    1    1    2  505  502  0.47990724263E+02 -0.40534569910E+02 -0.15815467723E+03  0.17017362576E+03  0.00000000000E+00 0.  1.
          2    1    1    2  501    0 -0.72844022617E+01  0.61656603293E+02  0.11185810066E+04  0.11203026678E+04  0.00000000000E+00 0.  1.
<scales pt_clust_3="14000.00000" pt_clust_4="57.59550" pt_clust_5="62.91086" pt_clust_6="91.09197"></scales>
<clustering>
<clus scale="   57.596">  1  4  2 -1</clus>
<clus scale="   62.911">  2  5  1 -1</clus>
<clus scale="   91.092">  1  6  2 -1</clus>
<clus scale="   62.911">  2  3  1 -1</clus>
</clustering>
</event>
<event>
 6    0  0.5775861E+002  0.1372148E+03  0.7546771E-02  0.1217126E+00
         21   -1    0    0  505  502  0.00000000000E+00  0.00000000000E+00  0.93696789046E+02  0.93696789046E+02  0.00000000000E+00 0. -1.
          2   -1    0    0  503    0 -0.00000000000E+00 -0.00000000000E+00 -0.34025611893E+04  0.34025611893E+04  0.00000000000E+00 0. -1.
         21    1    1    2  503  502  0.54406503954E+02  0.58357262945E+02  0.30931180255E+02  0.85570881280E+02  0.00000000000E+00 0. -1.
         21    1    1    2  504  501 -0.97235834113E+02 -0.19801583023E+03 -0.63864348611E+03  0.67567046614E+03  0.00000000000E+00 0. -1.
         21    1    1    2  505  504  0.45079521402E+02  0.39462507026E+02 -0.40135013606E+02  0.72112911658E+02  0.00000000000E+00 0.  1.
          2    1    1    2  501    0 -0.22501912430E+01  0.10019606026E+03 -0.26610170808E+04  0.26629037193E+04  0.00000000000E+00 0. -1.
<scales pt_clust_3="14000.00000" pt_clust_4="137.21485" pt_clust_5="59.91204" pt_clust_6="100.68951"></scales>
<clustering>
<clus scale="   59.912">  1  5  2 -1</clus>
<clus scale="  100.690">  2  6  1 -1</clus>
<clus scale="  137.215">  2  4  1 -1</clus>
<clus scale="   59.912">  1  3  2 -1</clus>
</clustering>
</event>
<event>
 6    0  0.5775861E+002  0.1320328E+03  0.7546771E-02  0.1224470E+00
         21   -1    0    0  503  502  0.00000000000E+00  0.00000000000E+00  0.83086157804E+02  0.83086157804E+02  0.00000000000E+00 0.  1.
          1   -1    0    0  505    0 -0.00000000000E+00 -0.00000000000E+00 -0.28127608174E+04  0.28127608174E+04  0.00000000000E+00 0.  1.
         21    1    1    2  503  501  0.33799377160E+02 -0.43605793124E+01  0.11641613005E+02  0.36013049047E+02  0.00000000000E+00 0.  1.
         21    1    1    2  504  502  0.24729316156E+02  0.12438529479E+03 -0.17276264032E+02  0.12799105413E+03  0.00000000000E+00 0.  1.
         21    1    1    2  505  504  0.10855769172E+02 -0.30793087725E+02 -0.96524650782E+02  0.10189735121E+03  0.00000000000E+00 0.  1.
          1    1    1    2  501    0 -0.69384462488E+02 -0.89231627758E+02 -0.26275153578E+04  0.26299455208E+04  0.00000000000E+00 0.  1.
<scales pt_clust_3="34.14580" pt_clust_4="14000.00000" pt_clust_5="32.65060" pt_clust_6="132.03279"></scales>
<clustering>
<clus scale="   32.651">  2  5  1 -1</clus>
<clus scale="   34.146">  1  3  2 -1</clus>
<clus scale="  132.033">  2  6  1 -1</clus>
<clus scale="   34.146">  1  3  2 -1</clus>
</clustering>
</event>
<event>
 6    0  0.5775861E+002  0.1262396E+03  0.7546771E-02  0.1233145E+00
          2   -1    0    0  503    0 -0.00000000000E+00  0.00000000000E+00  0.75784984229E+03  0.75784984229E+03  0.00000000000E+00 0. -1.
         21   -1    0    0  504  502  0.00000000000E+00 -0.00000000000E+00 -0.14223730766E+03  0.14223730766E+03  0.00000000000E+00 0.  1.
         21    1    1    2  503  505 -0.19229810798E+02 -0.60207494540E+02 -0.85021359641E+02  0.10594035877E+03  0.00000000000E+00 0.  1.
         21    1    1    2  504  501  0.77337376743E+02  0.79398977114E+02  0.33427419164E+03  0.35217112687E+03  0.00000000000E+00 0. -1.
         21    1    1    2  505  502 -0.29535943196E+02 -0.45645893187E+02 -0.16751695969E+02  0.56890586419E+02  0.00000000000E+00 0.  1.
          2    1    1    2  501    0 -0.28571622750E+02  0.26454410614E+02  0.38311139860E+03  0.38508507788E+03  0.00000000000E+00 0. -1.
<scales pt_clust_3="47.07782" pt_clust_4="115.59976" pt_clust_5="47.07782" pt_clust_6="38.93807"></scales>
<clustering>
<clus scale="   38.938">  1  6  2 -1</clus>
<clus scale="   47.078">  3  5 -1 -1</clus>
<clus scale="  115.600">  1  4  2 -1</clus>
<clus scale="  126.240">  2  3  1 -1</clus>
</clustering>
</event>
<event>
 6    0  0.5775861E+002  0.8370305E+02  0.7546771E-02  0.1318859E+00
         21   -1    0    0  505  502  0.00000000000E+00  0.00000000000E+00  0.33820125614E+03  0.33820125614E+03  0.00000000000E+00 0. -1.
          2   -1    0    0  504    0 -0.00000000000E+00 -0.00000000000E+00 -0.10760909342E+04  0.10760909342E+04  0.00000000000E+00 0. -1.
         21    1    1    2  503  502  0.38931500987E+02  0.57925819365E+02  0.48758170869E+02  0.85137662317E+02  0.00000000000E+00 0.  1.
         21    1    1    2  504  503  0.20473615153E+02 -0.31323451261E+02 -0.22468133250E+03  0.22777626894E+03  0.00000000000E+00 0.  1.
         21    1    1    2  505  501 -0.10628500484E+03 -0.61755164958E+01  0.25837213526E+03  0.27944731084E+03  0.00000000000E+00 0. -1.
          2    1    1    2  501    0  0.46879888698E+02 -0.20426851609E+02 -0.82033865172E+03  0.82193094828E+03  0.00000000000E+00 0. -1.
<scales pt_clust_3="69.48492" pt_clust_4="37.42095" pt_clust_5="83.70305" pt_clust_6="14000.00000"></scales>
<clustering>
<clus scale="   37.421">  2  4  1 -1</clus>
<clus scale="   69.485">  1  3  2 -1</clus>
<clus scale="   83.703">  1  5  2 -1</clus>
<clus scale="   69.485">  1  3  2 -1</clus>
</clustering>
</event>
<event>
 6    0  0.5775861E+002  0.1439237E+03  0.7546771E-02  0.1208145E+00
          1   -1    0    0  505    0 -0.00000000000E+00  0.00000000000E+00  0.24801007556E+04  0.24801007556E+04  0.00000000000E+00 0. -1.
         21   -1    0    0  504  502  0.00000000000E+00 -0.00000000000E+00 -0.98864153548E+03  0.98864153548E+03  0.00000000000E+00 0. -1.
         21    1    1    2  503  501  0.98019415752E+02 -0.94764412116E+02 -0.87571915022E+02  0.16203993325E+03  0.00000000000E+00 0.  1.
         21    1    1    2  504  503 -0.20403809433E+01  0.40622067022E+02 -0.62440138144E+03  0.62572470035E+03  0.00000000000E+00 0. -1.
         21    1    1    2  505  502 -0.10401213448E+03  0.92838112122E+02 -0.21824617345E+03  0.25897650744E+03  0.00000000000E+00 0. -1.
          1    1    1    2  501    0  0.80330996720E+01 -0.38695767028E+02  0.24216786900E+04  0.24220011500E+04  0.00000000000E+00 0. -1.
<scales pt_clust_3="143.92373" pt_clust_4="40.22985" pt_clust_5="14000.00000" pt_clust_6="39.52079"></scales>
<clustering>
<clus scale="   39.521">  1  6  2 -1</clus>
<clus scale="   40.230">  2  4  1 -1</clus>
<clus scale="  143.924">  1  3  2 -1</clus>
<clus scale="   40.230">  2  3  1 -1</clus>
</clustering>
</event>
<event>
 6    0  0.5775861E+002  0.2018176E+03  0.7546771E-02  0.1148214E+00
         21   -1    0    0  501  502  0.00000000000E+00  0.00000000000E+00  0.53553890562E+03  0.53553890562E+03  0.00000000000E+00 0. -1.
          2   -1    0    0  504    0 -0.00000000000E+00 -0.00000000000E+00 -0.78927001638E+03  0.78927001638E+03  0.00000000000E+00 0.  1.
         21    1    1    2  503  505  0.38377042788E+02  0.97994486897E+02 -0.16365677021E+03  0.19457454949E+03  0.00000000000E+00 0.  1.
         21    1    1    2  504  503 -0.16002496301E+02  0.76477564957E+02 -0.78703577410E+02  0.11090153708E+03  0.00000000000E+00 0.  1.
         21    1    1    2  505  502  0.13041341677E+02 -0.19351336955E+03  0.48447681425E+03  0.52185753261E+03  0.00000000000E+00 0. -1.
          2    1    1    2  501    0 -0.35415888164E+02  0.19041317700E+02 -0.49584757740E+03  0.49747530283E+03  0.00000000000E+00 0.  1.
<scales pt_clust_3="53.43338" pt_clust_4="53.43338" pt_clust_5="192.59898" pt_clust_6="40.21016"></scales>
<clustering>
<clus scale="   40.210">  2  6  1 -1</clus>
<clus scale="   53.433">  3  4 -1 -1</clus>
<clus scale="  192.599">  1  5  2 -1</clus>
<clus scale="  192.599">  1  3  2 -1</clus>
</clustering>
</event>
<event>
 6    0  0.5775861E+002  0.1351373E+03  0.7546771E-02  0.1220026E+00
          2   -1    0    0  502    0 -0.00000000000E+00  0.00000000000E+00  0.16060122995E+04  0.16060122995E+04  0.00000000000E+00 0. -1.
         21   -1    0    0  504  502  0.00000000000E+00 -0.00000000000E+00 -0.39318531993E+03  0.39318531993E+03  0.00000000000E+00 0. -1.
         21    1    1    2  503  505  0.79264766410E+02  0.97299570806E+02 -0.26211098912E+03  0.29060674509E+03  0.00000000000E+00 0. -1.
         21    1    1    2  504  503  0.37889726562E+02 -0.24003608462E+02 -0.10442685868E+03  0.11365198376E+03  0.00000000000E+00 0. -1.
         21    1    1    2  505  501 -0.67365967217E+02 -0.75351718611E+02  0.34329968530E+03  0.35786970948E+03  0.00000000000E+00 0. -1.
          2    1    1    2  501    0 -0.49788525755E+02  0.20557562659E+01  0.12360651420E+04  0.12370691811E+04  0.00000000000E+00 0. -1.
<scales pt_clust_3="135.13730" pt_clust_4="44.85314" pt_clust_5="14000.00000" pt_clust_6="49.76233"></scales>
<clustering>
<clus scale="   44.853">  2  4  1 -1</clus>
<clus scale="   49.762">  1  6  2 -1</clus>
<clus scale="  135.137">  2  3  1 -1</clus>
<clus scale="   44.853">  2  3  1 -1</clus>
</clustering>
</event>
<event>
 6    0  0.5775861E+002  0.1108465E+03  0.7546771E-02  0.1259010E+00
         21   -1    0    0  501  502  0.00000000000E+00  0.00000000000E+00  0.43769914753E+02  0.43769914753E+02  0.00000000000E+00 0.  1.
          2   -1    0    0  505    0 -0.00000000000E+00 -0.00000000000E+00 -0.93536899258E+03  0.93536899258E+03  0.00000000000E+00 0.  1.
         21    1    1    2  503  504  0.58739582334E+01  0.12291730484E+03 -0.13760383791E+03  0.18460223027E+03  0.00000000000E+00 0.  1.
         21    1    1    2  504  502 -0.26763585284E+02  0.16539013286E+02 -0.19011186722E+02  0.36759402584E+02  0.00000000000E+00 0.  1.
         21    1    1    2  505  503  0.13367419086E+02 -0.46615333768E+02 -0.53468578738E+03  0.53688040425E+03  0.00000000000E+00 0.  1.
          2    1    1    2  501    0  0.75222079646E+01 -0.92840984358E+02 -0.20029826582E+03  0.22089687023E+03  0.00000000000E+00 0.  1.
<scales pt_clust_3="14000.00000" pt_clust_4="31.46154" pt_clust_5="47.76682" pt_clust_6="110.84646"></scales>
<clustering>
<clus scale="   31.462">  1  4  2 -1</clus>
<clus scale="   47.767">  2  5  1 -1</clus>
<clus scale="  110.846">  2  6  1 -1</clus>
<clus scale="   31.462">  1  3  2 -1</clus>
</clustering>
</event>
<event>
 6    0  0.5775861E+002  0.8577441E+02  0.7546771E-02  0.1313420E+00
         21   -1    0    0  503  502  0.00000000000E+00  0.00000000000E+00  0.21411032380E+03  0.21411032380E+03  0.00000000000E+00 0.  1.
          2   -1    0    0  505    0 -0.00000000000E+00 -0.00000000000E+00 -0.60767961221E+03  0.60767961221E+03  0.00000000000E+00 0.  1.
         21    1    1    2  503  501 -0.28736387162E+01 -0.38526412883E+02  0.17849398545E+03  0.18262706571E+03  0.00000000000E+00 0.  1.
         21    1    1    2  504  502  0.24841440540E+02  0.53565941307E+02 -0.54129129520E+02  0.80102246528E+02  0.00000000000E+00 0.  1.
         21    1    1    2  505  504 -0.97550135757E+02  0.18329511400E+02 -0.13645125381E+03  0.16873335367E+03  0.00000000000E+00 0.  1.
          2    1    1    2  501    0  0.75582333932E+02 -0.33369039824E+02 -0.38148289053E+03  0.39032727011E+03  0.00000000000E+00 0.  1.
<scales pt_clust_3="38.63343" pt_clust_4="45.35555" pt_clust_5="85.77441" pt_clust_6="14000.00000"></scales>
<clustering>
<clus scale="   38.633">  1  3  2 -1</clus>
<clus scale="   45.356">  1  4  2 -1</clus>
<clus scale="   85.774">  1  5  2 -1</clus>
<clus scale="   38.633">  1  3  2 -1</clus>
</clustering>
</event>
<event>
 6    0  0.5775861E+002  0.7985518E+02  0.7546771E-02  0.1329463E+00
          4   -1    0    0  505    0 -0.00000000000E+00  0.00000000000E+00  0.13027799307E+04  0.13027799307E+04  0.00000000000E+00 0.  1.
         21   -1    0    0  504  502  0.00000000000E+00 -0.00000000000E+00 -0.22258918234E+04  0.22258918234E+04  0.00000000000E+00 0.  1.
         21    1    1    2  503  502  0.92686006263E+01  0.64172104216E+02 -0.22012243730E+04  0.22021790813E+04  0.00000000000E+00 0.  1.
         21    1    1    2  504  501 -0.72511679650E+02 -0.63584078338E+02  0.13525767355E+03  0.16611898434E+03  0.00000000000E+00 0.  1.
         21    1    1    2  505  503  0.10611227109E+03  0.95997500474E+01  0.33983211458E+03  0.35614299849E+03  0.00000000000E+00 0.  1.
          4    1    1    2  501    0 -0.42869192066E+02 -0.10187775926E+02  0.80302269218E+03  0.80423068989E+03  0.00000000000E+00 0.  1.
<scales pt_clust_3="64.82251" pt_clust_4="14000.00000" pt_clust_5="79.85518" pt_clust_6="44.06312"></scales>
<clustering>
<clus scale="   44.063">  1  6  2 -1</clus>
<clus scale="   64.823">  2  3  1 -1</clus>
<clus scale="   79.855">  1  5  2 -1</clus>
<clus scale="   64.823">  2  3  1 -1</clus>
</clustering>
</event>
<event>
 6    0  0.5775861E+002  0.9495231E+02  0.7546771E-02  0.1291284E+00
         21   -1    0    0  503  502  0.00000000000E+00  0.00000000000E+00  0.77351670109E+03  0.77351670109E+03  0.00000000000E+00 0.  1.
          3   -1    0    0  504    0 -0.00000000000E+00 -0.00000000000E+00 -0.41699158662E+03  0.41699158662E+03  0.00000000000E+00 0.  1.
         21    1    1    2  503  501 -0.53490818523E+02 -0.15474647735E+02  0.44930468368E+03  0.45274212436E+03  0.00000000000E+00 0.  1.
         21    1    1    2  504  505  0.11193913801E+03  0.34928268938E+01  0.93124917470E+02  0.14565308343E+03  0.00000000000E+00 0.  1.
         21    1    1    2  505  502 -0.55585256709E+02 -0.45003726398E+02  0.19461456975E+03  0.20734002728E+03  0.00000000000E+00 0.  1.
          3    1    1    2  501    0 -0.28630627825E+01  0.56985547240E+02 -0.38051905644E+03  0.38477305263E+03  0.00000000000E+00 0.  1.
<scales pt_clust_3="55.68422" pt_clust_4="14000.00000" pt_clust_5="94.95231" pt_clust_6="56.97431"></scales>
<clustering>
<clus scale="   55.684">  1  3  2 -1</clus>
<clus scale="   56.974">  2  6  1 -1</clus>
<clus scale="   94.952">  1  5  2 -1</clus>
<clus scale="   55.684">  1  3  2 -1</clus>
</clustering>
</event>
<event>
 6    0  0.5775861E+002  0.1236311E+03  0.7546771E-02  0.1237224E+00
         21   -1    0    0  504  502  0.00000000000E+00  0.00000000000E+00  0.31433646516E+03  0.31433646516E+03  0.00000000000E+00 0.  1.
         -1   -1    0    0    0  501 -0.00000000000E+00 -0.00000000000E+00 -0.36021804194E+03  0.36021804194E+03  0.00000000000E+00 0.  1.
         21    1    1    2  503  501  0.77304228002E+02  0.31416739215E+02  0.26099718031E+02  0.87430832383E+02  0.00000000000E+00 0.  1.
         21    1    1    2  504  503 -0.94623255685E+02  0.91383381386E+02  0.21924199533E+03  0.25567857835E+03  0.00000000000E+00 0.  1.
         21    1    1    2  505  502  0.18345862631E+02 -0.88428802969E+02 -0.90700712054E+02  0.12799548053E+03  0.00000000000E+00 0.  1.
         -1    1    1    2    0  505 -0.10268349486E+01 -0.34371317632E+02 -0.20052257808E+03  0.20344961584E+03  0.00000000000E+00 0.  1.
<scales pt_clust_3="80.98180" pt_clust_4="123.63112" pt_clust_5="14000.00000" pt_clust_6="34.38665"></scales>
<clustering>
<clus scale="   34.387">  2  6  1 -1</clus>
<clus scale="   80.982">  2  3  1 -1</clus>
<clus scale="  123.631">  1  4  2 -1</clus>
<clus scale="  123.631">  1  3  2 -1</clus>
</clustering>
</event>
<event>
 6    0  0.5775861E+002  0.1114106E+03  0.7546771E-02  0.1257980E+00
          1   -1    0    0  504    0 -0.00000000000E+00  0.00000000000E+00  0.74747828932E+03  0.74747828932E+03  0.00000000000E+00 0.  1.
         21   -1    0    0  505  502  0.00000000000E+00 -0.00000000000E+00 -0.15119854874E+03  0.15119854874E+03  0.00000000000E+00 0.  1.
         21    1    1    2  503  501  0.65782383516E+01  0.13373696691E+03  0.29672612510E+03  0.32553838922E+03  0.00000000000E+00 0.  1.
         21    1    1    2  504  502 -0.37899203358E+02 -0.15230317130E+02 -0.11278229265E+03  0.11995064698E+03  0.00000000000E+00 0.  1.
         21    1    1    2  505  503 -0.10683118155E+02 -0.92550583290E+02  0.98840762871E+02  0.13582796430E+03  0.00000000000E+00 0.  1.
          1    1    1    2  501    0  0.42004083161E+02 -0.25956066491E+02  0.31349514526E+03  0.31735983755E+03  0.00000000000E+00 0.  1.
<scales pt_clust_3="14000.00000" pt_clust_4="40.84498" pt_clust_5="111.41058" pt_clust_6="48.06692"></scales>
<clustering>
<clus scale="   40.845">  2  4  1 -1</clus>
<clus scale="   48.067">  1  6  2 -1</clus>
<clus scale="  111.411">  2  5  1 -1</clus>
<clus scale="   40.845">  2  3  1 -1</clus>
</clustering>
</event>
<event>
 6    0  0.5775861E+002  0.1051911E+03  0.7546771E-02  0.1269744E+00
          2   -1    0    0  504    0 -0.00000000000E+00  0.00000000000E+00  0.12241804524E+04  0.12241804524E+04  0.00000000000E+00 0. -1.
         21   -1    0    0  505  502  0.00000000000E+00 -0.00000000000E+00 -0.91589391013E+03  0.91589391013E+03  0.00000000000E+00 0.  1.
         21    1    1    2  503  502  0.16942890012E+03  0.32777197717E+02  0.91030077918E+02  0.19510759076E+03  0.00000000000E+00 0. -1.
         21    1    1    2  504  503 -0.97109639236E+02  0.33453107959E+02  0.93948211820E+03  0.94507991349E+03  0.00000000000E+00 0. -1.
         21    1    1    2  505  501 -0.82983558594E+01 -0.38797951393E+02 -0.85182952091E+03  0.85275299849E+03  0.00000000000E+00 0.  1.
          2    1    1    2  501    0 -0.64020905021E+02 -0.27432354282E+02  0.12960386707E+03  0.14713385980E+03  0.00000000000E+00 0. -1.
<scales pt_clust_3="105.19111" pt_clust_4="14000.00000" pt_clust_5="39.67548" pt_clust_6="72.94434"></scales>
<clustering>
<clus scale="   39.675">  2  5  1 -1</clus>
<clus scale="   72.944">  2  6  1 -1</clus>
<clus scale="  105.191">  2  3  1 -1</clus>
<clus scale="   39.675">  2  3  1 -1</clus>
</clustering>
</event>
<event>
 6    0  0.5775861E+002  0.1042529E+03  0.7546771E-02  0.1271599E+00
         -3   -1    0    0    0  501 -0.00000000000E+00  0.00000000000E+00  0.90378180129E+02  0.90378180129E+02  0.00000000000E+00 0.  1.
         21   -1    0    0  505  502  0.00000000000E+00 -0.00000000000E+00 -0.58484364812E+03  0.58484364812E+03  0.00000000000E+00 0.  1.
         21    1    1    2  503  501  0.47331286542E+02  0.87380251023E+02 -0.72563451911E+01  0.99640421016E+02  0.00000000000E+00 0.  1.
         21    1    1    2  504  502 -0.38168052285E+02 -0.91540917597E+02 -0.12109045963E+03  0.15652296708E+03  0.00000000000E+00 0.  1.
         21    1    1    2  505  503 -0.40771056930E+02  0.57652497288E+01 -0.38160779723E+03  0.38382291241E+03  0.00000000000E+00 0.  1.
         -3    1    1    2    0  504  0.31607822673E+02 -0.16045831550E+01  0.15489134059E+02  0.35235527740E+02  0.00000000000E+00 0.  1.
<scales pt_clust_3="104.25286" pt_clust_4="14000.00000" pt_clust_5="40.63972" pt_clust_6="31.64853"></scales>
<clustering>
<clus scale="   31.649">  1  6  2 -1</clus>
<clus scale="   40.640">  2  5  1 -1</clus>
<clus scale="  104.253">  1  3  2 -1</clus>
<clus scale="   40.640">  2  3  1 -1</clus>
</clustering>
</event>
<event>
 6    0  0.5775861E+002  0.1349830E+03  0.7546771E-02  0.1220244E+00
          2   -1    0    0  504    0 -0.00000000000E+00  0.00000000000E+00  0.22294220030E+04  0.22294220030E+04  0.00000000000E+00 0.  1.
         21   -1    0    0  505  502  0.00000000000E+00 -0.00000000000E+00 -0.92231127797E+02  0.92231127797E+02  0.00000000000E+00 0.  1.
         21    1    1    2  503  501  0.83415966707E+02 -0.41430505111E+02  0.21595349340E+02  0.95608939793E+02  0.00000000000E+00 0.  1.
         21    1    1    2  504  502 -0.12796811200E+03  0.98025294992E+02  0.17280572421E+04  0.17355594568E+04  0.00000000000E+00 0.  1.
         21    1    1    2  505  503  0.37332778545E+02 -0.25309727598E+02 -0.40875360039E+02  0.60869645336E+02  0.00000000000E+00 0. -1.
          2    1    1    2  501    0  0.72193667438E+01 -0.31285062284E+02  0.42841364386E+03  0.42961508891E+03  0.00000000000E+00 0.  1.
<scales pt_clust_3="134.98296" pt_clust_4="14000.00000" pt_clust_5="45.23425" pt_clust_6="32.10723"></scales>
<clustering>
<clus scale="   32.107">  1  6  2 -1</clus>
<clus scale="   45.234">  2  5  1 -1</clus>
<clus scale="  134.983">  2  3  1 -1</clus>
<clus scale="   45.234">  2  3  1 -1</clus>
</clustering>
</event>
<event>
 6    0  0.5775861E+002  0.3093316E+03  0.7546771E-02  0.1080667E+00
          2   -1    0    0  504    0 -0.00000000000E+00  0.00000000000E+00  0.16989718869E+04  0.16989718869E+04  0.00000000000E+00 0. -1.
         21   -1    0    0  505  502  0.00000000000E+00 -0.00000000000E+00 -0.10799588531E+04  0.10799588531E+04  0.00000000000E+00 0.  1.
         21    1    1    2  503  501  0.11287459804E+02  0.82577705175E+02  0.73881695243E+02  0.11137768642E+03  0.00000000000E+00 0. -1.
         21    1    1    2  504  502  0.20721896492E+02 -0.31572225284E+03  0.36129332613E+03  0.48025285573E+03  0.00000000000E+00 0.  1.
         21    1    1    2  505  503 -0.53936896741E+02  0.30428968089E+03 -0.97667585144E+03  0.10244008578E+04  0.00000000000E+00 0.  1.
          2    1    1    2  501    0  0.21927540446E+02 -0.71145133219E+02  0.11605138638E+04  0.11628993400E+04  0.00000000000E+00 0. -1.
<scales pt_clust_3="71.90803" pt_clust_4="309.33163" pt_clust_5="14000.00000" pt_clust_6="74.44761"></scales>
<clustering>
<clus scale="   74.448">  1  6  2 -1</clus>
<clus scale="   71.908">  1  3  2 -1</clus>
<clus scale="  309.332">  1  4  2 -1</clus>
<clus scale="  309.332">  2  3  1 -1</clus>
</clustering>
</event>
<event>
 6    0  0.5775861E+002  0.1226928E+03  0.7546771E-02  0.1238720E+00
         21   -1    0    0  504  502  0.00000000000E+00  0.00000000000E+00  0.38498812518E+03  0.38498812518E+03  0.00000000000E+00 0. -1.
          2   -1    0    0  505    0 -0.00000000000E+00 -0.00000000000E+00 -0.12283639824E+03  0.12283639824E+03  0.00000000000E+00 0. -1.
         21    1    1    2  503  502 -0.50599678654E+02 -0.20960164069E+02  0.64255968239E+02  0.84430358355E+02  0.00000000000E+00 0. -1.
         21    1    1    2  504  501 -0.20315112486E+02  0.41316699468E+02  0.11345607549E+03  0.12244204554E+03  0.00000000000E+00 0. -1.
         21    1    1    2  505  503 -0.20669867336E+02 -0.11360822884E+03  0.11893773933E+03  0.16577170722E+03  0.00000000000E+00 0. -1.
          2    1    1    2  501    0  0.91584658475E+02  0.93251693445E+02 -0.34498056113E+02  0.13518041232E+03  0.00000000000E+00 0. -1.
<scales pt_clust_3="57.04484" pt_clust_4="46.04100" pt_clust_5="14000.00000" pt_clust_6="122.69283"></scales>
<clustering>
<clus scale="   46.041">  1  4  2 -1</clus>
<clus scale="   57.045">  1  3  2 -1</clus>
<clus scale="  122.693">  2  6  1 -1</clus>
<clus scale="   46.041">  1  3  2 -1</clus>
</clustering>
</event>
<event>
 6    0  0.6117401E+002  0.8759309E+02  0.7546771E-02  0.1308787E+00
          2   -1    0    0  504    0 -0.00000000000E+00  0.00000000000E+00  0.26463685079E+04  0.26463685079E+04  0.00000000000E+00 0.  1.
         21   -1    0    0  503  502  0.00000000000E+00 -0.00000000000E+00 -0.19264185382E+04  0.19264185382E+04  0.00000000000E+00 0.  1.
         21    1    1    2  503  501 -0.31349491337E+02 -0.10419198003E+03  0.14505185001E+04  0.14545936472E+04  0.00000000000E+00 0.  1.
         21    1    1    2  504  505 -0.35103974532E+02  0.62561867908E+02 -0.12708069946E+02  0.72854453438E+02  0.00000000000E+00 0.  1.
         21    1    1    2  505  502  0.30220511140E+02  0.25644567524E+02 -0.18810539598E+04  0.18814714781E+04  0.00000000000E+00 0.  1.
          2    1    1    2  501    0  0.36232954729E+02  0.15985544597E+02  0.11631934993E+04  0.11638674673E+04  0.00000000000E+00 0.  1.
<scales pt_clust_3="14000.00000" pt_clust_4="87.59309" pt_clust_5="39.64022" pt_clust_6="39.60258"></scales>
<clustering>
<clus scale="   39.603">  1  6  2 -1</clus>
<clus scale="   39.640">  2  5  1 -1</clus>
<clus scale="   87.593">  2  4  1 -1</clus>
<clus scale="   39.640">  2  3  1 -1</clus>
</clustering>
</event>
<event>
 6    0  0.5775861E+002  0.1140634E+03  0.7546771E-02  0.1253225E+00
         -4   -1    0    0    0  501 -0.00000000000E+00  0.00000000000E+00  0.90345780229E+03  0.90345780229E+03  0.00000000000E+00 0. -1.
         21   -1    0    0  503  502  0.00000000000E+00 -0.00000000000E+00 -0.43602860811E+03  0.43602860811E+03  0.00000000000E+00 0.  1.
         21    1    1    2  503  505 -0.14642336822E+01 -0.30621397779E+02 -0.13672950722E+03  0.14012413114E+03  0.00000000000E+00 0.  1.
         21    1    1    2  504  502  0.97112610069E+00  0.14054008840E+03 -0.23401803038E+03  0.27297783441E+03  0.00000000000E+00 0.  1.
         21    1    1    2  505  501  0.32430069324E+02 -0.10673389573E+03  0.27262100785E+02  0.11483490773E+03  0.00000000000E+00 0.  1.
         -4    1    1    2    0  504 -0.31936961742E+02 -0.31847948905E+01  0.81091463100E+03  0.81154953713E+03  0.00000000000E+00 0. -1.
<scales pt_clust_3="30.65639" pt_clust_4="114.06341" pt_clust_5="14000.00000" pt_clust_6="32.10018"></scales>
<clustering>
<clus scale="   30.656">  2  3  1 -1</clus>
<clus scale="   32.100">  1  6  2 -1</clus>
<clus scale="  114.063">  2  4  1 -1</clus>
<clus scale="   30.656">  2  3  1 -1</clus>
</clustering>
</event>
<event>
 6    0  0.5775861E+002  0.2731972E+03  0.7546771E-02  0.1099464E+00
          1   -1    0    0  505    0 -0.00000000000E+00  0.00000000000E+00  0.12176448577E+04  0.12176448577E+04  0.00000000000E+00 0. -1.
         21   -1    0    0  503  502  0.00000000000E+00 -0.00000000000E+00 -0.14434899460E+03  0.14434899460E+03  0.00000000000E+00 0. -1.
         21    1    1    2  503  501 -0.15755790951E+03  0.98194535015E+02  0.59423499600E+03  0.62256075368E+03  0.00000000000E+00 0. -1.
         21    1    1    2  504  502  0.14799798767E+03 -0.12125494041E+03 -0.28848124743E+02  0.19348999775E+03  0.00000000000E+00 0. -1.
         21    1    1    2  505  504  0.40076390323E+02 -0.48072698712E+02  0.46201604009E+02  0.77792606562E+02  0.00000000000E+00 0. -1.
          1    1    1    2  501    0 -0.30516468480E+02  0.71133104107E+02  0.46170738782E+03  0.46815049430E+03  0.00000000000E+00 0. -1.
<scales pt_clust_3="66.45618" pt_clust_4="270.72700" pt_clust_5="55.00558" pt_clust_6="66.45618"></scales>
<clustering>
<clus scale="   55.006">  4  5 -1 -1</clus>
<clus scale="   66.456">  3  6 -1 -1</clus>
<clus scale="  270.727">  2  4  1 -1</clus>
<clus scale="  270.727">  2  3  1 -1</clus>
</clustering>
</event>
<event>
 6    0  0.5775861E+002  0.1230779E+03  0.7546771E-02  0.1238104E+00
          1   -1    0    0  505    0 -0.00000000000E+00  0.00000000000E+00  0.11505512978E+03  0.11505512978E+03  0.00000000000E+00 0.  1.
         21   -1    0    0  501  502  0.00000000000E+00 -0.00000000000E+00 -0.98133967475E+03  0.98133967475E+03  0.00000000000E+00 0.  1.
         21    1    1    2  503  504 -0.23286849849E+02 -0.62914143255E+02 -0.20260822282E+03  0.21342576871E+03  0.00000000000E+00 0.  1.
         21    1    1    2  504  502 -0.38222660306E+02  0.16453607284E+02 -0.11078274960E+03  0.11834065473E+03  0.00000000000E+00 0.  1.
         21    1    1    2  505  503  0.24751330188E+01  0.15362189577E+03 -0.61040120223E+03  0.62944057768E+03  0.00000000000E+00 0.  1.
          1    1    1    2  501    0  0.59034377136E+02 -0.10716135980E+03  0.57507629688E+02  0.13518780341E+03  0.00000000000E+00 0.  1.
<scales pt_clust_3="67.30950" pt_clust_4="41.61362" pt_clust_5="123.07793" pt_clust_6="14000.00000"></scales>
<clustering>
<clus scale="   41.614">  2  4  1 -1</clus>
<clus scale="   67.309">  2  3  1 -1</clus>
<clus scale="  123.078">  2  5  1 -1</clus>
<clus scale="   41.614">  2  3  1 -1</clus>
</clustering>
</event>
<event>
 6    0  0.5775861E+002  0.8448849E+02  0.7546771E-02  0.1316776E+00
         21   -1    0    0  505  502  0.00000000000E+00  0.00000000000E+00  0.11857259791E+04  0.11857259791E+04  0.00000000000E+00 0.  1.
          2   -1    0    0  503    0 -0.00000000000E+00 -0.00000000000E+00 -0.45115934022E+02  0.45115934022E+02  0.00000000000E+00 0.  1.
         21    1    1    2  503  502 -0.49277535619E+02 -0.28531404621E+02  0.57022288007E+03  0.57305885345E+03  0.00000000000E+00 0.  1.
         21    1    1    2  504  501  0.37881580235E+02 -0.49971392887E+02  0.80184634866E+02  0.10179258272E+03  0.00000000000E+00 0.  1.
         21    1    1    2  505  504 -0.30514578351E+01  0.11044395961E+03  0.50572335091E+03  0.51765170459E+03  0.00000000000E+00 0.  1.
          2    1    1    2  501    0  0.14447413219E+02 -0.31941162101E+02 -0.15520820802E+02  0.38338772326E+02  0.00000000000E+00 0.  1.
<scales pt_clust_3="57.27898" pt_clust_4="14000.00000" pt_clust_5="84.48849" pt_clust_6="35.05661"></scales>
<clustering>
<clus scale="   35.057">  2  6  1 -1</clus>
<clus scale="   57.279">  1  3  2 -1</clus>
<clus scale="   84.488">  1  5  2 -1</clus>
<clus scale="   57.279">  1  3  2 -1</clus>
</clustering>
</event>
<event>
 6    0  0.5775861E+002  0.1549616E+03  0.7546771E-02  0.1194505E+00
          2   -1    0    0  504    0 -0.00000000000E+00  0.00000000000E+00  0.13208833889E+04  0.13208833889E+04  0.00000000000E+00 0.  1.
         21   -1    0    0  503  502  0.00000000000E+00 -0.00000000000E+00 -0.24489393877E+03  0.24489393877E+03  0.00000000000E+00 0. -1.
         21    1    1    2  503  505  0.31216652172E+02  0.67943588307E+02 -0.15058793737E+03  0.16812952580E+03  0.00000000000E+00 0. -1.
         21    1    1    2  504  502 -0.22042786719E+03 -0.43814454227E+02  0.30246208901E+03  0.37681755044E+03  0.00000000000E+00 0.  1.
         21    1    1    2  505  501  0.10787752493E+03  0.20879410461E+02  0.19676930182E+02  0.11162746861E+03  0.00000000000E+00 0. -1.
          2    1    1    2  501    0  0.81333690083E+02 -0.45008544541E+02  0.90443836830E+03  0.90920278281E+03  0.00000000000E+00 0.  1.
<scales pt_clust_3="74.77172" pt_clust_4="154.96156" pt_clust_5="14000.00000" pt_clust_6="92.82436"></scales>
<clustering>
<clus scale="   74.772">  2  3  1 -1</clus>
<clus scale="   92.824">  1  6  2 -1</clus>
<clus scale="  154.962">  1  4  2 -1</clus>
<clus scale="   74.772">  2  3  1 -1</clus>
</clustering>
</event>
<event>
 6    0  0.5775861E+002  0.2162795E+03  0.7546771E-02  0.1136688E+00
          2   -1    0    0  504    0 -0.00000000000E+00  0.00000000000E+00  0.24552025828E+04  0.24552025828E+04  0.00000000000E+00 0. -1.
         21   -1    0    0  503  502  0.00000000000E+00 -0.00000000000E+00 -0.70261644831E+02  0.70261644831E+02  0.00000000000E+00 0. -1.
         21    1    1    2  503  501 -0.23981653222E+01 -0.45946732333E+02  0.60395503342E+02  0.75924108377E+02  0.00000000000E+00 0. -1.
         21    1    1    2  504  505 -0.16048956454E+03  0.15610239644E+03  0.21041696233E+03  0.30724608466E+03  0.00000000000E+00 0. -1.
         21    1    1    2  505  502 -0.32503974894E+02 -0.16644496327E+02  0.30908174682E+02  0.47842062080E+02  0.00000000000E+00 0. -1.
          2    1    1    2  501    0  0.19539170475E+03 -0.93511167782E+02  0.20832202976E+04  0.20944519725E+04  0.00000000000E+00 0. -1.
<scales pt_clust_3="48.47343" pt_clust_4="216.27946" pt_clust_5="36.51777" pt_clust_6="14000.00000"></scales>
<clustering>
<clus scale="   36.518">  2  5  1 -1</clus>
<clus scale="   48.473">  2  3  1 -1</clus>
<clus scale="  216.279">  2  4  1 -1</clus>
<clus scale="   36.518">  2  3  1 -1</clus>
</clustering>
</event>
<event>
 6    0  0.5775861E+002  0.2042285E+03  0.7546771E-02  0.1146220E+00
         21   -1    0    0  504  502  0.00000000000E+00  0.00000000000E+00  0.16456383177E+03  0.16456383177E+03  0.00000000000E+00 0.  1.
          2   -1    0    0  505    0 -0.00000000000E+00 -0.00000000000E+00 -0.19884753226E+04  0.19884753226E+04  0.00000000000E+00 0.  1.
         21    1    1    2  503  502 -0.12350599864E+02  0.30782112446E+02  0.98007512512E+02  0.10346761944E+03  0.00000000000E+00 0. -1.
         21    1    1    2  504  501 -0.43982493366E+01 -0.91401181082E+02 -0.95063598133E+03  0.95502999404E+03  0.00000000000E+00 0.  1.
         21    1    1    2  505  503  0.75192330452E+02  0.15744403941E+03 -0.72944925029E+02  0.18911233220E+03  0.00000000000E+00 0.  1.
          2    1    1    2  501    0 -0.58443481251E+02 -0.96824970772E+02 -0.89833809702E+03  0.90542920873E+03  0.00000000000E+00 0.  1.
<scales pt_clust_3="33.16739" pt_clust_4="51.04170" pt_clust_5="196.17375" pt_clust_6="51.04170"></scales>
<clustering>
<clus scale="   33.167">  1  3  2 -1</clus>
<clus scale="   51.042">  4  6 -1 -1</clus>
<clus scale="  196.174">  1  5  2 -1</clus>
<clus scale="   33.167">  1  3  2 -1</clus>
</clustering>
</event>
<event>
 6    0  0.5775861E+002  0.1823737E+03  0.7546771E-02  0.1165525E+00
         21   -1    0    0  504  502  0.00000000000E+00  0.00000000000E+00  0.56244006914E+03  0.56244006914E+03  0.00000000000E+00 0.  1.
          1   -1    0    0  505    0 -0.00000000000E+00 -0.00000000000E+00 -0.11746141769E+04  0.11746141769E+04  0.00000000000E+00 0. -1.
         21    1    1    2  503  502 -0.76199606809E+01 -0.46429666856E+02  0.27852437900E+03  0.28247054264E+03  0.00000000000E+00 0.  1.
         21    1    1    2  504  501 -0.39734380757E+02  0.13209642507E+02  0.24511878179E+03  0.24866952539E+03  0.00000000000E+00 0.  1.
         21    1    1    2  505  503  0.19526055670E+03  0.28321486276E+02 -0.93990434254E+03  0.96039000656E+03  0.00000000000E+00 0. -1.
          1    1    1    2  501    0 -0.14790621526E+03  0.48985380733E+01 -0.19591292604E+03  0.24552417147E+03  0.00000000000E+00 0. -1.
<scales pt_clust_3="55.20082" pt_clust_4="41.87261" pt_clust_5="14000.00000" pt_clust_6="182.37366"></scales>
<clustering>
<clus scale="   41.873">  1  4  2 -1</clus>
<clus scale="   55.201">  1  3  2 -1</clus>
<clus scale="  182.374">  1  6  2 -1</clus>
<clus scale="   41.873">  1  3  2 -1</clus>
</clustering>
</event>
<event>
 6    0  0.5775861E+002  0.7157156E+02  0.7546771E-02  0.1354829E+00
         21   -1    0    0  504  502  0.00000000000E+00  0.00000000000E+00  0.13234073839E+04  0.13234073839E+04  0.00000000000E+00 0.  1.
          1   -1    0    0  505    0 -0.00000000000E+00 -0.00000000000E+00 -0.42065104481E+03  0.42065104481E+03  0.00000000000E+00 0.  1.
         21    1    1    2  503  502 -0.35179739859E+02  0.20662964451E+02  0.41085461536E+03  0.41287538939E+03  0.00000000000E+00 0.  1.
         21    1    1    2  504  501 -0.28455053464E+02 -0.16689103699E+02  0.48799638522E+02  0.58903488605E+02  0.00000000000E+00 0. -1.
         21    1    1    2  505  503  0.10726071087E+03  0.52601027111E+02  0.85040673506E+03  0.85875685918E+03  0.00000000000E+00 0.  1.
          1    1    1    2  501    0 -0.43625917550E+02 -0.56574887862E+02 -0.40730464986E+03  0.41352269154E+03  0.00000000000E+00 0.  1.
<scales pt_clust_3="46.95598" pt_clust_4="32.98812" pt_clust_5="71.57156" pt_clust_6="14000.00000"></scales>
<clustering>
<clus scale="   32.988">  1  4  2 -1</clus>
<clus scale="   46.956">  1  3  2 -1</clus>
<clus scale="   71.572">  1  5  2 -1</clus>
<clus scale="   32.988">  1  3  2 -1</clus>
</clustering>
</event>
<event>
 6    0  0.5775861E+002  0.1262984E+03  0.7546771E-02  0.1233054E+00
          1   -1    0    0  505    0 -0.00000000000E+00  0.00000000000E+00  0.14824458310E+04  0.14824458310E+04  0.00000000000E+00 0. -1.
         21   -1    0    0  504  502  0.00000000000E+00 -0.00000000000E+00 -0.55291926509E+02  0.55291926509E+02  0.00000000000E+00 0. -1.
         21    1    1    2  503  502 -0.60657472034E+01  0.33035030669E+02  0.30537887396E+02  0.45394593368E+02  0.00000000000E+00 0.  1.
         21    1    1    2  504  501  0.27323890397E+02 -0.16379938296E+03  0.12993497356E+03  0.21085523517E+03  0.00000000000E+00 0. -1.
         21    1    1    2  505  503 -0.10345377577E+02  0.93535596035E+02  0.30878545892E+03  0.32280705414E+03  0.00000000000E+00 0.  1.
          1    1    1    2  501    0 -0.10912765616E+02  0.37228756253E+02  0.95789558463E+03  0.95868087485E+03  0.00000000000E+00 0. -1.
<scales pt_clust_3="33.58730" pt_clust_4="14000.00000" pt_clust_5="126.29837" pt_clust_6="39.06928"></scales>
<clustering>
<clus scale="   33.587">  2  3  1 -1</clus>
<clus scale="   39.069">  1  6  2 -1</clus>
<clus scale="  126.298">  1  5  2 -1</clus>
<clus scale="   33.587">  2  3  1 -1</clus>
</clustering>
</event>
<event>
 6    0  0.5775861E+002  0.1202475E+03  0.7546771E-02  0.1242689E+00
          2   -1    0    0  504    0 -0.00000000000E+00  0.00000000000E+00  0.21948039185E+04  0.21948039185E+04  0.00000000000E+00 0.  1.
         21   -1    0    0  503  502  0.00000000000E+00 -0.00000000000E+00 -0.22038478034E+03  0.22038478034E+03  0.00000000000E+00 0.  1.
         21    1    1    2  503  501  0.14646927054E+02  0.75950746270E+02 -0.19848721011E+03  0.21302633853E+03  0.00000000000E+00 0.  1.
         21    1    1    2  504  505  0.15648628271E+02 -0.55030462061E+02  0.28440277056E+03  0.29010027098E+03  0.00000000000E+00 0.  1.
         21    1    1    2  505  502  0.11520017812E+02  0.43995394730E+02  0.36139666184E+02  0.58089422787E+02  0.00000000000E+00 0.  1.
          2    1    1    2  501    0 -0.41815573137E+02 -0.64915678939E+02  0.18523639115E+04  0.18539726665E+04  0.00000000000E+00 0.  1.
<scales pt_clust_3="120.24753" pt_clust_4="56.68022" pt_clust_5="45.47863" pt_clust_6="14000.00000"></scales>
<clustering>
<clus scale="   45.479">  2  5  1 -1</clus>
<clus scale="   56.680">  1  4  2 -1</clus>
<clus scale="  120.248">  2  3  1 -1</clus>
<clus scale="   45.479">  2  3  1 -1</clus>
</clustering>
</event>
<event>
 6    0  0.5775861E+002  0.6700390E+02  0.7546771E-02  0.1370588E+00
          1   -1    0    0  503    0 -0.00000000000E+00  0.00000000000E+00  0.16451688137E+04  0.16451688137E+04  0.00000000000E+00 0.  1.
         21   -1    0    0  504  502  0.00000000000E+00 -0.00000000000E+00 -0.21075150707E+03  0.21075150707E+03  0.00000000000E+00 0. -1.
         21    1    1    2  503  502  0.20527611643E+02 -0.24398499235E+02 -0.90218363149E+02  0.95687108087E+02  0.00000000000E+00 0. -1.
         21    1    1    2  504  505 -0.40556347474E+02  0.69460921093E+02 -0.73353951401E+02  0.10885972196E+03  0.00000000000E+00 0. -1.
         21    1    1    2  505  501 -0.41338041532E+02 -0.71947724488E+02  0.40304779693E+02  0.92248490518E+02  0.00000000000E+00 0. -1.
          1    1    1    2  501    0  0.61366777362E+02  0.26885302630E+02  0.15576848415E+04  0.15591250003E+04  0.00000000000E+00 0.  1.
<scales pt_clust_3="31.88526" pt_clust_4="56.28979" pt_clust_5="67.00390" pt_clust_6="14000.00000"></scales>
<clustering>
<clus scale="   31.885">  2  3  1 -1</clus>
<clus scale="   56.290">  2  4  1 -1</clus>
<clus scale="   67.004">  2  5  1 -1</clus>
<clus scale="   31.885">  2  3  1 -1</clus>
</clustering>
</event>
<event>
 6    0  0.5775861E+002  0.1008955E+03  0.7546771E-02  0.1278424E+00
         21   -1    0    0  504  502  0.00000000000E+00  0.00000000000E+00  0.38234163039E+03  0.38234163039E+03  0.00000000000E+00 0.  1.
         -2   -1    0    0    0  501 -0.00000000000E+00 -0.00000000000E+00 -0.25086465556E+03  0.25086465556E+03  0.00000000000E+00 0.  1.
         21    1    1    2  503  502 -0.18362228968E+02 -0.39259733439E+02 -0.26449122501E+02  0.50774542868E+02  0.00000000000E+00 0.  1.
         21    1    1    2  504  505  0.68089304834E+02 -0.69542691540E+02  0.24237013530E+03  0.26118120504E+03  0.00000000000E+00 0.  1.
         21    1    1    2  505  501 -0.18265275911E+02  0.13613134466E+03  0.74969817247E+02  0.15647950920E+03  0.00000000000E+00 0.  1.
         -2    1    1    2    0  503 -0.31461799954E+02 -0.27328919678E+02 -0.15941385522E+03  0.16477102883E+03  0.00000000000E+00 0.  1.
<scales pt_clust_3="60.35693" pt_clust_4="14000.00000" pt_clust_5="100.89547" pt_clust_6="41.67391"></scales>
<clustering>
<clus scale="   41.674">  2  6  1 -1</clus>
<clus scale="   60.357">  2  3  1 -1</clus>
<clus scale="  100.895">  2  5  1 -1</clus>
<clus scale="  100.895">  1  3  2 -1</clus>
</clustering>
</event>
<event>
 6    0  0.5775861E+002  0.9476224E+02  0.7546771E-02  0.1291712E+00
          2   -1    0    0  505    0 -0.00000000000E+00  0.00000000000E+00  0.22678579170E+04  0.22678579170E+04  0.00000000000E+00 0. -1.
         21   -1    0    0  504  502  0.00000000000E+00 -0.00000000000E+00 -0.72390241598E+03  0.72390241598E+03  0.00000000000E+00 0. -1.
         21    1    1    2  503  502 -0.37851662787E+02 -0.87877625378E+01 -0.13943449329E+03  0.14474788795E+03  0.00000000000E+00 0. -1.
         21    1    1    2  504  501 -0.40362410218E+02  0.11053993802E+03 -0.52805002830E+03  0.54100372868E+03  0.00000000000E+00 0. -1.
         21    1    1    2  505  503 -0.14791146386E+02 -0.83260317120E+02 -0.76356111628E+01  0.84907955906E+02  0.00000000000E+00 0. -1.
          2    1    1    2  501    0  0.93005219390E+02 -0.18491858364E+02  0.22190756338E+04  0.22211007605E+04  0.00000000000E+00 0. -1.
<scales pt_clust_3="38.85837" pt_clust_4="14000.00000" pt_clust_5="85.82566" pt_clust_6="94.76224"></scales>
<clustering>
<clus scale="   38.858">  2  3  1 -1</clus>
<clus scale="   85.826">  2  5  1 -1</clus>
<clus scale="   94.762">  1  6  2 -1</clus>
<clus scale="   38.858">  2  3  1 -1</clus>
</clustering>
</event>
<event>
 6    0  0.5775861E+002  0.7468217E+02  0.7546771E-02  0.1344858E+00
          2   -1    0    0  502    0 -0.00000000000E+00  0.00000000000E+00  0.44305635150E+03  0.44305635150E+03  0.00000000000E+00 0. -1.
         21   -1    0    0  505  502  0.00000000000E+00 -0.00000000000E+00 -0.29419332641E+03  0.29419332641E+03  0.00000000000E+00 0.  1.
         21    1    1    2  503  504 -0.74748477941E+02  0.26583596451E+02 -0.21762683855E+03  0.23163648981E+03  0.00000000000E+00 0.  1.
         21    1    1    2  504  501  0.83634121416E+02 -0.20047686131E+02  0.59069920954E+01  0.86205965802E+02  0.00000000000E+00 0. -1.
         21    1    1    2  505  503  0.31900497142E+02  0.35557928740E+02 -0.60202438600E+01  0.48148222712E+02  0.00000000000E+00 0. -1.
          2    1    1    2  501    0 -0.40786140618E+02 -0.42093839060E+02  0.36660311540E+03  0.37125899959E+03  0.00000000000E+00 0. -1.
<scales pt_clust_3="14000.00000" pt_clust_4="74.68217" pt_clust_5="47.77037" pt_clust_6="58.19626"></scales>
<clustering>
<clus scale="   47.770">  2  5  1 -1</clus>
<clus scale="   58.196">  1  6  2 -1</clus>
<clus scale="   74.682">  1  4  2 -1</clus>
<clus scale="   47.770">  2  3  1 -1</clus>
</clustering>
</event>
<event>
 6    0  0.5775861E+002  0.1525009E+03  0.7546771E-02  0.1197433E+00
         21   -1    0    0  503  502  0.00000000000E+00  0.00000000000E+00  0.14075199147E+04  0.14075199147E+04  0.00000000000E+00 0. -1.
          2   -1    0    0  505    0 -0.00000000000E+00 -0.00000000000E+00 -0.43861884530E+03  0.43861884530E+03  0.00000000000E+00 0.  1.
         21    1    1    2  503  501  0.33672850427E+02 -0.16696642671E+03  0.74857672897E+02  0.18605192742E+03  0.00000000000E+00 0.  1.
         21    1    1    2  504  502  0.29265641785E+02 -0.28484795893E+02  0.11767239163E+04  0.11774323915E+04  0.00000000000E+00 0. -1.
         21    1    1    2  505  504 -0.87102805169E+01  0.54872909391E+02  0.75692326869E+02  0.93894800274E+02  0.00000000000E+00 0.  1.
          2    1    1    2  501    0 -0.54228211695E+02  0.14057831321E+03 -0.35837284666E+03  0.38875964080E+03  0.00000000000E+00 0.  1.
<scales pt_clust_3="152.50088" pt_clust_4="40.83946" pt_clust_5="44.43931" pt_clust_6="14000.00000"></scales>
<clustering>
<clus scale="   40.839">  1  4  2 -1</clus>
<clus scale="   44.439">  1  5  2 -1</clus>
<clus scale="  152.501">  1  3  2 -1</clus>
<clus scale="   40.839">  1  3  2 -1</clus>
</clustering>
</event>
<event>
 6    0  0.5775861E+002  0.1749290E+03  0.7546771E-02  0.1172803E+00
         21   -1    0    0  504  502  0.00000000000E+00  0.00000000000E+00  0.39729644510E+03  0.39729644510E+03  0.00000000000E+00 0.  1.
          2   -1    0    0  503    0 -0.00000000000E+00 -0.00000000000E+00 -0.34128414630E+03  0.34128414630E+03  0.00000000000E+00 0.  1.
         21    1    1    2  503  505 -0.18236965117E+03  0.39112933125E+02 -0.23347581120E+03  0.29883016183E+03  0.00000000000E+00 0.  1.
         21    1    1    2  504  501  0.10105294921E+03  0.23985894379E+02  0.12686981828E+03  0.16396027709E+03  0.00000000000E+00 0.  1.
         21    1    1    2  505  502 -0.27659478601E+02  0.44347146163E+02  0.95109302305E+02  0.10852417018E+03  0.00000000000E+00 0. -1.
          2    1    1    2  501    0  0.10897618056E+03 -0.10744597367E+03  0.67508989407E+02  0.16726598231E+03  0.00000000000E+00 0.  1.
<scales pt_clust_3="174.92901" pt_clust_4="98.71426" pt_clust_5="52.26582" pt_clust_6="14000.00000"></scales>
<clustering>
<clus scale="   52.266">  1  5  2 -1</clus>
<clus scale="   98.714">  1  4  2 -1</clus>
<clus scale="  174.929">  2  3  1 -1</clus>
<clus scale="   52.266">  1  3  2 -1</clus>
</clustering>
</event>
<event>
 6    0  0.5775861E+002  0.2085455E+03  0.7546771E-02  0.1142723E+00
         21   -1    0    0  503  502  0.00000000000E+00  0.00000000000E+00  0.16119300060E+03  0.16119300060E+03  0.00000000000E+00 0. -1.
          2   -1    0    0  502    0 -0.00000000000E+00 -0.00000000000E+00 -0.14336967433E+04  0.14336967433E+04  0.00000000000E+00 0.  1.
         21    1    1    2  503  505  0.37571144973E+02  0.72314581018E+02 -0.12691025027E+02  0.82474551703E+02  0.00000000000E+00 0.  1.
         21    1    1    2  504  501  0.49628750148E+02 -0.16234231487E+03 -0.29464501468E+03  0.34004959155E+03  0.00000000000E+00 0. -1.
         21    1    1    2  505  504 -0.12841008943E+03  0.15848349503E+03 -0.80088581358E-01  0.20397591935E+03  0.00000000000E+00 0. -1.
          2    1    1    2  501    0  0.41210194306E+02 -0.68455761178E+02 -0.96508761439E+03  0.96838968128E+03  0.00000000000E+00 0.  1.
<scales pt_clust_3="77.54967" pt_clust_4="14000.00000" pt_clust_5="208.54550" pt_clust_6="79.90289"></scales>
<clustering>
<clus scale="   79.903">  2  6  1 -1</clus>
<clus scale="   77.550">  1  3  2 -1</clus>
<clus scale="  208.546">  1  5  2 -1</clus>
<clus scale="   77.550">  1  3  2 -1</clus>
</clustering>
</event>
<event>
 6    0  0.5775861E+002  0.1303461E+03  0.7546771E-02  0.1226943E+00
         21   -1    0    0  503  502  0.00000000000E+00  0.00000000000E+00  0.70947356505E+03  0.70947356505E+03  0.00000000000E+00 0. -1.
         -2   -1    0    0    0  501 -0.00000000000E+00 -0.00000000000E+00 -0.38174415102E+03  0.38174415102E+03  0.00000000000E+00 0. -1.
         21    1    1    2  503  501 -0.23013893828E+02 -0.97385154036E+02 -0.39824024750E+02  0.10770079147E+03  0.00000000000E+00 0.  1.
         21    1    1    2  504  502  0.41089259733E+02  0.43995860668E+02  0.47730591750E+03  0.48108720821E+03  0.00000000000E+00 0. -1.
         21    1    1    2  505  504  0.17246095085E+02  0.10412725505E+03  0.17863739938E+03  0.20748791169E+03  0.00000000000E+00 0. -1.
         -2    1    1    2    0  505 -0.35321460990E+02 -0.50737961680E+02 -0.28838987811E+03  0.29494180470E+03  0.00000000000E+00 0. -1.
<scales pt_clust_3="14000.00000" pt_clust_4="60.19936" pt_clust_5="130.34607" pt_clust_6="60.97436"></scales>
<clustering>
<clus scale="   60.199">  1  4  2 -1</clus>
<clus scale="   60.974">  2  6  1 -1</clus>
<clus scale="  130.346">  1  5  2 -1</clus>
<clus scale="   60.199">  1  3  2 -1</clus>
</clustering>
</event>
<event>
 6    0  0.5775861E+002  0.1183406E+03  0.7546771E-02  0.1245860E+00
          1   -1    0    0  504    0 -0.00000000000E+00  0.00000000000E+00  0.18602452855E+04  0.18602452855E+04  0.00000000000E+00 0.  1.
         21   -1    0    0  505  502  0.00000000000E+00 -0.00000000000E+00 -0.10273630062E+04  0.10273630062E+04  0.00000000000E+00 0.  1.
         21    1    1    2  503  501  0.55039356955E+02 -0.62992940159E+01 -0.98633464573E+01  0.56269863359E+02  0.00000000000E+00 0.  1.
         21    1    1    2  504  502 -0.25865320775E+02  0.89573802684E+02 -0.16927206235E+03  0.19324986944E+03  0.00000000000E+00 0. -1.
         21    1    1    2  505  503  0.49779083389E+02  0.58566547225E+01 -0.81031813761E+03  0.81186682509E+03  0.00000000000E+00 0.  1.
          1    1    1    2  501    0 -0.78953119568E+02 -0.89131163390E+02  0.18223358258E+04  0.18262217339E+04  0.00000000000E+00 0.  1.
<scales pt_clust_3="62.88293" pt_clust_4="14000.00000" pt_clust_5="50.12243" pt_clust_6="118.34060"></scales>
<clustering>
<clus scale="   50.122">  2  5  1 -1</clus>
<clus scale="   62.883">  2  3  1 -1</clus>
<clus scale="  118.341">  1  6  2 -1</clus>
<clus scale="   50.122">  2  3  1 -1</clus>
</clustering>
</event>
<event>
 6    0  0.5775861E+002  0.4369374E+03  0.7546771E-02  0.1031691E+00
          1   -1    0    0  504    0 -0.00000000000E+00  0.00000000000E+00  0.13379508378E+04  0.13379508378E+04  0.00000000000E+00 0.  1.
         21   -1    0    0  503  502  0.00000000000E+00 -0.00000000000E+00 -0.84994666152E+03  0.84994666152E+03  0.00000000000E+00 0.  1.
         21    1    1    2  503  501 -0.87152527185E+02  0.12316061960E+03  0.52014350309E+02  0.15959196049E+03  0.00000000000E+00 0. -1.
         21    1    1    2  504  505  0.26692243749E+03 -0.54346725408E+03  0.93804930111E+03  0.11164858867E+04  0.00000000000E+00 0.  1.
         21    1    1    2  505  502 -0.14436602830E+03  0.40138099182E+03 -0.63946117189E+03  0.76867342940E+03  0.00000000000E+00 0.  1.
          1    1    1    2  501    0 -0.35403882003E+02  0.18925642655E+02  0.13740169675E+03  0.14314622273E+03  0.00000000000E+00 0.  1.
<scales pt_clust_3="154.05732" pt_clust_4="436.93743" pt_clust_5="14000.00000" pt_clust_6="40.14492"></scales>
<clustering>
<clus scale="   40.145">  1  6  2 -1</clus>
<clus scale="  154.057">  1  3  2 -1</clus>
<clus scale="  436.937">  1  4  2 -1</clus>
<clus scale="  436.937">  2  3  1 -1</clus>
</clustering>
</event>
<event>
 6    0  0.5775861E+002  0.8919329E+02  0.7546771E-02  0.1304817E+00
         21   -1    0    0  505  502  0.00000000000E+00  0.00000000000E+00  0.32648802384E+03  0.32648802384E+03  0.00000000000E+00 0. -1.
          1   -1    0    0  504    0 -0.00000000000E+00 -0.00000000000E+00 -0.21375345049E+04  0.21375345049E+04  0.00000000000E+00 0.  1.
         21    1    1    2  503  501  0.15589542798E+02 -0.41403490348E+02 -0.11926427876E+04  0.11934630709E+04  0.00000000000E+00 0.  1.
         21    1    1    2  504  502 -0.24039916329E+02 -0.69408076879E+02 -0.37457580927E+02  0.82452829436E+02  0.00000000000E+00 0. -1.
         21    1    1    2  505  503 -0.32096881282E+02  0.12743896527E+03  0.28877997727E+03  0.31727712639E+03  0.00000000000E+00 0. -1.
          1    1    1    2  501    0  0.40547254814E+02 -0.16627398046E+02 -0.86972608980E+03  0.87082950198E+03  0.00000000000E+00 0.  1.
<scales pt_clust_3="37.49844" pt_clust_4="73.45338" pt_clust_5="80.84508" pt_clust_6="37.49844"></scales>
<clustering>
<clus scale="   37.498">  3  6 -1 -1</clus>
<clus scale="   73.453">  1  4  2 -1</clus>
<clus scale="   80.845">  1  5  2 -1</clus>
<clus scale="   73.453">  1  3  2 -1</clus>
</clustering>
</event>
<event>
 6    0  0.5775861E+002  0.1448421E+03  0.7546771E-02  0.1206958E+00
         21   -1    0    0  503  502  0.00000000000E+00  0.00000000000E+00  0.28312338454E+03  0.28312338454E+03  0.00000000000E+00 0.  1.
         -1   -1    0    0    0  501 -0.00000000000E+00 -0.00000000000E+00 -0.12791453321E+04  0.12791453321E+04  0.00000000000E+00 0. -1.
         21    1    1    2  503  501  0.15098521019E+03  0.11929377102E+03  0.80569726960E+02  0.20861212430E+03  0.00000000000E+00 0.  1.
         21    1    1    2  504  502 -0.92553676701E+01 -0.11692200322E+03  0.61438779793E+02  0.13240521263E+03  0.00000000000E+00 0. -1.
         21    1    1    2  505  504 -0.87147433500E+02 -0.13988988763E+03 -0.15207247304E+03  0.22425408108E+03  0.00000000000E+00 0.  1.
         -1    1    1    2    0  505 -0.54582409023E+02  0.13751811983E+03 -0.98595798122E+03  0.99699729859E+03  0.00000000000E+00 0. -1.
<scales pt_clust_3="144.05506" pt_clust_4="117.28775" pt_clust_5="14000.00000" pt_clust_6="144.84213"></scales>
<clustering>
<clus scale="  117.288">  1  4  2 -1</clus>
<clus scale="  144.842">  2  6  1 -1</clus>
<clus scale="  144.055">  1  3  2 -1</clus>
<clus scale="  117.288">  1  3  2 -1</clus>
</clustering>
</event>
<event>
 6    0  0.7478719E+002  0.8569406E+02  0.7546771E-02  0.1313627E+00
         21   -1    0    0  503  502  0.00000000000E+00  0.00000000000E+00  0.34232699001E+03  0.34232699001E+03  0.00000000000E+00 0.  1.
         -4   -1    0    0    0  501 -0.00000000000E+00 -0.00000000000E+00 -0.52073888130E+03  0.52073888130E+03  0.00000000000E+00 0. -1.
         21    1    1    2  503  505  0.34549727849E+02  0.40512142813E+02  0.39166939839E+02  0.66098158720E+02  0.00000000000E+00 0. -1.
         21    1    1    2  504  502 -0.55946304828E+01 -0.51238145752E+02 -0.56621718408E+01  0.51852749785E+02  0.00000000000E+00 0.  1.
         21    1    1    2  505  501  0.55744375587E+02  0.26095211521E+02  0.25909303273E+03  0.26630357692E+03  0.00000000000E+00 0.  1.
         -4    1    1    2    0  504 -0.84699472953E+02 -0.15369208583E+02 -0.47100969201E+03  0.47881138589E+03  0.00000000000E+00 0. -1.
<scales pt_clust_3="46.46420" pt_clust_4="51.54268" pt_clust_5="85.69406" pt_clust_6="14000.00000"></scales>
<clustering>
<clus scale="   51.543">  1  4  2 -1</clus>
<clus scale="   46.464">  1  3  2 -1</clus>
<clus scale="   85.694">  1  5  2 -1</clus>
<clus scale="   51.543">  1  3  2 -1</clus>
</clustering>
</event>
<event>
 6    0  0.5775861E+002  0.8597810E+02  0.7546771E-02  0.1312894E+00
         21   -1    0    0  505  502  0.00000000000E+00  0.00000000000E+00  0.74986716916E+03  0.74986716916E+03  0.00000000000E+00 0. -1.
          2   -1    0    0  503    0 -0.00000000000E+00 -0.00000000000E+00 -0.17256617643E+03  0.17256617643E+03  0.00000000000E+00 0. -1.
         21    1    1    2  503  502  0.38357960694E+02 -0.68153265202E+02  0.52826187103E+03  0.53401948007E+03  0.00000000000E+00 0. -1.
         21    1    1    2  504  501 -0.39305359524E+01  0.59666366996E+02  0.65264557726E+02  0.88515461692E+02  0.00000000000E+00 0. -1.
         21    1    1    2  505  504  0.52347546840E+02  0.17644259925E+02  0.12342831533E+03  0.13522623486E+03  0.00000000000E+00 0. -1.
          2    1    1    2  501    0 -0.86774971582E+02 -0.91573617196E+01 -0.13965375136E+03  0.16467216898E+03  0.00000000000E+00 0. -1.
<scales pt_clust_3="14000.00000" pt_clust_4="61.90542" pt_clust_5="55.24116" pt_clust_6="85.97810"></scales>
<clustering>
<clus scale="   55.241">  1  5  2 -1</clus>
<clus scale="   61.905">  1  4  2 -1</clus>
<clus scale="   85.978">  2  6  1 -1</clus>
<clus scale="   55.241">  1  3  2 -1</clus>
</clustering>
</event>
<event>
 6    0  0.5775861E+002  0.8910991E+02  0.7546771E-02  0.1305022E+00
         21   -1    0    0  504  502  0.00000000000E+00  0.00000000000E+00  0.20496536396E+03  0.20496536396E+03  0.00000000000E+00 0. -1.
          1   -1    0    0  503    0 -0.00000000000E+00 -0.00000000000E+00 -0.82419437158E+03  0.82419437158E+03  0.00000000000E+00 0.  1.
         21    1    1    2  503  505 -0.46350640357E+02 -0.70283844263E+02 -0.15424350868E+03  0.17572495723E+03  0.00000000000E+00 0.  1.
         21    1    1    2  504  501  0.15840417395E+02  0.27388810252E+02  0.87897927086E+02  0.93419009502E+02  0.00000000000E+00 0. -1.
         21    1    1    2  505  502 -0.74390512976E+02  0.42431029233E+02  0.80780272687E+02  0.11772762258E+03  0.00000000000E+00 0. -1.
          1    1    1    2  501    0  0.10490073594E+03  0.46400477781E+00 -0.63366369872E+03  0.64228814622E+03  0.00000000000E+00 0.  1.
<scales pt_clust_3="81.22377" pt_clust_4="31.63962" pt_clust_5="89.10991" pt_clust_6="14000.00000"></scales>
<clustering>
<clus scale="   31.640">  1  4  2 -1</clus>
<clus scale="   81.224">  2  3  1 -1</clus>
<clus scale="   89.110">  1  5  2 -1</clus>
<clus scale="   31.640">  1  3  2 -1</clus>
</clustering>
</event>
<event>
 6    0  0.5775862E+002  0.8265519E+02  0.7546771E-02  0.1321681E+00
          1   -1    0    0  503    0 -0.00000000000E+00  0.00000000000E+00  0.49798391421E+03  0.49798391421E+03  0.00000000000E+00 0. -1.
         21   -1    0    0  505  502  0.00000000000E+00 -0.00000000000E+00 -0.86171663230E+03  0.86171663230E+03  0.00000000000E+00 0.  1.
         21    1    1    2  503  502 -0.32085457273E+02  0.32722803555E+02 -0.53829539115E+03  0.54024271080E+03  0.00000000000E+00 0.  1.
         21    1    1    2  504  501  0.73507812499E+02  0.28459355444E+02  0.24395576923E+03  0.25637423964E+03  0.00000000000E+00 0. -1.
         21    1    1    2  505  504 -0.23476597998E+02 -0.94358962260E+02 -0.30724251108E+03  0.32226188889E+03  0.00000000000E+00 0.  1.
          1    1    1    2  501    0 -0.17945757228E+02  0.33176803261E+02  0.23784941491E+03  0.24082170719E+03  0.00000000000E+00 0. -1.
<scales pt_clust_3="45.96507" pt_clust_4="14000.00000" pt_clust_5="82.65519" pt_clust_6="37.71936"></scales>
<clustering>
<clus scale="   37.719">  1  6  2 -1</clus>
<clus scale="   45.965">  2  3  1 -1</clus>
<clus scale="   82.655">  2  5  1 -1</clus>
<clus scale="   45.965">  2  3  1 -1</clus>
</clustering>
</event>
<event>
 6    0  0.5775861E+002  0.7179082E+02  0.7546771E-02  0.1354107E+00
         21   -1    0    0  503  502  0.00000000000E+00  0.00000000000E+00  0.12730544241E+04  0.12730544241E+04  0.00000000000E+00 0.  1.
          2   -1    0    0  505    0 -0.00000000000E+00 -0.00000000000E+00 -0.19430054851E+04  0.19430054851E+04  0.00000000000E+00 0.  1.
         21    1    1    2  503  504  0.13618514654E+02  0.39079531586E+02  0.12016336992E+04  0.12023461319E+04  0.00000000000E+00 0.  1.
         21    1    1    2  504  501  0.92739183450E+02 -0.26914317985E+02  0.84907242655E+01  0.96938274475E+02  0.00000000000E+00 0.  1.
         21    1    1    2  505  502 -0.37082152999E+02 -0.29739526394E+02 -0.14310106936E+02  0.49641763281E+02  0.00000000000E+00 0. -1.
          2    1    1    2  501    0 -0.69275545105E+02  0.17574312792E+02 -0.18657653775E+04  0.18671337396E+04  0.00000000000E+00 0.  1.
<scales pt_clust_3="41.38446" pt_clust_4="71.79082" pt_clust_5="39.19775" pt_clust_6="14000.00000"></scales>
<clustering>
<clus scale="   41.384">  1  3  2 -1</clus>
<clus scale="   39.198">  1  5  2 -1</clus>
<clus scale="   71.791">  1  4  2 -1</clus>
<clus scale="   41.384">  1  3  2 -1</clus>
</clustering>
</event>
<event>
 6    0  0.5775861E+002  0.9427408E+02  0.7546771E-02  0.1292819E+00
         21   -1    0    0  503  502  0.00000000000E+00  0.00000000000E+00  0.28307408054E+03  0.28307408054E+03  0.00000000000E+00 0.  1.
         -2   -1    0    0    0  501 -0.00000000000E+00 -0.00000000000E+00 -0.15491917610E+03  0.15491917610E+03  0.00000000000E+00 0.  1.
         21    1    1    2  503  505  0.15417578144E+02  0.29857508186E+02  0.16512271062E+03  0.16850721668E+03  0.00000000000E+00 0.  1.
         21    1    1    2  504  501  0.63675158716E+02 -0.68318697917E+02 -0.71567731071E+02  0.11766014811E+03  0.00000000000E+00 0.  1.
         21    1    1    2  505  504 -0.23856847031E+02 -0.41262631785E+02  0.26412095230E+02  0.54491767328E+02  0.00000000000E+00 0.  1.
         -2    1    1    2    0  502 -0.55235889828E+02  0.79723821516E+02  0.81878296579E+01  0.97334124524E+02  0.00000000000E+00 0.  1.
<scales pt_clust_3="33.60316" pt_clust_4="94.27408" pt_clust_5="35.98833" pt_clust_6="14000.00000"></scales>
<clustering>
<clus scale="   33.603">  1  3  2 -1</clus>
<clus scale="   35.988">  1  5  2 -1</clus>
<clus scale="   94.274">  2  4  1 -1</clus>
<clus scale="   33.603">  1  3  2 -1</clus>
</clustering>
</event>
<event>
 6    0  0.5775861E+002  0.1197100E+03  0.7546771E-02  0.1243576E+00
          3   -1    0    0  504    0 -0.00000000000E+00  0.00000000000E+00  0.55107294527E+03  0.55107294527E+03  0.00000000000E+00 0.  1.
         21   -1    0    0  503  502  0.00000000000E+00 -0.00000000000E+00 -0.24506207920E+03  0.24506207920E+03  0.00000000000E+00 0. -1.
         21    1    1    2  503  501 -0.99322565609E+01 -0.10462488989E+03  0.38706757807E+02  0.11199656426E+03  0.00000000000E+00 0. -1.
         21    1    1    2  504  505  0.30286820892E+02  0.12388436411E+03  0.16305486869E+03  0.20700608057E+03  0.00000000000E+00 0.  1.
         21    1    1    2  505  502  0.13553599389E+02 -0.28950114914E+02 -0.18398880178E+03  0.18674498224E+03  0.00000000000E+00 0. -1.
          3    1    1    2  501    0 -0.33908163720E+02  0.96906406936E+01  0.28823804136E+03  0.29038739740E+03  0.00000000000E+00 0.  1.
<scales pt_clust_3="119.70996" pt_clust_4="14000.00000" pt_clust_5="31.96575" pt_clust_6="34.89061"></scales>
<clustering>
<clus scale="   31.966">  2  5  1 -1</clus>
<clus scale="   34.891">  1  6  2 -1</clus>
<clus scale="  119.710">  2  3  1 -1</clus>
<clus scale="   31.966">  2  3  1 -1</clus>
</clustering>
</event>
<event>
 6    0  0.5775861E+002  0.1223911E+03  0.7546771E-02  0.1239204E+00
         21   -1    0    0  504  502  0.00000000000E+00  0.00000000000E+00  0.15703156475E+02  0.15703156475E+02  0.00000000000E+00 0. -1.
          2   -1    0    0  503    0 -0.00000000000E+00 -0.00000000000E+00 -0.15199819327E+04  0.15199819327E+04  0.00000000000E+00 0. -1.
         21    1    1    2  503  502  0.69833692906E+01  0.90680673456E+02 -0.48875846493E+03  0.49714845773E+03  0.00000000000E+00 0. -1.
         21    1    1    2  504  505 -0.11571155597E+02  0.40767640378E+02 -0.67009839033E+02  0.79285627141E+02  0.00000000000E+00 0. -1.
         21    1    1    2  505  501  0.19992268504E+01 -0.96947770161E+02 -0.49409320991E+03  0.50351858667E+03  0.00000000000E+00 0. -1.
          2    1    1    2  501    0  0.25885594562E+01 -0.34500543673E+02 -0.45441726235E+03  0.45573241763E+03  0.00000000000E+00 0. -1.
<scales pt_clust_3="108.57674" pt_clust_4="42.37797" pt_clust_5="33.74023" pt_clust_6="33.74023"></scales>
<clustering>
<clus scale="   33.740">  5  6 -1 -1</clus>
<clus scale="   42.378">  1  4  2 -1</clus>
<clus scale="  108.577">  2  3  1 -1</clus>
<clus scale="   42.378">  1  3  2 -1</clus>
</clustering>
</event>
<event>
 6    0  0.5775861E+002  0.8882183E+02  0.7546771E-02  0.1305730E+00
         21   -1    0    0  505  502  0.00000000000E+00  0.00000000000E+00  0.11705489834E+04  0.11705489834E+04  0.00000000000E+00 0.  1.
          1   -1    0    0  504    0 -0.00000000000E+00 -0.00000000000E+00 -0.20618538087E+03  0.20618538087E+03  0.00000000000E+00 0. -1.
         21    1    1    2  503  502 -0.31275583328E+02 -0.33406366532E+00  0.83923548269E+02  0.89562467949E+02  0.00000000000E+00 0. -1.
         21    1    1    2  504  503  0.54543377327E+02  0.19214227533E+02  0.54313852047E+02  0.79335749030E+02  0.00000000000E+00 0.  1.
         21    1    1    2  505  501  0.37989034288E+02  0.54732431179E+02  0.10037936405E+04  0.10060022259E+04  0.00000000000E+00 0.  1.
          1    1    1    2  501    0 -0.61256828287E+02 -0.73612595048E+02 -0.17766743834E+03  0.20183392135E+03  0.00000000000E+00 0. -1.
<scales pt_clust_3="31.27737" pt_clust_4="14000.00000" pt_clust_5="55.16030" pt_clust_6="88.82183"></scales>
<clustering>
<clus scale="   31.277">  1  3  2 -1</clus>
<clus scale="   55.160">  1  5  2 -1</clus>
<clus scale="   88.822">  2  6  1 -1</clus>
<clus scale="   31.277">  1  3  2 -1</clus>
</clustering>
</event>
<event>
 6    0  0.5775861E+002  0.8072734E+02  0.7546771E-02  0.1327000E+00
         21   -1    0    0  505  502  0.00000000000E+00  0.00000000000E+00  0.21735331869E+04  0.21735331869E+04  0.00000000000E+00 0. -1.
         -2   -1    0    0    0  501 -0.00000000000E+00 -0.00000000000E+00 -0.51427499256E+02  0.51427499256E+02  0.00000000000E+00 0. -1.
         21    1    1    2  503  502 -0.72688400419E+02  0.96837613135E+02  0.12123152658E+04  0.12183470075E+04  0.00000000000E+00 0. -1.
         21    1    1    2  504  501  0.36738146805E+02 -0.39831766320E+02  0.50408697942E+03  0.50699106882E+03  0.00000000000E+00 0. -1.
         21    1    1    2  505  504 -0.67831740179E+01 -0.30399641542E+02  0.43845944816E+03  0.43956437223E+03  0.00000000000E+00 0. -1.
         -2    1    1    2    0  503  0.42733427632E+02 -0.26606205272E+02 -0.32756005749E+02  0.60058237643E+02  0.00000000000E+00 0. -1.
<scales pt_clust_3="80.72734" pt_clust_4="14000.00000" pt_clust_5="31.14723" pt_clust_6="50.42087"></scales>
<clustering>
<clus scale="   31.147">  1  5  2 -1</clus>
<clus scale="   50.421">  2  6  1 -1</clus>
<clus scale="   80.727">  2  3  1 -1</clus>
<clus scale="   31.147">  1  3  2 -1</clus>
</clustering>
</event>
<event>
 6    0  0.5775861E+002  0.8422738E+02  0.7546771E-02  0.1317465E+00
         21   -1    0    0  501  502  0.00000000000E+00  0.00000000000E+00  0.24324592525E+03  0.24324592525E+03  0.00000000000E+00 0.  1.
          2   -1    0    0  505    0 -0.00000000000E+00 -0.00000000000E+00 -0.37061864758E+03  0.37061864758E+03  0.00000000000E+00 0.  1.
         21    1    1    2  503  504  0.99547599093E+02 -0.48909385185E+02  0.65259237127E+02  0.12868807433E+03  0.00000000000E+00 0.  1.
         21    1    1    2  504  502 -0.56623323262E+02 -0.10598710826E+02  0.10594718902E+03  0.12059577219E+03  0.00000000000E+00 0.  1.
         21    1    1    2  505  503  0.75579740860E+02  0.19702227996E+02 -0.74224014250E+02  0.10774822183E+03  0.00000000000E+00 0.  1.
          2    1    1    2  501    0 -0.11850401669E+03  0.39805868015E+02 -0.22435513423E+03  0.25683250447E+03  0.00000000000E+00 0.  1.
<scales pt_clust_3="14000.00000" pt_clust_4="57.60671" pt_clust_5="70.69640" pt_clust_6="84.22738"></scales>
<clustering>
<clus scale="   57.607">  1  4  2 -1</clus>
<clus scale="   70.696">  2  5  1 -1</clus>
<clus scale="   84.227">  2  6  1 -1</clus>
<clus scale="   57.607">  1  3  2 -1</clus>
</clustering>
</event>
<event>
 6    0  0.1098593E+003  0.2090315E+03  0.7546771E-02  0.1142335E+00
          1   -1    0    0  502    0 -0.00000000000E+00  0.00000000000E+00  0.61871473052E+03  0.61871473052E+03  0.00000000000E+00 0.  1.
         21   -1    0    0  503  502  0.00000000000E+00 -0.00000000000E+00 -0.29925134873E+04  0.29925134873E+04  0.00000000000E+00 0.  1.
         21    1    1    2  503  505 -0.74905341869E+01  0.71197683064E+02 -0.23669904651E+04  0.23680728621E+04  0.00000000000E+00 0.  1.
         21    1    1    2  504  501  0.51257250196E+02  0.26401873442E+02 -0.10957401500E+03  0.12381772645E+03  0.00000000000E+00 0. -1.
         21    1    1    2  505  504  0.11073004289E+03  0.28867999022E+02 -0.48514057845E+03  0.49845349295E+03  0.00000000000E+00 0.  1.
          1    1    1    2  501    0 -0.15449675890E+03 -0.12646755553E+03  0.58790630177E+03  0.62088413635E+03  0.00000000000E+00 0.  1.
<scales pt_clust_3="71.59063" pt_clust_4="46.22837" pt_clust_5="46.22837" pt_clust_6="198.62731"></scales>
<clustering>
<clus scale="   46.228">  4  5 -1 -1</clus>
<clus scale="   71.591">  2  3  1 -1</clus>
<clus scale="  198.627">  1  6  2 -1</clus>
<clus scale="   71.591">  2  3  1 -1</clus>
</clustering>
</event>
<event>
 6    0  0.5775861E+002  0.1181127E+03  0.7546771E-02  0.1246243E+00
         -3   -1    0    0    0  501 -0.00000000000E+00  0.00000000000E+00  0.39915424437E+03  0.39915424437E+03  0.00000000000E+00 0. -1.
         21   -1    0    0  503  502  0.00000000000E+00 -0.00000000000E+00 -0.61027712265E+03  0.61027712265E+03  0.00000000000E+00 0.  1.
         21    1    1    2  503  504 -0.49661304696E+02  0.16055540660E+01 -0.24476032240E+03  0.24975275456E+03  0.00000000000E+00 0.  1.
         21    1    1    2  504  501  0.85061741709E+01 -0.20749653693E+03 -0.16810169655E+03  0.26718036646E+03  0.00000000000E+00 0.  1.
         21    1    1    2  505  502  0.17248374322E+02  0.94102050206E+02 -0.11859760249E+03  0.15237484565E+03  0.00000000000E+00 0.  1.
         -3    1    1    2    0  505  0.23906756203E+02  0.11178893266E+03  0.32033674316E+03  0.34012340036E+03  0.00000000000E+00 0. -1.
<scales pt_clust_3="49.68725" pt_clust_4="118.11274" pt_clust_5="94.71001" pt_clust_6="14000.00000"></scales>
<clustering>
<clus scale="   49.687">  2  3  1 -1</clus>
<clus scale="   94.710">  2  5  1 -1</clus>
<clus scale="  118.113">  2  4  1 -1</clus>
<clus scale="   49.687">  2  3  1 -1</clus>
</clustering>
</event>
<event>
 6    0  0.5775861E+002  0.8702814E+02  0.7546771E-02  0.1310212E+00
         21   -1    0    0  503  502  0.00000000000E+00  0.00000000000E+00  0.32027835907E+03  0.32027835907E+03  0.00000000000E+00 0. -1.
         -1   -1    0    0    0  501 -0.00000000000E+00 -0.00000000000E+00 -0.61568068908E+03  0.61568068908E+03  0.00000000000E+00 0. -1.
         21    1    1    2  503  504  0.20424323995E+02  0.39306902860E+02  0.19663473534E+03  0.20156240910E+03  0.00000000000E+00 0. -1.
         21    1    1    2  504  501  0.57671387646E+02 -0.10894384372E+03 -0.64289464488E+02  0.13902476499E+03  0.00000000000E+00 0. -1.
         21    1    1    2  505  502 -0.50116019829E+02  0.43851855649E+02  0.69742221136E+02  0.96429135101E+02  0.00000000000E+00 0. -1.
         -1    1    1    2    0  505 -0.27979691813E+02  0.25785085207E+02 -0.49748982199E+03  0.49894273896E+03  0.00000000000E+00 0. -1.
<scales pt_clust_3="44.51255" pt_clust_4="87.02814" pt_clust_5="14000.00000" pt_clust_6="38.04910"></scales>
<clustering>
<clus scale="   38.049">  2  6  1 -1</clus>
<clus scale="   44.513">  1  3  2 -1</clus>
<clus scale="   87.028">  2  4  1 -1</clus>
<clus scale="   44.513">  1  3  2 -1</clus>
</clustering>
</event>
<event>
 6    0  0.5775861E+002  0.1071151E+03  0.7546771E-02  0.1266008E+00
         -4   -1    0    0    0  501 -0.00000000000E+00  0.00000000000E+00  0.45804144673E+03  0.45804144673E+03  0.00000000000E+00 0.  1.
         21   -1    0    0  505  502  0.00000000000E+00 -0.00000000000E+00 -0.71568340731E+03  0.71568340731E+03  0.00000000000E+00 0. -1.
         21    1    1    2  503  504 -0.98868707689E+02  0.14197783258E+03 -0.39951606653E+03  0.43536859524E+03  0.00000000000E+00 0. -1.
         21    1    1    2  504  502  0.20261717283E+02 -0.28194355838E+02 -0.14367732297E+03  0.14781282767E+03  0.00000000000E+00 0.  1.
         21    1    1    2  505  501 -0.19080343925E+02 -0.71436564218E+02 -0.13651583914E+03  0.15525403881E+03  0.00000000000E+00 0. -1.
         -4    1    1    2    0  503  0.97687334330E+02 -0.42346912529E+02  0.42206726806E+03  0.43528939231E+03  0.00000000000E+00 0.  1.
<scales pt_clust_3="14000.00000" pt_clust_4="34.71972" pt_clust_5="79.87112" pt_clust_6="107.11508"></scales>
<clustering>
<clus scale="   34.720">  2  4  1 -1</clus>
<clus scale="   79.871">  2  5  1 -1</clus>
<clus scale="  107.115">  1  6  2 -1</clus>
<clus scale="   34.720">  2  3  1 -1</clus>
</clustering>
</event>
<event>
 6    0  0.5775861E+002  0.1175818E+03  0.7546771E-02  0.1247140E+00
          2   -1    0    0  503    0 -0.00000000000E+00  0.00000000000E+00  0.19829577093E+04  0.19829577093E+04  0.00000000000E+00 0. -1.
         21   -1    0    0  504  502  0.00000000000E+00 -0.00000000000E+00 -0.74354181456E+02  0.74354181456E+02  0.00000000000E+00 0. -1.
         21    1    1    2  503  502 -0.20422381631E+02 -0.41793434344E+02 -0.12228210878E+02  0.48096714721E+02  0.00000000000E+00 0.  1.
         21    1    1    2  504  505 -0.11295146366E+03  0.52190091205E+02  0.66947644722E+02  0.14129340358E+03  0.00000000000E+00 0. -1.
         21    1    1    2  505  501  0.91445177680E+02  0.17293166723E+02  0.32111609539E+03  0.33433040671E+03  0.00000000000E+00 0.  1.
          2    1    1    2  501    0  0.41928667607E+02 -0.27689823584E+02  0.15327679986E+04  0.15335913657E+04  0.00000000000E+00 0. -1.
<scales pt_clust_3="46.51629" pt_clust_4="117.58184" pt_clust_5="14000.00000" pt_clust_6="50.30442"></scales>
<clustering>
<clus scale="   46.516">  2  3  1 -1</clus>
<clus scale="   50.304">  1  6  2 -1</clus>
<clus scale="  117.582">  2  4  1 -1</clus>
<clus scale="   46.516">  2  3  1 -1</clus>
</clustering>
</event>
<event>
 6    0  0.5775861E+002  0.9489638E+02  0.7546771E-02  0.1291410E+00
          1   -1    0    0  504    0 -0.00000000000E+00  0.00000000000E+00  0.68154890542E+03  0.68154890542E+03  0.00000000000E+00 0.  1.
         21   -1    0    0  503  502  0.00000000000E+00 -0.00000000000E+00 -0.11738966835E+03  0.11738966835E+03  0.00000000000E+00 0. -1.
         21    1    1    2  503  505  0.61632609823E+02 -0.73084067797E+02 -0.67369367511E+02  0.11695508214E+03  0.00000000000E+00 0. -1.
         21    1    1    2  504  502 -0.18874953146E+02  0.89797430906E+02  0.47268296420E+03  0.48150703744E+03  0.00000000000E+00 0.  1.
         21    1    1    2  505  501 -0.77685463294E+02 -0.14755519557E+02  0.72367321009E+02  0.10719041802E+03  0.00000000000E+00 0. -1.
          1    1    1    2  501    0  0.34927806617E+02 -0.19578435527E+01  0.86478319367E+02  0.93286036184E+02  0.00000000000E+00 0.  1.
<scales pt_clust_3="94.89638" pt_clust_4="14000.00000" pt_clust_5="73.93409" pt_clust_6="34.98264"></scales>
<clustering>
<clus scale="   34.983">  1  6  2 -1</clus>
<clus scale="   73.934">  1  5  2 -1</clus>
<clus scale="   94.896">  2  3  1 -1</clus>
<clus scale="   94.896">  2  3  1 -1</clus>
</clustering>
</event>
<event>
 6    0  0.5775861E+002  0.9944640E+02  0.7546771E-02  0.1281464E+00
         21   -1    0    0  501  502  0.00000000000E+00  0.00000000000E+00  0.18930664286E+03  0.18930664286E+03  0.00000000000E+00 0. -1.
          1   -1    0    0  505    0 -0.00000000000E+00 -0.00000000000E+00 -0.19952386110E+04  0.19952386110E+04  0.00000000000E+00 0.  1.
         21    1    1    2  503  502  0.79566684291E+02  0.35970906926E+01  0.12529969001E+03  0.14847157514E+03  0.00000000000E+00 0. -1.
         21    1    1    2  504  503 -0.30737466561E+02  0.87278632712E+02 -0.10202000060E+01  0.92538599442E+02  0.00000000000E+00 0.  1.
         21    1    1    2  505  504  0.40826057570E+02  0.34123476657E+01 -0.91818438667E+02  0.10054370578E+03  0.00000000000E+00 0.  1.
          1    1    1    2  501    0 -0.89655275299E+02 -0.94288071070E+02 -0.18383930195E+04  0.18429913735E+04  0.00000000000E+00 0.  1.
<scales pt_clust_3="79.89771" pt_clust_4="99.44640" pt_clust_5="40.96842" pt_clust_6="14000.00000"></scales>
<clustering>
<clus scale="   40.968">  2  5  1 -1</clus>
<clus scale="   79.898">  1  3  2 -1</clus>
<clus scale="   99.446">  1  4  2 -1</clus>
<clus scale="   79.898">  1  3  2 -1</clus>
</clustering>
</event>
<event>
 6    0  0.5775861E+002  0.1064992E+03  0.7546771E-02  0.1267194E+00
         21   -1    0    0  503  502  0.00000000000E+00  0.00000000000E+00  0.63594036061E+03  0.63594036061E+03  0.00000000000E+00 0. -1.
          2   -1    0    0  504    0 -0.00000000000E+00 -0.00000000000E+00 -0.68833824842E+03  0.68833824842E+03  0.00000000000E+00 0.  1.
         21    1    1    2  503  501  0.73181189998E+02 -0.33492654295E+01  0.27687645853E+02  0.78315451102E+02  0.00000000000E+00 0. -1.
         21    1    1    2  504  505 -0.15494716212E+03 -0.11404123330E+03 -0.22838489739E+03  0.29861963650E+03  0.00000000000E+00 0. -1.
         21    1    1    2  505  502  0.16662261250E+02  0.50404740083E+02  0.54104450032E+03  0.54364273204E+03  0.00000000000E+00 0. -1.
          2    1    1    2  501    0  0.65103710877E+02  0.66985758648E+02 -0.39274513660E+03  0.40370078939E+03  0.00000000000E+00 0.  1.
<scales pt_clust_3="86.37262" pt_clust_4="106.49919" pt_clust_5="53.08737" pt_clust_6="14000.00000"></scales>
<clustering>
<clus scale="   53.087">  1  5  2 -1</clus>
<clus scale="   86.373">  1  3  2 -1</clus>
<clus scale="  106.499">  1  4  2 -1</clus>
<clus scale="   53.087">  1  3  2 -1</clus>
</clustering>
</event>
<event>
 6    0  0.5775861E+002  0.9637751E+02  0.7546771E-02  0.1288103E+00
          2   -1    0    0  504    0 -0.00000000000E+00  0.00000000000E+00  0.60411155982E+03  0.60411155982E+03  0.00000000000E+00 0.  1.
         21   -1    0    0  505  502  0.00000000000E+00 -0.00000000000E+00 -0.10784284179E+04  0.10784284179E+04  0.00000000000E+00 0. -1.
         21    1    1    2  503  502 -0.15792440144E+03 -0.17812482219E+02  0.66602183525E+02  0.17231730019E+03  0.00000000000E+00 0.  1.
         21    1    1    2  504  503  0.28919080700E+02  0.30211163156E+02  0.33353401556E+02  0.53492775242E+02  0.00000000000E+00 0.  1.
         21    1    1    2  505  501  0.74145663536E+02 -0.16483299691E+02 -0.10123582316E+04  0.10152036582E+04  0.00000000000E+00 0. -1.
          2    1    1    2  501    0  0.54859657208E+02  0.40846187539E+01  0.43808578848E+03  0.44152624403E+03  0.00000000000E+00 0.  1.
<scales pt_clust_3="14000.00000" pt_clust_4="41.82138" pt_clust_5="76.01082" pt_clust_6="96.37751"></scales>
<clustering>
<clus scale="   41.821">  1  4  2 -1</clus>
<clus scale="   76.011">  2  5  1 -1</clus>
<clus scale="   96.378">  1  6  2 -1</clus>
<clus scale="   76.011">  2  3  1 -1</clus>
</clustering>
</event>
<event>
 6    0  0.5775861E+002  0.1212657E+03  0.7546771E-02  0.1241024E+00
          2   -1    0    0  503    0 -0.00000000000E+00  0.00000000000E+00  0.30642878992E+03  0.30642878992E+03  0.00000000000E+00 0. -1.
         21   -1    0    0  505  502  0.00000000000E+00 -0.00000000000E+00 -0.42161040733E+03  0.42161040733E+03  0.00000000000E+00 0.  1.
         21    1    1    2  503  504 -0.59831037247E+02  0.56503084609E+02  0.16268064146E+02  0.83886837463E+02  0.00000000000E+00 0.  1.
         21    1    1    2  504  502 -0.19094550559E+02  0.11612543279E+03 -0.30888067678E+03  0.33054045212E+03  0.00000000000E+00 0.  1.
         21    1    1    2  505  501  0.36859321336E+02 -0.14657781465E+03  0.24801460285E+02  0.15316258600E+03  0.00000000000E+00 0. -1.
          2    1    1    2  501    0  0.42066266470E+02 -0.26050702752E+02  0.15262953493E+03  0.16044932166E+03  0.00000000000E+00 0. -1.
<scales pt_clust_3="66.18404" pt_clust_4="121.26565" pt_clust_5="14000.00000" pt_clust_6="49.47939"></scales>
<clustering>
<clus scale="   49.479">  1  6  2 -1</clus>
<clus scale="   66.184">  1  3  2 -1</clus>
<clus scale="  121.266">  2  4  1 -1</clus>
<clus scale="  121.266">  2  3  1 -1</clus>
</clustering>
</event>
<event>
 6    0  0.5775861E+002  0.8233874E+02  0.7546771E-02  0.1322542E+00
          2   -1    0    0  504    0 -0.00000000000E+00  0.00000000000E+00  0.19635347816E+04  0.19635347816E+04  0.00000000000E+00 0.  1.
         21   -1    0    0  503  502  0.00000000000E+00 -0.00000000000E+00 -0.68077866562E+02  0.68077866562E+02  0.00000000000E+00 0. -1.
         21    1    1    2  503  501  0.96200845308E+02  0.10091053004E+02  0.10533981952E+03  0.14301366915E+03  0.00000000000E+00 0. -1.
         21    1    1    2  504  505 -0.40937316032E+02 -0.19790671766E+02  0.17947785802E+03  0.18514814623E+03  0.00000000000E+00 0. -1.
         21    1    1    2  505  502 -0.20694578473E+02 -0.48831486575E+02 -0.30315614321E+02  0.61088592478E+02  0.00000000000E+00 0. -1.
          2    1    1    2  501    0 -0.34568950803E+02  0.58531105338E+02  0.16409548518E+04  0.16423622403E+04  0.00000000000E+00 0.  1.
<scales pt_clust_3="14000.00000" pt_clust_4="45.47015" pt_clust_5="53.33166" pt_clust_6="82.33874"></scales>
<clustering>
<clus scale="   45.470">  1  4  2 -1</clus>
<clus scale="   53.332">  2  5  1 -1</clus>
<clus scale="   82.339">  1  6  2 -1</clus>
<clus scale="   53.332">  2  3  1 -1</clus>
</clustering>
</event>
<event>
 6    0  0.5775861E+002  0.9675568E+02  0.7546771E-02  0.1287270E+00
         21   -1    0    0  503  502  0.00000000000E+00  0.00000000000E+00  0.32288499239E+02  0.32288499239E+02  0.00000000000E+00 0.  1.
          2   -1    0    0  504    0 -0.00000000000E+00 -0.00000000000E+00 -0.23543102608E+04  0.23543102608E+04  0.00000000000E+00 0.  1.
         21    1    1    2  503  501 -0.71178572694E+02  0.39656995727E+02 -0.38564021279E+03  0.39415408185E+03  0.00000000000E+00 0.  1.
         21    1    1    2  504  505  0.60001569367E+02 -0.95648171941E+02 -0.28773058860E+03  0.30909165751E+03  0.00000000000E+00 0.  1.
         21    1    1    2  505  502  0.25892010756E+02 -0.15677602458E+02  0.26939065452E+01  0.30388165004E+02  0.00000000000E+00 0.  1.
          2    1    1    2  501    0 -0.14715007429E+02  0.71668778672E+02 -0.16513448667E+04  0.16529648557E+04  0.00000000000E+00 0.  1.
<scales pt_clust_3="96.75568" pt_clust_4="14000.00000" pt_clust_5="30.26852" pt_clust_6="72.11510"></scales>
<clustering>
<clus scale="   30.269">  1  5  2 -1</clus>
<clus scale="   72.115">  2  6  1 -1</clus>
<clus scale="   96.756">  1  3  2 -1</clus>
<clus scale="   30.269">  1  3  2 -1</clus>
</clustering>
</event>
<event>
 6    0  0.5775861E+002  0.1062020E+03  0.7546771E-02  0.1267769E+00
          2   -1    0    0  505    0 -0.00000000000E+00  0.00000000000E+00  0.88858884744E+03  0.88858884744E+03  0.00000000000E+00 0.  1.
         21   -1    0    0  503  502  0.00000000000E+00 -0.00000000000E+00 -0.23105442258E+04  0.23105442258E+04  0.00000000000E+00 0.  1.
         21    1    1    2  503  504  0.30710414425E+02  0.15900610569E+02 -0.22668133969E+04  0.22670771790E+04  0.00000000000E+00 0.  1.
         21    1    1    2  504  501  0.74609475307E+02  0.52722339357E+02  0.24934745375E+02  0.94699315731E+02  0.00000000000E+00 0.  1.
         21    1    1    2  505  502 -0.78749458018E+02 -0.39381432025E+02  0.23261720790E+03  0.24872301811E+03  0.00000000000E+00 0. -1.
          2    1    1    2  501    0 -0.26570431714E+02 -0.29241517901E+02  0.58730606526E+03  0.58863356046E+03  0.00000000000E+00 0.  1.
<scales pt_clust_3="34.58264" pt_clust_4="14000.00000" pt_clust_5="106.20195" pt_clust_6="39.01704"></scales>
<clustering>
<clus scale="   34.583">  2  3  1 -1</clus>
<clus scale="   39.017">  1  6  2 -1</clus>
<clus scale="  106.202">  1  5  2 -1</clus>
<clus scale="   34.583">  2  3  1 -1</clus>
</clustering>
</event>
<event>
 6    0  0.5775861E+002  0.1804721E+03  0.7546771E-02  0.1167347E+00
         21   -1    0    0  504  502  0.00000000000E+00  0.00000000000E+00  0.10716785403E+03  0.10716785403E+03  0.00000000000E+00 0. -1.
          1   -1    0    0  502    0 -0.00000000000E+00 -0.00000000000E+00 -0.85487439998E+03  0.85487439998E+03  0.00000000000E+00 0. -1.
         21    1    1    2  503  505 -0.18368301358E+02  0.13990548871E+03 -0.19035508040E+03  0.23695146528E+03  0.00000000000E+00 0. -1.
         21    1    1    2  504  503  0.36394603663E+02  0.56710286067E+02  0.50308325010E+02  0.84092516236E+02  0.00000000000E+00 0. -1.
         21    1    1    2  505  501  0.13421360058E+02 -0.12617027963E+03 -0.37929190996E+03  0.39995177875E+03  0.00000000000E+00 0.  1.
          1    1    1    2  501    0 -0.31447662363E+02 -0.70445495144E+02 -0.22836788060E+03  0.24104649374E+03  0.00000000000E+00 0. -1.
<scales pt_clust_3="172.98701" pt_clust_4="67.38415" pt_clust_5="40.10729" pt_clust_6="40.10729"></scales>
<clustering>
<clus scale="   40.107">  5  6 -1 -1</clus>
<clus scale="   67.384">  1  4  2 -1</clus>
<clus scale="  172.987">  1  3  2 -1</clus>
<clus scale="   67.384">  1  3  2 -1</clus>
</clustering>
</event>
<event>
 6    0  0.5775861E+002  0.1649216E+03  0.7546771E-02  0.1183250E+00
          2   -1    0    0  503    0 -0.00000000000E+00  0.00000000000E+00  0.15083197084E+04  0.15083197084E+04  0.00000000000E+00 0.  1.
         21   -1    0    0  505  502  0.00000000000E+00 -0.00000000000E+00 -0.58820747325E+03  0.58820747325E+03  0.00000000000E+00 0.  1.
         21    1    1    2  503  502 -0.24106136435E+02  0.11380166050E+03  0.11383661308E+04  0.11442942679E+04  0.00000000000E+00 0.  1.
         21    1    1    2  504  501 -0.10154546777E+03 -0.16645019788E+03 -0.86623731813E+02  0.21335609040E+03  0.00000000000E+00 0. -1.
         21    1    1    2  505  504  0.16023914988E+03  0.48073192907E+02 -0.41808040643E+03  0.45030971927E+03  0.00000000000E+00 0.  1.
          2    1    1    2  501    0 -0.34587545682E+02  0.45753444671E+01  0.28645024262E+03  0.28856710414E+03  0.00000000000E+00 0.  1.
<scales pt_clust_3="130.87538" pt_clust_4="14000.00000" pt_clust_5="164.92162" pt_clust_6="34.88885"></scales>
<clustering>
<clus scale="   34.889">  1  6  2 -1</clus>
<clus scale="  130.875">  1  3  2 -1</clus>
<clus scale="  164.922">  2  5  1 -1</clus>
<clus scale="  164.922">  2  3  1 -1</clus>
</clustering>
</event>
<event>
 6    0  0.5775861E+002  0.1036776E+03  0.7546771E-02  0.1272747E+00
         21   -1    0    0  503  502  0.00000000000E+00  0.00000000000E+00  0.62383364909E+03  0.62383364909E+03  0.00000000000E+00 0. -1.
          1   -1    0    0  505    0 -0.00000000000E+00 -0.00000000000E+00 -0.24473290782E+03  0.24473290782E+03  0.00000000000E+00 0. -1.
         21    1    1    2  503  501 -0.64786190208E+02 -0.25664206472E+02  0.21843663827E+03  0.22928250451E+03  0.00000000000E+00 0. -1.
         21    1    1    2  504  502  0.94564664181E+02 -0.73231841595E+02  0.35404928068E+03  0.37370612985E+03  0.00000000000E+00 0. -1.
         21    1    1    2  505  504 -0.86141813993E+02  0.84470029692E+02 -0.10600671821E+03  0.16060206206E+03  0.00000000000E+00 0. -1.
          1    1    1    2  501    0  0.56363340019E+02  0.14426018375E+02 -0.87378459480E+02  0.10497586049E+03  0.00000000000E+00 0. -1.
<scales pt_clust_3="67.57800" pt_clust_4="14000.00000" pt_clust_5="103.67762" pt_clust_6="58.18020"></scales>
<clustering>
<clus scale="   58.180">  2  6  1 -1</clus>
<clus scale="   67.578">  1  3  2 -1</clus>
<clus scale="  103.678">  2  5  1 -1</clus>
<clus scale="   67.578">  1  3  2 -1</clus>
</clustering>
</event>
<event>
 6    0  0.5775861E+002  0.1013646E+03  0.7546771E-02  0.1277452E+00
         21   -1    0    0  505  502  0.00000000000E+00  0.00000000000E+00  0.61887481394E+03  0.61887481394E+03  0.00000000000E+00 0. -1.
          2   -1    0    0  503    0 -0.00000000000E+00 -0.00000000000E+00 -0.43304940842E+04  0.43304940842E+04  0.00000000000E+00 0. -1.
         21    1    1    2  503  502  0.58631010208E+02 -0.27676439661E+02  0.48636969614E+03  0.49067205136E+03  0.00000000000E+00 0. -1.
         21    1    1    2  504  501 -0.87077590768E+02  0.15299521779E+03 -0.10262542338E+04  0.10412433893E+04  0.00000000000E+00 0. -1.
         21    1    1    2  505  504  0.13099094081E+02 -0.43885439493E+02  0.11805127644E+03  0.12662393902E+03  0.00000000000E+00 0. -1.
          2    1    1    2  501    0  0.15347486479E+02 -0.81433338636E+02 -0.32897860090E+04  0.32908295184E+04  0.00000000000E+00 0. -1.
<scales pt_clust_3="101.36457" pt_clust_4="14000.00000" pt_clust_5="45.79867" pt_clust_6="82.91483"></scales>
<clustering>
<clus scale="   45.799">  1  5  2 -1</clus>
<clus scale="   82.915">  2  6  1 -1</clus>
<clus scale="  101.365">  1  3  2 -1</clus>
<clus scale="   45.799">  1  3  2 -1</clus>
</clustering>
</event>
<event>
 6    0  0.5775861E+002  0.1213158E+03  0.7546771E-02  0.1240942E+00
         21   -1    0    0  504  502  0.00000000000E+00  0.00000000000E+00  0.23578670671E+03  0.23578670671E+03  0.00000000000E+00 0. -1.
          2   -1    0    0  502    0 -0.00000000000E+00 -0.00000000000E+00 -0.94047979566E+03  0.94047979566E+03  0.00000000000E+00 0. -1.
         21    1    1    2  503  505  0.70486836593E+02  0.42834878596E+02  0.94938335243E+02  0.12576370087E+03  0.00000000000E+00 0. -1.
         21    1    1    2  504  503  0.19966412208E+02  0.25599298765E+02  0.99222623944E+02  0.10439880658E+03  0.00000000000E+00 0. -1.
         21    1    1    2  505  501 -0.15554023401E+02 -0.11878639510E+03 -0.15065481657E+03  0.19248119145E+03  0.00000000000E+00 0.  1.
          2    1    1    2  501    0 -0.74899225400E+02  0.50352217739E+02 -0.74819923157E+03  0.75362280348E+03  0.00000000000E+00 0. -1.
<scales pt_clust_3="30.80725" pt_clust_4="30.80725" pt_clust_5="110.93348" pt_clust_6="90.25098"></scales>
<clustering>
<clus scale="   30.807">  3  4 -1 -1</clus>
<clus scale="   90.251">  2  6  1 -1</clus>
<clus scale="  110.933">  2  5  1 -1</clus>
<clus scale="  121.316">  1  3  2 -1</clus>
</clustering>
</event>
<event>
 6    0  0.5775861E+002  0.1292925E+03  0.7546771E-02  0.1228509E+00
         21   -1    0    0  503  502  0.00000000000E+00  0.00000000000E+00  0.10801800293E+04  0.10801800293E+04  0.00000000000E+00 0. -1.
          2   -1    0    0  504    0 -0.00000000000E+00 -0.00000000000E+00 -0.77760045624E+03  0.77760045624E+03  0.00000000000E+00 0. -1.
         21    1    1    2  503  501  0.76508978930E+01  0.35078636551E+02  0.18125498455E+03  0.18477666629E+03  0.00000000000E+00 0.  1.
         21    1    1    2  504  505  0.40630561785E+02  0.12351047429E+03 -0.54201125556E+03  0.55738844710E+03  0.00000000000E+00 0. -1.
         21    1    1    2  505  502  0.41259103529E+02 -0.57156827489E+02  0.86767996943E+03  0.87053876761E+03  0.00000000000E+00 0. -1.
          2    1    1    2  501    0 -0.89540563206E+02 -0.10143228335E+03 -0.20434412532E+03  0.24507660459E+03  0.00000000000E+00 0. -1.
<scales pt_clust_3="35.90330" pt_clust_4="129.29250" pt_clust_5="53.90666" pt_clust_6="14000.00000"></scales>
<clustering>
<clus scale="   35.903">  1  3  2 -1</clus>
<clus scale="   53.907">  1  5  2 -1</clus>
<clus scale="  129.292">  2  4  1 -1</clus>
<clus scale="   35.903">  1  3  2 -1</clus>
</clustering>
</event>
<event>
 6    0  0.5775861E+002  0.7744961E+02  0.7546771E-02  0.1336449E+00
          1   -1    0    0  504    0 -0.00000000000E+00  0.00000000000E+00  0.13424083265E+04  0.13424083265E+04  0.00000000000E+00 0.  1.
         21   -1    0    0  503  502  0.00000000000E+00 -0.00000000000E+00 -0.12307699343E+03  0.12307699343E+03  0.00000000000E+00 0.  1.
         21    1    1    2  503  501 -0.67271971314E+01 -0.58931663073E+02 -0.55509197624E+00  0.59316980882E+02  0.00000000000E+00 0. -1.
         21    1    1    2  504  505  0.84868866729E+02  0.62222875863E+02  0.80039651994E+02  0.13221481275E+03  0.00000000000E+00 0.  1.
         21    1    1    2  505  502 -0.11633121874E+02  0.33894000009E+02 -0.60970274286E+02  0.70721334176E+02  0.00000000000E+00 0.  1.
          1    1    1    2  501    0 -0.66508547725E+02 -0.37185212799E+02  0.12008170473E+04  0.12032321921E+04  0.00000000000E+00 0.  1.
<scales pt_clust_3="43.14870" pt_clust_4="14000.00000" pt_clust_5="35.83480" pt_clust_6="77.44961"></scales>
<clustering>
<clus scale="   35.835">  2  5  1 -1</clus>
<clus scale="   43.149">  2  3  1 -1</clus>
<clus scale="   77.450">  1  6  2 -1</clus>
<clus scale="   35.835">  2  3  1 -1</clus>
</clustering>
</event>
<event>
 6    0  0.5775861E+002  0.1042642E+03  0.7546771E-02  0.1271576E+00
          1   -1    0    0  504    0 -0.00000000000E+00  0.00000000000E+00  0.73739847089E+03  0.73739847089E+03  0.00000000000E+00 0. -1.
         21   -1    0    0  501  502  0.00000000000E+00 -0.00000000000E+00 -0.56822938021E+03  0.56822938021E+03  0.00000000000E+00 0. -1.
         21    1    1    2  503  505  0.36086402264E+02  0.94094221117E+02 -0.19697612405E+03  0.22125899828E+03  0.00000000000E+00 0. -1.
         21    1    1    2  504  503 -0.12181988509E+03  0.83450291982E+01  0.26526064283E+03  0.29201529506E+03  0.00000000000E+00 0. -1.
         21    1    1    2  505  502  0.16765775218E+02 -0.11173652154E+03 -0.33366019933E+03  0.35227158568E+03  0.00000000000E+00 0. -1.
          1    1    1    2  501    0  0.68967707609E+02  0.92972712212E+01  0.43454477123E+03  0.44008197207E+03  0.00000000000E+00 0. -1.
<scales pt_clust_3="14000.00000" pt_clust_4="60.22397" pt_clust_5="104.26420" pt_clust_6="69.59155"></scales>
<clustering>
<clus scale="   69.592">  1  6  2 -1</clus>
<clus scale="   60.224">  1  4  2 -1</clus>
<clus scale="  104.264">  2  5  1 -1</clus>
<clus scale="  104.264">  2  3  1 -1</clus>
</clustering>
</event>
<event>
 6    0  0.5775861E+002  0.1664322E+03  0.7546771E-02  0.1181620E+00
          1   -1    0    0  504    0 -0.00000000000E+00  0.00000000000E+00  0.14334313630E+03  0.14334313630E+03  0.00000000000E+00 0.  1.
         21   -1    0    0  501  502  0.00000000000E+00 -0.00000000000E+00 -0.84253985556E+03  0.84253985556E+03  0.00000000000E+00 0.  1.
         21    1    1    2  503  502 -0.13716162091E+03  0.80393154511E+02 -0.61812228494E+03  0.63824096444E+03  0.00000000000E+00 0.  1.
         21    1    1    2  504  505 -0.44932075490E+02  0.43389121377E+02  0.34731538913E+02  0.71468783794E+02  0.00000000000E+00 0.  1.
         21    1    1    2  505  503  0.19606775195E+03 -0.93996272048E+02 -0.10562976100E+03  0.24173437679E+03  0.00000000000E+00 0.  1.
          1    1    1    2  501    0 -0.13974055556E+02 -0.29786003840E+02 -0.10176212226E+02  0.34438866833E+02  0.00000000000E+00 0.  1.
<scales pt_clust_3="166.43221" pt_clust_4="59.50590" pt_clust_5="14000.00000" pt_clust_6="32.90107"></scales>
<clustering>
<clus scale="   32.901">  1  6  2 -1</clus>
<clus scale="   59.506">  1  4  2 -1</clus>
<clus scale="  166.432">  2  3  1 -1</clus>
<clus scale="  166.432">  2  3  1 -1</clus>
</clustering>
</event>
<event>
 6    0  0.5775861E+002  0.1162298E+03  0.7546771E-02  0.1249450E+00
         21   -1    0    0  504  502  0.00000000000E+00  0.00000000000E+00  0.51934308427E+03  0.51934308427E+03  0.00000000000E+00 0.  1.
          2   -1    0    0  503    0 -0.00000000000E+00 -0.00000000000E+00 -0.15356692514E+04  0.15356692514E+04  0.00000000000E+00 0.  1.
         21    1    1    2  503  502 -0.11452041802E+03  0.41271958733E+02  0.20456968023E+03  0.23804842951E+03  0.00000000000E+00 0.  1.
         21    1    1    2  504  505  0.85650975080E+01  0.32248115516E+02  0.19351883334E+03  0.19637423637E+03  0.00000000000E+00 0.  1.
         21    1    1    2  505  501  0.64628743327E+02 -0.92687910611E+02  0.71669458283E+02  0.13380745304E+03  0.00000000000E+00 0.  1.
          2    1    1    2  501    0  0.41326577181E+02  0.19167836362E+02 -0.14860841390E+04  0.14867822168E+04  0.00000000000E+00 0.  1.
<scales pt_clust_3="14000.00000" pt_clust_4="33.36618" pt_clust_5="116.22977" pt_clust_6="45.57834"></scales>
<clustering>
<clus scale="   33.366">  1  4  2 -1</clus>
<clus scale="   45.578">  2  6  1 -1</clus>
<clus scale="  116.230">  2  5  1 -1</clus>
<clus scale="   33.366">  1  3  2 -1</clus>
</clustering>
</event>
<event>
 6    0  0.5775861E+002  0.7424650E+02  0.7546771E-02  0.1346220E+00
         21   -1    0    0  504  502  0.00000000000E+00  0.00000000000E+00  0.40592594530E+03  0.40592594530E+03  0.00000000000E+00 0.  1.
          2   -1    0    0  503    0 -0.00000000000E+00 -0.00000000000E+00 -0.39215995705E+03  0.39215995705E+03  0.00000000000E+00 0.  1.
         21    1    1    2  503  505  0.27677552946E+02 -0.10699796914E+03 -0.18681588957E+03  0.21705941337E+03  0.00000000000E+00 0.  1.
         21    1    1    2  504  501  0.18488309357E+01  0.68553111797E+02  0.10973004997E+03  0.12939718381E+03  0.00000000000E+00 0.  1.
         21    1    1    2  505  502 -0.52074478851E+02 -0.12689225595E+02  0.26415530073E+03  0.26953810621E+03  0.00000000000E+00 0.  1.
          2    1    1    2  501    0  0.22548094969E+02  0.51134082935E+02 -0.17330347288E+03  0.18209119895E+03  0.00000000000E+00 0.  1.
<scales pt_clust_3="74.24650" pt_clust_4="14000.00000" pt_clust_5="53.59821" pt_clust_6="54.87067"></scales>
<clustering>
<clus scale="   53.598">  1  5  2 -1</clus>
<clus scale="   54.871">  2  6  1 -1</clus>
<clus scale="   74.247">  2  3  1 -1</clus>
<clus scale="   53.598">  1  3  2 -1</clus>
</clustering>
</event>
<event>
 6    0  0.5775861E+002  0.8715443E+02  0.7546771E-02  0.1309893E+00
          2   -1    0    0  502    0 -0.00000000000E+00  0.00000000000E+00  0.12670616190E+04  0.12670616190E+04  0.00000000000E+00 0.  1.
         21   -1    0    0  503  502  0.00000000000E+00 -0.00000000000E+00 -0.36602698771E+03  0.36602698771E+03  0.00000000000E+00 0. -1.
         21    1    1    2  503  505 -0.39640010325E+02 -0.11567704854E+02 -0.63317018294E+02  0.75592241796E+02  0.00000000000E+00 0. -1.
         21    1    1    2  504  501  0.32117791923E+02 -0.12872819473E+03 -0.10810402791E+03  0.17114023935E+03  0.00000000000E+00 0. -1.
         21    1    1    2  505  504  0.19999134467E+01  0.72844552306E+02 -0.14750288367E+03  0.16452181967E+03  0.00000000000E+00 0. -1.
          2    1    1    2  501    0  0.55223049561E+01  0.67451347273E+02  0.12199585611E+04  0.12218343059E+04  0.00000000000E+00 0.  1.
<scales pt_clust_3="41.29337" pt_clust_4="14000.00000" pt_clust_5="87.15443" pt_clust_6="67.63045"></scales>
<clustering>
<clus scale="   41.293">  2  3  1 -1</clus>
<clus scale="   67.630">  1  6  2 -1</clus>
<clus scale="   87.154">  2  5  1 -1</clus>
<clus scale="   41.293">  2  3  1 -1</clus>
</clustering>
</event>
<event>
 6    0  0.5775861E+002  0.1725598E+03  0.7546771E-02  0.1175204E+00
         21   -1    0    0  504  502  0.00000000000E+00  0.00000000000E+00  0.13626079421E+04  0.13626079421E+04  0.00000000000E+00 0.  1.
          1   -1    0    0  505    0 -0.00000000000E+00 -0.00000000000E+00 -0.28754995621E+03  0.28754995621E+03  0.00000000000E+00 0.  1.
         21    1    1    2  503  502  0.23570486794E+02 -0.24913770074E+02  0.65693253416E+03  0.65782719480E+03  0.00000000000E+00 0. -1.
         21    1    1    2  504  501  0.13803505089E+03  0.88153482679E+02  0.59909354749E+03  0.62107792621E+03  0.00000000000E+00 0.  1.
         21    1    1    2  505  503 -0.12649363012E+03 -0.16069488395E+03 -0.62416411379E+02  0.21382070199E+03  0.00000000000E+00 0.  1.
          1    1    1    2  501    0 -0.35111907565E+02  0.97455171344E+02 -0.11855168436E+03  0.15743207532E+03  0.00000000000E+00 0.  1.
<scales pt_clust_3="34.29670" pt_clust_4="14000.00000" pt_clust_5="172.55980" pt_clust_6="102.72178"></scales>
<clustering>
<clus scale="   34.297">  1  3  2 -1</clus>
<clus scale="  102.722">  2  6  1 -1</clus>
<clus scale="  172.560">  2  5  1 -1</clus>
<clus scale="   34.297">  1  3  2 -1</clus>
</clustering>
</event>
<event>
 6    0  0.5775861E+002  0.8665634E+02  0.7546771E-02  0.1311157E+00
         21   -1    0    0  501  502  0.00000000000E+00  0.00000000000E+00  0.89882364789E+02  0.89882364789E+02  0.00000000000E+00 0. -1.
          2   -1    0    0  505    0 -0.00000000000E+00 -0.00000000000E+00 -0.18757281695E+04  0.18757281695E+04  0.00000000000E+00 0.  1.
         21    1    1    2  503  504  0.41845926135E+02  0.53751356063E+02 -0.11038598334E+03  0.12971258663E+03  0.00000000000E+00 0.  1.
         21    1    1    2  504  502  0.55455279508E+02 -0.42244286270E+01  0.66457632014E+02  0.86658817644E+02  0.00000000000E+00 0. -1.
         21    1    1    2  505  503 -0.79495651246E+02  0.22412913630E+02 -0.74311812366E+03  0.74769408382E+03  0.00000000000E+00 0.  1.
          2    1    1    2  501    0 -0.17805554396E+02 -0.71939841067E+02 -0.99879932974E+03  0.10015450462E+04  0.00000000000E+00 0.  1.
<scales pt_clust_3="86.65634" pt_clust_4="55.61595" pt_clust_5="73.25691" pt_clust_6="14000.00000"></scales>
<clustering>
<clus scale="   55.616">  1  4  2 -1</clus>
<clus scale="   73.257">  2  5  1 -1</clus>
<clus scale="   86.656">  1  3  2 -1</clus>
<clus scale="   55.616">  1  3  2 -1</clus>
</clustering>
</event>
<event>
 6    0  0.5775861E+002  0.9636893E+02  0.7546771E-02  0.1288122E+00
         21   -1    0    0  505  502  0.00000000000E+00  0.00000000000E+00  0.23324348747E+03  0.23324348747E+03  0.00000000000E+00 0. -1.
          2   -1    0    0  503    0 -0.00000000000E+00 -0.00000000000E+00 -0.18130751579E+04  0.18130751579E+04  0.00000000000E+00 0. -1.
         21    1    1    2  503  504 -0.79452504816E+02  0.10717454582E+03 -0.75985273407E+02  0.15353450937E+03  0.00000000000E+00 0. -1.
         21    1    1    2  504  502  0.52195120010E+02 -0.26343293967E+02  0.14272258240E+03  0.15423370324E+03  0.00000000000E+00 0. -1.
         21    1    1    2  505  501  0.49374070279E+01 -0.52823147496E+02  0.30435504128E+02  0.61163574218E+02  0.00000000000E+00 0. -1.
          2    1    1    2  501    0  0.22319977778E+02 -0.28008104360E+02 -0.16770044835E+04  0.16773868585E+04  0.00000000000E+00 0. -1.
<scales pt_clust_3="96.36893" pt_clust_4="14000.00000" pt_clust_5="56.48500" pt_clust_6="35.81390"></scales>
<clustering>
<clus scale="   35.814">  2  6  1 -1</clus>
<clus scale="   56.485">  1  5  2 -1</clus>
<clus scale="   96.369">  2  3  1 -1</clus>
<clus scale="   56.485">  1  3  2 -1</clus>
</clustering>
</event>
<event>
 6    0  0.5775861E+002  0.2371009E+03  0.7546771E-02  0.1121739E+00
          1   -1    0    0  503    0 -0.00000000000E+00  0.00000000000E+00  0.75722026512E+03  0.75722026512E+03  0.00000000000E+00 0. -1.
         21   -1    0    0  505  502  0.00000000000E+00 -0.00000000000E+00 -0.43639863694E+03  0.43639863694E+03  0.00000000000E+00 0.  1.
         21    1    1    2  503  502  0.63435922997E+02  0.21112210268E+03 -0.76660525057E+02  0.23339557551E+03  0.00000000000E+00 0.  1.
         21    1    1    2  504  501 -0.62332558729E+02 -0.18286502742E+03  0.17699451004E+03  0.26201531008E+03  0.00000000000E+00 0.  1.
         21    1    1    2  505  504 -0.55780259075E+02  0.10138980237E+03 -0.21302799980E+03  0.24242990332E+03  0.00000000000E+00 0.  1.
          1    1    1    2  501    0  0.54676894807E+02 -0.12964687763E+03  0.43351564299E+03  0.45577811315E+03  0.00000000000E+00 0. -1.
<scales pt_clust_3="237.10092" pt_clust_4="14000.00000" pt_clust_5="115.72091" pt_clust_6="134.56672"></scales>
<clustering>
<clus scale="  115.721">  2  5  1 -1</clus>
<clus scale="  134.567">  1  6  2 -1</clus>
<clus scale="  237.101">  2  3  1 -1</clus>
<clus scale="  115.721">  2  3  1 -1</clus>
</clustering>
</event>
<event>
 6    0  0.5775861E+002  0.1108124E+03  0.7546771E-02  0.1259073E+00
          2   -1    0    0  503    0 -0.00000000000E+00  0.00000000000E+00  0.27888468893E+04  0.27888468893E+04  0.00000000000E+00 0.  1.
         21   -1    0    0  504  502  0.00000000000E+00 -0.00000000000E+00 -0.67922285490E+02  0.67922285490E+02  0.00000000000E+00 0.  1.
         21    1    1    2  503  505 -0.63532784029E+02 -0.49864143730E+02  0.75921613103E+02  0.11084646504E+03  0.00000000000E+00 0.  1.
         21    1    1    2  504  501  0.79246191123E+02  0.11494710590E+03  0.37311101858E+03  0.39837749453E+03  0.00000000000E+00 0.  1.
         21    1    1    2  505  502 -0.37836504611E+02 -0.25919150579E+02 -0.23623242324E+02  0.51589349926E+02  0.00000000000E+00 0.  1.
          2    1    1    2  501    0  0.22123097517E+02 -0.39163811592E+02  0.22955152144E+04  0.22959558653E+04  0.00000000000E+00 0.  1.
<scales pt_clust_3="110.81239" pt_clust_4="14000.00000" pt_clust_5="45.99051" pt_clust_6="44.98039"></scales>
<clustering>
<clus scale="   44.980">  1  6  2 -1</clus>
<clus scale="   45.991">  2  5  1 -1</clus>
<clus scale="  110.812">  2  3  1 -1</clus>
<clus scale="   45.991">  2  3  1 -1</clus>
</clustering>
</event>
<event>
 6    0  0.5775861E+002  0.8264448E+02  0.7546771E-02  0.1321710E+00
         21   -1    0    0  505  502  0.00000000000E+00  0.00000000000E+00  0.11559416365E+03  0.11559416365E+03  0.00000000000E+00 0.  1.
          2   -1    0    0  503    0 -0.00000000000E+00 -0.00000000000E+00 -0.19601770438E+04  0.19601770438E+04  0.00000000000E+00 0.  1.
         21    1    1    2  503  504  0.38873038029E+01  0.10160789334E+03 -0.39715555608E+03  0.40996562154E+03  0.00000000000E+00 0. -1.
         21    1    1    2  504  502 -0.70006033130E+02 -0.45637177522E+02  0.87419744567E+02  0.12093720845E+03  0.00000000000E+00 0.  1.
         21    1    1    2  505  501  0.35703287151E+02 -0.61323580602E+02 -0.25611481543E+03  0.26576324978E+03  0.00000000000E+00 0.  1.
          2    1    1    2  501    0  0.30415442177E+02  0.53528647839E+01 -0.12787322532E+04  0.12791051277E+04  0.00000000000E+00 0.  1.
<scales pt_clust_3="14000.00000" pt_clust_4="82.64448" pt_clust_5="75.86597" pt_clust_6="30.88288"></scales>
<clustering>
<clus scale="   30.883">  2  6  1 -1</clus>
<clus scale="   75.866">  2  5  1 -1</clus>
<clus scale="   82.644">  1  4  2 -1</clus>
<clus scale="   82.644">  1  3  2 -1</clus>
</clustering>
</event>
<event>
 6    0  0.5775861E+002  0.1563494E+03  0.7546771E-02  0.1192881E+00
         21   -1    0    0  504  502  0.00000000000E+00  0.00000000000E+00  0.14051305670E+04  0.14051305670E+04  0.00000000000E+00 0. -1.
          2   -1    0    0  505    0 -0.00000000000E+00 -0.00000000000E+00 -0.15468373837E+04  0.15468373837E+04  0.00000000000E+00 0. -1.
         21    1    1    2  503  501  0.16992457649E+03  0.13400904106E+03  0.21117098575E+03  0.30236727667E+03  0.00000000000E+00 0. -1.
         21    1    1    2  504  503  0.11339066307E+02 -0.11538582056E+03  0.97879942786E+03  0.98564231950E+03  0.00000000000E+00 0. -1.
         21    1    1    2  505  502 -0.34080084065E+02  0.31829475390E+02  0.15873693700E+03  0.16544480288E+03  0.00000000000E+00 0. -1.
          2    1    1    2  501    0 -0.14718355873E+03 -0.50452695883E+02 -0.14904141673E+04  0.14985135517E+04  0.00000000000E+00 0. -1.
<scales pt_clust_3="156.34940" pt_clust_4="91.57180" pt_clust_5="46.63226" pt_clust_6="14000.00000"></scales>
<clustering>
<clus scale="   46.632">  1  5  2 -1</clus>
<clus scale="   91.572">  1  4  2 -1</clus>
<clus scale="  156.349">  1  3  2 -1</clus>
<clus scale="   46.632">  1  3  2 -1</clus>
</clustering>
</event>
<event>
 6    0  0.5775861E+002  0.1197638E+03  0.7546771E-02  0.1243487E+00
         21   -1    0    0  503  502  0.00000000000E+00  0.00000000000E+00  0.70649289295E+02  0.70649289295E+02  0.00000000000E+00 0. -1.
          2   -1    0    0  504    0 -0.00000000000E+00 -0.00000000000E+00 -0.11298870988E+04  0.11298870988E+04  0.00000000000E+00 0.  1.
         21    1    1    2  503  501  0.65453017539E+02  0.13408855271E+03 -0.64822178234E+02  0.16268298087E+03  0.00000000000E+00 0. -1.
         21    1    1    2  504  505 -0.51256171216E+02 -0.12024080658E+03 -0.45824819642E+03  0.47652539930E+03  0.00000000000E+00 0.  1.
         21    1    1    2  505  502  0.11903600727E+02 -0.54633692603E+02 -0.57453503687E+02  0.80171323823E+02  0.00000000000E+00 0. -1.
          2    1    1    2  501    0 -0.26100447050E+02  0.40785946471E+02 -0.47871393112E+03  0.48115668406E+03  0.00000000000E+00 0.  1.
<scales pt_clust_3="14000.00000" pt_clust_4="119.76381" pt_clust_5="51.13902" pt_clust_6="48.42238"></scales>
<clustering>
<clus scale="   48.422">  2  6  1 -1</clus>
<clus scale="   51.139">  1  5  2 -1</clus>
<clus scale="  119.764">  2  4  1 -1</clus>
<clus scale="   51.139">  1  3  2 -1</clus>
</clustering>
</event>
<event>
 6    0  0.5775861E+002  0.6376793E+02  0.7546771E-02  0.1382667E+00
         21   -1    0    0  503  502  0.00000000000E+00  0.00000000000E+00  0.19667453326E+04  0.19667453326E+04  0.00000000000E+00 0. -1.
         -1   -1    0    0    0  501 -0.00000000000E+00 -0.00000000000E+00 -0.74311920605E+03  0.74311920605E+03  0.00000000000E+00 0.  1.
         21    1    1    2  503  505 -0.48200812421E+02  0.33061174477E+02  0.10678253316E+04  0.10694238160E+04  0.00000000000E+00 0. -1.
         21    1    1    2  504  502  0.40008779057E+02  0.12767837908E+02  0.58096235616E+03  0.58247830806E+03  0.00000000000E+00 0. -1.
         21    1    1    2  505  501  0.58927274226E+02 -0.84212243344E+02  0.30663667622E+03  0.32340404571E+03  0.00000000000E+00 0. -1.
         -1    1    1    2    0  504 -0.50735240863E+02  0.38383230959E+02 -0.73179823736E+03  0.73455836887E+03  0.00000000000E+00 0.  1.
<scales pt_clust_3="46.28018" pt_clust_4="41.99667" pt_clust_5="14000.00000" pt_clust_6="63.76793"></scales>
<clustering>
<clus scale="   41.997">  1  4  2 -1</clus>
<clus scale="   46.280">  1  3  2 -1</clus>
<clus scale="   63.768">  2  6  1 -1</clus>
<clus scale="   41.997">  1  3  2 -1</clus>
</clustering>
</event>
<event>
 6    0  0.5775861E+002  0.1846819E+03  0.7546771E-02  0.1163347E+00
          1   -1    0    0  503    0 -0.00000000000E+00  0.00000000000E+00  0.11791630086E+04  0.11791630086E+04  0.00000000000E+00 0.  1.
         21   -1    0    0  504  502  0.00000000000E+00 -0.00000000000E+00 -0.54869388903E+03  0.54869388903E+03  0.00000000000E+00 0.  1.
         21    1    1    2  503  505  0.13905421867E+03  0.11115947652E+03 -0.33592656989E+03  0.38018306815E+03  0.00000000000E+00 0.  1.
         21    1    1    2  504  501 -0.12592814540E+03 -0.40656610985E+02  0.65582118700E+02  0.14768842918E+03  0.00000000000E+00 0. -1.
         21    1    1    2  505  502  0.29324339678E+02  0.66510385298E+01 -0.14620755369E+03  0.14926755162E+03  0.00000000000E+00 0.  1.
          1    1    1    2  501    0 -0.42450412943E+02 -0.77153904063E+02  0.10470211245E+04  0.10507178487E+04  0.00000000000E+00 0.  1.
<scales pt_clust_3="184.68188" pt_clust_4="14000.00000" pt_clust_5="30.06914" pt_clust_6="87.96916"></scales>
<clustering>
<clus scale="   30.069">  2  5  1 -1</clus>
<clus scale="   87.969">  1  6  2 -1</clus>
<clus scale="  184.682">  2  3  1 -1</clus>
<clus scale="   30.069">  2  3  1 -1</clus>
</clustering>
</event>
<event>
 6    0  0.5775861E+002  0.1043219E+03  0.7546771E-02  0.1271461E+00
          2   -1    0    0  504    0 -0.00000000000E+00  0.00000000000E+00  0.62521642391E+03  0.62521642391E+03  0.00000000000E+00 0.  1.
         21   -1    0    0  505  502  0.00000000000E+00 -0.00000000000E+00 -0.11736987389E+03  0.11736987389E+03  0.00000000000E+00 0.  1.
         21    1    1    2  503  501 -0.79191639931E+02 -0.44914298058E+02  0.21714527018E+03  0.23545844297E+03  0.00000000000E+00 0.  1.
         21    1    1    2  504  502  0.14379389555E+03  0.12763979667E+01  0.14764609494E+03  0.20610114736E+03  0.00000000000E+00 0.  1.
         21    1    1    2  505  503 -0.49552853614E+02  0.12489031042E+02 -0.69170446612E+02  0.86000069082E+02  0.00000000000E+00 0.  1.
          2    1    1    2  501    0 -0.15049402006E+02  0.31148869050E+02  0.21222563151E+03  0.21502663838E+03  0.00000000000E+00 0.  1.
<scales pt_clust_3="104.32189" pt_clust_4="14000.00000" pt_clust_5="51.55930" pt_clust_6="34.59388"></scales>
<clustering>
<clus scale="   34.594">  1  6  2 -1</clus>
<clus scale="   51.559">  2  5  1 -1</clus>
<clus scale="  104.322">  1  3  2 -1</clus>
<clus scale="   51.559">  2  3  1 -1</clus>
</clustering>
</event>
<event>
 6    0  0.5775861E+002  0.8228262E+02  0.7546771E-02  0.1322696E+00
         21   -1    0    0  505  502  0.00000000000E+00  0.00000000000E+00  0.22487657793E+03  0.22487657793E+03  0.00000000000E+00 0. -1.
          1   -1    0    0  503    0 -0.00000000000E+00 -0.00000000000E+00 -0.57779128166E+03  0.57779128166E+03  0.00000000000E+00 0.  1.
         21    1    1    2  503  502 -0.10880458432E+02 -0.38455359864E+02  0.14118401853E+03  0.14673147640E+03  0.00000000000E+00 0. -1.
         21    1    1    2  504  501  0.12301140783E+03 -0.18156298378E+02 -0.55144985182E+02  0.13602362669E+03  0.00000000000E+00 0. -1.
         21    1    1    2  505  504 -0.36865986616E+02  0.32937661118E+02  0.20656946731E+02  0.53578913178E+02  0.00000000000E+00 0. -1.
          1    1    1    2  501    0 -0.75264962780E+02  0.23673997124E+02 -0.45961068381E+03  0.46633384333E+03  0.00000000000E+00 0.  1.
<scales pt_clust_3="39.96497" pt_clust_4="14000.00000" pt_clust_5="44.56489" pt_clust_6="82.28262"></scales>
<clustering>
<clus scale="   39.965">  1  3  2 -1</clus>
<clus scale="   44.565">  1  5  2 -1</clus>
<clus scale="   82.283">  2  6  1 -1</clus>
<clus scale="   39.965">  1  3  2 -1</clus>
</clustering>
</event>
<event>
 6    0  0.5775861E+002  0.2013662E+03  0.7546771E-02  0.1148591E+00
         21   -1    0    0  503  502  0.00000000000E+00  0.00000000000E+00  0.13039569238E+03  0.13039569238E+03  0.00000000000E+00 0.  1.
          2   -1    0    0  504    0 -0.00000000000E+00 -0.00000000000E+00 -0.40184916338E+03  0.40184916338E+03  0.00000000000E+00 0.  1.
         21    1    1    2  503  501  0.80288821542E+02  0.25133149158E+02  0.17507451807E+02  0.85933002507E+02  0.00000000000E+00 0.  1.
         21    1    1    2  504  505 -0.19441862408E+03 -0.64421888103E+01 -0.23807176818E+03  0.30743823768E+03  0.00000000000E+00 0.  1.
         21    1    1    2  505  502  0.18814087893E+02 -0.24483158569E+02 -0.45207699612E+00  0.30880403663E+02  0.00000000000E+00 0.  1.
          2    1    1    2  501    0  0.95315714647E+02  0.57921982209E+01 -0.50437077633E+02  0.10799321191E+03  0.00000000000E+00 0.  1.
<scales pt_clust_3="65.18593" pt_clust_4="189.25822" pt_clust_5="30.87709" pt_clust_6="65.18593"></scales>
<clustering>
<clus scale="   30.877">  1  5  2 -1</clus>
<clus scale="   65.186">  3  6 -1 -1</clus>
<clus scale="  189.258">  2  4  1 -1</clus>
<clus scale="   30.877">  1  3  2 -1</clus>
</clustering>
</event>
<event>
 6    0  0.5775861E+002  0.9934362E+02  0.7546771E-02  0.1281682E+00
         21   -1    0    0  505  502  0.00000000000E+00  0.00000000000E+00  0.25695570855E+03  0.25695570855E+03  0.00000000000E+00 0. -1.
          2   -1    0    0  503    0 -0.00000000000E+00 -0.00000000000E+00 -0.97640341638E+03  0.97640341638E+03  0.00000000000E+00 0.  1.
         21    1    1    2  503  502 -0.80965042653E+02  0.63111548758E+02  0.19547836800E+02  0.10450130928E+03  0.00000000000E+00 0.  1.
         21    1    1    2  504  501  0.29512845994E+02  0.18480578593E+02  0.10252004514E+03  0.10827233959E+03  0.00000000000E+00 0.  1.
         21    1    1    2  505  504  0.61999674293E+02  0.25357152391E+00  0.76724786375E+02  0.98644395458E+02  0.00000000000E+00 0. -1.
          2    1    1    2  501    0 -0.10547477633E+02 -0.81845698875E+02 -0.91824037615E+03  0.92194108060E+03  0.00000000000E+00 0.  1.
<scales pt_clust_3="88.93165" pt_clust_4="33.18108" pt_clust_5="33.18108" pt_clust_6="82.52253"></scales>
<clustering>
<clus scale="   33.181">  4  5 -1 -1</clus>
<clus scale="   82.523">  2  6  1 -1</clus>
<clus scale="   88.932">  2  3  1 -1</clus>
<clus scale="   99.344">  1  3  2 -1</clus>
</clustering>
</event>
<event>
 6    0  0.5775861E+002  0.1053800E+03  0.7546771E-02  0.1269373E+00
         21   -1    0    0  501  502  0.00000000000E+00  0.00000000000E+00  0.35473848380E+03  0.35473848380E+03  0.00000000000E+00 0. -1.
          1   -1    0    0  504    0 -0.00000000000E+00 -0.00000000000E+00 -0.11739426341E+04  0.11739426341E+04  0.00000000000E+00 0.  1.
         21    1    1    2  503  502  0.35188615427E+02  0.25451874707E+02  0.31193301402E+03  0.31494164828E+03  0.00000000000E+00 0. -1.
         21    1    1    2  504  505 -0.25605142426E+02  0.21912642716E+02 -0.61749487735E+02  0.70347611651E+02  0.00000000000E+00 0.  1.
         21    1    1    2  505  503 -0.66683036826E+02 -0.12139303263E+03 -0.10327851154E+03  0.17276963482E+03  0.00000000000E+00 0.  1.
          1    1    1    2  501    0  0.57099563824E+02  0.74028515206E+02 -0.96610916502E+03  0.97062222310E+03  0.00000000000E+00 0.  1.
<scales pt_clust_3="43.41781" pt_clust_4="33.70144" pt_clust_5="14000.00000" pt_clust_6="105.38000"></scales>
<clustering>
<clus scale="   33.701">  2  4  1 -1</clus>
<clus scale="   43.418">  1  3  2 -1</clus>
<clus scale="  105.380">  2  6  1 -1</clus>
<clus scale="   43.418">  1  3  2 -1</clus>
</clustering>
</event>
<event>
 6    0  0.5775861E+002  0.8595498E+02  0.7546771E-02  0.1312954E+00
          2   -1    0    0  505    0 -0.00000000000E+00  0.00000000000E+00  0.17690332086E+04  0.17690332086E+04  0.00000000000E+00 0.  1.
         21   -1    0    0  504  502  0.00000000000E+00 -0.00000000000E+00 -0.67891082552E+03  0.67891082552E+03  0.00000000000E+00 0. -1.
         21    1    1    2  503  501  0.76423581167E+02 -0.87878878595E+02 -0.12245040190E+03  0.16898923631E+03  0.00000000000E+00 0. -1.
         21    1    1    2  504  503 -0.35667633148E+02 -0.22821289516E+02 -0.46343816387E+03  0.46536858837E+03  0.00000000000E+00 0. -1.
         21    1    1    2  505  502 -0.33974958177E+02  0.55134987813E+02 -0.52990469798E+02  0.83678877584E+02  0.00000000000E+00 0.  1.
          2    1    1    2  501    0 -0.67809898420E+01  0.55565180298E+02  0.17290014187E+04  0.17299073319E+04  0.00000000000E+00 0.  1.
<scales pt_clust_3="85.95498" pt_clust_4="42.34373" pt_clust_5="14000.00000" pt_clust_6="55.93876"></scales>
<clustering>
<clus scale="   42.344">  2  4  1 -1</clus>
<clus scale="   55.939">  1  6  2 -1</clus>
<clus scale="   85.955">  1  3  2 -1</clus>
<clus scale="   42.344">  2  3  1 -1</clus>
</clustering>
</event>
<event>
 6    0  0.5775861E+002  0.1064793E+03  0.7546771E-02  0.1267232E+00
          2   -1    0    0  503    0 -0.00000000000E+00  0.00000000000E+00  0.44046615669E+04  0.44046615669E+04  0.00000000000E+00 0.  1.
         21   -1    0    0  505  502  0.00000000000E+00 -0.00000000000E+00 -0.61376470410E+03  0.61376470410E+03  0.00000000000E+00 0. -1.
         21    1    1    2  503  504 -0.48703064324E+01  0.13358252544E+03  0.34858989725E+03  0.37334023015E+03  0.00000000000E+00 0.  1.
         21    1    1    2  504  502 -0.31769201243E+02 -0.12730023171E+03 -0.45403494664E+03  0.47261227652E+03  0.00000000000E+00 0. -1.
         21    1    1    2  505  501  0.52922763413E+02  0.61132869280E+02 -0.12590266901E+03  0.14963130909E+03  0.00000000000E+00 0.  1.
          2    1    1    2  501    0 -0.16283255737E+02 -0.67415163010E+02  0.40222445812E+04  0.40228424553E+04  0.00000000000E+00 0.  1.
<scales pt_clust_3="72.77403" pt_clust_4="106.47927" pt_clust_5="14000.00000" pt_clust_6="69.35379"></scales>
<clustering>
<clus scale="   69.354">  1  6  2 -1</clus>
<clus scale="   72.774">  1  3  2 -1</clus>
<clus scale="  106.479">  2  4  1 -1</clus>
<clus scale="  106.479">  2  3  1 -1</clus>
</clustering>
</event>
<event>
 6    0  0.5775861E+002  0.9045079E+02  0.7546771E-02  0.1301764E+00
         21   -1    0    0  503  502  0.00000000000E+00  0.00000000000E+00  0.11681719836E+04  0.11681719836E+04  0.00000000000E+00 0. -1.
          2   -1    0    0  505    0 -0.00000000000E+00 -0.00000000000E+00 -0.66902335252E+03  0.66902335252E+03  0.00000000000E+00 0. -1.
         21    1    1    2  503  504  0.35569654466E+02  0.26696781830E+02  0.90546469636E+03  0.90655625023E+03  0.00000000000E+00 0. -1.
         21    1    1    2  504  501 -0.14555449579E+03  0.23339335852E+02  0.58290648505E+02  0.15852014240E+03  0.00000000000E+00 0. -1.
         21    1    1    2  505  502  0.31531306226E+02 -0.80288988602E+01  0.14878707064E+03  0.15230324645E+03  0.00000000000E+00 0. -1.
          2    1    1    2  501    0  0.78453535096E+02 -0.42007218821E+02 -0.61339378439E+03  0.61981569707E+03  0.00000000000E+00 0. -1.
<scales pt_clust_3="66.57713" pt_clust_4="90.45079" pt_clust_5="32.53746" pt_clust_6="14000.00000"></scales>
<clustering>
<clus scale="   32.537">  1  5  2 -1</clus>
<clus scale="   66.577">  1  3  2 -1</clus>
<clus scale="   90.451">  1  4  2 -1</clus>
<clus scale="   32.537">  1  3  2 -1</clus>
</clustering>
</event>
<event>
 6    0  0.5775861E+002  0.5376704E+02  0.7546771E-02  0.1426021E+00
         21   -1    0    0  504  502  0.00000000000E+00  0.00000000000E+00  0.56530754376E+03  0.56530754376E+03  0.00000000000E+00 0. -1.
          2   -1    0    0  502    0 -0.00000000000E+00 -0.00000000000E+00 -0.33342032079E+03  0.33342032079E+03  0.00000000000E+00 0. -1.
         21    1    1    2  503  501  0.66003933988E+02  0.63316189733E+02  0.12396537803E+03  0.15405477641E+03  0.00000000000E+00 0. -1.
         21    1    1    2  504  505 -0.22751783552E+02  0.35263148568E+02  0.27437166056E+03  0.27756250002E+03  0.00000000000E+00 0. -1.
         21    1    1    2  505  503 -0.20615373603E+01 -0.64984761090E+02  0.14091103536E+03  0.15518759292E+03  0.00000000000E+00 0. -1.
          2    1    1    2  501    0 -0.41190613076E+02 -0.33594577211E+02 -0.30736085098E+03  0.31192299521E+03  0.00000000000E+00 0. -1.
<scales pt_clust_3="53.76704" pt_clust_4="41.96586" pt_clust_5="48.90059" pt_clust_6="14000.00000"></scales>
<clustering>
<clus scale="   41.966">  1  4  2 -1</clus>
<clus scale="   48.901">  1  5  2 -1</clus>
<clus scale="   53.767">  1  3  2 -1</clus>
<clus scale="   41.966">  1  3  2 -1</clus>
</clustering>
</event>
<event>
 6    0  0.5775861E+002  0.1401140E+03  0.7546771E-02  0.1213176E+00
         21   -1    0    0  503  502  0.00000000000E+00  0.00000000000E+00  0.17030856782E+04  0.17030856782E+04  0.00000000000E+00 0. -1.
          1   -1    0    0  505    0 -0.00000000000E+00 -0.00000000000E+00 -0.49746981893E+03  0.49746981893E+03  0.00000000000E+00 0. -1.
         21    1    1    2  503  504  0.26501386275E+02 -0.13530423019E+03  0.14123774284E+04  0.14190911030E+04  0.00000000000E+00 0. -1.
         21    1    1    2  504  501  0.10973971801E+02 -0.15966985616E+03  0.90921533996E+02  0.18406959653E+03  0.00000000000E+00 0.  1.
         21    1    1    2  505  502 -0.81479407813E+02  0.17006415309E+03  0.74189228303E+02  0.20264439706E+03  0.00000000000E+00 0.  1.
          1    1    1    2  501    0  0.44004049737E+02  0.12490993326E+03 -0.37187233148E+03  0.39475040055E+03  0.00000000000E+00 0. -1.
<scales pt_clust_3="14000.00000" pt_clust_4="112.49221" pt_clust_5="140.11399" pt_clust_6="132.43432"></scales>
<clustering>
<clus scale="  132.434">  2  6  1 -1</clus>
<clus scale="  112.492">  2  4  1 -1</clus>
<clus scale="  140.114">  2  5  1 -1</clus>
<clus scale="  140.114">  1  3  2 -1</clus>
</clustering>
</event>
<event>
 6    0  0.5775861E+002  0.8132795E+02  0.7546771E-02  0.1325325E+00
         21   -1    0    0  501  502  0.00000000000E+00  0.00000000000E+00  0.13825993408E+03  0.13825993408E+03  0.00000000000E+00 0.  1.
          2   -1    0    0  504    0 -0.00000000000E+00 -0.00000000000E+00 -0.19808649761E+04  0.19808649761E+04  0.00000000000E+00 0.  1.
         21    1    1    2  503  502  0.24330636482E+02  0.18699379841E+02  0.11078963860E+03  0.11496082245E+03  0.00000000000E+00 0.  1.
         21    1    1    2  504  505 -0.10505240029E+03  0.16253218692E+02 -0.40271658203E+03  0.41651028723E+03  0.00000000000E+00 0.  1.
         21    1    1    2  505  503  0.40809923399E+02 -0.66918016373E+02 -0.67054590306E+02  0.10314935213E+03  0.00000000000E+00 0.  1.
          2    1    1    2  501    0  0.39911840407E+02  0.31965417840E+02 -0.14836235083E+04  0.14845044484E+04  0.00000000000E+00 0.  1.
<scales pt_clust_3="30.68626" pt_clust_4="14000.00000" pt_clust_5="81.32795" pt_clust_6="51.66691"></scales>
<clustering>
<clus scale="   30.686">  1  3  2 -1</clus>
<clus scale="   51.667">  2  6  1 -1</clus>
<clus scale="   81.328">  1  5  2 -1</clus>
<clus scale="   30.686">  1  3  2 -1</clus>
</clustering>
</event>
<event>
 6    0  0.5775861E+002  0.1294207E+03  0.7546771E-02  0.1228318E+00
         21   -1    0    0  503  502  0.00000000000E+00  0.00000000000E+00  0.43524061690E+03  0.43524061690E+03  0.00000000000E+00 0.  1.
          2   -1    0    0  504    0 -0.00000000000E+00 -0.00000000000E+00 -0.12754827513E+04  0.12754827513E+04  0.00000000000E+00 0. -1.
         21    1    1    2  503  505  0.38115578871E+02  0.49578742973E+01  0.35710072118E+03  0.35916333740E+03  0.00000000000E+00 0.  1.
         21    1    1    2  504  502 -0.51308290066E+02  0.20663700802E+01 -0.32505266630E+03  0.32908364649E+03  0.00000000000E+00 0.  1.
         21    1    1    2  505  501  0.14157749077E+02  0.11635527033E+03  0.22386412435E+02  0.11933206716E+03  0.00000000000E+00 0.  1.
          2    1    1    2  501    0 -0.96503788221E+00 -0.12337951471E+03 -0.89467660168E+03  0.90314431712E+03  0.00000000000E+00 0. -1.
<scales pt_clust_3="38.43667" pt_clust_4="50.35991" pt_clust_5="14000.00000" pt_clust_6="129.42067"></scales>
<clustering>
<clus scale="   38.437">  1  3  2 -1</clus>
<clus scale="   50.360">  2  4  1 -1</clus>
<clus scale="  129.421">  2  6  1 -1</clus>
<clus scale="   38.437">  1  3  2 -1</clus>
</clustering>
</event>
<event>
 6    0  0.5775861E+002  0.1907356E+03  0.7546771E-02  0.1157800E+00
         21   -1    0    0  504  502  0.00000000000E+00  0.00000000000E+00  0.90150456440E+02  0.90150456440E+02  0.00000000000E+00 0. -1.
          2   -1    0    0  505    0 -0.00000000000E+00 -0.00000000000E+00 -0.22040890756E+04  0.22040890756E+04  0.00000000000E+00 0. -1.
         21    1    1    2  503  501  0.22726335762E+03 -0.53559931920E+02 -0.26110952443E+03  0.35027915121E+03  0.00000000000E+00 0. -1.
         21    1    1    2  504  503 -0.43925254019E+02 -0.28835301963E+02  0.18420698077E+02  0.55679661436E+02  0.00000000000E+00 0. -1.
         21    1    1    2  505  502 -0.10541004916E+03 -0.88347935018E+01 -0.46303961031E+03  0.47496843343E+03  0.00000000000E+00 0. -1.
          2    1    1    2  501    0 -0.77928054438E+02  0.91230027385E+02 -0.14082101825E+04  0.14133122860E+04  0.00000000000E+00 0. -1.
<scales pt_clust_3="190.73561" pt_clust_4="52.54429" pt_clust_5="111.00247" pt_clust_6="14000.00000"></scales>
<clustering>
<clus scale="   52.544">  1  4  2 -1</clus>
<clus scale="  111.002">  2  5  1 -1</clus>
<clus scale="  190.736">  1  3  2 -1</clus>
<clus scale="   52.544">  1  3  2 -1</clus>
</clustering>
</event>
<event>
 6    0  0.5775861E+002  0.2331956E+03  0.7546771E-02  0.1124411E+00
         21   -1    0    0  504  502  0.00000000000E+00  0.00000000000E+00  0.51862629997E+03  0.51862629997E+03  0.00000000000E+00 0.  1.
          1   -1    0    0  505    0 -0.00000000000E+00 -0.00000000000E+00 -0.10279356097E+04  0.10279356097E+04  0.00000000000E+00 0. -1.
         21    1    1    2  503  502 -0.22342034238E+03  0.64610536110E+02  0.38690254270E+03  0.45142524112E+03  0.00000000000E+00 0.  1.
         21    1    1    2  504  501 -0.34098564838E+02 -0.10936505663E+03 -0.56891207018E+02  0.12790636095E+03  0.00000000000E+00 0. -1.
         21    1    1    2  505  503  0.24982113342E+03  0.13469637109E+02 -0.18263316105E+03  0.30975296825E+03  0.00000000000E+00 0. -1.
          1    1    1    2  501    0  0.76977738046E+01  0.31284883407E+02 -0.65668748439E+03  0.65747733939E+03  0.00000000000E+00 0. -1.
<scales pt_clust_3="233.19557" pt_clust_4="106.54639" pt_clust_5="14000.00000" pt_clust_6="32.21800"></scales>
<clustering>
<clus scale="   32.218">  2  6  1 -1</clus>
<clus scale="  106.546">  2  4  1 -1</clus>
<clus scale="  233.196">  1  3  2 -1</clus>
<clus scale="  233.196">  1  3  2 -1</clus>
</clustering>
</event>
<event>
 6    0  0.5775861E+002  0.3559842E+03  0.7546771E-02  0.1060185E+00
         21   -1    0    0  504  502  0.00000000000E+00  0.00000000000E+00  0.68192634817E+03  0.68192634817E+03  0.00000000000E+00 0. -1.
          2   -1    0    0  503    0 -0.00000000000E+00 -0.00000000000E+00 -0.65202507538E+03  0.65202507538E+03  0.00000000000E+00 0. -1.
         21    1    1    2  503  505 -0.21436230499E+03  0.29208897268E+03  0.36950110592E+03  0.51749225408E+03  0.00000000000E+00 0. -1.
         21    1    1    2  504  501 -0.51328188859E+01 -0.65378046284E+02  0.19467299378E+02  0.68407678741E+02  0.00000000000E+00 0. -1.
         21    1    1    2  505  502 -0.17433832613E+02  0.38138417012E+02  0.13392292468E+03  0.14033469681E+03  0.00000000000E+00 0. -1.
          2    1    1    2  501    0  0.23692895649E+03 -0.26484934341E+03 -0.49299005719E+03  0.60771679392E+03  0.00000000000E+00 0. -1.
<scales pt_clust_3="14000.00000" pt_clust_4="62.64441" pt_clust_5="41.93420" pt_clust_6="355.98418"></scales>
<clustering>
<clus scale="   41.934">  1  5  2 -1</clus>
<clus scale="   62.644">  1  4  2 -1</clus>
<clus scale="  355.984">  2  6  1 -1</clus>
<clus scale="   41.934">  1  3  2 -1</clus>
</clustering>
</event>
<event>
 6    0  0.5775861E+002  0.8653033E+02  0.7546771E-02  0.1311478E+00
         21   -1    0    0  503  502  0.00000000000E+00  0.00000000000E+00  0.23968229412E+04  0.23968229412E+04  0.00000000000E+00 0.  1.
          3   -1    0    0  505    0 -0.00000000000E+00 -0.00000000000E+00 -0.43954354578E+02  0.43954354578E+02  0.00000000000E+00 0.  1.
         21    1    1    2  503  501  0.65170424848E+02 -0.35651311871E+02  0.12000794259E+04  0.12023763258E+04  0.00000000000E+00 0.  1.
         21    1    1    2  504  502  0.10812898068E+02  0.89924178577E+02  0.97550063698E+03  0.97969626385E+03  0.00000000000E+00 0.  1.
         21    1    1    2  505  504 -0.36678165281E+01 -0.10033360201E+03  0.75514854429E+02  0.12562952602E+03  0.00000000000E+00 0.  1.
          3    1    1    2  501    0 -0.72315506388E+02  0.46060735300E+02  0.10177366932E+03  0.13307518013E+03  0.00000000000E+00 0.  1.
<scales pt_clust_3="74.28459" pt_clust_4="14000.00000" pt_clust_5="86.53033" pt_clust_6="78.46055"></scales>
<clustering>
<clus scale="   74.285">  1  3  2 -1</clus>
<clus scale="   78.461">  2  6  1 -1</clus>
<clus scale="   86.530">  2  5  1 -1</clus>
<clus scale="   74.285">  1  3  2 -1</clus>
</clustering>
</event>
<event>
 6    0  0.5775861E+002  0.1029082E+03  0.7546771E-02  0.1274297E+00
         21   -1    0    0  503  502  0.00000000000E+00  0.00000000000E+00  0.60140193016E+02  0.60140193016E+02  0.00000000000E+00 0. -1.
          2   -1    0    0  504    0 -0.00000000000E+00 -0.00000000000E+00 -0.92890977684E+03  0.92890977684E+03  0.00000000000E+00 0.  1.
         21    1    1    2  503  505  0.78567945696E+02  0.87606321357E+02 -0.46614993745E+02  0.12657309064E+03  0.00000000000E+00 0. -1.
         21    1    1    2  504  502  0.11009626950E+02 -0.36513204400E+02 -0.19359918271E+02  0.42769526728E+02  0.00000000000E+00 0. -1.
         21    1    1    2  505  501 -0.98770448060E+02 -0.20476002365E+02 -0.31260489905E+03  0.32847631725E+03  0.00000000000E+00 0. -1.
          2    1    1    2  501    0  0.91928754140E+01 -0.30617114593E+02 -0.49018977276E+03  0.49123103524E+03  0.00000000000E+00 0.  1.
<scales pt_clust_3="14000.00000" pt_clust_4="40.40316" pt_clust_5="102.90824" pt_clust_6="31.96743"></scales>
<clustering>
<clus scale="   31.967">  2  6  1 -1</clus>
<clus scale="   40.403">  1  4  2 -1</clus>
<clus scale="  102.908">  2  5  1 -1</clus>
<clus scale="   40.403">  1  3  2 -1</clus>
</clustering>
</event>
<event>
 6    0  0.5775861E+002  0.9558450E+02  0.7546771E-02  0.1289865E+00
          2   -1    0    0  505    0 -0.00000000000E+00  0.00000000000E+00  0.27883879327E+04  0.27883879327E+04  0.00000000000E+00 0.  1.
         21   -1    0    0  503  502  0.00000000000E+00 -0.00000000000E+00 -0.19899921221E+03  0.19899921221E+03  0.00000000000E+00 0.  1.
         21    1    1    2  503  504 -0.29632279354E+02  0.37833755793E+02 -0.75116083254E+02  0.89173376187E+02  0.00000000000E+00 0.  1.
         21    1    1    2  504  501 -0.44979591530E+02 -0.44038605453E+01 -0.88384114628E+02  0.99268874077E+02  0.00000000000E+00 0.  1.
         21    1    1    2  505  502  0.80105751134E+02 -0.10625076967E+03  0.17412722763E+03  0.21914937559E+03  0.00000000000E+00 0.  1.
          2    1    1    2  501    0 -0.54938802508E+01  0.72820874425E+02  0.25787616907E+04  0.25797955190E+04  0.00000000000E+00 0.  1.
<scales pt_clust_3="44.37319" pt_clust_4="44.37319" pt_clust_5="83.92091" pt_clust_6="73.02782"></scales>
<clustering>
<clus scale="   44.373">  3  4 -1 -1</clus>
<clus scale="   73.028">  1  6  2 -1</clus>
<clus scale="   83.921">  1  5  2 -1</clus>
<clus scale="   95.585">  2  3  1 -1</clus>
</clustering>
</event>
<event>
 6    0  0.5775861E+002  0.1443848E+03  0.7546771E-02  0.1207548E+00
          2   -1    0    0  505    0 -0.00000000000E+00  0.00000000000E+00  0.26158829384E+04  0.26158829384E+04  0.00000000000E+00 0.  1.
         21   -1    0    0  503  502  0.00000000000E+00 -0.00000000000E+00 -0.13203137490E+03  0.13203137490E+03  0.00000000000E+00 0. -1.
         21    1    1    2  503  501  0.89047332277E+02 -0.10413835364E+03  0.35458067519E+03  0.38013376501E+03  0.00000000000E+00 0.  1.
         21    1    1    2  504  502 -0.66843296473E+01  0.14864062662E+03 -0.66177682335E+02  0.16284410270E+03  0.00000000000E+00 0. -1.
         21    1    1    2  505  504 -0.30311259175E+02 -0.33150979142E+02  0.11014470443E+03  0.11895215746E+03  0.00000000000E+00 0.  1.
          2    1    1    2  501    0 -0.52051743455E+02 -0.11351293836E+02  0.20853038662E+04  0.20859842881E+04  0.00000000000E+00 0.  1.
<scales pt_clust_3="144.38484" pt_clust_4="14000.00000" pt_clust_5="44.91948" pt_clust_6="86.60087"></scales>
<clustering>
<clus scale="   44.919">  1  5  2 -1</clus>
<clus scale="   86.601">  1  6  2 -1</clus>
<clus scale="  144.385">  1  3  2 -1</clus>
<clus scale="  144.385">  2  3  1 -1</clus>
</clustering>
</event>
<event>
 6    0  0.5775861E+002  0.1405252E+03  0.7546771E-02  0.1212624E+00
         -3   -1    0    0    0  501 -0.00000000000E+00  0.00000000000E+00  0.13617843260E+04  0.13617843260E+04  0.00000000000E+00 0.  1.
         21   -1    0    0  504  502  0.00000000000E+00 -0.00000000000E+00 -0.53810675448E+03  0.53810675448E+03  0.00000000000E+00 0. -1.
         21    1    1    2  503  501  0.65533250946E+02  0.60746860353E+02  0.50605247921E+00  0.89359074029E+02  0.00000000000E+00 0. -1.
         21    1    1    2  504  503  0.34277049181E+02  0.58784599230E+02 -0.43758172326E+03  0.44284117891E+03  0.00000000000E+00 0. -1.
         21    1    1    2  505  502 -0.12585174714E+03 -0.17405022400E+03  0.16647616398E+03  0.27174704397E+03  0.00000000000E+00 0. -1.
         -3    1    1    2    0  505  0.26041447012E+02  0.54518764414E+02  0.10942770783E+04  0.10959437836E+04  0.00000000000E+00 0.  1.
<scales pt_clust_3="14000.00000" pt_clust_4="68.64192" pt_clust_5="140.52515" pt_clust_6="60.41898"></scales>
<clustering>
<clus scale="   60.419">  1  6  2 -1</clus>
<clus scale="   68.642">  2  4  1 -1</clus>
<clus scale="  140.525">  1  5  2 -1</clus>
<clus scale="   68.642">  2  3  1 -1</clus>
</clustering>
</event>
<event>
 6    0  0.5775861E+002  0.1083565E+03  0.7546771E-02  0.1263644E+00
          1   -1    0    0  503    0 -0.00000000000E+00  0.00000000000E+00  0.14712272299E+04  0.14712272299E+04  0.00000000000E+00 0.  1.
         21   -1    0    0  505  502  0.00000000000E+00 -0.00000000000E+00 -0.10290426531E+04  0.10290426531E+04  0.00000000000E+00 0. -1.
         21    1    1    2  503  504 -0.10159095774E+03 -0.69734947045E+02  0.35899001897E+03  0.37954909993E+03  0.00000000000E+00 0. -1.
         21    1    1    2  504  502 -0.48127674060E+02 -0.64667241069E+02 -0.62854094324E+03  0.63368907392E+03  0.00000000000E+00 0. -1.
         21    1    1    2  505  501  0.10035088203E+03  0.15687070793E+03 -0.36456088414E+03  0.40936946244E+03  0.00000000000E+00 0. -1.
          1    1    1    2  501    0  0.49367749768E+02 -0.22468519821E+02  0.10762963852E+04  0.10776622467E+04  0.00000000000E+00 0.  1.
<scales pt_clust_3="108.35646" pt_clust_4="80.53694" pt_clust_5="14000.00000" pt_clust_6="54.24029"></scales>
<clustering>
<clus scale="   54.240">  1  6  2 -1</clus>
<clus scale="   80.537">  2  4  1 -1</clus>
<clus scale="  108.356">  1  3  2 -1</clus>
<clus scale="   80.537">  2  3  1 -1</clus>
</clustering>
</event>
<event>
 6    0  0.5775861E+002  0.1128111E+03  0.7546771E-02  0.1255451E+00
         21   -1    0    0  505  502  0.00000000000E+00  0.00000000000E+00  0.13518074230E+03  0.13518074230E+03  0.00000000000E+00 0. -1.
          2   -1    0    0  504    0 -0.00000000000E+00 -0.00000000000E+00 -0.49156740763E+03  0.49156740763E+03  0.00000000000E+00 0. -1.
         21    1    1    2  503  501  0.95403831475E+01 -0.76149526620E+02 -0.26997365060E+03  0.28066980838E+03  0.00000000000E+00 0. -1.
         21    1    1    2  504  502 -0.69967601716E+02  0.40405810551E+02  0.37611053908E+02  0.89121749266E+02  0.00000000000E+00 0. -1.
         21    1    1    2  505  503  0.26109357381E+02  0.53779662303E+02  0.50451319777E+02  0.78225867125E+02  0.00000000000E+00 0. -1.
          2    1    1    2  501    0  0.34317861187E+02 -0.18035946234E+02 -0.17447538841E+03  0.17873072515E+03  0.00000000000E+00 0. -1.
<scales pt_clust_3="37.06438" pt_clust_4="100.03442" pt_clust_5="59.78253" pt_clust_6="37.06438"></scales>
<clustering>
<clus scale="   37.064">  3  6 -1 -1</clus>
<clus scale="   59.783">  1  5  2 -1</clus>
<clus scale="  100.034">  1  4  2 -1</clus>
<clus scale="   59.783">  1  3  2 -1</clus>
</clustering>
</event>
<event>
 6    0  0.5775861E+002  0.1180520E+03  0.7546771E-02  0.1246346E+00
         21   -1    0    0  504  502  0.00000000000E+00  0.00000000000E+00  0.34910250086E+03  0.34910250086E+03  0.00000000000E+00 0. -1.
          1   -1    0    0  505    0 -0.00000000000E+00 -0.00000000000E+00 -0.16952029870E+04  0.16952029870E+04  0.00000000000E+00 0. -1.
         21    1    1    2  503  501  0.28249228435E+01 -0.14759133742E+03  0.13751179666E+03  0.20174408862E+03  0.00000000000E+00 0. -1.
         21    1    1    2  504  503 -0.16822696769E+02  0.36474362994E+02  0.15259432777E+03  0.15779230383E+03  0.00000000000E+00 0. -1.
         21    1    1    2  505  502 -0.52005264903E+02  0.13568256900E+03 -0.20199733833E+03  0.24883173391E+03  0.00000000000E+00 0. -1.
          1    1    1    2  501    0  0.66003038828E+02 -0.24565594574E+02 -0.14342092722E+04  0.14359373615E+04  0.00000000000E+00 0. -1.
<scales pt_clust_3="118.05198" pt_clust_4="40.16693" pt_clust_5="14000.00000" pt_clust_6="70.29951"></scales>
<clustering>
<clus scale="   40.167">  1  4  2 -1</clus>
<clus scale="   70.300">  2  6  1 -1</clus>
<clus scale="  118.052">  1  3  2 -1</clus>
<clus scale="   40.167">  1  3  2 -1</clus>
</clustering>
</event>
<event>
 6    0  0.5775861E+002  0.9705389E+02  0.7546771E-02  0.1286616E+00
         21   -1    0    0  503  502  0.00000000000E+00  0.00000000000E+00  0.93900721114E+02  0.93900721114E+02  0.00000000000E+00 0.  1.
          2   -1    0    0  505    0 -0.00000000000E+00 -0.00000000000E+00 -0.18329985152E+04  0.18329985152E+04  0.00000000000E+00 0. -1.
         21    1    1    2  503  501  0.89821333569E+02  0.64566340840E+02 -0.82586276639E+02  0.13804773603E+03  0.00000000000E+00 0.  1.
         21    1    1    2  504  502 -0.32578792127E+02  0.79965305811E+01  0.56417294705E+02  0.65637133847E+02  0.00000000000E+00 0.  1.
         21    1    1    2  505  504 -0.47694034092E+02 -0.10853206542E+03 -0.72853256240E+03  0.73811491287E+03  0.00000000000E+00 0. -1.
          2    1    1    2  501    0 -0.95485073508E+01  0.35969193995E+02 -0.98439624973E+03  0.98509945355E+03  0.00000000000E+00 0. -1.
<scales pt_clust_3="97.05389" pt_clust_4="33.54582" pt_clust_5="14000.00000" pt_clust_6="37.38840"></scales>
<clustering>
<clus scale="   33.546">  1  4  2 -1</clus>
<clus scale="   37.388">  2  6  1 -1</clus>
<clus scale="   97.054">  1  3  2 -1</clus>
<clus scale="   33.546">  1  3  2 -1</clus>
</clustering>
</event>
<event>
 6    0  0.5775861E+002  0.1971601E+03  0.7546771E-02  0.1152157E+00
         21   -1    0    0  503  502  0.00000000000E+00  0.00000000000E+00  0.72634486372E+03  0.72634486372E+03  0.00000000000E+00 0.  1.
          2   -1    0    0  505    0 -0.00000000000E+00 -0.00000000000E+00 -0.20570613910E+04  0.20570613910E+04  0.00000000000E+00 0. -1.
         21    1    1    2  503  501 -0.26064185656E+03 -0.19988641160E+03 -0.29330916001E+03  0.44036237155E+03  0.00000000000E+00 0. -1.
         21    1    1    2  504  502  0.39183421457E+02 -0.10851059346E+02  0.56537430810E+03  0.56683436228E+03  0.00000000000E+00 0.  1.
         21    1    1    2  505  504  0.74092521550E+02  0.94630599847E+02  0.36982926941E+02  0.12574732229E+03  0.00000000000E+00 0. -1.
          2    1    1    2  501    0  0.14736591356E+03  0.11610687110E+03 -0.16397646023E+04  0.16504621986E+04  0.00000000000E+00 0. -1.
<scales pt_clust_3="197.16011" pt_clust_4="40.65816" pt_clust_5="129.52365" pt_clust_6="14000.00000"></scales>
<clustering>
<clus scale="   40.658">  1  4  2 -1</clus>
<clus scale="  129.524">  1  5  2 -1</clus>
<clus scale="  197.160">  1  3  2 -1</clus>
<clus scale="   40.658">  1  3  2 -1</clus>
</clustering>
</event>
<event>
 6    0  0.5775861E+002  0.1013128E+03  0.7546771E-02  0.1277559E+00
         -3   -1    0    0    0  501 -0.00000000000E+00  0.00000000000E+00  0.37946389504E+03  0.37946389504E+03  0.00000000000E+00 0. -1.
         21   -1    0    0  503  502  0.00000000000E+00 -0.00000000000E+00 -0.28517739657E+03  0.28517739657E+03  0.00000000000E+00 0. -1.
         21    1    1    2  503  504  0.83250402842E+02 -0.22208785831E+02 -0.15617079661E+03  0.17836248892E+03  0.00000000000E+00 0. -1.
         21    1    1    2  504  501 -0.15325094346E+03  0.34562600878E+02  0.19067946539E+01  0.15711161929E+03  0.00000000000E+00 0. -1.
         21    1    1    2  505  502  0.52706644914E+01  0.43475313623E+02 -0.19410331375E+02  0.47902440052E+02  0.00000000000E+00 0. -1.
         -3    1    1    2    0  505  0.64729876127E+02 -0.55829128670E+02  0.26796083180E+03  0.28126474335E+03  0.00000000000E+00 0. -1.
<scales pt_clust_3="101.31285" pt_clust_4="14000.00000" pt_clust_5="43.79364" pt_clust_6="84.84016"></scales>
<clustering>
<clus scale="   43.794">  2  5  1 -1</clus>
<clus scale="   84.840">  1  6  2 -1</clus>
<clus scale="  101.313">  2  3  1 -1</clus>
<clus scale="   43.794">  2  3  1 -1</clus>
</clustering>
</event>
<event>
 6    0  0.5775861E+002  0.1104080E+03  0.7546771E-02  0.1259816E+00
          1   -1    0    0  505    0 -0.00000000000E+00  0.00000000000E+00  0.11175967306E+04  0.11175967306E+04  0.00000000000E+00 0. -1.
         21   -1    0    0  504  502  0.00000000000E+00 -0.00000000000E+00 -0.10339469768E+03  0.10339469768E+03  0.00000000000E+00 0. -1.
         21    1    1    2  503  501  0.50379860038E+02 -0.62152319901E+02  0.12038032481E+03  0.14454225599E+03  0.00000000000E+00 0. -1.
         21    1    1    2  504  503  0.13853406052E+02 -0.43863656284E+02 -0.73044783138E+02  0.86321941275E+02  0.00000000000E+00 0. -1.
         21    1    1    2  505  502 -0.10317463759E+03  0.10146847774E+03  0.47138481848E+03  0.49309685145E+03  0.00000000000E+00 0. -1.
          1    1    1    2  501    0  0.38941371500E+02  0.45474984484E+01  0.49548167277E+03  0.49703037956E+03  0.00000000000E+00 0. -1.
<scales pt_clust_3="110.40798" pt_clust_4="46.08013" pt_clust_5="14000.00000" pt_clust_6="39.20600"></scales>
<clustering>
<clus scale="   39.206">  1  6  2 -1</clus>
<clus scale="   46.080">  2  4  1 -1</clus>
<clus scale="  110.408">  2  3  1 -1</clus>
<clus scale="   46.080">  2  3  1 -1</clus>
</clustering>
</event>
<event>
 6    0  0.5775861E+002  0.1297620E+03  0.7546771E-02  0.1227809E+00
          2   -1    0    0  503    0 -0.00000000000E+00  0.00000000000E+00  0.30824011390E+04  0.30824011390E+04  0.00000000000E+00 0. -1.
         21   -1    0    0  504  502  0.00000000000E+00 -0.00000000000E+00 -0.43059233693E+03  0.43059233693E+03  0.00000000000E+00 0. -1.
         21    1    1    2  503  505 -0.45618031286E-01 -0.82076553820E+02 -0.26541308841E+03  0.27781409300E+03  0.00000000000E+00 0. -1.
         21    1    1    2  504  501 -0.28193733330E+02  0.32132332551E+02  0.12610435776E+04  0.12617679176E+04  0.00000000000E+00 0.  1.
         21    1    1    2  505  502  0.33908876936E+02 -0.33527402043E+02 -0.15404448828E+03  0.16125632699E+03  0.00000000000E+00 0. -1.
          2    1    1    2  501    0 -0.56695255747E+01  0.83471623312E+02  0.18102228012E+04  0.18121551383E+04  0.00000000000E+00 0. -1.
<scales pt_clust_3="36.77039" pt_clust_4="30.45095" pt_clust_5="36.77039" pt_clust_6="127.77239"></scales>
<clustering>
<clus scale="   30.451">  4  6 -1 -1</clus>
<clus scale="   36.770">  3  5 -1 -1</clus>
<clus scale="  127.772">  1  4  2 -1</clus>
<clus scale="  129.762">  2  3  1 -1</clus>
</clustering>
</event>
<event>
 6    0  0.5775861E+002  0.1078388E+03  0.7546771E-02  0.1264625E+00
         21   -1    0    0  503  502  0.00000000000E+00  0.00000000000E+00  0.52068103903E+02  0.52068103903E+02  0.00000000000E+00 0. -1.
         -1   -1    0    0    0  501 -0.00000000000E+00 -0.00000000000E+00 -0.64498999066E+03  0.64498999066E+03  0.00000000000E+00 0.  1.
         21    1    1    2  503  504  0.48107304824E+02  0.46717031986E+02 -0.23043912974E+02  0.70907092594E+02  0.00000000000E+00 0. -1.
         21    1    1    2  504  501  0.32739639295E+02  0.44091404385E+02 -0.69297356414E+02  0.88419791493E+02  0.00000000000E+00 0. -1.
         21    1    1    2  505  502 -0.63890225829E+02  0.40683675818E+01 -0.63574846271E+02  0.90223465072E+02  0.00000000000E+00 0. -1.
         -1    1    1    2    0  505 -0.16956718289E+02 -0.94876803952E+02 -0.43700577110E+03  0.44750774540E+03  0.00000000000E+00 0.  1.
<scales pt_clust_3="41.23033" pt_clust_4="41.23033" pt_clust_5="64.01963" pt_clust_6="97.74177"></scales>
<clustering>
<clus scale="   41.230">  3  4 -1 -1</clus>
<clus scale="   64.020">  1  5  2 -1</clus>
<clus scale="   97.742">  2  6  1 -1</clus>
<clus scale="   64.020">  1  3  2 -1</clus>
</clustering>
</event>
<event>
 6    0  0.5775861E+002  0.6738954E+02  0.7546771E-02  0.1369202E+00
         21   -1    0    0  505  502  0.00000000000E+00  0.00000000000E+00  0.14999350732E+03  0.14999350732E+03  0.00000000000E+00 0. -1.
          2   -1    0    0  503    0 -0.00000000000E+00 -0.00000000000E+00 -0.25430179636E+04  0.25430179636E+04  0.00000000000E+00 0.  1.
         21    1    1    2  503  504 -0.93528672373E+02  0.39329660513E+02 -0.60278301474E+02  0.11801655977E+03  0.00000000000E+00 0. -1.
         21    1    1    2  504  502 -0.88781151460E+01  0.29760347860E+02  0.13675724104E+02  0.33934122400E+02  0.00000000000E+00 0. -1.
         21    1    1    2  505  501  0.47932956838E+02 -0.30278630903E+02  0.88563826665E+02  0.10515662240E+03  0.00000000000E+00 0. -1.
          2    1    1    2  501    0  0.54473830681E+02 -0.38811377470E+02 -0.24349857056E+04  0.24359041663E+04  0.00000000000E+00 0.  1.
<scales pt_clust_3="14000.00000" pt_clust_4="31.05639" pt_clust_5="41.78507" pt_clust_6="67.38954"></scales>
<clustering>
<clus scale="   31.056">  1  4  2 -1</clus>
<clus scale="   41.785">  1  5  2 -1</clus>
<clus scale="   67.390">  2  6  1 -1</clus>
<clus scale="   31.056">  1  3  2 -1</clus>
</clustering>
</event>
<event>
 6    0  0.5775861E+002  0.5643764E+02  0.7546771E-02  0.1413420E+00
         21   -1    0    0  505  502  0.00000000000E+00  0.00000000000E+00  0.55216913703E+02  0.55216913703E+02  0.00000000000E+00 0.  1.
          1   -1    0    0  504    0 -0.00000000000E+00 -0.00000000000E+00 -0.23635723896E+04  0.23635723896E+04  0.00000000000E+00 0. -1.
         21    1    1    2  503  501  0.35093290455E+02 -0.83359590087E+02 -0.15218653215E+04  0.15245505623E+04  0.00000000000E+00 0. -1.
         21    1    1    2  504  502 -0.53773727580E+02  0.80964639942E+02 -0.86569468911E+01  0.97579861797E+02  0.00000000000E+00 0.  1.
         21    1    1    2  505  503  0.20000182984E+02 -0.40260680963E+02 -0.48696254472E+02  0.66274089587E+02  0.00000000000E+00 0.  1.
          1    1    1    2  501    0 -0.13197458587E+01  0.42655631109E+02 -0.72913695301E+03  0.73038478958E+03  0.00000000000E+00 0. -1.
<scales pt_clust_3="56.43764" pt_clust_4="14000.00000" pt_clust_5="43.59448" pt_clust_6="42.67604"></scales>
<clustering>
<clus scale="   42.676">  2  6  1 -1</clus>
<clus scale="   43.594">  1  5  2 -1</clus>
<clus scale="   56.438">  2  3  1 -1</clus>
<clus scale="   43.594">  1  3  2 -1</clus>
</clustering>
</event>
<event>
 6    0  0.5775861E+002  0.1665881E+03  0.7546771E-02  0.1181453E+00
         21   -1    0    0  501  502  0.00000000000E+00  0.00000000000E+00  0.54907023446E+03  0.54907023446E+03  0.00000000000E+00 0.  1.
          2   -1    0    0  503    0 -0.00000000000E+00 -0.00000000000E+00 -0.14091786675E+04  0.14091786675E+04  0.00000000000E+00 0.  1.
         21    1    1    2  503  505  0.23223351742E+03  0.68603134235E+02 -0.18613631545E+03  0.30542679085E+03  0.00000000000E+00 0.  1.
         21    1    1    2  504  502 -0.11686371451E+02  0.61916262776E+02  0.42065530362E+03  0.42534818601E+03  0.00000000000E+00 0.  1.
         21    1    1    2  505  504 -0.10208781015E+03 -0.12311715234E+03 -0.38246555342E+02  0.16444620146E+03  0.00000000000E+00 0.  1.
          2    1    1    2  501    0 -0.11845933582E+03 -0.74022446751E+01 -0.10563808658E+04  0.10630277236E+04  0.00000000000E+00 0.  1.
<scales pt_clust_3="14000.00000" pt_clust_4="63.00948" pt_clust_5="166.58814" pt_clust_6="118.90749"></scales>
<clustering>
<clus scale="   63.009">  1  4  2 -1</clus>
<clus scale="  118.907">  2  6  1 -1</clus>
<clus scale="  166.588">  1  5  2 -1</clus>
<clus scale="   63.009">  1  3  2 -1</clus>
</clustering>
</event>
<event>
 6    0  0.6681394E+002  0.1171122E+03  0.7546771E-02  0.1247938E+00
          1   -1    0    0  504    0 -0.00000000000E+00  0.00000000000E+00  0.71138600089E+03  0.71138600089E+03  0.00000000000E+00 0.  1.
         21   -1    0    0  503  502  0.00000000000E+00 -0.00000000000E+00 -0.92425505295E+03  0.92425505295E+03  0.00000000000E+00 0. -1.
         21    1    1    2  503  505 -0.49389695288E+02  0.58795996450E+02 -0.78119331838E+03  0.78495815932E+03  0.00000000000E+00 0. -1.
         21    1    1    2  504  502  0.28377153694E+01  0.50047575775E+02 -0.12812720008E+03  0.13758412651E+03  0.00000000000E+00 0. -1.
         21    1    1    2  505  501  0.58490552343E+02 -0.76146198318E+02  0.29703752974E+03  0.31217091842E+03  0.00000000000E+00 0.  1.
          1    1    1    2  501    0 -0.11938572425E+02 -0.32697373907E+02  0.39941393666E+03  0.40092784958E+03  0.00000000000E+00 0.  1.
<scales pt_clust_3="14000.00000" pt_clust_4="49.62194" pt_clust_5="117.11225" pt_clust_6="34.80873"></scales>
<clustering>
<clus scale="   34.809">  1  6  2 -1</clus>
<clus scale="   49.622">  2  4  1 -1</clus>
<clus scale="  117.112">  1  5  2 -1</clus>
<clus scale="   49.622">  2  3  1 -1</clus>
</clustering>
</event>
<event>
 6    0  0.5775861E+002  0.1799558E+03  0.7546771E-02  0.1167846E+00
         21   -1    0    0  503  502  0.00000000000E+00  0.00000000000E+00  0.76218558799E+03  0.76218558799E+03  0.00000000000E+00 0.  1.
          1   -1    0    0  505    0 -0.00000000000E+00 -0.00000000000E+00 -0.15912392133E+03  0.15912392133E+03  0.00000000000E+00 0.  1.
         21    1    1    2  503  501  0.12002699640E+03  0.22019140451E+01 -0.18369395972E+01  0.12006124536E+03  0.00000000000E+00 0.  1.
         21    1    1    2  504  502 -0.98873545818E+02 -0.22810273099E+02  0.34519295594E+03  0.35979780913E+03  0.00000000000E+00 0.  1.
         21    1    1    2  505  504 -0.84561049619E+02  0.28187942747E+02  0.33271843014E+03  0.34445128100E+03  0.00000000000E+00 0.  1.
          1    1    1    2  501    0  0.63407599036E+02 -0.75795836932E+01 -0.73012779828E+02  0.96999173825E+02  0.00000000000E+00 0.  1.
<scales pt_clust_3="172.21588" pt_clust_4="48.93270" pt_clust_5="48.93270" pt_clust_6="63.85901"></scales>
<clustering>
<clus scale="   48.933">  4  5 -1 -1</clus>
<clus scale="   63.859">  2  6  1 -1</clus>
<clus scale="  172.216">  2  3  1 -1</clus>
<clus scale="  179.956">  1  3  2 -1</clus>
</clustering>
</event>
<event>
 6    0  0.5775861E+002  0.1188847E+03  0.7546771E-02  0.1244948E+00
         21   -1    0    0  501  502  0.00000000000E+00  0.00000000000E+00  0.15353182567E+04  0.15353182567E+04  0.00000000000E+00 0.  1.
          3   -1    0    0  505    0 -0.00000000000E+00 -0.00000000000E+00 -0.14737054640E+03  0.14737054640E+03  0.00000000000E+00 0. -1.
         21    1    1    2  503  504  0.66789666736E+02  0.94403272707E+02  0.34022122720E+03  0.35933733582E+03  0.00000000000E+00 0. -1.
         21    1    1    2  504  502 -0.11569463907E+03 -0.49451875189E+02  0.92636532074E+03  0.93487081725E+03  0.00000000000E+00 0.  1.
         21    1    1    2  505  503 -0.35951130863E+02 -0.10392026860E+03  0.21979475228E+03  0.24576744936E+03  0.00000000000E+00 0. -1.
          3    1    1    2  501    0  0.84856103198E+02  0.58968871079E+02 -0.98433589948E+02  0.14271320064E+03  0.00000000000E+00 0. -1.
<scales pt_clust_3="14000.00000" pt_clust_4="118.88471" pt_clust_5="75.52025" pt_clust_6="103.33386"></scales>
<clustering>
<clus scale="  103.334">  2  6  1 -1</clus>
<clus scale="   75.520">  2  5  1 -1</clus>
<clus scale="  118.885">  1  4  2 -1</clus>
<clus scale="  118.885">  1  3  2 -1</clus>
</clustering>
</event>
<event>
 6    0  0.5775861E+002  0.8761647E+02  0.7546771E-02  0.1308729E+00
         21   -1    0    0  505  502  0.00000000000E+00  0.00000000000E+00  0.60804911155E+03  0.60804911155E+03  0.00000000000E+00 0.  1.
          1   -1    0    0  503    0 -0.00000000000E+00 -0.00000000000E+00 -0.10657908153E+04  0.10657908153E+04  0.00000000000E+00 0. -1.
         21    1    1    2  503  504 -0.41274128856E+02  0.30824429071E+02 -0.86471279890E+02  0.10065277635E+03  0.00000000000E+00 0.  1.
         21    1    1    2  504  502  0.50744400092E+02 -0.81103216717E+02  0.45691018663E+03  0.46681864203E+03  0.00000000000E+00 0.  1.
         21    1    1    2  505  501  0.20924052746E+02  0.83651746085E+02  0.12514436461E+03  0.15197546710E+03  0.00000000000E+00 0.  1.
          1    1    1    2  501    0 -0.30394323982E+02 -0.33372958439E+02 -0.95332497509E+03  0.95439304137E+03  0.00000000000E+00 0. -1.
<scales pt_clust_3="66.74454" pt_clust_4="87.61647" pt_clust_5="14000.00000" pt_clust_6="45.13944"></scales>
<clustering>
<clus scale="   45.139">  2  6  1 -1</clus>
<clus scale="   66.745">  2  3  1 -1</clus>
<clus scale="   87.616">  1  4  2 -1</clus>
<clus scale="   87.616">  1  3  2 -1</clus>
</clustering>
</event>
<event>
 6    0  0.5775861E+002  0.2308396E+03  0.7546771E-02  0.1126050E+00
          2   -1    0    0  504    0 -0.00000000000E+00  0.00000000000E+00  0.27051163068E+04  0.27051163068E+04  0.00000000000E+00 0. -1.
         21   -1    0    0  503  502  0.00000000000E+00 -0.00000000000E+00 -0.19696452175E+03  0.19696452175E+03  0.00000000000E+00 0. -1.
         21    1    1    2  503  501 -0.17930362087E+03  0.12388844528E+03  0.10510321199E+03  0.24196036969E+03  0.00000000000E+00 0. -1.
         21    1    1    2  504  505  0.22637494341E+03 -0.94813282192E+02  0.72627068347E+02  0.25594894909E+03  0.00000000000E+00 0. -1.
         21    1    1    2  505  502 -0.14990849507E+02 -0.31264946430E+02 -0.28590481987E+02  0.44940383893E+02  0.00000000000E+00 0. -1.
          2    1    1    2  501    0 -0.32080473034E+02  0.21897833413E+01  0.23590119867E+04  0.23592311259E+04  0.00000000000E+00 0. -1.
<scales pt_clust_3="14000.00000" pt_clust_4="230.83957" pt_clust_5="34.96126" pt_clust_6="32.15512"></scales>
<clustering>
<clus scale="   32.155">  1  6  2 -1</clus>
<clus scale="   34.961">  2  5  1 -1</clus>
<clus scale="  230.840">  2  4  1 -1</clus>
<clus scale="   34.961">  2  3  1 -1</clus>
</clustering>
</event>
<event>
 6    0  0.5775861E+002  0.1646162E+03  0.7546771E-02  0.1183581E+00
          1   -1    0    0  505    0 -0.00000000000E+00  0.00000000000E+00  0.14710158087E+04  0.14710158087E+04  0.00000000000E+00 0. -1.
         21   -1    0    0  504  502  0.00000000000E+00 -0.00000000000E+00 -0.27006097961E+03  0.27006097961E+03  0.00000000000E+00 0. -1.
         21    1    1    2  503  502 -0.19780843973E+02 -0.25939051266E+02 -0.15625277000E+03  0.15962156590E+03  0.00000000000E+00 0. -1.
         21    1    1    2  504  501 -0.18685102490E+03  0.56527299464E+02  0.30903550535E+03  0.36552918442E+03  0.00000000000E+00 0.  1.
         21    1    1    2  505  503  0.17260158804E+03  0.40903993255E+02  0.13138229606E+02  0.17786809139E+03  0.00000000000E+00 0. -1.
          1    1    1    2  501    0  0.34030280840E+02 -0.71492241453E+02  0.10350338641E+04  0.10380579466E+04  0.00000000000E+00 0. -1.
<scales pt_clust_3="32.62079" pt_clust_4="14000.00000" pt_clust_5="164.61620" pt_clust_6="79.38044"></scales>
<clustering>
<clus scale="   32.621">  2  3  1 -1</clus>
<clus scale="   79.380">  1  6  2 -1</clus>
<clus scale="  164.616">  2  5  1 -1</clus>
<clus scale="   32.621">  2  3  1 -1</clus>
</clustering>
</event>
<event>
 6    0  0.5775861E+002  0.7487439E+02  0.7546771E-02  0.1344260E+00
          1   -1    0    0  503    0 -0.00000000000E+00  0.00000000000E+00  0.29760078029E+04  0.29760078029E+04  0.00000000000E+00 0. -1.
         21   -1    0    0  505  502  0.00000000000E+00 -0.00000000000E+00 -0.23491991651E+02  0.23491991651E+02  0.00000000000E+00 0. -1.
         21    1    1    2  503  504 -0.63222173658E+01  0.60814408968E+02  0.45599628334E+03  0.46007713830E+03  0.00000000000E+00 0. -1.
         21    1    1    2  504  502  0.61205921317E+01 -0.37237102932E+02  0.18486970974E+02  0.42021798850E+02  0.00000000000E+00 0. -1.
         21    1    1    2  505  501 -0.19638021716E+02 -0.94307424483E+02  0.24642048120E+03  0.26458003660E+03  0.00000000000E+00 0. -1.
          1    1    1    2  501    0  0.19839646950E+02  0.70730118447E+02  0.22316120758E+04  0.22328208208E+04  0.00000000000E+00 0. -1.
<scales pt_clust_3="54.58777" pt_clust_4="37.73677" pt_clust_5="14000.00000" pt_clust_6="74.87439"></scales>
<clustering>
<clus scale="   37.737">  2  4  1 -1</clus>
<clus scale="   54.588">  2  3  1 -1</clus>
<clus scale="   74.874">  1  6  2 -1</clus>
<clus scale="   37.737">  2  3  1 -1</clus>
</clustering>
</event>
<event>
 6    0  0.5775861E+002  0.7944429E+02  0.7546771E-02  0.1330636E+00
         21   -1    0    0  503  502  0.00000000000E+00  0.00000000000E+00  0.12215256016E+04  0.12215256016E+04  0.00000000000E+00 0.  1.
          2   -1    0    0  505    0 -0.00000000000E+00 -0.00000000000E+00 -0.26264511201E+04  0.26264511201E+04  0.00000000000E+00 0.  1.
         21    1    1    2  503  504  0.83455153630E+02 -0.34848263407E+02  0.65899757965E+03  0.66517439376E+03  0.00000000000E+00 0.  1.
         21    1    1    2  504  501  0.25582259690E+02  0.68463513862E+02 -0.47996765124E+02  0.87437944873E+02  0.00000000000E+00 0.  1.
         21    1    1    2  505  502 -0.75439194706E+02 -0.25393841322E+02  0.53666639195E+03  0.54253731256E+03  0.00000000000E+00 0.  1.
          2    1    1    2  501    0 -0.33598218614E+02 -0.82214091331E+01 -0.25525927250E+04  0.25528270705E+04  0.00000000000E+00 0.  1.
<scales pt_clust_3="14000.00000" pt_clust_4="61.14137" pt_clust_5="79.44429" pt_clust_6="34.58948"></scales>
<clustering>
<clus scale="   34.589">  2  6  1 -1</clus>
<clus scale="   61.141">  2  4  1 -1</clus>
<clus scale="   79.444">  1  5  2 -1</clus>
<clus scale="   79.444">  1  3  2 -1</clus>
</clustering>
</event>
<event>
 6    0  0.5775861E+002  0.1576138E+03  0.7546771E-02  0.1191417E+00
         21   -1    0    0  503  502  0.00000000000E+00  0.00000000000E+00  0.93437962110E+03  0.93437962110E+03  0.00000000000E+00 0.  1.
          1   -1    0    0  504    0 -0.00000000000E+00 -0.00000000000E+00 -0.71181357262E+03  0.71181357262E+03  0.00000000000E+00 0.  1.
         21    1    1    2  503  505 -0.31061051971E+02 -0.13754077357E+02  0.29829549747E+03  0.30022352906E+03  0.00000000000E+00 0.  1.
         21    1    1    2  504  502 -0.40066802935E+02  0.12121269700E+02 -0.11636485504E+02  0.43447458746E+02  0.00000000000E+00 0. -1.
         21    1    1    2  505  501  0.59554657132E+01 -0.14267847023E+03  0.60156893296E+03  0.61828617528E+03  0.00000000000E+00 0.  1.
          1    1    1    2  501    0  0.65172389193E+02  0.14431127789E+03 -0.66566189644E+03  0.68423603063E+03  0.00000000000E+00 0.  1.
<scales pt_clust_3="33.97004" pt_clust_4="42.50860" pt_clust_5="157.61378" pt_clust_6="14000.00000"></scales>
<clustering>
<clus scale="   33.970">  1  3  2 -1</clus>
<clus scale="   42.509">  2  4  1 -1</clus>
<clus scale="  157.614">  1  5  2 -1</clus>
<clus scale="   33.970">  1  3  2 -1</clus>
</clustering>
</event>
<event>
 6    0  0.5775861E+002  0.1276370E+03  0.7546771E-02  0.1231005E+00
          1   -1    0    0  505    0 -0.00000000000E+00  0.00000000000E+00  0.76129923983E+03  0.76129923983E+03  0.00000000000E+00 0. -1.
         21   -1    0    0  504  502  0.00000000000E+00 -0.00000000000E+00 -0.20823774851E+03  0.20823774851E+03  0.00000000000E+00 0.  1.
         21    1    1    2  503  502  0.12732723293E+03 -0.31917048381E+02  0.56259124021E+02  0.14281460450E+03  0.00000000000E+00 0. -1.
         21    1    1    2  504  501 -0.16117907596E+02  0.27493214649E+02 -0.13359145726E+03  0.13734023900E+03  0.00000000000E+00 0.  1.
         21    1    1    2  505  503 -0.13492424279E+03  0.46935794647E+02  0.15228640541E+03  0.20880294390E+03  0.00000000000E+00 0. -1.
          1    1    1    2  501    0  0.23714917456E+02 -0.42511960915E+02  0.47810741915E+03  0.48057920094E+03  0.00000000000E+00 0. -1.
<scales pt_clust_3="14000.00000" pt_clust_4="31.86948" pt_clust_5="127.63701" pt_clust_6="48.13808"></scales>
<clustering>
<clus scale="   31.869">  2  4  1 -1</clus>
<clus scale="   48.138">  1  6  2 -1</clus>
<clus scale="  127.637">  1  5  2 -1</clus>
<clus scale="   31.869">  2  3  1 -1</clus>
</clustering>
</event>
<event>
 6    0  0.5775861E+002  0.9911802E+02  0.7546771E-02  0.1282162E+00
          1   -1    0    0  504    0 -0.00000000000E+00  0.00000000000E+00  0.99160716103E+03  0.99160716103E+03  0.00000000000E+00 0. -1.
         21   -1    0    0  505  502  0.00000000000E+00 -0.00000000000E+00 -0.76602789745E+02  0.76602789745E+02  0.00000000000E+00 0. -1.
         21    1    1    2  503  502  0.15091142920E+02 -0.94074211922E+02  0.13943935252E+02  0.96291916970E+02  0.00000000000E+00 0. -1.
         21    1    1    2  504  503 -0.34123861018E+02  0.74413026994E+02  0.21449187633E+03  0.22958332146E+03  0.00000000000E+00 0.  1.
         21    1    1    2  505  501  0.51541196401E+02  0.23538955794E+01 -0.30958031016E+01  0.51687713702E+02  0.00000000000E+00 0.  1.
          1    1    1    2  501    0 -0.32508478303E+02  0.17307289348E+02  0.68966436280E+03  0.69064699865E+03  0.00000000000E+00 0. -1.
<scales pt_clust_3="99.11802" pt_clust_4="14000.00000" pt_clust_5="49.06455" pt_clust_6="36.82857"></scales>
<clustering>
<clus scale="   36.829">  1  6  2 -1</clus>
<clus scale="   49.065">  2  5  1 -1</clus>
<clus scale="   99.118">  2  3  1 -1</clus>
<clus scale="   49.065">  2  3  1 -1</clus>
</clustering>
</event>
<event>
 6    0  0.5775861E+002  0.8834346E+02  0.7546771E-02  0.1306914E+00
         21   -1    0    0  505  502  0.00000000000E+00  0.00000000000E+00  0.13894880074E+03  0.13894880074E+03  0.00000000000E+00 0. -1.
          2   -1    0    0  502    0 -0.00000000000E+00 -0.00000000000E+00 -0.14402073386E+04  0.14402073386E+04  0.00000000000E+00 0. -1.
         21    1    1    2  503  501 -0.26884335077E+02 -0.95582404322E+02 -0.24460516805E+03  0.26398949169E+03  0.00000000000E+00 0.  1.
         21    1    1    2  504  503  0.47108834180E+02  0.44686509674E+02 -0.35133268103E+02  0.73827318333E+02  0.00000000000E+00 0. -1.
         21    1    1    2  505  504  0.45140361267E+02  0.29646613299E+02  0.10216154463E+03  0.11555758347E+03  0.00000000000E+00 0. -1.
          2    1    1    2  501    0 -0.65364860370E+02  0.21249281349E+02 -0.11236816464E+04  0.11257817459E+04  0.00000000000E+00 0. -1.
<scales pt_clust_3="14000.00000" pt_clust_4="88.34346" pt_clust_5="54.00531" pt_clust_6="67.56981"></scales>
<clustering>
<clus scale="   54.005">  1  5  2 -1</clus>
<clus scale="   67.570">  2  6  1 -1</clus>
<clus scale="   88.343">  1  4  2 -1</clus>
<clus scale="   54.005">  1  3  2 -1</clus>
</clustering>
</event>
<event>
 6    0  0.5775861E+002  0.1862570E+03  0.7546771E-02  0.1161881E+00
         -4   -1    0    0    0  501 -0.00000000000E+00  0.00000000000E+00  0.97093031533E+02  0.97093031533E+02  0.00000000000E+00 0. -1.
         21   -1    0    0  504  502  0.00000000000E+00 -0.00000000000E+00 -0.10148006221E+04  0.10148006221E+04  0.00000000000E+00 0.  1.
         21    1    1    2  503  502 -0.12408891473E+03  0.90735531303E+02 -0.50643836204E+02  0.16185114626E+03  0.00000000000E+00 0. -1.
         21    1    1    2  504  505  0.74666628343E+02  0.47321473070E+01 -0.42314956358E+03  0.42971275495E+03  0.00000000000E+00 0.  1.
         21    1    1    2  505  501  0.77443251222E+02 -0.80823202950E+02 -0.46760842803E+03  0.48081960157E+03  0.00000000000E+00 0.  1.
         -4    1    1    2    0  503 -0.28020964836E+02 -0.14644475659E+02  0.23694237278E+02  0.39510150821E+02  0.00000000000E+00 0. -1.
<scales pt_clust_3="167.33067" pt_clust_4="66.48254" pt_clust_5="66.48254" pt_clust_6="31.61701"></scales>
<clustering>
<clus scale="   31.617">  1  6  2 -1</clus>
<clus scale="   66.483">  4  5 -1 -1</clus>
<clus scale="  167.331">  1  3  2 -1</clus>
<clus scale="  186.257">  2  3  1 -1</clus>
</clustering>
</event>
<event>
 6    0  0.5775861E+002  0.7303628E+02  0.7546771E-02  0.1350062E+00
          1   -1    0    0  503    0 -0.00000000000E+00  0.00000000000E+00  0.63574732252E+03  0.63574732252E+03  0.00000000000E+00 0.  1.
         21   -1    0    0  505  502  0.00000000000E+00 -0.00000000000E+00 -0.31942156697E+02  0.31942156697E+02  0.00000000000E+00 0.  1.
         21    1    1    2  503  504  0.59513621166E+02  0.47502779234E+02  0.23412215736E+03  0.24619417074E+03  0.00000000000E+00 0.  1.
         21    1    1    2  504  502 -0.14142751263E+02  0.59782999210E+02  0.14927980356E+03  0.16142640478E+03  0.00000000000E+00 0. -1.
         21    1    1    2  505  501 -0.39075020066E+02 -0.22875841561E+02  0.38491564098E+02  0.59428628009E+02  0.00000000000E+00 0. -1.
          1    1    1    2  501    0 -0.62958498360E+01 -0.84409936884E+02  0.18191164081E+03  0.20064027569E+03  0.00000000000E+00 0.  1.
<scales pt_clust_3="14000.00000" pt_clust_4="58.96639" pt_clust_5="45.27871" pt_clust_6="73.03628"></scales>
<clustering>
<clus scale="   45.279">  2  5  1 -1</clus>
<clus scale="   58.966">  2  4  1 -1</clus>
<clus scale="   73.036">  2  6  1 -1</clus>
<clus scale="   45.279">  2  3  1 -1</clus>
</clustering>
</event>
<event>
 6    0  0.5775861E+002  0.1096046E+03  0.7546771E-02  0.1261304E+00
          1   -1    0    0  505    0 -0.00000000000E+00  0.00000000000E+00  0.14563753155E+04  0.14563753155E+04  0.00000000000E+00 0. -1.
         21   -1    0    0  503  502  0.00000000000E+00 -0.00000000000E+00 -0.43894855989E+02  0.43894855989E+02  0.00000000000E+00 0.  1.
         21    1    1    2  503  501 -0.46795882575E+02 -0.36753488659E+02  0.94844698639E+01  0.60254698764E+02  0.00000000000E+00 0.  1.
         21    1    1    2  504  502  0.50490546776E+02  0.70382419640E+02  0.23050895546E+03  0.24624654080E+03  0.00000000000E+00 0. -1.
         21    1    1    2  505  504  0.32923838689E+02 -0.11826907423E+03  0.83220746171E+03  0.84121389218E+03  0.00000000000E+00 0. -1.
          1    1    1    2  501    0 -0.36618502891E+02  0.84640143250E+02  0.34027957248E+03  0.35255503975E+03  0.00000000000E+00 0. -1.
<scales pt_clust_3="59.50356" pt_clust_4="62.72636" pt_clust_5="14000.00000" pt_clust_6="109.60459"></scales>
<clustering>
<clus scale="   59.504">  2  3  1 -1</clus>
<clus scale="   62.726">  2  4  1 -1</clus>
<clus scale="  109.605">  2  6  1 -1</clus>
<clus scale="   59.504">  2  3  1 -1</clus>
</clustering>
</event>
<event>
 6    0  0.5775861E+002  0.1225234E+03  0.7546771E-02  0.1238991E+00
          1   -1    0    0  505    0 -0.00000000000E+00  0.00000000000E+00  0.63335770480E+02  0.63335770480E+02  0.00000000000E+00 0. -1.
         21   -1    0    0  501  502  0.00000000000E+00 -0.00000000000E+00 -0.21340372661E+04  0.21340372661E+04  0.00000000000E+00 0. -1.
         21    1    1    2  503  502  0.50030409316E+02  0.19075028817E+02 -0.42964644970E+03  0.43296994159E+03  0.00000000000E+00 0. -1.
         21    1    1    2  504  503  0.57075699377E+02 -0.23554575940E+02 -0.65791681313E+03  0.66080782873E+03  0.00000000000E+00 0.  1.
         21    1    1    2  505  504 -0.11501732828E+03  0.55028122003E+02 -0.10278012055E+04  0.10356796793E+04  0.00000000000E+00 0. -1.
          1    1    1    2  501    0  0.79112195859E+01 -0.50548574879E+02  0.44662972747E+02  0.67915586961E+02  0.00000000000E+00 0. -1.
<scales pt_clust_3="42.30827" pt_clust_4="42.30827" pt_clust_5="113.78839" pt_clust_6="51.16391"></scales>
<clustering>
<clus scale="   42.308">  3  4 -1 -1</clus>
<clus scale="   51.164">  1  6  2 -1</clus>
<clus scale="  113.788">  1  5  2 -1</clus>
<clus scale="  122.523">  2  3  1 -1</clus>
</clustering>
</event>
<event>
 6    0  0.5775861E+002  0.1016989E+03  0.7546771E-02  0.1276763E+00
          2   -1    0    0  504    0 -0.00000000000E+00  0.00000000000E+00  0.83749332780E+03  0.83749332780E+03  0.00000000000E+00 0. -1.
         21   -1    0    0  503  502  0.00000000000E+00 -0.00000000000E+00 -0.28141377241E+03  0.28141377241E+03  0.00000000000E+00 0.  1.
         21    1    1    2  503  501 -0.64588379695E+02  0.36304913219E+02 -0.23440173120E+03  0.24583302688E+03  0.00000000000E+00 0.  1.
         21    1    1    2  504  505 -0.58068335956E+02  0.56994882653E+02  0.18578092873E+03  0.20281740993E+03  0.00000000000E+00 0.  1.
         21    1    1    2  505  502 -0.35891694287E+02 -0.31736587155E+02  0.65027032824E+01  0.48349869007E+02  0.00000000000E+00 0.  1.
          2    1    1    2  501    0  0.15854840994E+03 -0.61563208716E+02  0.59819765458E+03  0.62190679439E+03  0.00000000000E+00 0. -1.
<scales pt_clust_3="101.69888" pt_clust_4="81.49117" pt_clust_5="47.91059" pt_clust_6="14000.00000"></scales>
<clustering>
<clus scale="   47.911">  2  5  1 -1</clus>
<clus scale="   81.491">  1  4  2 -1</clus>
<clus scale="  101.699">  2  3  1 -1</clus>
<clus scale="   47.911">  2  3  1 -1</clus>
</clustering>
</event>
<event>
 6    0  0.5775861E+002  0.9778331E+02  0.7546771E-02  0.1285028E+00
          2   -1    0    0  504    0 -0.00000000000E+00  0.00000000000E+00  0.23028899070E+04  0.23028899070E+04  0.00000000000E+00 0. -1.
         21   -1    0    0  503  502  0.00000000000E+00 -0.00000000000E+00 -0.56827616003E+02  0.56827616003E+02  0.00000000000E+00 0.  1.
         21    1    1    2  503  505 -0.75187500546E+02 -0.10811119349E+03  0.83105189886E+02  0.15571661113E+03  0.00000000000E+00 0.  1.
         21    1    1    2  504  502  0.42970035675E+02  0.94551153794E+01  0.88142282603E+01  0.44872193980E+02  0.00000000000E+00 0.  1.
         21    1    1    2  505  501 -0.16245023106E+02  0.65048425512E+02  0.57678001804E+03  0.58066374749E+03  0.00000000000E+00 0.  1.
          2    1    1    2  501    0  0.48462487977E+02  0.33607652598E+02  0.15773628548E+04  0.15784649704E+04  0.00000000000E+00 0. -1.
<scales pt_clust_3="14000.00000" pt_clust_4="43.99799" pt_clust_5="97.78331" pt_clust_6="59.55382"></scales>
<clustering>
<clus scale="   43.998">  2  4  1 -1</clus>
<clus scale="   59.554">  1  6  2 -1</clus>
<clus scale="   97.783">  1  5  2 -1</clus>
<clus scale="   43.998">  2  3  1 -1</clus>
</clustering>
</event>
<event>
 6    0  0.8545681E+002  0.1741812E+03  0.7546771E-02  0.1173556E+00
         21   -1    0    0  505  502  0.00000000000E+00  0.00000000000E+00  0.43981030851E+03  0.43981030851E+03  0.00000000000E+00 0. -1.
          2   -1    0    0  503    0 -0.00000000000E+00 -0.00000000000E+00 -0.24049571936E+04  0.24049571936E+04  0.00000000000E+00 0.  1.
         21    1    1    2  503  504 -0.84581885211E+02 -0.15852213214E+03 -0.61185731578E+03  0.63769329349E+03  0.00000000000E+00 0. -1.
         21    1    1    2  504  502 -0.39901121946E+02  0.34857565528E+02  0.13031055316E+02  0.54561504834E+02  0.00000000000E+00 0.  1.
         21    1    1    2  505  501  0.15140045437E+03  0.98863749240E+02  0.37209922703E+03  0.41370759391E+03  0.00000000000E+00 0. -1.
          2    1    1    2  501    0 -0.26917447211E+02  0.24800817367E+02 -0.17384198517E+04  0.17388051099E+04  0.00000000000E+00 0.  1.
<scales pt_clust_3="14000.00000" pt_clust_4="54.12274" pt_clust_5="174.18118" pt_clust_6="36.60095"></scales>
<clustering>
<clus scale="   36.601">  2  6  1 -1</clus>
<clus scale="   54.123">  1  4  2 -1</clus>
<clus scale="  174.181">  1  5  2 -1</clus>
<clus scale="   54.123">  1  3  2 -1</clus>
</clustering>
</event>
<event>
 6    0  0.5775861E+002  0.9576965E+02  0.7546771E-02  0.1289452E+00
          3   -1    0    0  503    0 -0.00000000000E+00  0.00000000000E+00  0.83540106409E+03  0.83540106409E+03  0.00000000000E+00 0.  1.
         21   -1    0    0  504  502  0.00000000000E+00 -0.00000000000E+00 -0.59305763753E+03  0.59305763753E+03  0.00000000000E+00 0. -1.
         21    1    1    2  503  505 -0.34818056934E+02 -0.62403659796E+01  0.69902223268E+02  0.78342581486E+02  0.00000000000E+00 0.  1.
         21    1    1    2  504  501 -0.27652630136E+02 -0.88926389788E+02 -0.51717196600E+03  0.52548968893E+03  0.00000000000E+00 0. -1.
         21    1    1    2  505  502  0.28216760984E+02  0.15109427143E+03  0.23737203642E+02  0.15552851602E+03  0.00000000000E+00 0.  1.
          3    1    1    2  501    0  0.34253926086E+02 -0.55927515659E+02  0.66587596565E+03  0.66909791518E+03  0.00000000000E+00 0.  1.
<scales pt_clust_3="35.37286" pt_clust_4="14000.00000" pt_clust_5="95.76965" pt_clust_6="61.51198"></scales>
<clustering>
<clus scale="   35.373">  1  3  2 -1</clus>
<clus scale="   61.512">  1  6  2 -1</clus>
<clus scale="   95.770">  1  5  2 -1</clus>
<clus scale="   95.770">  2  3  1 -1</clus>
</clustering>
</event>
<event>
 6    0  0.5775861E+002  0.8386850E+02  0.7546771E-02  0.1318418E+00
         21   -1    0    0  504  502  0.00000000000E+00  0.00000000000E+00  0.34179595101E+03  0.34179595101E+03  0.00000000000E+00 0.  1.
         -4   -1    0    0    0  501 -0.00000000000E+00 -0.00000000000E+00 -0.15408865600E+04  0.15408865600E+04  0.00000000000E+00 0. -1.
         21    1    1    2  503  502  0.56638842328E+02  0.17254286587E+02  0.34335486245E+02  0.68444097492E+02  0.00000000000E+00 0. -1.
         21    1    1    2  504  505  0.26322686424E+02  0.22052431511E+02  0.26876176236E+03  0.27094663398E+03  0.00000000000E+00 0.  1.
         21    1    1    2  505  501 -0.11647888670E+03  0.33373871299E+02 -0.17032221491E+03  0.20902345137E+03  0.00000000000E+00 0. -1.
         -4    1    1    2    0  503  0.33517357947E+02 -0.72680589396E+02 -0.13318656426E+04  0.13342683281E+04  0.00000000000E+00 0. -1.
<scales pt_clust_3="83.86850" pt_clust_4="34.33939" pt_clust_5="14000.00000" pt_clust_6="79.88834"></scales>
<clustering>
<clus scale="   34.339">  1  4  2 -1</clus>
<clus scale="   79.888">  2  6  1 -1</clus>
<clus scale="   83.869">  1  3  2 -1</clus>
<clus scale="   34.339">  1  3  2 -1</clus>
</clustering>
</event>
<event>
 6    0  0.5775861E+002  0.1658352E+03  0.7546771E-02  0.1182262E+00
          2   -1    0    0  504    0 -0.00000000000E+00  0.00000000000E+00  0.25836469458E+04  0.25836469458E+04  0.00000000000E+00 0. -1.
         21   -1    0    0  501  502  0.00000000000E+00 -0.00000000000E+00 -0.13812925238E+03  0.13812925238E+03  0.00000000000E+00 0. -1.
         21    1    1    2  503  505 -0.35744887860E+02 -0.79613821421E+02 -0.10229337543E+03  0.13446186161E+03  0.00000000000E+00 0. -1.
         21    1    1    2  504  503 -0.78391144286E+02  0.20882491806E+03  0.13833187976E+04  0.14011866091E+04  0.00000000000E+00 0. -1.
         21    1    1    2  505  502  0.20384909325E+01 -0.37649644574E+02  0.51845319522E+02  0.64106070993E+02  0.00000000000E+00 0.  1.
          2    1    1    2  501    0  0.11209754121E+03 -0.91561452065E+02  0.11126469517E+04  0.11220216564E+04  0.00000000000E+00 0. -1.
<scales pt_clust_3="118.34267" pt_clust_4="165.83516" pt_clust_5="37.70479" pt_clust_6="14000.00000"></scales>
<clustering>
<clus scale="   37.705">  2  5  1 -1</clus>
<clus scale="  118.343">  2  3  1 -1</clus>
<clus scale="  165.835">  2  4  1 -1</clus>
<clus scale="   37.705">  2  3  1 -1</clus>
</clustering>
</event>
<event>
 6    0  0.5775861E+002  0.1678100E+03  0.7546771E-02  0.1180151E+00
         -1   -1    0    0    0  501 -0.00000000000E+00  0.00000000000E+00  0.13786015154E+04  0.13786015154E+04  0.00000000000E+00 0. -1.
         21   -1    0    0  503  502  0.00000000000E+00 -0.00000000000E+00 -0.55438198633E+02  0.55438198633E+02  0.00000000000E+00 0. -1.
         21    1    1    2  503  505  0.44415351016E+02  0.15335041350E+02  0.25781209964E+02  0.53596246942E+02  0.00000000000E+00 0. -1.
         21    1    1    2  504  502 -0.11794244624E+03  0.35124020707E+01  0.20254543338E+03  0.23440863929E+03  0.00000000000E+00 0. -1.
         21    1    1    2  505  501  0.15799661224E+03  0.43507026063E+02  0.27976353946E+03  0.32422743377E+03  0.00000000000E+00 0. -1.
         -1    1    1    2    0  504 -0.84469517022E+02 -0.62354469484E+02  0.81507313394E+03  0.82180739401E+03  0.00000000000E+00 0. -1.
<scales pt_clust_3="37.71221" pt_clust_4="152.31561" pt_clust_5="37.71221" pt_clust_6="104.99133"></scales>
<clustering>
<clus scale="   37.712">  3  5 -1 -1</clus>
<clus scale="  104.991">  1  6  2 -1</clus>
<clus scale="  152.316">  2  4  1 -1</clus>
<clus scale="  152.316">  2  3  1 -1</clus>
</clustering>
</event>
<event>
 6    0  0.5775861E+002  0.9912004E+02  0.7546771E-02  0.1282157E+00
          1   -1    0    0  503    0 -0.00000000000E+00  0.00000000000E+00  0.46009092629E+04  0.46009092629E+04  0.00000000000E+00 0. -1.
         21   -1    0    0  505  502  0.00000000000E+00 -0.00000000000E+00 -0.67816268485E+02  0.67816268485E+02  0.00000000000E+00 0.  1.
         21    1    1    2  503  504 -0.73662357723E+02  0.18929705563E+02  0.30328106238E+03  0.31267215977E+03  0.00000000000E+00 0.  1.
         21    1    1    2  504  502  0.19319179043E+02 -0.24995070478E+02 -0.37617703347E+02  0.49123068229E+02  0.00000000000E+00 0.  1.
         21    1    1    2  505  501  0.88496969682E+02 -0.41147736009E+02  0.10227619469E+03  0.14136926760E+03  0.00000000000E+00 0.  1.
          1    1    1    2  501    0 -0.34153791002E+02  0.47213100924E+02  0.41651534407E+04  0.41655610358E+04  0.00000000000E+00 0. -1.
<scales pt_clust_3="14000.00000" pt_clust_4="31.59089" pt_clust_5="99.12004" pt_clust_6="58.00819"></scales>
<clustering>
<clus scale="   31.591">  2  4  1 -1</clus>
<clus scale="   58.008">  1  6  2 -1</clus>
<clus scale="   99.120">  2  5  1 -1</clus>
<clus scale="   31.591">  2  3  1 -1</clus>
</clustering>
</event>
<event>
 6    0  0.5775861E+002  0.1384789E+03  0.7546771E-02  0.1215390E+00
         21   -1    0    0  501  502  0.00000000000E+00  0.00000000000E+00  0.84212025812E+03  0.84212025812E+03  0.00000000000E+00 0.  1.
          1   -1    0    0  504    0 -0.00000000000E+00 -0.00000000000E+00 -0.39712024309E+03  0.39712024309E+03  0.00000000000E+00 0.  1.
         21    1    1    2  503  505  0.17288398901E+03  0.79957830704E+02  0.68479513517E+03  0.71079287102E+03  0.00000000000E+00 0.  1.
         21    1    1    2  504  503 -0.12681493065E+03 -0.53024810133E+02 -0.32887633763E+03  0.35644537110E+03  0.00000000000E+00 0.  1.
         21    1    1    2  505  502 -0.78899756650E+02 -0.60546404739E+02  0.52536450991E+02  0.11247718617E+03  0.00000000000E+00 0. -1.
          1    1    1    2  501    0  0.32830698288E+02  0.33613384168E+02  0.36544766507E+02  0.59525072905E+02  0.00000000000E+00 0.  1.
<scales pt_clust_3="138.47890" pt_clust_4="14000.00000" pt_clust_5="94.62387" pt_clust_6="46.98632"></scales>
<clustering>
<clus scale="   46.986">  1  6  2 -1</clus>
<clus scale="   94.624">  1  5  2 -1</clus>
<clus scale="  138.479">  1  3  2 -1</clus>
<clus scale="   46.986">  1  3  2 -1</clus>
</clustering>
</event>
<event>
 6    0  0.5775861E+002  0.8972711E+02  0.7546771E-02  0.1303514E+00
         21   -1    0    0  504  502  0.00000000000E+00  0.00000000000E+00  0.12632729752E+03  0.12632729752E+03  0.00000000000E+00 0.  1.
          2   -1    0    0  505    0 -0.00000000000E+00 -0.00000000000E+00 -0.66105386300E+03  0.66105386300E+03  0.00000000000E+00 0. -1.
         21    1    1    2  503  502 -0.83194384525E+01 -0.38681733623E+02  0.84533363760E+02  0.93334769303E+02  0.00000000000E+00 0.  1.
         21    1    1    2  504  501 -0.42157559576E+02  0.50335525277E+02 -0.20133703750E+03  0.21177234854E+03  0.00000000000E+00 0.  1.
         21    1    1    2  505  503  0.97717867826E+02 -0.20630886579E+02 -0.50863206477E+02  0.11207801277E+03  0.00000000000E+00 0.  1.
          2    1    1    2  501    0 -0.47240869797E+02  0.89770949250E+01 -0.36705968526E+03  0.37019602991E+03  0.00000000000E+00 0. -1.
<scales pt_clust_3="39.56627" pt_clust_4="14000.00000" pt_clust_5="89.72711" pt_clust_6="48.15475"></scales>
<clustering>
<clus scale="   39.566">  1  3  2 -1</clus>
<clus scale="   48.155">  2  6  1 -1</clus>
<clus scale="   89.727">  1  5  2 -1</clus>
<clus scale="   39.566">  1  3  2 -1</clus>
</clustering>
</event>
<event>
 6    0  0.5775861E+002  0.8276800E+02  0.7546771E-02  0.1321375E+00
         -3   -1    0    0    0  501 -0.00000000000E+00  0.00000000000E+00  0.32267136181E+03  0.32267136181E+03  0.00000000000E+00 0.  1.
         21   -1    0    0  505  502  0.00000000000E+00 -0.00000000000E+00 -0.34703686910E+03  0.34703686910E+03  0.00000000000E+00 0. -1.
         21    1    1    2  503  502  0.53018374222E+01  0.31967868807E+02 -0.19206898774E+03  0.19478334161E+03  0.00000000000E+00 0. -1.
         21    1    1    2  504  501 -0.34677135183E+02 -0.23077018162E+01  0.58438175577E+02  0.67991540334E+02  0.00000000000E+00 0.  1.
         21    1    1    2  505  504  0.27366540744E+02 -0.10662042230E+03 -0.12133216139E+03  0.16382409893E+03  0.00000000000E+00 0. -1.
         -3    1    1    2    0  503  0.20087570173E+01  0.76960255307E+02  0.23059746627E+03  0.24310925003E+03  0.00000000000E+00 0.  1.
<scales pt_clust_3="32.40454" pt_clust_4="34.53726" pt_clust_5="82.76800" pt_clust_6="14000.00000"></scales>
<clustering>
<clus scale="   32.405">  2  3  1 -1</clus>
<clus scale="   34.537">  1  4  2 -1</clus>
<clus scale="   82.768">  2  5  1 -1</clus>
<clus scale="   32.405">  2  3  1 -1</clus>
</clustering>
</event>
<event>
 6    0  0.5775861E+002  0.1444193E+03  0.7546771E-02  0.1207503E+00
         21   -1    0    0  505  502  0.00000000000E+00  0.00000000000E+00  0.15904448403E+04  0.15904448403E+04  0.00000000000E+00 0. -1.
         -1   -1    0    0    0  501 -0.00000000000E+00 -0.00000000000E+00 -0.24950629204E+03  0.24950629204E+03  0.00000000000E+00 0. -1.
         21    1    1    2  503  502  0.40043902923E+02 -0.81824234936E+01  0.32174503173E+03  0.32433059008E+03  0.00000000000E+00 0. -1.
         21    1    1    2  504  503 -0.80357527821E+02 -0.13615606804E+03  0.17665719714E+03  0.23707292643E+03  0.00000000000E+00 0.  1.
         21    1    1    2  505  501  0.56087102628E+02  0.11762612126E+03  0.10554104028E+04  0.10634250259E+04  0.00000000000E+00 0. -1.
         -1    1    1    2    0  504 -0.15773477730E+02  0.26712370276E+02 -0.21287408338E+03  0.21512258993E+03  0.00000000000E+00 0. -1.
<scales pt_clust_3="40.12273" pt_clust_4="14000.00000" pt_clust_5="144.41925" pt_clust_6="31.02182"></scales>
<clustering>
<clus scale="   31.022">  2  6  1 -1</clus>
<clus scale="   40.123">  1  3  2 -1</clus>
<clus scale="  144.419">  1  5  2 -1</clus>
<clus scale="   40.123">  1  3  2 -1</clus>
</clustering>
</event>
<event>
 6    0  0.5775861E+002  0.6610553E+02  0.7546771E-02  0.1373861E+00
          1   -1    0    0  505    0 -0.00000000000E+00  0.00000000000E+00  0.66603712368E+03  0.66603712368E+03  0.00000000000E+00 0. -1.
         21   -1    0    0  504  502  0.00000000000E+00 -0.00000000000E+00 -0.15729927731E+04  0.15729927731E+04  0.00000000000E+00 0. -1.
         21    1    1    2  503  502 -0.38939866307E+02  0.46445173538E+02 -0.68044924531E+02  0.91123976469E+02  0.00000000000E+00 0. -1.
         21    1    1    2  504  501  0.39251115459E+02  0.32131920385E+02 -0.13345898224E+04  0.13355534824E+04  0.00000000000E+00 0. -1.
         21    1    1    2  505  503  0.54078173469E+02 -0.11530426745E+03 -0.13073287566E+03  0.18251193856E+03  0.00000000000E+00 0. -1.
          1    1    1    2  501    0 -0.54389422621E+02  0.36727173529E+02  0.62641197313E+03  0.62984049937E+03  0.00000000000E+00 0. -1.
<scales pt_clust_3="62.74749" pt_clust_4="50.72584" pt_clust_5="14000.00000" pt_clust_6="66.10553"></scales>
<clustering>
<clus scale="   50.726">  2  4  1 -1</clus>
<clus scale="   62.747">  2  3  1 -1</clus>
<clus scale="   66.106">  1  6  2 -1</clus>
<clus scale="   50.726">  2  3  1 -1</clus>
</clustering>
</event>
<event>
 6    0  0.5775861E+002  0.6653692E+02  0.7546771E-02  0.1372282E+00
         21   -1    0    0  504  502  0.00000000000E+00  0.00000000000E+00  0.81294930970E+03  0.81294930970E+03  0.00000000000E+00 0. -1.
          2   -1    0    0  505    0 -0.00000000000E+00 -0.00000000000E+00 -0.88440324141E+03  0.88440324141E+03  0.00000000000E+00 0. -1.
         21    1    1    2  503  502 -0.46835881661E+02  0.44432256036E+02  0.70958225810E+03  0.71251302178E+03  0.00000000000E+00 0. -1.
         21    1    1    2  504  501  0.11800984075E+03 -0.78968349330E+02  0.38056572525E+02  0.14700552854E+03  0.00000000000E+00 0. -1.
         21    1    1    2  505  503 -0.35164433461E+02  0.23076572794E+02 -0.40712350062E+02  0.58536834900E+02  0.00000000000E+00 0. -1.
          2    1    1    2  501    0 -0.36009525630E+02  0.11459520500E+02 -0.77838041228E+03  0.77929716589E+03  0.00000000000E+00 0. -1.
<scales pt_clust_3="66.53692" pt_clust_4="14000.00000" pt_clust_5="59.36126" pt_clust_6="37.78897"></scales>
<clustering>
<clus scale="   37.789">  2  6  1 -1</clus>
<clus scale="   59.361">  2  5  1 -1</clus>
<clus scale="   66.537">  1  3  2 -1</clus>
<clus scale="   66.537">  1  3  2 -1</clus>
</clustering>
</event>
<event>
 6    0  0.5775861E+002  0.7132102E+02  0.7546771E-02  0.1355658E+00
          2   -1    0    0  505    0 -0.00000000000E+00  0.00000000000E+00  0.54083719485E+04  0.54083719485E+04  0.00000000000E+00 0. -1.
         21   -1    0    0  504  502  0.00000000000E+00 -0.00000000000E+00 -0.20298078863E+02  0.20298078863E+02  0.00000000000E+00 0.  1.
         21    1    1    2  503  501  0.58328715936E+02 -0.34112327879E+02  0.45522461459E+03  0.46021227683E+03  0.00000000000E+00 0.  1.
         21    1    1    2  504  503  0.36319840256E+02 -0.37991644753E+02  0.90221975645E+02  0.10441504085E+03  0.00000000000E+00 0.  1.
         21    1    1    2  505  502 -0.57650005425E+02  0.96468185998E+01  0.71448993819E+02  0.92312203702E+02  0.00000000000E+00 0.  1.
          2    1    1    2  501    0 -0.36998550766E+02  0.62457154032E+02  0.47711782856E+04  0.47717305060E+04  0.00000000000E+00 0. -1.
<scales pt_clust_3="14000.00000" pt_clust_4="52.55945" pt_clust_5="35.40091" pt_clust_6="71.32102"></scales>
<clustering>
<clus scale="   52.559">  2  4  1 -1</clus>
<clus scale="   35.401">  2  5  1 -1</clus>
<clus scale="   71.321">  1  6  2 -1</clus>
<clus scale="   52.559">  2  3  1 -1</clus>
</clustering>
</event>
<event>
 6    0  0.5775861E+002  0.1163072E+03  0.7546771E-02  0.1249316E+00
          2   -1    0    0  502    0 -0.00000000000E+00  0.00000000000E+00  0.79961884056E+03  0.79961884056E+03  0.00000000000E+00 0.  1.
         21   -1    0    0  503  502  0.00000000000E+00 -0.00000000000E+00 -0.22839032302E+03  0.22839032302E+03  0.00000000000E+00 0. -1.
         21    1    1    2  503  505  0.77427701803E+02  0.42550055913E+02 -0.11246114542E+03  0.14301421431E+03  0.00000000000E+00 0. -1.
         21    1    1    2  504  501 -0.44654182469E+02 -0.65417667578E+02  0.83108911097E+01  0.79640053706E+02  0.00000000000E+00 0. -1.
         21    1    1    2  505  504  0.91325587606E+01  0.39213103276E+02 -0.57996125040E+02  0.70601852792E+02  0.00000000000E+00 0. -1.
          2    1    1    2  501    0 -0.41906078095E+02 -0.16345491611E+02  0.73337489689E+03  0.73475304277E+03  0.00000000000E+00 0.  1.
<scales pt_clust_3="33.05954" pt_clust_4="105.49466" pt_clust_5="33.05954" pt_clust_6="44.98105"></scales>
<clustering>
<clus scale="   33.060">  3  5 -1 -1</clus>
<clus scale="   44.981">  1  6  2 -1</clus>
<clus scale="  105.495">  1  4  2 -1</clus>
<clus scale="  116.307">  2  3  1 -1</clus>
</clustering>
</event>
<event>
 6    0  0.5775861E+002  0.7741461E+02  0.7546771E-02  0.1336553E+00
         -1   -1    0    0    0  501 -0.00000000000E+00  0.00000000000E+00  0.32487556945E+03  0.32487556945E+03  0.00000000000E+00 0.  1.
         21   -1    0    0  501  502  0.00000000000E+00 -0.00000000000E+00 -0.24003748133E+03  0.24003748133E+03  0.00000000000E+00 0. -1.
         21    1    1    2  503  502  0.25612116841E+02  0.22634345434E+02 -0.15403244803E+02  0.37490719822E+02  0.00000000000E+00 0. -1.
         21    1    1    2  504  503 -0.17461346804E+02 -0.10106311371E+03 -0.16837798141E+03  0.19715424471E+03  0.00000000000E+00 0. -1.
         21    1    1    2  505  504 -0.49935459033E+02  0.56791706026E+02  0.21374816590E+02  0.78585817591E+02  0.00000000000E+00 0. -1.
         -1    1    1    2    0  505  0.41784688996E+02  0.21637062248E+02  0.24724449774E+03  0.25168226866E+03  0.00000000000E+00 0.  1.
<scales pt_clust_3="34.18032" pt_clust_4="14000.00000" pt_clust_5="77.41461" pt_clust_6="47.39894"></scales>
<clustering>
<clus scale="   34.180">  2  3  1 -1</clus>
<clus scale="   47.399">  1  6  2 -1</clus>
<clus scale="   77.415">  1  5  2 -1</clus>
<clus scale="   34.180">  2  3  1 -1</clus>
</clustering>
</event>
<event>
 6    0  0.5775861E+002  0.1560831E+03  0.7546771E-02  0.1193191E+00
         21   -1    0    0  504  502  0.00000000000E+00  0.00000000000E+00  0.23798110166E+03  0.23798110166E+03  0.00000000000E+00 0. -1.
          2   -1    0    0  503    0 -0.00000000000E+00 -0.00000000000E+00 -0.24757188305E+04  0.24757188305E+04  0.00000000000E+00 0. -1.
         21    1    1    2  503  502  0.16912720275E+03  0.10530209999E+03 -0.81773783416E+03  0.84165771451E+03  0.00000000000E+00 0. -1.
         21    1    1    2  504  505 -0.58092627100E+02 -0.15029544637E+02  0.15992529858E+03  0.17081200679E+03  0.00000000000E+00 0. -1.
         21    1    1    2  505  501 -0.10128357193E+03 -0.19742031438E+02  0.15386400936E+02  0.10433048970E+03  0.00000000000E+00 0. -1.
          2    1    1    2  501    0 -0.97510037263E+01 -0.70530523917E+02 -0.15953115942E+04  0.15968997211E+04  0.00000000000E+00 0. -1.
<scales pt_clust_3="156.08307" pt_clust_4="60.00534" pt_clust_5="14000.00000" pt_clust_6="71.45377"></scales>
<clustering>
<clus scale="   60.005">  1  4  2 -1</clus>
<clus scale="   71.454">  2  6  1 -1</clus>
<clus scale="  156.083">  2  3  1 -1</clus>
<clus scale="   60.005">  1  3  2 -1</clus>
</clustering>
</event>
<event>
 6    0  0.5775861E+002  0.8427357E+02  0.7546771E-02  0.1317343E+00
         21   -1    0    0  505  502  0.00000000000E+00  0.00000000000E+00  0.12222940574E+03  0.12222940574E+03  0.00000000000E+00 0.  1.
          4   -1    0    0  503    0 -0.00000000000E+00 -0.00000000000E+00 -0.50532016683E+03  0.50532016683E+03  0.00000000000E+00 0.  1.
         21    1    1    2  503  502 -0.47287872683E+02 -0.13168430441E+03 -0.17656017435E+03  0.22527848122E+03  0.00000000000E+00 0.  1.
         21    1    1    2  504  501  0.17204816342E+01  0.63626797917E+02 -0.72525859555E+02  0.96495231874E+02  0.00000000000E+00 0.  1.
         21    1    1    2  505  504  0.10054041789E+02  0.78718692403E+02  0.65473364934E+02  0.10288089135E+03  0.00000000000E+00 0.  1.
          4    1    1    2  501    0  0.35513349260E+02 -0.10661185906E+02 -0.19947809211E+03  0.20289496813E+03  0.00000000000E+00 0.  1.
<scales pt_clust_3="14000.00000" pt_clust_4="61.76131" pt_clust_5="84.27357" pt_clust_6="37.07909"></scales>
<clustering>
<clus scale="   37.079">  2  6  1 -1</clus>
<clus scale="   61.761">  2  4  1 -1</clus>
<clus scale="   84.274">  1  5  2 -1</clus>
<clus scale="   84.274">  1  3  2 -1</clus>
</clustering>
</event>
<event>
 6    0  0.5775861E+002  0.1103444E+03  0.7546771E-02  0.1259933E+00
         21   -1    0    0  504  502  0.00000000000E+00  0.00000000000E+00  0.70468043314E+03  0.70468043314E+03  0.00000000000E+00 0. -1.
          2   -1    0    0  503    0 -0.00000000000E+00 -0.00000000000E+00 -0.15493620086E+03  0.15493620086E+03  0.00000000000E+00 0. -1.
         21    1    1    2  503  505 -0.88366669194E+02  0.95028434755E+02  0.26168534411E+03  0.29209294917E+03  0.00000000000E+00 0. -1.
         21    1    1    2  504  501 -0.28743875614E+02 -0.39098582668E+02  0.53259777096E+02  0.72052157555E+02  0.00000000000E+00 0.  1.
         21    1    1    2  505  502  0.92561751857E+01 -0.31998610840E+02  0.34076530197E+03  0.34238951342E+03  0.00000000000E+00 0. -1.
          2    1    1    2  501    0  0.10785436962E+03 -0.23931241246E+02 -0.10596619089E+03  0.15308201386E+03  0.00000000000E+00 0. -1.
<scales pt_clust_3="110.34443" pt_clust_4="52.22931" pt_clust_5="33.31048" pt_clust_6="14000.00000"></scales>
<clustering>
<clus scale="   33.310">  1  5  2 -1</clus>
<clus scale="   52.229">  1  4  2 -1</clus>
<clus scale="  110.344">  1  3  2 -1</clus>
<clus scale="   33.310">  1  3  2 -1</clus>
</clustering>
</event>
<event>
 6    0  0.5775861E+002  0.9415351E+02  0.7546771E-02  0.1293094E+00
         21   -1    0    0  504  502  0.00000000000E+00  0.00000000000E+00  0.49091247744E+03  0.49091247744E+03  0.00000000000E+00 0. -1.
          1   -1    0    0  503    0 -0.00000000000E+00 -0.00000000000E+00 -0.37364586065E+04  0.37364586065E+04  0.00000000000E+00 0.  1.
         21    1    1    2  503  502 -0.15308629864E+03 -0.54241811325E+02 -0.35536391466E+03  0.39071869775E+03  0.00000000000E+00 0. -1.
         21    1    1    2  504  505 -0.77753786528E+01  0.45753663459E+02  0.44147817564E+03  0.44391083992E+03  0.00000000000E+00 0. -1.
         21    1    1    2  505  501  0.68852454510E+02  0.12234560991E+02 -0.10983734438E+02  0.70788328113E+02  0.00000000000E+00 0. -1.
          1    1    1    2  501    0  0.92009222784E+02 -0.37464131257E+01 -0.33206766556E+04  0.33219532182E+04  0.00000000000E+00 0.  1.
<scales pt_clust_3="14000.00000" pt_clust_4="46.40964" pt_clust_5="75.82199" pt_clust_6="94.15351"></scales>
<clustering>
<clus scale="   46.410">  1  4  2 -1</clus>
<clus scale="   75.822">  1  5  2 -1</clus>
<clus scale="   94.154">  2  6  1 -1</clus>
<clus scale="   46.410">  1  3  2 -1</clus>
</clustering>
</event>
<event>
 6    0  0.5775861E+002  0.1145061E+03  0.7546771E-02  0.1252446E+00
         21   -1    0    0  503  502  0.00000000000E+00  0.00000000000E+00  0.46860835317E+03  0.46860835317E+03  0.00000000000E+00 0.  1.
          4   -1    0    0  504    0 -0.00000000000E+00 -0.00000000000E+00 -0.18132318356E+03  0.18132318356E+03  0.00000000000E+00 0. -1.
         21    1    1    2  503  505  0.56728482250E+02 -0.83599979388E+01  0.15130884079E+03  0.16180968934E+03  0.00000000000E+00 0.  1.
         21    1    1    2  504  502  0.25270456074E+02  0.57391118720E+02  0.21564441772E+03  0.22457704993E+03  0.00000000000E+00 0.  1.
         21    1    1    2  505  501 -0.43989968307E+02  0.85790188617E+02  0.10461770494E+02  0.96976916926E+02  0.00000000000E+00 0.  1.
          4    1    1    2  501    0 -0.38008970017E+02 -0.13482130940E+03 -0.90129859401E+02  0.16656788053E+03  0.00000000000E+00 0. -1.
<scales pt_clust_3="57.34117" pt_clust_4="83.14929" pt_clust_5="114.50613" pt_clust_6="14000.00000"></scales>
<clustering>
<clus scale="   57.341">  1  3  2 -1</clus>
<clus scale="   83.149">  1  4  2 -1</clus>
<clus scale="  114.506">  1  5  2 -1</clus>
<clus scale="   57.341">  1  3  2 -1</clus>
</clustering>
</event>
<event>
 6    0  0.5775861E+002  0.1320444E+03  0.7546771E-02  0.1224453E+00
         -4   -1    0    0    0  501 -0.00000000000E+00  0.00000000000E+00  0.24915958650E+03  0.24915958650E+03  0.00000000000E+00 0. -1.
         21   -1    0    0  504  502  0.00000000000E+00 -0.00000000000E+00 -0.35344464166E+03  0.35344464166E+03  0.00000000000E+00 0.  1.
         21    1    1    2  503  502 -0.11275060334E+02 -0.74452646504E+02 -0.16818050830E+03  0.18426884417E+03  0.00000000000E+00 0.  1.
         21    1    1    2  504  501  0.87505336055E+02  0.16414808247E+03  0.14193238125E+03  0.23397986594E+03  0.00000000000E+00 0. -1.
         21    1    1    2  505  503  0.18635550957E+02 -0.46007586165E+02 -0.60817920015E+02  0.78503510362E+02  0.00000000000E+00 0.  1.
         -4    1    1    2    0  505 -0.94865826679E+02 -0.43687849805E+02 -0.17219008090E+02  0.10585200769E+03  0.00000000000E+00 0. -1.
<scales pt_clust_3="36.70858" pt_clust_4="124.06265" pt_clust_5="36.70858" pt_clust_6="104.44210"></scales>
<clustering>
<clus scale="   36.709">  3  5 -1 -1</clus>
<clus scale="  104.442">  1  6  2 -1</clus>
<clus scale="  124.063">  1  4  2 -1</clus>
<clus scale="  132.044">  2  3  1 -1</clus>
</clustering>
</event>
<event>
 6    0  0.5775861E+002  0.2258829E+03  0.7546771E-02  0.1129572E+00
         21   -1    0    0  504  502  0.00000000000E+00  0.00000000000E+00  0.43160595289E+03  0.43160595289E+03  0.00000000000E+00 0.  1.
          1   -1    0    0  505    0 -0.00000000000E+00 -0.00000000000E+00 -0.35204843589E+03  0.35204843589E+03  0.00000000000E+00 0.  1.
         21    1    1    2  503  502 -0.23770078657E+03  0.12830378133E+03  0.48910315585E+02  0.27451000566E+03  0.00000000000E+00 0.  1.
         21    1    1    2  504  501  0.21629028555E+03  0.23936071795E+01  0.18887822961E+03  0.28716232796E+03  0.00000000000E+00 0.  1.
         21    1    1    2  505  503  0.25549544868E+02 -0.56354760236E+02 -0.20095722002E+02  0.65057484482E+02  0.00000000000E+00 0.  1.
          1    1    1    2  501    0 -0.41390438534E+01 -0.74342628272E+02 -0.13813530620E+03  0.15692457067E+03  0.00000000000E+00 0.  1.
<scales pt_clust_3="225.88286" pt_clust_4="14000.00000" pt_clust_5="61.87599" pt_clust_6="101.52671"></scales>
<clustering>
<clus scale="   61.876">  2  5  1 -1</clus>
<clus scale="  101.527">  2  6  1 -1</clus>
<clus scale="  225.883">  2  3  1 -1</clus>
<clus scale="  225.883">  1  3  2 -1</clus>
</clustering>
</event>
<event>
 6    0  0.5775861E+002  0.7639469E+02  0.7546771E-02  0.1339606E+00
          2   -1    0    0  504    0 -0.00000000000E+00  0.00000000000E+00  0.74186338117E+03  0.74186338117E+03  0.00000000000E+00 0.  1.
         21   -1    0    0  505  502  0.00000000000E+00 -0.00000000000E+00 -0.11549854667E+03  0.11549854667E+03  0.00000000000E+00 0. -1.
         21    1    1    2  503  502  0.11238883468E+02 -0.30955405045E+02 -0.59954374815E+02  0.68403776669E+02  0.00000000000E+00 0. -1.
         21    1    1    2  504  503 -0.77739359783E+02  0.54548702598E+02  0.11373847048E+02  0.95646920554E+02  0.00000000000E+00 0. -1.
         21    1    1    2  505  501  0.10133176898E+03  0.11057273740E+02  0.34551941036E+03  0.36024166006E+03  0.00000000000E+00 0.  1.
          2    1    1    2  501    0 -0.34831292665E+02 -0.34650571294E+02  0.32942595190E+03  0.33306957055E+03  0.00000000000E+00 0.  1.
<scales pt_clust_3="32.93250" pt_clust_4="14000.00000" pt_clust_5="76.39469" pt_clust_6="49.63476"></scales>
<clustering>
<clus scale="   32.933">  2  3  1 -1</clus>
<clus scale="   49.635">  1  6  2 -1</clus>
<clus scale="   76.395">  1  5  2 -1</clus>
<clus scale="   32.933">  2  3  1 -1</clus>
</clustering>
</event>
<event>
 6    0  0.5775861E+002  0.2122750E+03  0.7546771E-02  0.1139777E+00
          1   -1    0    0  504    0 -0.00000000000E+00  0.00000000000E+00  0.76386518403E+03  0.76386518403E+03  0.00000000000E+00 0.  1.
         21   -1    0    0  505  502  0.00000000000E+00 -0.00000000000E+00 -0.21446258778E+03  0.21446258778E+03  0.00000000000E+00 0. -1.
         21    1    1    2  503  501  0.95178712566E+02 -0.32186083855E+02 -0.36447815744E+01  0.10053962280E+03  0.00000000000E+00 0.  1.
         21    1    1    2  504  502  0.11530739065E+02 -0.19238380423E+03 -0.34948309543E+02  0.19587207665E+03  0.00000000000E+00 0. -1.
         21    1    1    2  505  503 -0.21226084591E+02  0.25019940898E+02 -0.18550046075E+02  0.37691488681E+02  0.00000000000E+00 0.  1.
          1    1    1    2  501    0 -0.85483367040E+02  0.19954994719E+03  0.60654573344E+03  0.64422458368E+03  0.00000000000E+00 0.  1.
<scales pt_clust_3="92.73229" pt_clust_4="14000.00000" pt_clust_5="32.81073" pt_clust_6="212.27501"></scales>
<clustering>
<clus scale="   32.811">  2  5  1 -1</clus>
<clus scale="   92.732">  2  3  1 -1</clus>
<clus scale="  212.275">  1  6  2 -1</clus>
<clus scale="   32.811">  2  3  1 -1</clus>
</clustering>
</event>
<event>
 6    0  0.5775861E+002  0.9495532E+02  0.7546771E-02  0.1291277E+00
         21   -1    0    0  504  502  0.00000000000E+00  0.00000000000E+00  0.12511708046E+03  0.12511708046E+03  0.00000000000E+00 0. -1.
          2   -1    0    0  505    0 -0.00000000000E+00 -0.00000000000E+00 -0.26208926259E+03  0.26208926259E+03  0.00000000000E+00 0. -1.
         21    1    1    2  503  501  0.11573480291E+03  0.42092092547E+02 -0.39665926690E+01  0.12321535098E+03  0.00000000000E+00 0. -1.
         21    1    1    2  504  503 -0.34163045317E+02 -0.83678925323E+02  0.15905062592E+01  0.90398041565E+02  0.00000000000E+00 0. -1.
         21    1    1    2  505  502 -0.37769880289E+02  0.24010049057E+02 -0.18792259625E+02  0.48540656512E+02  0.00000000000E+00 0. -1.
          2    1    1    2  501    0 -0.43801877300E+02  0.17576783720E+02 -0.11580383609E+03  0.12505229400E+03  0.00000000000E+00 0. -1.
<scales pt_clust_3="14000.00000" pt_clust_4="94.95532" pt_clust_5="44.75541" pt_clust_6="70.52475"></scales>
<clustering>
<clus scale="   44.755">  2  5  1 -1</clus>
<clus scale="   70.525">  2  6  1 -1</clus>
<clus scale="   94.955">  1  4  2 -1</clus>
<clus scale="   94.955">  1  3  2 -1</clus>
</clustering>
</event>
<event>
 6    0  0.5775861E+002  0.2710422E+03  0.7546771E-02  0.1100685E+00
         -4   -1    0    0    0  501 -0.00000000000E+00  0.00000000000E+00  0.12593475145E+04  0.12593475145E+04  0.00000000000E+00 0. -1.
         21   -1    0    0  503  502  0.00000000000E+00 -0.00000000000E+00 -0.29205583569E+03  0.29205583569E+03  0.00000000000E+00 0. -1.
         21    1    1    2  503  504 -0.17039995599E+03  0.12330981111E+03 -0.15146875588E+03  0.25919922555E+03  0.00000000000E+00 0. -1.
         21    1    1    2  504  501 -0.27904508658E+02  0.78014388951E+02 -0.13828899488E+02  0.84000862781E+02  0.00000000000E+00 0. -1.
         21    1    1    2  505  502  0.17732091862E+02 -0.29814396290E+02 -0.12097860262E+02  0.36738039290E+02  0.00000000000E+00 0. -1.
         -4    1    1    2    0  505  0.18057237279E+03 -0.17150980378E+03  0.11446871944E+04  0.11714652225E+04  0.00000000000E+00 0. -1.
<scales pt_clust_3="66.07428" pt_clust_4="66.07428" pt_clust_5="34.68898" pt_clust_6="250.71296"></scales>
<clustering>
<clus scale="   34.689">  2  5  1 -1</clus>
<clus scale="   66.074">  3  4 -1 -1</clus>
<clus scale="  250.713">  1  6  2 -1</clus>
<clus scale="   34.689">  2  3  1 -1</clus>
</clustering>
</event>
<event>
 6    0  0.5775861E+002  0.1246651E+03  0.7546771E-02  0.1235594E+00
         21   -1    0    0  504  502  0.00000000000E+00  0.00000000000E+00  0.34164984269E+03  0.34164984269E+03  0.00000000000E+00 0.  1.
         -1   -1    0    0    0  501 -0.00000000000E+00 -0.00000000000E+00 -0.59468773914E+03  0.59468773914E+03  0.00000000000E+00 0. -1.
         21    1    1    2  503  505 -0.40635575701E+02  0.33015242967E+02  0.17154005262E+03  0.17935229559E+03  0.00000000000E+00 0.  1.
         21    1    1    2  504  503 -0.62464898929E+02  0.66677409369E+01  0.10385209353E+03  0.12137371914E+03  0.00000000000E+00 0.  1.
         21    1    1    2  505  501  0.17295198934E+03 -0.47897378780E+01 -0.99409451517E+02  0.19954340695E+03  0.00000000000E+00 0. -1.
         -1    1    1    2    0  502 -0.69851514713E+02 -0.34893246026E+02 -0.42902059108E+03  0.43606816015E+03  0.00000000000E+00 0. -1.
<scales pt_clust_3="44.63914" pt_clust_4="44.63914" pt_clust_5="114.67578" pt_clust_6="78.08183"></scales>
<clustering>
<clus scale="   44.639">  3  4 -1 -1</clus>
<clus scale="   78.082">  2  6  1 -1</clus>
<clus scale="  114.676">  2  5  1 -1</clus>
<clus scale="  124.665">  1  3  2 -1</clus>
</clustering>
</event>
<event>
 6    0  0.5775861E+002  0.9302155E+02  0.7546771E-02  0.1295695E+00
         21   -1    0    0  505  502  0.00000000000E+00  0.00000000000E+00  0.21438544033E+03  0.21438544033E+03  0.00000000000E+00 0. -1.
          4   -1    0    0  504    0 -0.00000000000E+00 -0.00000000000E+00 -0.51000175432E+03  0.51000175432E+03  0.00000000000E+00 0. -1.
         21    1    1    2  503  501 -0.96001679311E+02  0.52519418897E+02 -0.94158886023E+02  0.14436241758E+03  0.00000000000E+00 0. -1.
         21    1    1    2  504  502  0.47426643656E+02 -0.42628100500E+02  0.76764436211E+02  0.99795892438E+02  0.00000000000E+00 0. -1.
         21    1    1    2  505  503 -0.40599757593E+02 -0.50150721167E+02  0.83489945732E+02  0.10551780034E+03  0.00000000000E+00 0.  1.
          4    1    1    2  501    0  0.89174793247E+02  0.40259402770E+02 -0.36171180991E+03  0.37471108429E+03  0.00000000000E+00 0. -1.
<scales pt_clust_3="14000.00000" pt_clust_4="63.76866" pt_clust_5="82.25208" pt_clust_6="93.02155"></scales>
<clustering>
<clus scale="   63.769">  1  4  2 -1</clus>
<clus scale="   82.252">  1  5  2 -1</clus>
<clus scale="   93.022">  2  6  1 -1</clus>
<clus scale="   63.769">  1  3  2 -1</clus>
</clustering>
</event>
<event>
 6    0  0.5775861E+002  0.9157576E+02  0.7546771E-02  0.1299080E+00
         -3   -1    0    0    0  501 -0.00000000000E+00  0.00000000000E+00  0.33356622459E+02  0.33356622459E+02  0.00000000000E+00 0. -1.
         21   -1    0    0  503  502  0.00000000000E+00 -0.00000000000E+00 -0.26456606718E+04  0.26456606718E+04  0.00000000000E+00 0.  1.
         21    1    1    2  503  505  0.60643963401E+02  0.16401971549E+02 -0.16701736265E+04  0.16713547372E+04  0.00000000000E+00 0.  1.
         21    1    1    2  504  502 -0.19616693894E+02  0.79841607119E+02 -0.77406121035E+03  0.77841521971E+03  0.00000000000E+00 0.  1.
         21    1    1    2  505  501 -0.24803635952E+02 -0.41261372186E+02 -0.16495525362E+03  0.17183700675E+03  0.00000000000E+00 0. -1.
         -3    1    1    2    0  504 -0.16223633555E+02 -0.54982206482E+02 -0.31139588474E+01  0.57410330560E+02  0.00000000000E+00 0. -1.
<scales pt_clust_3="62.14106" pt_clust_4="14000.00000" pt_clust_5="48.14272" pt_clust_6="91.57576"></scales>
<clustering>
<clus scale="   48.143">  1  5  2 -1</clus>
<clus scale="   62.141">  2  3  1 -1</clus>
<clus scale="   91.576">  1  6  2 -1</clus>
<clus scale="   62.141">  2  3  1 -1</clus>
</clustering>
</event>
<event>
 6    0  0.5775861E+002  0.8800375E+02  0.7546771E-02  0.1307759E+00
         21   -1    0    0  504  502  0.00000000000E+00  0.00000000000E+00  0.11138403104E+04  0.11138403104E+04  0.00000000000E+00 0.  1.
          3   -1    0    0  505    0 -0.00000000000E+00 -0.00000000000E+00 -0.91943529918E+02  0.91943529918E+02  0.00000000000E+00 0.  1.
         21    1    1    2  503  502  0.27651344987E+02 -0.16815957063E+02  0.26082233229E+03  0.26282249202E+03  0.00000000000E+00 0.  1.
         21    1    1    2  504  501 -0.98044328750E+02 -0.60891252465E+02  0.71332420134E+03  0.72260075508E+03  0.00000000000E+00 0.  1.
         21    1    1    2  505  503  0.29536767823E+02  0.52397589268E+02  0.11962628681E+03  0.13389688761E+03  0.00000000000E+00 0.  1.
          3    1    1    2  501    0  0.40856215940E+02  0.25309620261E+02 -0.71876039986E+02  0.86463705581E+02  0.00000000000E+00 0.  1.
<scales pt_clust_3="32.36315" pt_clust_4="14000.00000" pt_clust_5="88.00375" pt_clust_6="48.18651"></scales>
<clustering>
<clus scale="   32.363">  1  3  2 -1</clus>
<clus scale="   48.187">  2  6  1 -1</clus>
<clus scale="   88.004">  2  5  1 -1</clus>
<clus scale="   32.363">  1  3  2 -1</clus>
</clustering>
</event>
<event>
 6    0  0.5775861E+002  0.8468312E+02  0.7546771E-02  0.1316263E+00
          1   -1    0    0  505    0 -0.00000000000E+00  0.00000000000E+00  0.11403480563E+04  0.11403480563E+04  0.00000000000E+00 0.  1.
         21   -1    0    0  504  502  0.00000000000E+00 -0.00000000000E+00 -0.23377473309E+03  0.23377473309E+03  0.00000000000E+00 0. -1.
         21    1    1    2  503  502  0.49451898186E+01 -0.34083055081E+02 -0.16147620939E+03  0.16510807293E+03  0.00000000000E+00 0. -1.
         21    1    1    2  504  501  0.63605605611E+02  0.28147704550E+02 -0.15274608419E+02  0.71212920168E+02  0.00000000000E+00 0. -1.
         21    1    1    2  505  503 -0.45063468052E+02 -0.76989892225E+02  0.52765299980E+02  0.10364524369E+03  0.00000000000E+00 0. -1.
          1    1    1    2  501    0 -0.23487327378E+02  0.82925242756E+02  0.10305588410E+04  0.10341565526E+04  0.00000000000E+00 0.  1.
<scales pt_clust_3="34.43994" pt_clust_4="67.03142" pt_clust_5="84.68312" pt_clust_6="14000.00000"></scales>
<clustering>
<clus scale="   34.440">  2  3  1 -1</clus>
<clus scale="   67.031">  2  4  1 -1</clus>
<clus scale="   84.683">  2  5  1 -1</clus>
<clus scale="   34.440">  2  3  1 -1</clus>
</clustering>
</event>
<event>
 6    0  0.5775861E+002  0.1610785E+03  0.7546771E-02  0.1187484E+00
          2   -1    0    0  503    0 -0.00000000000E+00  0.00000000000E+00  0.23090532200E+03  0.23090532200E+03  0.00000000000E+00 0.  1.
         21   -1    0    0  504  502  0.00000000000E+00 -0.00000000000E+00 -0.95177851541E+03  0.95177851541E+03  0.00000000000E+00 0.  1.
         21    1    1    2  503  505  0.12711939783E+03 -0.10767600420E+03  0.87450358714E+02  0.18815161021E+03  0.00000000000E+00 0.  1.
         21    1    1    2  504  501 -0.89273970740E+02 -0.15225648836E+02 -0.47407236871E+03  0.48264507975E+03  0.00000000000E+00 0.  1.
         21    1    1    2  505  502  0.10968608529E+02  0.16230078841E+03 -0.39337673649E+03  0.42568428806E+03  0.00000000000E+00 0.  1.
          2    1    1    2  501    0 -0.48814035618E+02 -0.39399135373E+02  0.59125553067E+02  0.86202859389E+02  0.00000000000E+00 0.  1.
<scales pt_clust_3="14000.00000" pt_clust_4="92.04962" pt_clust_5="161.07854" pt_clust_6="62.73039"></scales>
<clustering>
<clus scale="   62.730">  1  6  2 -1</clus>
<clus scale="   92.050">  2  4  1 -1</clus>
<clus scale="  161.079">  2  5  1 -1</clus>
<clus scale="   92.050">  2  3  1 -1</clus>
</clustering>
</event>
<event>
 6    0  0.5775861E+002  0.1112235E+03  0.7546771E-02  0.1258321E+00
         21   -1    0    0  504  502  0.00000000000E+00  0.00000000000E+00  0.50713911591E+03  0.50713911591E+03  0.00000000000E+00 0.  1.
          2   -1    0    0  505    0 -0.00000000000E+00 -0.00000000000E+00 -0.22050077620E+04  0.22050077620E+04  0.00000000000E+00 0.  1.
         21    1    1    2  503  502  0.66751624991E+01  0.12083449389E+03  0.46843028390E+03  0.48381035911E+03  0.00000000000E+00 0.  1.
         21    1    1    2  504  501  0.26589965574E+02 -0.14471780020E+02  0.20854018706E+02  0.36760696162E+02  0.00000000000E+00 0.  1.
         21    1    1    2  505  503 -0.40426104623E+01 -0.33546316429E+02 -0.19699217704E+03  0.19986899675E+03  0.00000000000E+00 0. -1.
          2    1    1    2  501    0 -0.29222517611E+02 -0.72816397443E+02 -0.19901607716E+04  0.19917068259E+04  0.00000000000E+00 0.  1.
<scales pt_clust_3="111.22352" pt_clust_4="30.27307" pt_clust_5="33.82277" pt_clust_6="14000.00000"></scales>
<clustering>
<clus scale="   30.273">  1  4  2 -1</clus>
<clus scale="   33.823">  2  5  1 -1</clus>
<clus scale="  111.224">  1  3  2 -1</clus>
<clus scale="   30.273">  1  3  2 -1</clus>
</clustering>
</event>
<event>
 6    0  0.5775861E+002  0.1310808E+03  0.7546771E-02  0.1225861E+00
          2   -1    0    0  504    0 -0.00000000000E+00  0.00000000000E+00  0.64160390877E+03  0.64160390877E+03  0.00000000000E+00 0. -1.
         21   -1    0    0  503  502  0.00000000000E+00 -0.00000000000E+00 -0.17489082268E+03  0.17489082268E+03  0.00000000000E+00 0. -1.
         21    1    1    2  503  505  0.26656089155E+02  0.40675059479E+02 -0.89083254424E+01  0.49440528060E+02  0.00000000000E+00 0. -1.
         21    1    1    2  504  502  0.59764419555E+02 -0.60599927147E+02  0.28738001357E+02  0.89833232920E+02  0.00000000000E+00 0. -1.
         21    1    1    2  505  501 -0.19412949351E+03 -0.46079654169E+02 -0.13346253616E+02  0.19996929080E+03  0.00000000000E+00 0. -1.
          2    1    1    2  501    0  0.10770898480E+03  0.66004521837E+02  0.46022966380E+03  0.47725167967E+03  0.00000000000E+00 0. -1.
<scales pt_clust_3="48.63134" pt_clust_4="83.56160" pt_clust_5="14000.00000" pt_clust_6="131.08077"></scales>
<clustering>
<clus scale="   48.631">  2  3  1 -1</clus>
<clus scale="   83.562">  2  4  1 -1</clus>
<clus scale="  131.081">  1  6  2 -1</clus>
<clus scale="   48.631">  2  3  1 -1</clus>
</clustering>
</event>
<event>
 6    0  0.5775861E+002  0.8635569E+02  0.7546771E-02  0.1311925E+00
          1   -1    0    0  503    0 -0.00000000000E+00  0.00000000000E+00  0.13813409395E+04  0.13813409395E+04  0.00000000000E+00 0.  1.
         21   -1    0    0  505  502  0.00000000000E+00 -0.00000000000E+00 -0.17876871488E+03  0.17876871488E+03  0.00000000000E+00 0. -1.
         21    1    1    2  503  504  0.10465916680E+03  0.15626347193E+02  0.10995067633E+02  0.10638898173E+03  0.00000000000E+00 0. -1.
         21    1    1    2  504  502 -0.11993157543E+01 -0.41514960769E+02 -0.10489835771E+03  0.11282107860E+03  0.00000000000E+00 0.  1.
         21    1    1    2  505  501 -0.21980892072E+02  0.52816496623E+02  0.18614010037E+02  0.60159980897E+02  0.00000000000E+00 0. -1.
          1    1    1    2  501    0 -0.81478958974E+02 -0.26927883047E+02  0.12778615046E+04  0.12807396131E+04  0.00000000000E+00 0.  1.
<scales pt_clust_3="86.35569" pt_clust_4="41.53228" pt_clust_5="46.23454" pt_clust_6="14000.00000"></scales>
<clustering>
<clus scale="   41.532">  2  4  1 -1</clus>
<clus scale="   46.235">  2  5  1 -1</clus>
<clus scale="   86.356">  2  3  1 -1</clus>
<clus scale="   41.532">  2  3  1 -1</clus>
</clustering>
</event>
<event>
 6    0  0.5775861E+002  0.1088001E+03  0.7546771E-02  0.1262808E+00
         21   -1    0    0  503  502  0.00000000000E+00  0.00000000000E+00  0.58557984714E+02  0.58557984714E+02  0.00000000000E+00 0.  1.
          2   -1    0    0  504    0 -0.00000000000E+00 -0.00000000000E+00 -0.72830496074E+03  0.72830496074E+03  0.00000000000E+00 0.  1.
         21    1    1    2  503  501  0.55207038224E+01  0.32363774552E+02 -0.52871738305E+01  0.33254267111E+02  0.00000000000E+00 0. -1.
         21    1    1    2  504  505  0.18218218412E+02 -0.12519725499E+03 -0.11824731441E+03  0.17317240977E+03  0.00000000000E+00 0.  1.
         21    1    1    2  505  502 -0.33852593875E+02 -0.12667273660E+02 -0.15642952869E+02  0.39384767468E+02  0.00000000000E+00 0.  1.
          2    1    1    2  501    0  0.10113671641E+02  0.10550075410E+03 -0.53056953491E+03  0.54105150110E+03  0.00000000000E+00 0.  1.
<scales pt_clust_3="32.83127" pt_clust_4="108.80010" pt_clust_5="32.63440" pt_clust_6="14000.00000"></scales>
<clustering>
<clus scale="   32.831">  1  3  2 -1</clus>
<clus scale="   32.634">  1  5  2 -1</clus>
<clus scale="  108.800">  1  4  2 -1</clus>
<clus scale="   32.831">  1  3  2 -1</clus>
</clustering>
</event>
<event>
 6    0  0.5775861E+002  0.1373423E+03  0.7546771E-02  0.1216951E+00
         21   -1    0    0  505  502  0.00000000000E+00  0.00000000000E+00  0.51462075274E+03  0.51462075274E+03  0.00000000000E+00 0.  1.
          2   -1    0    0  502    0 -0.00000000000E+00 -0.00000000000E+00 -0.19217208864E+04  0.19217208864E+04  0.00000000000E+00 0.  1.
         21    1    1    2  503  501 -0.10049085285E+03  0.75530947251E+00 -0.96855288607E+03  0.97375236848E+03  0.00000000000E+00 0.  1.
         21    1    1    2  504  503  0.89822788159E+02 -0.12304361008E+03  0.30069088318E+01  0.15237094459E+03  0.00000000000E+00 0. -1.
         21    1    1    2  505  504  0.34329615874E+02  0.55061253297E+02  0.43044672391E+03  0.43530982790E+03  0.00000000000E+00 0.  1.
          2    1    1    2  501    0 -0.23661551185E+02  0.67227047314E+02 -0.87200088035E+03  0.87490849820E+03  0.00000000000E+00 0.  1.
<scales pt_clust_3="14000.00000" pt_clust_4="137.34228" pt_clust_5="64.88655" pt_clust_6="71.99619"></scales>
<clustering>
<clus scale="   64.887">  1  5  2 -1</clus>
<clus scale="   71.996">  2  6  1 -1</clus>
<clus scale="  137.342">  1  4  2 -1</clus>
<clus scale="   64.887">  1  3  2 -1</clus>
</clustering>
</event>
<event>
 6    0  0.5775861E+002  0.1009758E+03  0.7546771E-02  0.1278257E+00
          1   -1    0    0  504    0 -0.00000000000E+00  0.00000000000E+00  0.27189026273E+03  0.27189026273E+03  0.00000000000E+00 0.  1.
         21   -1    0    0  505  502  0.00000000000E+00 -0.00000000000E+00 -0.65879901375E+03  0.65879901375E+03  0.00000000000E+00 0. -1.
         21    1    1    2  503  501  0.40352555628E+02  0.68709342051E+02 -0.44074648379E+03  0.44789146610E+03  0.00000000000E+00 0. -1.
         21    1    1    2  504  502  0.83369712694E+02 -0.11523422410E+03  0.38915223628E+02  0.14745789239E+03  0.00000000000E+00 0. -1.
         21    1    1    2  505  503 -0.43317295967E+02  0.34989334797E+02 -0.14535421641E+03  0.15565503496E+03  0.00000000000E+00 0. -1.
          1    1    1    2  501    0 -0.80404972355E+02  0.11535547256E+02  0.16027672557E+03  0.17968488303E+03  0.00000000000E+00 0.  1.
<scales pt_clust_3="14000.00000" pt_clust_4="100.97578" pt_clust_5="55.68341" pt_clust_6="82.14352"></scales>
<clustering>
<clus scale="   55.683">  2  5  1 -1</clus>
<clus scale="   82.144">  1  6  2 -1</clus>
<clus scale="  100.976">  1  4  2 -1</clus>
<clus scale="   55.683">  2  3  1 -1</clus>
</clustering>
</event>
<event>
 6    0  0.5775861E+002  0.1115335E+03  0.7546771E-02  0.1257756E+00
          2   -1    0    0  504    0 -0.00000000000E+00  0.00000000000E+00  0.17118649274E+04  0.17118649274E+04  0.00000000000E+00 0. -1.
         21   -1    0    0  503  502  0.00000000000E+00 -0.00000000000E+00 -0.51450622874E+02  0.51450622874E+02  0.00000000000E+00 0. -1.
         21    1    1    2  503  505 -0.13725372700E+02 -0.29241264270E+02 -0.10202707592E+01  0.32318390187E+02  0.00000000000E+00 0. -1.
         21    1    1    2  504  502  0.25898028984E+02 -0.28393203853E+02  0.22226645325E+03  0.22556431050E+03  0.00000000000E+00 0.  1.
         21    1    1    2  505  501 -0.10117329181E+03  0.27725733220E+02  0.55684091876E+02  0.11876644874E+03  0.00000000000E+00 0. -1.
          2    1    1    2  501    0  0.89000635521E+02  0.29908734903E+02  0.13834840302E+04  0.13866664009E+04  0.00000000000E+00 0. -1.
<scales pt_clust_3="32.30228" pt_clust_4="39.04159" pt_clust_5="111.53354" pt_clust_6="14000.00000"></scales>
<clustering>
<clus scale="   32.302">  2  3  1 -1</clus>
<clus scale="   39.042">  1  4  2 -1</clus>
<clus scale="  111.534">  2  5  1 -1</clus>
<clus scale="   32.302">  2  3  1 -1</clus>
</clustering>
</event>
<event>
 6    0  0.5775861E+002  0.1103659E+03  0.7546771E-02  0.1259894E+00
          4   -1    0    0  503    0 -0.00000000000E+00  0.00000000000E+00  0.37631030875E+03  0.37631030875E+03  0.00000000000E+00 0.  1.
         21   -1    0    0  504  502  0.00000000000E+00 -0.00000000000E+00 -0.24914980326E+03  0.24914980326E+03  0.00000000000E+00 0.  1.
         21    1    1    2  503  505  0.36342706356E+02  0.70161198806E+02 -0.16638051026E+02  0.80747822665E+02  0.00000000000E+00 0. -1.
         21    1    1    2  504  501 -0.54281581738E+02  0.82211278573E+02 -0.12182494920E+03  0.15667323539E+03  0.00000000000E+00 0.  1.
         21    1    1    2  505  502  0.16982534275E+02 -0.33014202578E+02 -0.43193965076E+02  0.56956673544E+02  0.00000000000E+00 0. -1.
          4    1    1    2  501    0  0.95634110659E+00 -0.11935827480E+03  0.30881747079E+03  0.33108238041E+03  0.00000000000E+00 0.  1.
<scales pt_clust_3="110.36593" pt_clust_4="72.75279" pt_clust_5="37.12606" pt_clust_6="14000.00000"></scales>
<clustering>
<clus scale="   37.126">  2  5  1 -1</clus>
<clus scale="   72.753">  2  4  1 -1</clus>
<clus scale="  110.366">  2  3  1 -1</clus>
<clus scale="   37.126">  2  3  1 -1</clus>
</clustering>
</event>
<event>
 6    0  0.5775861E+002  0.1033308E+03  0.7546771E-02  0.1273444E+00
          3   -1    0    0  503    0 -0.00000000000E+00  0.00000000000E+00  0.97655587650E+03  0.97655587650E+03  0.00000000000E+00 0. -1.
         21   -1    0    0  505  502  0.00000000000E+00 -0.00000000000E+00 -0.33440987293E+03  0.33440987293E+03  0.00000000000E+00 0. -1.
         21    1    1    2  503  504  0.71746285465E+02 -0.23569707725E+02  0.41647397352E+03  0.42326543825E+03  0.00000000000E+00 0. -1.
         21    1    1    2  504  502  0.31340121644E+02  0.24799830696E+01 -0.43940605933E+02  0.54028977322E+02  0.00000000000E+00 0. -1.
         21    1    1    2  505  501 -0.12409661077E+03  0.44551367095E+02 -0.26613114027E+03  0.29700265476E+03  0.00000000000E+00 0. -1.
          3    1    1    2  501    0  0.21010203659E+02 -0.23461642439E+02  0.53574377626E+03  0.53666867910E+03  0.00000000000E+00 0. -1.
<scales pt_clust_3="14000.00000" pt_clust_4="31.43809" pt_clust_5="103.33084" pt_clust_6="31.52499"></scales>
<clustering>
<clus scale="   31.438">  2  4  1 -1</clus>
<clus scale="   31.525">  1  6  2 -1</clus>
<clus scale="  103.331">  2  5  1 -1</clus>
<clus scale="   31.438">  2  3  1 -1</clus>
</clustering>
</event>
<event>
 6    0  0.5775861E+002  0.6816390E+02  0.7546771E-02  0.1366450E+00
          1   -1    0    0  504    0 -0.00000000000E+00  0.00000000000E+00  0.40620169864E+03  0.40620169864E+03  0.00000000000E+00 0.  1.
         21   -1    0    0  503  502  0.00000000000E+00 -0.00000000000E+00 -0.12036920961E+03  0.12036920961E+03  0.00000000000E+00 0.  1.
         21    1    1    2  503  501 -0.38611664843E+02  0.42044872688E+02  0.74878292915E+01  0.57573427628E+02  0.00000000000E+00 0.  1.
         21    1    1    2  504  505  0.78357192493E+02  0.58454360203E+02  0.13128971297E+03  0.16368796710E+03  0.00000000000E+00 0.  1.
         21    1    1    2  505  502  0.10864357925E+02 -0.91706134963E+02 -0.47668427971E+02  0.10392462888E+03  0.00000000000E+00 0.  1.
          1    1    1    2  501    0 -0.50609885575E+02 -0.87930979285E+01  0.19472337475E+03  0.20138488464E+03  0.00000000000E+00 0.  1.
<scales pt_clust_3="61.79265" pt_clust_4="14000.00000" pt_clust_5="68.16390" pt_clust_6="51.36807"></scales>
<clustering>
<clus scale="   51.368">  1  6  2 -1</clus>
<clus scale="   61.793">  2  3  1 -1</clus>
<clus scale="   68.164">  2  5  1 -1</clus>
<clus scale="   61.793">  2  3  1 -1</clus>
</clustering>
</event>
<event>
 6    0  0.5775861E+002  0.7395431E+02  0.7546771E-02  0.1347140E+00
         -3   -1    0    0    0  501 -0.00000000000E+00  0.00000000000E+00  0.12202088159E+04  0.12202088159E+04  0.00000000000E+00 0.  1.
         21   -1    0    0  503  502  0.00000000000E+00 -0.00000000000E+00 -0.87673385022E+02  0.87673385022E+02  0.00000000000E+00 0.  1.
         21    1    1    2  503  505 -0.18323478601E+02  0.25993734250E+02  0.29423533605E+02  0.43326301690E+02  0.00000000000E+00 0. -1.
         21    1    1    2  504  502  0.11715786365E+03  0.34820380762E+02 -0.86341625543E+01  0.12252743649E+03  0.00000000000E+00 0.  1.
         21    1    1    2  505  501 -0.28402944949E+02 -0.41442217625E+02  0.31465838419E+02  0.59281393968E+02  0.00000000000E+00 0.  1.
         -3    1    1    2    0  504 -0.70431440097E+02 -0.19371897387E+02  0.10802802214E+04  0.10827470688E+04  0.00000000000E+00 0.  1.
<scales pt_clust_3="31.80289" pt_clust_4="73.95431" pt_clust_5="48.60396" pt_clust_6="14000.00000"></scales>
<clustering>
<clus scale="   31.803">  2  3  1 -1</clus>
<clus scale="   48.604">  2  5  1 -1</clus>
<clus scale="   73.954">  2  4  1 -1</clus>
<clus scale="   31.803">  2  3  1 -1</clus>
</clustering>
</event>
<event>
 6    0  0.5775861E+002  0.1153188E+03  0.7546771E-02  0.1251026E+00
         21   -1    0    0  505  502  0.00000000000E+00  0.00000000000E+00  0.46865396508E+02  0.46865396508E+02  0.00000000000E+00 0.  1.
          1   -1    0    0  503    0 -0.00000000000E+00 -0.00000000000E+00 -0.13158624091E+04  0.13158624091E+04  0.00000000000E+00 0. -1.
         21    1    1    2  503  502 -0.44976284235E+01 -0.12610776689E+03 -0.32944623874E+03  0.35278636843E+03  0.00000000000E+00 0. -1.
         21    1    1    2  504  501  0.12447287423E+02  0.50549529532E+02 -0.50220744142E+02  0.72334729157E+02  0.00000000000E+00 0.  1.
         21    1    1    2  505  504 -0.17158767811E+02  0.46287244405E+02 -0.16462690951E+01  0.49392737414E+02  0.00000000000E+00 0.  1.
          1    1    1    2  501    0  0.92091088110E+01  0.29270992956E+02 -0.88768376061E+03  0.88821397060E+03  0.00000000000E+00 0. -1.
<scales pt_clust_3="102.81338" pt_clust_4="49.55944" pt_clust_5="49.55944" pt_clust_6="30.68548"></scales>
<clustering>
<clus scale="   30.685">  2  6  1 -1</clus>
<clus scale="   49.559">  4  5 -1 -1</clus>
<clus scale="  102.813">  2  3  1 -1</clus>
<clus scale="  115.319">  1  3  2 -1</clus>
</clustering>
</event>
<event>
 6    0  0.5775861E+002  0.7956805E+02  0.7546771E-02  0.1330282E+00
         21   -1    0    0  503  502  0.00000000000E+00  0.00000000000E+00  0.35265877199E+03  0.35265877199E+03  0.00000000000E+00 0. -1.
         -4   -1    0    0    0  501 -0.00000000000E+00 -0.00000000000E+00 -0.72775601386E+02  0.72775601386E+02  0.00000000000E+00 0.  1.
         21    1    1    2  503  504  0.58430315294E+02 -0.56167813035E+02  0.19418392876E+03  0.21041939824E+03  0.00000000000E+00 0. -1.
         21    1    1    2  504  501  0.49108420677E+02  0.15826341619E+02  0.38917840700E+02  0.64627458523E+02  0.00000000000E+00 0.  1.
         21    1    1    2  505  502 -0.61275941084E+02  0.46142485508E+02  0.64788212968E+02  0.10040608778E+03  0.00000000000E+00 0.  1.
         -4    1    1    2    0  505 -0.46262794887E+02 -0.58010140926E+01 -0.18006811827E+02  0.49981428826E+02  0.00000000000E+00 0.  1.
<scales pt_clust_3="79.56805" pt_clust_4="36.52364" pt_clust_5="14000.00000" pt_clust_6="46.62508"></scales>
<clustering>
<clus scale="   46.625">  2  6  1 -1</clus>
<clus scale="   36.524">  2  4  1 -1</clus>
<clus scale="   79.568">  1  3  2 -1</clus>
<clus scale="   79.568">  1  3  2 -1</clus>
</clustering>
</event>
<event>
 6    0  0.5775861E+002  0.1351905E+03  0.7546771E-02  0.1219951E+00
         21   -1    0    0  505  502  0.00000000000E+00  0.00000000000E+00  0.69150711720E+02  0.69150711720E+02  0.00000000000E+00 0. -1.
          2   -1    0    0  502    0 -0.00000000000E+00 -0.00000000000E+00 -0.14652938890E+04  0.14652938890E+04  0.00000000000E+00 0. -1.
         21    1    1    2  503  504 -0.93614487270E+02  0.74650918504E+02 -0.55466438543E+02  0.13195816634E+03  0.00000000000E+00 0. -1.
         21    1    1    2  504  501 -0.30973655745E+02 -0.76824764251E+01 -0.33161597908E+02  0.46022596299E+02  0.00000000000E+00 0.  1.
         21    1    1    2  505  503  0.10145697219E+02 -0.33793346887E+02  0.74913889381E+01  0.36070020434E+02  0.00000000000E+00 0.  1.
          2    1    1    2  501    0  0.11444244580E+03 -0.33175095192E+02 -0.13150065297E+04  0.13203938176E+04  0.00000000000E+00 0. -1.
<scales pt_clust_3="31.88815" pt_clust_4="31.88815" pt_clust_5="35.28350" pt_clust_6="120.25488"></scales>
<clustering>
<clus scale="   31.888">  3  4 -1 -1</clus>
<clus scale="   35.284">  1  5  2 -1</clus>
<clus scale="  120.255">  2  6  1 -1</clus>
<clus scale="   35.284">  1  3  2 -1</clus>
</clustering>
</event>
<event>
 6    0  0.5775861E+002  0.7447011E+02  0.7546771E-02  0.1345520E+00
         21   -1    0    0  504  502  0.00000000000E+00  0.00000000000E+00  0.49179692292E+03  0.49179692292E+03  0.00000000000E+00 0. -1.
         -2   -1    0    0    0  501 -0.00000000000E+00 -0.00000000000E+00 -0.14084863518E+03  0.14084863518E+03  0.00000000000E+00 0. -1.
         21    1    1    2  503  505  0.74466507936E+01 -0.93832783080E+02  0.60737173345E+01  0.94323559257E+02  0.00000000000E+00 0. -1.
         21    1    1    2  504  501 -0.61402030850E+02  0.30865677257E+02  0.16852885729E+03  0.18200240428E+03  0.00000000000E+00 0. -1.
         21    1    1    2  505  502  0.42501577702E+02 -0.57297640085E+01  0.25075855645E+03  0.25439942597E+03  0.00000000000E+00 0. -1.
         -2    1    1    2    0  503  0.11453802354E+02  0.68696869832E+02 -0.74412843329E+02  0.10192016859E+03  0.00000000000E+00 0. -1.
<scales pt_clust_3="14000.00000" pt_clust_4="40.33612" pt_clust_5="42.88606" pt_clust_6="74.47011"></scales>
<clustering>
<clus scale="   42.886">  1  5  2 -1</clus>
<clus scale="   40.336">  1  4  2 -1</clus>
<clus scale="   74.470">  2  6  1 -1</clus>
<clus scale="   42.886">  1  3  2 -1</clus>
</clustering>
</event>
<event>
 6    0  0.5775861E+002  0.1031357E+03  0.7546771E-02  0.1273837E+00
          2   -1    0    0  505    0 -0.00000000000E+00  0.00000000000E+00  0.44016845373E+03  0.44016845373E+03  0.00000000000E+00 0. -1.
         21   -1    0    0  504  502  0.00000000000E+00 -0.00000000000E+00 -0.48427196289E+03  0.48427196289E+03  0.00000000000E+00 0.  1.
         21    1    1    2  503  502 -0.36209965313E+02 -0.21085939936E+02 -0.38368178658E+03  0.38596307052E+03  0.00000000000E+00 0.  1.
         21    1    1    2  504  501 -0.34499747300E+02  0.68696640685E+02  0.53217336183E+02  0.93496234553E+02  0.00000000000E+00 0.  1.
         21    1    1    2  505  503  0.10297868664E+03 -0.78530047557E+02 -0.23751325633E+02  0.13166511968E+03  0.00000000000E+00 0.  1.
          2    1    1    2  501    0 -0.32268974024E+02  0.30919346808E+02  0.31011226687E+03  0.31331599186E+03  0.00000000000E+00 0. -1.
<scales pt_clust_3="41.90201" pt_clust_4="103.13567" pt_clust_5="14000.00000" pt_clust_6="44.88192"></scales>
<clustering>
<clus scale="   41.902">  2  3  1 -1</clus>
<clus scale="   44.882">  1  6  2 -1</clus>
<clus scale="  103.136">  1  4  2 -1</clus>
<clus scale="   41.902">  2  3  1 -1</clus>
</clustering>
</event>
<event>
 6    0  0.5775861E+002  0.9139107E+02  0.7546771E-02  0.1299518E+00
          4   -1    0    0  504    0 -0.00000000000E+00  0.00000000000E+00  0.61339466550E+03  0.61339466550E+03  0.00000000000E+00 0. -1.
         21   -1    0    0  505  502  0.00000000000E+00 -0.00000000000E+00 -0.98443787151E+02  0.98443787151E+02  0.00000000000E+00 0. -1.
         21    1    1    2  503  502 -0.34577158844E+02 -0.12166461351E+02 -0.20235951482E+02  0.41869994362E+02  0.00000000000E+00 0. -1.
         21    1    1    2  504  503  0.32297677798E+02  0.89948374801E+02 -0.15807028349E+02  0.96869563154E+02  0.00000000000E+00 0. -1.
         21    1    1    2  505  501 -0.30967650888E+02  0.87155135628E+01  0.30199361660E+02  0.44124335948E+02  0.00000000000E+00 0.  1.
          4    1    1    2  501    0  0.33247131933E+02 -0.86497427013E+02  0.52079449652E+03  0.52897455918E+03  0.00000000000E+00 0. -1.
<scales pt_clust_3="46.01963" pt_clust_4="14000.00000" pt_clust_5="32.17073" pt_clust_6="91.39107"></scales>
<clustering>
<clus scale="   32.171">  2  5  1 -1</clus>
<clus scale="   46.020">  2  3  1 -1</clus>
<clus scale="   91.391">  1  6  2 -1</clus>
<clus scale="   32.171">  2  3  1 -1</clus>
</clustering>
</event>
<event>
 6    0  0.5775861E+002  0.8979344E+02  0.7546771E-02  0.1303353E+00
         21   -1    0    0  504  502  0.00000000000E+00  0.00000000000E+00  0.83581700398E+03  0.83581700398E+03  0.00000000000E+00 0.  1.
         -1   -1    0    0    0  501 -0.00000000000E+00 -0.00000000000E+00 -0.22669622735E+03  0.22669622735E+03  0.00000000000E+00 0. -1.
         21    1    1    2  503  505  0.82971556380E+02  0.26203095134E+02  0.93217239051E+02  0.12751601868E+03  0.00000000000E+00 0.  1.
         21    1    1    2  504  501 -0.10185388615E+03 -0.16775231850E+02  0.35916437138E+03  0.37370398472E+03  0.00000000000E+00 0.  1.
         21    1    1    2  505  502  0.14324675470E+02  0.30240567910E+02  0.35625400661E+03  0.35782203049E+03  0.00000000000E+00 0.  1.
         -1    1    1    2    0  503  0.45576542988E+01 -0.39668431194E+02 -0.19951484041E+03  0.20347119745E+03  0.00000000000E+00 0. -1.
<scales pt_clust_3="14000.00000" pt_clust_4="89.79344" pt_clust_5="33.46174" pt_clust_6="39.81209"></scales>
<clustering>
<clus scale="   33.462">  1  5  2 -1</clus>
<clus scale="   39.812">  2  6  1 -1</clus>
<clus scale="   89.793">  1  4  2 -1</clus>
<clus scale="   33.462">  1  3  2 -1</clus>
</clustering>
</event>
<event>
 6    0  0.5775861E+002  0.1412968E+03  0.7546771E-02  0.1211595E+00
          2   -1    0    0  503    0 -0.00000000000E+00  0.00000000000E+00  0.94144821831E+02  0.94144821831E+02  0.00000000000E+00 0. -1.
         21   -1    0    0  505  502  0.00000000000E+00 -0.00000000000E+00 -0.58810922319E+03  0.58810922319E+03  0.00000000000E+00 0. -1.
         21    1    1    2  503  502  0.10048116446E+03 -0.46671405872E+02 -0.11619222182E+02  0.11139879201E+03  0.00000000000E+00 0. -1.
         21    1    1    2  504  501 -0.95377173333E+02  0.34484217503E+02 -0.31819758235E+03  0.33396956128E+03  0.00000000000E+00 0. -1.
         21    1    1    2  505  504 -0.37288094559E+02 -0.21393270819E+02 -0.18204209785E+03  0.18704918985E+03  0.00000000000E+00 0. -1.
          2    1    1    2  501    0  0.32184103431E+02  0.33580459188E+02  0.17894501022E+02  0.49836501882E+02  0.00000000000E+00 0. -1.
<scales pt_clust_3="128.51236" pt_clust_4="38.23733" pt_clust_5="38.23733" pt_clust_6="46.51305"></scales>
<clustering>
<clus scale="   38.237">  4  5 -1 -1</clus>
<clus scale="   46.513">  1  6  2 -1</clus>
<clus scale="  128.512">  1  3  2 -1</clus>
<clus scale="  141.297">  2  3  1 -1</clus>
</clustering>
</event>
<event>
 6    0  0.5775861E+002  0.9485091E+02  0.7546771E-02  0.1291512E+00
         21   -1    0    0  503  502  0.00000000000E+00  0.00000000000E+00  0.14441438929E+03  0.14441438929E+03  0.00000000000E+00 0. -1.
          1   -1    0    0  504    0 -0.00000000000E+00 -0.00000000000E+00 -0.14974118783E+04  0.14974118783E+04  0.00000000000E+00 0. -1.
         21    1    1    2  503  501  0.70193403105E+02  0.38040537575E+02  0.62554136485E+02  0.10142591547E+03  0.00000000000E+00 0. -1.
         21    1    1    2  504  505 -0.18344681766E+02 -0.88388449753E+02 -0.39170264600E+03  0.40197015845E+03  0.00000000000E+00 0. -1.
         21    1    1    2  505  502 -0.33668975214E+01  0.33749910295E+02  0.51606498128E+02  0.61754539046E+02  0.00000000000E+00 0. -1.
          1    1    1    2  501    0 -0.48481823818E+02  0.16598001884E+02 -0.10754554776E+04  0.10766756546E+04  0.00000000000E+00 0. -1.
<scales pt_clust_3="14000.00000" pt_clust_4="94.85091" pt_clust_5="33.91744" pt_clust_6="51.34294"></scales>
<clustering>
<clus scale="   33.917">  1  5  2 -1</clus>
<clus scale="   51.343">  2  6  1 -1</clus>
<clus scale="   94.851">  2  4  1 -1</clus>
<clus scale="   33.917">  1  3  2 -1</clus>
</clustering>
</event>
<event>
 6    0  0.5775861E+002  0.1527139E+03  0.7546771E-02  0.1197177E+00
         21   -1    0    0  503  502  0.00000000000E+00  0.00000000000E+00  0.60105383337E+03  0.60105383337E+03  0.00000000000E+00 0.  1.
         -1   -1    0    0    0  501 -0.00000000000E+00 -0.00000000000E+00 -0.95463878421E+03  0.95463878421E+03  0.00000000000E+00 0.  1.
         21    1    1    2  503  505 -0.30336193486E+02 -0.18303611630E+02  0.16488213071E+03  0.16864585338E+03  0.00000000000E+00 0.  1.
         21    1    1    2  504  502 -0.78323977147E+02 -0.11519288659E+03  0.36709832383E+02  0.14405435888E+03  0.00000000000E+00 0.  1.
         21    1    1    2  505  501  0.57753464435E+02 -0.11865493119E+02  0.33471616222E+03  0.33986933052E+03  0.00000000000E+00 0.  1.
         -1    1    1    2    0  504  0.50906706197E+02  0.14536199134E+03 -0.88989307615E+03  0.90312307480E+03  0.00000000000E+00 0.  1.
<scales pt_clust_3="35.43031" pt_clust_4="14000.00000" pt_clust_5="43.00425" pt_clust_6="152.71393"></scales>
<clustering>
<clus scale="   35.430">  1  3  2 -1</clus>
<clus scale="   43.004">  1  5  2 -1</clus>
<clus scale="  152.714">  2  6  1 -1</clus>
<clus scale="   35.430">  1  3  2 -1</clus>
</clustering>
</event>
<event>
 6    0  0.5775861E+002  0.1106837E+03  0.7546771E-02  0.1259309E+00
         21   -1    0    0  504  502  0.00000000000E+00  0.00000000000E+00  0.14562185701E+03  0.14562185701E+03  0.00000000000E+00 0. -1.
          2   -1    0    0  503    0 -0.00000000000E+00 -0.00000000000E+00 -0.15444223033E+04  0.15444223033E+04  0.00000000000E+00 0.  1.
         21    1    1    2  503  502 -0.41528592702E+02  0.12155101032E+03  0.43940860581E+01  0.12852462844E+03  0.00000000000E+00 0. -1.
         21    1    1    2  504  505 -0.28736469308E+02 -0.43618592819E+02  0.59360130196E+02  0.79069534997E+02  0.00000000000E+00 0. -1.
         21    1    1    2  505  501  0.10005421060E+03 -0.10602746847E+03 -0.55048171530E+03  0.56945832859E+03  0.00000000000E+00 0.  1.
          2    1    1    2  501    0 -0.29789148593E+02  0.28095050962E+02 -0.91207294725E+03  0.91299166829E+03  0.00000000000E+00 0.  1.
<scales pt_clust_3="14000.00000" pt_clust_4="52.12726" pt_clust_5="110.68369" pt_clust_6="40.94784"></scales>
<clustering>
<clus scale="   40.948">  2  6  1 -1</clus>
<clus scale="   52.127">  1  4  2 -1</clus>
<clus scale="  110.684">  2  5  1 -1</clus>
<clus scale="   52.127">  1  3  2 -1</clus>
</clustering>
</event>
<event>
 6    0  0.5775861E+002  0.1581324E+03  0.7546771E-02  0.1190821E+00
          2   -1    0    0  505    0 -0.00000000000E+00  0.00000000000E+00  0.92626434159E+03  0.92626434159E+03  0.00000000000E+00 0. -1.
         21   -1    0    0  504  502  0.00000000000E+00 -0.00000000000E+00 -0.65077520363E+02  0.65077520363E+02  0.00000000000E+00 0. -1.
         21    1    1    2  503  502  0.10036886838E+03 -0.12979805830E+03  0.14515417508E+03  0.21906889378E+03  0.00000000000E+00 0. -1.
         21    1    1    2  504  501 -0.29378885995E+02  0.15706116456E+03  0.26355176497E+03  0.30820587466E+03  0.00000000000E+00 0. -1.
         21    1    1    2  505  503 -0.34314584882E+02  0.12373088108E+02  0.83014694234E+02  0.90675374296E+02  0.00000000000E+00 0.  1.
          2    1    1    2  501    0 -0.36675397501E+02 -0.39636194369E+02  0.36946618695E+03  0.37339171922E+03  0.00000000000E+00 0. -1.
<scales pt_clust_3="158.13243" pt_clust_4="14000.00000" pt_clust_5="36.47717" pt_clust_6="62.09955"></scales>
<clustering>
<clus scale="   36.477">  1  5  2 -1</clus>
<clus scale="   62.100">  1  6  2 -1</clus>
<clus scale="  158.132">  2  3  1 -1</clus>
<clus scale="  158.132">  2  3  1 -1</clus>
</clustering>
</event>
<event>
 6    0  0.5775861E+002  0.1067664E+03  0.7546771E-02  0.1266678E+00
          2   -1    0    0  503    0 -0.00000000000E+00  0.00000000000E+00  0.62044425045E+03  0.62044425045E+03  0.00000000000E+00 0.  1.
         21   -1    0    0  505  502  0.00000000000E+00 -0.00000000000E+00 -0.22857949838E+04  0.22857949838E+04  0.00000000000E+00 0. -1.
         21    1    1    2  503  504 -0.19506852949E+02 -0.82356330002E+02 -0.52324515597E+02  0.99503453889E+02  0.00000000000E+00 0. -1.
         21    1    1    2  504  502 -0.33857975556E+02  0.24432493236E+02 -0.33597478774E+03  0.33855925217E+03  0.00000000000E+00 0. -1.
         21    1    1    2  505  501  0.94920040213E+02  0.67516407592E+02 -0.18700359966E+04  0.18736602969E+04  0.00000000000E+00 0. -1.
          2    1    1    2  501    0 -0.41555211708E+02 -0.95925708263E+01  0.59298456663E+03  0.59451623132E+03  0.00000000000E+00 0.  1.
<scales pt_clust_3="106.76643" pt_clust_4="41.75295" pt_clust_5="14000.00000" pt_clust_6="42.65882"></scales>
<clustering>
<clus scale="   41.753">  2  4  1 -1</clus>
<clus scale="   42.659">  1  6  2 -1</clus>
<clus scale="  106.766">  1  3  2 -1</clus>
<clus scale="   41.753">  2  3  1 -1</clus>
</clustering>
</event>
<event>
 6    0  0.5775861E+002  0.1028897E+03  0.7546771E-02  0.1274334E+00
         21   -1    0    0  505  502  0.00000000000E+00  0.00000000000E+00  0.22384076809E+04  0.22384076809E+04  0.00000000000E+00 0. -1.
          2   -1    0    0  504    0 -0.00000000000E+00 -0.00000000000E+00 -0.26706378363E+04  0.26706378363E+04  0.00000000000E+00 0.  1.
         21    1    1    2  503  502  0.83208242217E+02 -0.30043726996E+02  0.84055132225E+03  0.84519392002E+03  0.00000000000E+00 0. -1.
         21    1    1    2  504  503  0.74011432139E+02 -0.42681977030E+02 -0.30533987743E+02  0.90729089370E+02  0.00000000000E+00 0.  1.
         21    1    1    2  505  501 -0.87799326519E+02  0.93568881622E+02  0.13619177526E+04  0.13679487644E+04  0.00000000000E+00 0. -1.
          2    1    1    2  501    0 -0.69420347836E+02 -0.20843177596E+02 -0.26041652425E+04  0.26051737433E+04  0.00000000000E+00 0.  1.
<scales pt_clust_3="102.88969" pt_clust_4="62.67569" pt_clust_5="14000.00000" pt_clust_6="72.48188"></scales>
<clustering>
<clus scale="   72.482">  2  6  1 -1</clus>
<clus scale="   62.676">  2  4  1 -1</clus>
<clus scale="  102.890">  1  3  2 -1</clus>
<clus scale="  102.890">  1  3  2 -1</clus>
</clustering>
</event>
<event>
 6    0  0.5775861E+002  0.9160005E+02  0.7546771E-02  0.1299023E+00
         21   -1    0    0  501  502  0.00000000000E+00  0.00000000000E+00  0.64447763886E+03  0.64447763886E+03  0.00000000000E+00 0.  1.
          1   -1    0    0  504    0 -0.00000000000E+00 -0.00000000000E+00 -0.80386018113E+02  0.80386018113E+02  0.00000000000E+00 0.  1.
         21    1    1    2  503  505  0.34558914389E+02  0.10602523183E+03  0.14745404030E+03  0.18487390933E+03  0.00000000000E+00 0.  1.
         21    1    1    2  504  503  0.25650361640E+02 -0.16320263775E+02  0.33110574116E+02  0.44951108777E+02  0.00000000000E+00 0.  1.
         21    1    1    2  505  502 -0.70919167164E+02 -0.55822583339E+02  0.42839758504E+03  0.43780153032E+03  0.00000000000E+00 0.  1.
          1    1    1    2  501    0  0.10709891135E+02 -0.33882384718E+02 -0.44870578706E+02  0.57237108555E+02  0.00000000000E+00 0.  1.
<scales pt_clust_3="91.60005" pt_clust_4="30.40217" pt_clust_5="14000.00000" pt_clust_6="53.21749"></scales>
<clustering>
<clus scale="   30.402">  2  4  1 -1</clus>
<clus scale="   53.217">  2  6  1 -1</clus>
<clus scale="   91.600">  2  3  1 -1</clus>
<clus scale="   91.600">  1  3  2 -1</clus>
</clustering>
</event>
<event>
 6    0  0.5775861E+002  0.2320615E+03  0.7546771E-02  0.1125197E+00
         21   -1    0    0  503  502  0.00000000000E+00  0.00000000000E+00  0.14716717409E+04  0.14716717409E+04  0.00000000000E+00 0.  1.
          2   -1    0    0  504    0 -0.00000000000E+00 -0.00000000000E+00 -0.25726575124E+04  0.25726575124E+04  0.00000000000E+00 0. -1.
         21    1    1    2  503  501 -0.10735175649E+03  0.19574828610E+03  0.11882321626E+04  0.12090233510E+04  0.00000000000E+00 0.  1.
         21    1    1    2  504  505 -0.83507155588E+02  0.35880075213E+02 -0.68164309293E+03  0.68767589094E+03  0.00000000000E+00 0.  1.
         21    1    1    2  505  502  0.14625514604E+03 -0.26800925972E+03  0.18311154841E+03  0.35601877788E+03  0.00000000000E+00 0.  1.
          2    1    1    2  501    0  0.44603766032E+02  0.36380898411E+02 -0.17906863896E+04  0.17916112334E+04  0.00000000000E+00 0. -1.
<scales pt_clust_3="232.06148" pt_clust_4="81.02162" pt_clust_5="14000.00000" pt_clust_6="57.55924"></scales>
<clustering>
<clus scale="   57.559">  2  6  1 -1</clus>
<clus scale="   81.022">  2  4  1 -1</clus>
<clus scale="  232.061">  1  3  2 -1</clus>
<clus scale="  232.061">  1  3  2 -1</clus>
</clustering>
</event>
<event>
 6    0  0.5775861E+002  0.1016030E+03  0.7546771E-02  0.1276961E+00
         21   -1    0    0  503  502  0.00000000000E+00  0.00000000000E+00  0.76431088891E+02  0.76431088891E+02  0.00000000000E+00 0. -1.
          2   -1    0    0  504    0 -0.00000000000E+00 -0.00000000000E+00 -0.17778570465E+04  0.17778570465E+04  0.00000000000E+00 0. -1.
         21    1    1    2  503  501  0.22614448210E+02 -0.62796175606E+02 -0.32344023841E+03  0.33025499355E+03  0.00000000000E+00 0. -1.
         21    1    1    2  504  505  0.27995338428E+02  0.11066099810E+03 -0.26542858862E+03  0.28893239889E+03  0.00000000000E+00 0. -1.
         21    1    1    2  505  502  0.47755609096E+01  0.35738210285E+02  0.53622384600E+02  0.64617225153E+02  0.00000000000E+00 0. -1.
          2    1    1    2  501    0 -0.55385347547E+02 -0.83603032782E+02 -0.11661795151E+04  0.11704835178E+04  0.00000000000E+00 0. -1.
<scales pt_clust_3="60.53257" pt_clust_4="101.60300" pt_clust_5="36.05587" pt_clust_6="14000.00000"></scales>
<clustering>
<clus scale="   36.056">  1  5  2 -1</clus>
<clus scale="   60.533">  1  3  2 -1</clus>
<clus scale="  101.603">  1  4  2 -1</clus>
<clus scale="   36.056">  1  3  2 -1</clus>
</clustering>
</event>
<event>
 6    0  0.5775861E+002  0.6925960E+02  0.7546771E-02  0.1362629E+00
          4   -1    0    0  503    0 -0.00000000000E+00  0.00000000000E+00  0.18591552457E+04  0.18591552457E+04  0.00000000000E+00 0. -1.
         21   -1    0    0  505  502  0.00000000000E+00 -0.00000000000E+00 -0.31092520743E+03  0.31092520743E+03  0.00000000000E+00 0.  1.
         21    1    1    2  503  504 -0.82341299883E+02 -0.63656914828E+02  0.76832961831E+01  0.10436151356E+03  0.00000000000E+00 0. -1.
         21    1    1    2  504  502  0.43822325420E+02  0.28873816596E+02 -0.84731459621E+02  0.99667014300E+02  0.00000000000E+00 0.  1.
         21    1    1    2  505  501  0.35544956471E+02 -0.34433451597E+02 -0.16610964459E+03  0.17332489881E+03  0.00000000000E+00 0.  1.
          4    1    1    2  501    0  0.29740179932E+01  0.69216549829E+02  0.17913878463E+04  0.17927270264E+04  0.00000000000E+00 0. -1.
<scales pt_clust_3="69.25960" pt_clust_4="67.33477" pt_clust_5="49.48845" pt_clust_6="14000.00000"></scales>
<clustering>
<clus scale="   49.488">  2  5  1 -1</clus>
<clus scale="   67.335">  2  4  1 -1</clus>
<clus scale="   69.260">  2  3  1 -1</clus>
<clus scale="   49.488">  2  3  1 -1</clus>
</clustering>
</event>
<event>
 6    0  0.5775861E+002  0.6840458E+02  0.7546771E-02  0.1365604E+00
          1   -1    0    0  503    0 -0.00000000000E+00  0.00000000000E+00  0.11246793456E+04  0.11246793456E+04  0.00000000000E+00 0.  1.
         21   -1    0    0  505  502  0.00000000000E+00 -0.00000000000E+00 -0.15905430275E+03  0.15905430275E+03  0.00000000000E+00 0. -1.
         21    1    1    2  503  504 -0.53661075483E+02  0.64755892240E+02  0.21724363780E+02  0.86860719450E+02  0.00000000000E+00 0. -1.
         21    1    1    2  504  502 -0.38878243507E+01 -0.31023331714E+02 -0.10410157895E+03  0.10869545082E+03  0.00000000000E+00 0. -1.
         21    1    1    2  505  501  0.78843675431E+02  0.23560221266E+02  0.69338425901E+02  0.10760681432E+03  0.00000000000E+00 0. -1.
          1    1    1    2  501    0 -0.21294775598E+02 -0.57292781791E+02  0.97866383215E+03  0.98057066378E+03  0.00000000000E+00 0.  1.
<scales pt_clust_3="68.40458" pt_clust_4="31.26599" pt_clust_5="14000.00000" pt_clust_6="61.67345"></scales>
<clustering>
<clus scale="   31.266">  2  4  1 -1</clus>
<clus scale="   61.673">  1  6  2 -1</clus>
<clus scale="   68.405">  2  3  1 -1</clus>
<clus scale="   31.266">  2  3  1 -1</clus>
</clustering>
</event>
<event>
 6    0  0.5775861E+002  0.1026051E+03  0.7546771E-02  0.1274911E+00
         21   -1    0    0  503  502  0.00000000000E+00  0.00000000000E+00  0.29344190781E+02  0.29344190781E+02  0.00000000000E+00 0. -1.
          2   -1    0    0  505    0 -0.00000000000E+00 -0.00000000000E+00 -0.33335804050E+04  0.33335804050E+04  0.00000000000E+00 0. -1.
         21    1    1    2  503  501 -0.27769221971E+02  0.46868213034E+02 -0.25591194756E+02  0.60188606321E+02  0.00000000000E+00 0. -1.
         21    1    1    2  504  502  0.44117342443E+02 -0.51035135304E+01 -0.48835773181E+02  0.66009987857E+02  0.00000000000E+00 0. -1.
         21    1    1    2  505  504  0.67376124979E+02  0.52071895938E+02 -0.11883773869E+04  0.11914242897E+04  0.00000000000E+00 0. -1.
          2    1    1    2  501    0 -0.83724245451E+02 -0.93836595441E+02 -0.20414318594E+04  0.20453017119E+04  0.00000000000E+00 0. -1.
<scales pt_clust_3="43.55452" pt_clust_4="44.41155" pt_clust_5="14000.00000" pt_clust_6="102.60507"></scales>
<clustering>
<clus scale="   44.412">  1  4  2 -1</clus>
<clus scale="   43.555">  1  3  2 -1</clus>
<clus scale="  102.605">  1  6  2 -1</clus>
<clus scale="   44.412">  1  3  2 -1</clus>
</clustering>
</event>
<event>
 6    0  0.5775861E+002  0.7397586E+02  0.7546771E-02  0.1347072E+00
          4   -1    0    0  504    0 -0.00000000000E+00  0.00000000000E+00  0.10473263613E+04  0.10473263613E+04  0.00000000000E+00 0.  1.
         21   -1    0    0  505  502  0.00000000000E+00 -0.00000000000E+00 -0.52762106558E+02  0.52762106558E+02  0.00000000000E+00 0.  1.
         21    1    1    2  503  502 -0.56474844927E+02 -0.62646941148E+02  0.14439891802E+03  0.16722767375E+03  0.00000000000E+00 0.  1.
         21    1    1    2  504  503  0.22661151224E+02  0.96331996764E+02  0.38683104354E+03  0.39928891498E+03  0.00000000000E+00 0.  1.
         21    1    1    2  505  501  0.43579468238E+02  0.69384271548E+01 -0.19990102317E+02  0.48444979244E+02  0.00000000000E+00 0.  1.
          4    1    1    2  501    0 -0.97657745350E+01 -0.40623482771E+02  0.48332439546E+03  0.48512689984E+03  0.00000000000E+00 0.  1.
<scales pt_clust_3="73.97586" pt_clust_4="14000.00000" pt_clust_5="43.73416" pt_clust_6="41.78083"></scales>
<clustering>
<clus scale="   41.781">  1  6  2 -1</clus>
<clus scale="   43.734">  2  5  1 -1</clus>
<clus scale="   73.976">  2  3  1 -1</clus>
<clus scale="   43.734">  2  3  1 -1</clus>
</clustering>
</event>
<event>
 6    0  0.5775861E+002  0.1383009E+03  0.7546771E-02  0.1215634E+00
          1   -1    0    0  505    0 -0.00000000000E+00  0.00000000000E+00  0.50234921195E+03  0.50234921195E+03  0.00000000000E+00 0.  1.
         21   -1    0    0  503  502  0.00000000000E+00 -0.00000000000E+00 -0.89268939964E+03  0.89268939964E+03  0.00000000000E+00 0. -1.
         21    1    1    2  503  504  0.27437502666E+02  0.72904052792E+02 -0.47430197896E+03  0.48065599415E+03  0.00000000000E+00 0. -1.
         21    1    1    2  504  501  0.64782628291E+02 -0.14614303136E+01 -0.33021317442E+03  0.33651101805E+03  0.00000000000E+00 0. -1.
         21    1    1    2  505  502  0.45650865120E+02 -0.43828545585E+02 -0.57609679064E+02  0.85579308341E+02  0.00000000000E+00 0.  1.
          1    1    1    2  501    0 -0.13787099608E+03 -0.27614076893E+02  0.47178464476E+03  0.49229229105E+03  0.00000000000E+00 0.  1.
<scales pt_clust_3="71.85173" pt_clust_4="14000.00000" pt_clust_5="63.28462" pt_clust_6="138.30090"></scales>
<clustering>
<clus scale="   63.285">  2  5  1 -1</clus>
<clus scale="   71.852">  2  3  1 -1</clus>
<clus scale="  138.301">  1  6  2 -1</clus>
<clus scale="   63.285">  2  3  1 -1</clus>
</clustering>
</event>
<event>
 6    0  0.5775861E+002  0.9372693E+02  0.7546771E-02  0.1294069E+00
          2   -1    0    0  504    0 -0.00000000000E+00  0.00000000000E+00  0.41229251642E+02  0.41229251642E+02  0.00000000000E+00 0.  1.
         21   -1    0    0  503  502  0.00000000000E+00 -0.00000000000E+00 -0.75246071071E+03  0.75246071071E+03  0.00000000000E+00 0.  1.
         21    1    1    2  503  501 -0.91397204347E+02  0.39479492785E+02 -0.18032989744E+03  0.20598774533E+03  0.00000000000E+00 0.  1.
         21    1    1    2  504  505  0.76810599944E+02 -0.49445018166E+02 -0.23186084079E+03  0.24920699745E+03  0.00000000000E+00 0.  1.
         21    1    1    2  505  502  0.45279157090E+02 -0.16734637340E+02 -0.29349472815E+03  0.29743807020E+03  0.00000000000E+00 0.  1.
          2    1    1    2  501    0 -0.30692552687E+02  0.26700162721E+02 -0.55459926818E+01  0.41057149373E+02  0.00000000000E+00 0.  1.
<scales pt_clust_3="93.72693" pt_clust_4="14000.00000" pt_clust_5="45.09328" pt_clust_6="40.68085"></scales>
<clustering>
<clus scale="   40.681">  1  6  2 -1</clus>
<clus scale="   45.093">  2  5  1 -1</clus>
<clus scale="   93.727">  2  3  1 -1</clus>
<clus scale="   45.093">  2  3  1 -1</clus>
</clustering>
</event>
<event>
 6    0  0.5775861E+002  0.1324685E+03  0.7546771E-02  0.1223838E+00
         21   -1    0    0  501  502  0.00000000000E+00  0.00000000000E+00  0.67330842594E+03  0.67330842594E+03  0.00000000000E+00 0. -1.
          2   -1    0    0  503    0 -0.00000000000E+00 -0.00000000000E+00 -0.16593168381E+04  0.16593168381E+04  0.00000000000E+00 0.  1.
         21    1    1    2  503  505 -0.45341564583E+02 -0.20194938565E+02 -0.12084184224E+03  0.13063860019E+03  0.00000000000E+00 0.  1.
         21    1    1    2  504  502 -0.16292096556E+02  0.42138380241E+02  0.59583249742E+03  0.59754283568E+03  0.00000000000E+00 0. -1.
         21    1    1    2  505  504  0.71474360113E+01  0.95007442551E+02  0.36033180860E+02  0.10186211319E+03  0.00000000000E+00 0.  1.
          2    1    1    2  501    0  0.54486225127E+02 -0.11695088423E+03 -0.14970322482E+04  0.15025817150E+04  0.00000000000E+00 0.  1.
<scales pt_clust_3="49.57499" pt_clust_4="45.17826" pt_clust_5="14000.00000" pt_clust_6="132.46855"></scales>
<clustering>
<clus scale="   45.178">  1  4  2 -1</clus>
<clus scale="   49.575">  2  3  1 -1</clus>
<clus scale="  132.469">  2  6  1 -1</clus>
<clus scale="   45.178">  1  3  2 -1</clus>
</clustering>
</event>
<event>
 6    0  0.5775861E+002  0.1495767E+03  0.7546771E-02  0.1200994E+00
         21   -1    0    0  503  502  0.00000000000E+00  0.00000000000E+00  0.19106215178E+03  0.19106215178E+03  0.00000000000E+00 0. -1.
          2   -1    0    0  504    0 -0.00000000000E+00 -0.00000000000E+00 -0.40847654773E+03  0.40847654773E+03  0.00000000000E+00 0. -1.
         21    1    1    2  503  505  0.32560522922E+02 -0.11747707661E+02  0.17388185716E+01  0.34658617663E+02  0.00000000000E+00 0.  1.
         21    1    1    2  504  502 -0.16688705067E+03 -0.94281143412E+02 -0.17576673690E+03  0.26006569840E+03  0.00000000000E+00 0. -1.
         21    1    1    2  505  501  0.43264672837E+02  0.16708978167E+02  0.10161170206E+03  0.11169583637E+03  0.00000000000E+00 0. -1.
          2    1    1    2  501    0  0.91061854909E+02  0.89319872906E+02 -0.14499817968E+03  0.19311854708E+03  0.00000000000E+00 0. -1.
<scales pt_clust_3="34.61497" pt_clust_4="149.57666" pt_clust_5="64.05647" pt_clust_6="14000.00000"></scales>
<clustering>
<clus scale="   34.615">  1  3  2 -1</clus>
<clus scale="   64.056">  1  5  2 -1</clus>
<clus scale="  149.577">  1  4  2 -1</clus>
<clus scale="   34.615">  1  3  2 -1</clus>
</clustering>
</event>
<event>
 6    0  0.5775861E+002  0.7416176E+02  0.7546771E-02  0.1346487E+00
          2   -1    0    0  504    0 -0.00000000000E+00  0.00000000000E+00  0.90497411273E+02  0.90497411273E+02  0.00000000000E+00 0. -1.
         21   -1    0    0  505  502  0.00000000000E+00 -0.00000000000E+00 -0.10087760248E+04  0.10087760248E+04  0.00000000000E+00 0.  1.
         21    1    1    2  503  502 -0.44671300184E+02  0.47507360667E+02 -0.14555071750E+03  0.15949133438E+03  0.00000000000E+00 0. -1.
         21    1    1    2  504  503 -0.39031876466E+02  0.38524823441E+01 -0.12827305833E+02  0.41265830606E+02  0.00000000000E+00 0. -1.
         21    1    1    2  505  501  0.11752424720E+03 -0.72500416390E+02 -0.81715430308E+03  0.82873965399E+03  0.00000000000E+00 0.  1.
          2    1    1    2  501    0 -0.33821070552E+02  0.21140573379E+02  0.57253712877E+02  0.69776617102E+02  0.00000000000E+00 0. -1.
<scales pt_clust_3="67.95168" pt_clust_4="39.22154" pt_clust_5="14000.00000" pt_clust_6="74.16176"></scales>
<clustering>
<clus scale="   39.222">  1  4  2 -1</clus>
<clus scale="   67.952">  2  3  1 -1</clus>
<clus scale="   74.162">  1  6  2 -1</clus>
<clus scale="   67.952">  2  3  1 -1</clus>
</clustering>
</event>
<event>
 6    0  0.5775861E+002  0.6438363E+02  0.7546771E-02  0.1380305E+00
          2   -1    0    0  504    0 -0.00000000000E+00  0.00000000000E+00  0.40798281718E+03  0.40798281718E+03  0.00000000000E+00 0. -1.
         21   -1    0    0  503  502  0.00000000000E+00 -0.00000000000E+00 -0.28730784847E+03  0.28730784847E+03  0.00000000000E+00 0.  1.
         21    1    1    2  503  505 -0.32570833294E+02 -0.41450982058E+02 -0.11309290861E+03  0.12477599558E+03  0.00000000000E+00 0.  1.
         21    1    1    2  504  502  0.73393935295E+02  0.49589851669E+02 -0.88942985527E+02  0.12552560616E+03  0.00000000000E+00 0.  1.
         21    1    1    2  505  501  0.65136467543E+01 -0.53397312144E+02 -0.45833389698E+02  0.70671070102E+02  0.00000000000E+00 0.  1.
          2    1    1    2  501    0 -0.47336748756E+02  0.45258442533E+02  0.36854425255E+03  0.37431799381E+03  0.00000000000E+00 0. -1.
<scales pt_clust_3="52.71663" pt_clust_4="57.53110" pt_clust_5="64.38363" pt_clust_6="14000.00000"></scales>
<clustering>
<clus scale="   52.717">  2  3  1 -1</clus>
<clus scale="   57.531">  2  4  1 -1</clus>
<clus scale="   64.384">  2  5  1 -1</clus>
<clus scale="   52.717">  2  3  1 -1</clus>
</clustering>
</event>
<event>
 6    0  0.5775861E+002  0.1183724E+03  0.7546771E-02  0.1245806E+00
         21   -1    0    0  504  502  0.00000000000E+00  0.00000000000E+00  0.32417494722E+03  0.32417494722E+03  0.00000000000E+00 0.  1.
         -2   -1    0    0    0  501 -0.00000000000E+00 -0.00000000000E+00 -0.53001407943E+03  0.53001407943E+03  0.00000000000E+00 0.  1.
         21    1    1    2  503  505  0.66510030781E+02 -0.39837012960E+02 -0.22403056691E+02  0.80699868309E+02  0.00000000000E+00 0. -1.
         21    1    1    2  504  501 -0.88498223636E+02  0.10610181209E+03 -0.36541425434E+02  0.14291538017E+03  0.00000000000E+00 0.  1.
         21    1    1    2  505  502 -0.51006465407E+02  0.22820359152E+02  0.22988811404E+03  0.23658185324E+03  0.00000000000E+00 0.  1.
         -2    1    1    2    0  503  0.72994658262E+02 -0.89085158281E+02 -0.37678276413E+03  0.39399192493E+03  0.00000000000E+00 0.  1.
<scales pt_clust_3="59.78183" pt_clust_4="14000.00000" pt_clust_5="55.87869" pt_clust_6="118.37242"></scales>
<clustering>
<clus scale="   55.879">  1  5  2 -1</clus>
<clus scale="   59.782">  1  3  2 -1</clus>
<clus scale="  118.372">  2  6  1 -1</clus>
<clus scale="   55.879">  1  3  2 -1</clus>
</clustering>
</event>
<event>
 6    0  0.5775861E+002  0.8817964E+02  0.7546771E-02  0.1307321E+00
         21   -1    0    0  503  502  0.00000000000E+00  0.00000000000E+00  0.61321716804E+03  0.61321716804E+03  0.00000000000E+00 0.  1.
          3   -1    0    0  504    0 -0.00000000000E+00 -0.00000000000E+00 -0.12738611367E+03  0.12738611367E+03  0.00000000000E+00 0. -1.
         21    1    1    2  503  501  0.64160037252E+02 -0.38834506069E+01  0.10517494731E+03  0.12326135287E+03  0.00000000000E+00 0. -1.
         21    1    1    2  504  505  0.80226417012E+01  0.54435415887E+02  0.50855959158E+02  0.74926002593E+02  0.00000000000E+00 0.  1.
         21    1    1    2  505  502 -0.10334150646E+03 -0.32247256619E+02  0.42605901617E+03  0.43959713122E+03  0.00000000000E+00 0.  1.
          3    1    1    2  501    0  0.31158827510E+02 -0.18304708662E+02 -0.96258868272E+02  0.10281879503E+03  0.00000000000E+00 0. -1.
<scales pt_clust_3="88.17964" pt_clust_4="51.24743" pt_clust_5="14000.00000" pt_clust_6="36.13772"></scales>
<clustering>
<clus scale="   36.138">  2  6  1 -1</clus>
<clus scale="   51.247">  2  4  1 -1</clus>
<clus scale="   88.180">  2  3  1 -1</clus>
<clus scale="   88.180">  1  3  2 -1</clus>
</clustering>
</event>
<event>
 6    0  0.5775861E+002  0.3490939E+03  0.7546771E-02  0.1062988E+00
          1   -1    0    0  503    0 -0.00000000000E+00  0.00000000000E+00  0.97133893815E+03  0.97133893815E+03  0.00000000000E+00 0.  1.
         21   -1    0    0  504  502  0.00000000000E+00 -0.00000000000E+00 -0.20524667540E+04  0.20524667540E+04  0.00000000000E+00 0.  1.
         21    1    1    2  503  502 -0.34316153772E+02  0.44001617742E+02 -0.27841620326E+03  0.28395302959E+03  0.00000000000E+00 0.  1.
         21    1    1    2  504  505  0.35937267173E+03  0.85395876003E+02 -0.16971394772E+04  0.17368717794E+04  0.00000000000E+00 0.  1.
         21    1    1    2  505  501 -0.30518672713E+03 -0.97761281121E+02  0.42606270457E+03  0.53312815976E+03  0.00000000000E+00 0.  1.
          1    1    1    2  501    0 -0.19869790831E+02 -0.31636212624E+02  0.46836516007E+03  0.46985272342E+03  0.00000000000E+00 0.  1.
<scales pt_clust_3="55.73108" pt_clust_4="349.09391" pt_clust_5="14000.00000" pt_clust_6="37.35851"></scales>
<clustering>
<clus scale="   37.359">  1  6  2 -1</clus>
<clus scale="   55.731">  2  3  1 -1</clus>
<clus scale="  349.094">  2  4  1 -1</clus>
<clus scale="   55.731">  2  3  1 -1</clus>
</clustering>
</event>
<event>
 6    0  0.5775861E+002  0.9320844E+02  0.7546771E-02  0.1295263E+00
         21   -1    0    0  504  502  0.00000000000E+00  0.00000000000E+00  0.40583996314E+03  0.40583996314E+03  0.00000000000E+00 0. -1.
          2   -1    0    0  502    0 -0.00000000000E+00 -0.00000000000E+00 -0.28086318526E+03  0.28086318526E+03  0.00000000000E+00 0. -1.
         21    1    1    2  503  501 -0.54311895252E+02  0.16975037586E+02 -0.83934844283E+02  0.10140508839E+03  0.00000000000E+00 0. -1.
         21    1    1    2  504  505 -0.49478106505E+02 -0.83722870621E+02  0.31016011203E+03  0.32504906888E+03  0.00000000000E+00 0. -1.
         21    1    1    2  505  503  0.92787421940E+02  0.28882172043E+02  0.46212379538E+02  0.10760701443E+03  0.00000000000E+00 0. -1.
          2    1    1    2  501    0  0.11002579817E+02  0.37865660992E+02 -0.14746086940E+03  0.15264197669E+03  0.00000000000E+00 0. -1.
<scales pt_clust_3="63.89290" pt_clust_4="14000.00000" pt_clust_5="93.20844" pt_clust_6="39.43178"></scales>
<clustering>
<clus scale="   39.432">  2  6  1 -1</clus>
<clus scale="   63.893">  2  3  1 -1</clus>
<clus scale="   93.208">  2  5  1 -1</clus>
<clus scale="   93.208">  1  3  2 -1</clus>
</clustering>
</event>
<event>
 6    0  0.5775861E+002  0.7552379E+02  0.7546771E-02  0.1342257E+00
         21   -1    0    0  505  502  0.00000000000E+00  0.00000000000E+00  0.26893440172E+02  0.26893440172E+02  0.00000000000E+00 0.  1.
          1   -1    0    0  504    0 -0.00000000000E+00 -0.00000000000E+00 -0.19941828727E+04  0.19941828727E+04  0.00000000000E+00 0.  1.
         21    1    1    2  503  502  0.43637345953E+02 -0.93546758423E+01 -0.66150840879E+02  0.79797629482E+02  0.00000000000E+00 0.  1.
         21    1    1    2  504  503  0.95091755179E+02 -0.29072693305E+00 -0.71766161959E+03  0.72393420050E+03  0.00000000000E+00 0.  1.
         21    1    1    2  505  501 -0.70577625746E+02  0.21447673013E+02 -0.69904248099E+02  0.10162582268E+03  0.00000000000E+00 0.  1.
          1    1    1    2  501    0 -0.68151475386E+02 -0.11802270238E+02 -0.11135727240E+04  0.11157186602E+04  0.00000000000E+00 0.  1.
<scales pt_clust_3="44.62878" pt_clust_4="14000.00000" pt_clust_5="38.73233" pt_clust_6="75.52379"></scales>
<clustering>
<clus scale="   44.629">  1  3  2 -1</clus>
<clus scale="   38.732">  1  5  2 -1</clus>
<clus scale="   75.524">  2  6  1 -1</clus>
<clus scale="   44.629">  1  3  2 -1</clus>
</clustering>
</event>
<event>
 6    0  0.5775861E+002  0.1779802E+03  0.7546771E-02  0.1169772E+00
         21   -1    0    0  505  502  0.00000000000E+00  0.00000000000E+00  0.65524939818E+02  0.65524939818E+02  0.00000000000E+00 0.  1.
          2   -1    0    0  503    0 -0.00000000000E+00 -0.00000000000E+00 -0.18995969879E+04  0.18995969879E+04  0.00000000000E+00 0.  1.
         21    1    1    2  503  504 -0.77165786728E+02  0.11246062919E+03 -0.11157171280E+04  0.11240225360E+04  0.00000000000E+00 0.  1.
         21    1    1    2  504  502  0.23104264116E+03 -0.47387920663E+02 -0.33990659123E+03  0.41371827107E+03  0.00000000000E+00 0.  1.
         21    1    1    2  505  501 -0.59933889897E+02 -0.11216164133E+02 -0.42269806999E+02  0.74193059512E+02  0.00000000000E+00 0.  1.
          2    1    1    2  501    0 -0.93942964533E+02 -0.53856544396E+02 -0.33617852184E+03  0.35318806111E+03  0.00000000000E+00 0.  1.
<scales pt_clust_3="14000.00000" pt_clust_4="177.98016" pt_clust_5="60.97437" pt_clust_6="118.21532"></scales>
<clustering>
<clus scale="   60.974">  1  5  2 -1</clus>
<clus scale="  118.215">  2  6  1 -1</clus>
<clus scale="  177.980">  1  4  2 -1</clus>
<clus scale="   60.974">  1  3  2 -1</clus>
</clustering>
</event>
<event>
 6    0  0.5775861E+002  0.1383450E+03  0.7546771E-02  0.1215573E+00
         21   -1    0    0  503  502  0.00000000000E+00  0.00000000000E+00  0.26608658581E+03  0.26608658581E+03  0.00000000000E+00 0.  1.
         -2   -1    0    0    0  501 -0.00000000000E+00 -0.00000000000E+00 -0.58561041586E+03  0.58561041586E+03  0.00000000000E+00 0. -1.
         21    1    1    2  503  501  0.52380657272E+02 -0.66067886431E+02  0.49862251344E+02  0.97953779829E+02  0.00000000000E+00 0.  1.
         21    1    1    2  504  502  0.96936145260E+02  0.48235206445E+02  0.16041614788E+03  0.19353705563E+03  0.00000000000E+00 0.  1.
         21    1    1    2  505  504 -0.11151405766E+03  0.32501588715E+02 -0.22991625288E+03  0.25759119096E+03  0.00000000000E+00 0.  1.
         -2    1    1    2    0  505 -0.37802744874E+02 -0.14668908728E+02 -0.29988597640E+03  0.30261497525E+03  0.00000000000E+00 0. -1.
<scales pt_clust_3="83.36351" pt_clust_4="14000.00000" pt_clust_5="138.34497" pt_clust_6="40.54904"></scales>
<clustering>
<clus scale="   40.549">  2  6  1 -1</clus>
<clus scale="   83.364">  1  3  2 -1</clus>
<clus scale="  138.345">  2  5  1 -1</clus>
<clus scale="   83.364">  1  3  2 -1</clus>
</clustering>
</event>
<event>
 6    0  0.5775861E+002  0.9120923E+02  0.7546771E-02  0.1299950E+00
          2   -1    0    0  504    0 -0.00000000000E+00  0.00000000000E+00  0.97969325094E+03  0.97969325094E+03  0.00000000000E+00 0.  1.
         21   -1    0    0  503  502  0.00000000000E+00 -0.00000000000E+00 -0.25201515265E+03  0.25201515265E+03  0.00000000000E+00 0. -1.
         21    1    1    2  503  501  0.13359585438E+02 -0.54099616983E+02 -0.61767866880E+02  0.83189641541E+02  0.00000000000E+00 0. -1.
         21    1    1    2  504  505  0.32578687607E+02  0.11950681656E+03  0.44552255411E+03  0.46242144880E+03  0.00000000000E+00 0. -1.
         21    1    1    2  505  502 -0.27460901599E+02 -0.38274604777E+02 -0.16730795554E+03  0.17381311365E+03  0.00000000000E+00 0. -1.
          2    1    1    2  501    0 -0.18477371447E+02 -0.27132594798E+02  0.51123136661E+03  0.51228419960E+03  0.00000000000E+00 0.  1.
<scales pt_clust_3="14000.00000" pt_clust_4="91.20923" pt_clust_5="47.33486" pt_clust_6="32.82668"></scales>
<clustering>
<clus scale="   32.827">  1  6  2 -1</clus>
<clus scale="   47.335">  2  5  1 -1</clus>
<clus scale="   91.209">  1  4  2 -1</clus>
<clus scale="   47.335">  2  3  1 -1</clus>
</clustering>
</event>
<event>
 6    0  0.5775861E+002  0.8695658E+02  0.7546771E-02  0.1310394E+00
         21   -1    0    0  503  502  0.00000000000E+00  0.00000000000E+00  0.99907827534E+03  0.99907827534E+03  0.00000000000E+00 0.  1.
          2   -1    0    0  505    0 -0.00000000000E+00 -0.00000000000E+00 -0.73130592130E+02  0.73130592130E+02  0.00000000000E+00 0.  1.
         21    1    1    2  503  501 -0.27320888500E+02  0.29239969047E+02  0.75988696414E+03  0.76093994836E+03  0.00000000000E+00 0.  1.
         21    1    1    2  504  502  0.86518089258E+02  0.57292648385E+02  0.15154270606E+03  0.18366550870E+03  0.00000000000E+00 0. -1.
         21    1    1    2  505  504 -0.58188865044E+02 -0.31825142693E+02  0.26786134175E+02  0.71528181206E+02  0.00000000000E+00 0.  1.
          2    1    1    2  501    0 -0.10083357140E+01 -0.54707474739E+02 -0.12268121163E+02  0.56075229203E+02  0.00000000000E+00 0.  1.
<scales pt_clust_3="40.01758" pt_clust_4="86.95658" pt_clust_5="14000.00000" pt_clust_6="52.14262"></scales>
<clustering>
<clus scale="   40.018">  1  3  2 -1</clus>
<clus scale="   52.143">  2  6  1 -1</clus>
<clus scale="   86.957">  1  4  2 -1</clus>
<clus scale="   40.018">  1  3  2 -1</clus>
</clustering>
</event>
<event>
 6    0  0.5775861E+002  0.9493328E+02  0.7546771E-02  0.1291326E+00
         21   -1    0    0  503  502  0.00000000000E+00  0.00000000000E+00  0.21237569310E+03  0.21237569310E+03  0.00000000000E+00 0. -1.
         -3   -1    0    0    0  501 -0.00000000000E+00 -0.00000000000E+00 -0.29607164084E+03  0.29607164084E+03  0.00000000000E+00 0.  1.
         21    1    1    2  503  504 -0.11172150679E+02 -0.42282977465E+02  0.95119511007E+02  0.10469187413E+03  0.00000000000E+00 0. -1.
         21    1    1    2  504  501  0.11536635632E+03  0.97283297629E+02  0.27703504781E+01  0.15093412805E+03  0.00000000000E+00 0. -1.
         21    1    1    2  505  502 -0.31316311122E+02 -0.53369100214E+01  0.16640393629E+02  0.35862189712E+02  0.00000000000E+00 0. -1.
         -3    1    1    2    0  505 -0.72877894521E+02 -0.49663410143E+02 -0.19822620285E+03  0.21695914204E+03  0.00000000000E+00 0.  1.
<scales pt_clust_3="53.11582" pt_clust_4="94.93328" pt_clust_5="31.76781" pt_clust_6="14000.00000"></scales>
<clustering>
<clus scale="   31.768">  1  5  2 -1</clus>
<clus scale="   53.116">  1  3  2 -1</clus>
<clus scale="   94.933">  1  4  2 -1</clus>
<clus scale="   31.768">  1  3  2 -1</clus>
</clustering>
</event>
<event>
 6    0  0.5775861E+002  0.7735257E+02  0.7546771E-02  0.1336737E+00
         -4   -1    0    0    0  501 -0.00000000000E+00  0.00000000000E+00  0.37762667222E+03  0.37762667222E+03  0.00000000000E+00 0.  1.
         21   -1    0    0  504  502  0.00000000000E+00 -0.00000000000E+00 -0.26343182801E+03  0.26343182801E+03  0.00000000000E+00 0. -1.
         21    1    1    2  503  505 -0.67210919614E+02  0.55575284966E+02 -0.43938552087E+02  0.97655088827E+02  0.00000000000E+00 0. -1.
         21    1    1    2  504  503  0.58828152575E+02  0.37632534898E+01 -0.13174105233E+03  0.14432816247E+03  0.00000000000E+00 0. -1.
         21    1    1    2  505  501  0.14447571050E+02 -0.91053582526E+02 -0.14209896540E+02  0.93281339826E+02  0.00000000000E+00 0. -1.
         -4    1    1    2    0  502 -0.60648040114E+01  0.31715044071E+02  0.30408434517E+03  0.30579390910E+03  0.00000000000E+00 0.  1.
<scales pt_clust_3="14000.00000" pt_clust_4="58.66528" pt_clust_5="77.35257" pt_clust_6="32.28972"></scales>
<clustering>
<clus scale="   32.290">  1  6  2 -1</clus>
<clus scale="   58.665">  2  4  1 -1</clus>
<clus scale="   77.353">  1  5  2 -1</clus>
<clus scale="   58.665">  2  3  1 -1</clus>
</clustering>
</event>
<event>
 6    0  0.5775861E+002  0.1344628E+03  0.7546771E-02  0.1220980E+00
          1   -1    0    0  505    0 -0.00000000000E+00  0.00000000000E+00  0.31331599345E+04  0.31331599345E+04  0.00000000000E+00 0.  1.
         21   -1    0    0  504  502  0.00000000000E+00 -0.00000000000E+00 -0.26262805887E+04  0.26262805887E+04  0.00000000000E+00 0.  1.
         21    1    1    2  503  502 -0.90414537557E+02  0.32442256198E+02 -0.24935531938E+03  0.26721782106E+03  0.00000000000E+00 0.  1.
         21    1    1    2  504  501 -0.27967247220E+02  0.53880764683E+02 -0.23557935296E+04  0.23565755786E+04  0.00000000000E+00 0.  1.
         21    1    1    2  505  503  0.52311740008E+02 -0.62884342575E+02  0.13537654338E+03  0.15817005779E+03  0.00000000000E+00 0.  1.
          1    1    1    2  501    0  0.66070044770E+02 -0.23438678306E+02  0.29766516514E+04  0.29774770656E+04  0.00000000000E+00 0.  1.
<scales pt_clust_3="134.46277" pt_clust_4="60.70670" pt_clust_5="14000.00000" pt_clust_6="70.03660"></scales>
<clustering>
<clus scale="   60.707">  2  4  1 -1</clus>
<clus scale="   70.037">  1  6  2 -1</clus>
<clus scale="  134.463">  2  3  1 -1</clus>
<clus scale="   60.707">  2  3  1 -1</clus>
</clustering>
</event>
<event>
 6    0  0.5775861E+002  0.1317350E+03  0.7546771E-02  0.1224904E+00
         21   -1    0    0  505  502  0.00000000000E+00  0.00000000000E+00  0.33507148947E+03  0.33507148947E+03  0.00000000000E+00 0. -1.
         -3   -1    0    0    0  501 -0.00000000000E+00 -0.00000000000E+00 -0.10022168740E+04  0.10022168740E+04  0.00000000000E+00 0.  1.
         21    1    1    2  503  502 -0.57040644865E+02  0.27075416983E+02  0.47357300508E+02  0.78926720968E+02  0.00000000000E+00 0.  1.
         21    1    1    2  504  503 -0.12530012086E+03 -0.67139855552E+02  0.21197823399E+03  0.25523058629E+03  0.00000000000E+00 0. -1.
         21    1    1    2  505  501  0.53697294614E+02  0.12158488399E+02  0.11259847224E+02  0.56196196032E+02  0.00000000000E+00 0.  1.
         -3    1    1    2    0  504  0.12864347111E+03  0.27905950169E+02 -0.93774076623E+03  0.94693486015E+03  0.00000000000E+00 0.  1.
<scales pt_clust_3="54.53599" pt_clust_4="14000.00000" pt_clust_5="55.05659" pt_clust_6="131.73504"></scales>
<clustering>
<clus scale="   55.057">  1  5  2 -1</clus>
<clus scale="   54.536">  1  3  2 -1</clus>
<clus scale="  131.735">  2  6  1 -1</clus>
<clus scale="   55.057">  1  3  2 -1</clus>
</clustering>
</event>
<event>
 6    0  0.5775861E+002  0.8493047E+02  0.7546771E-02  0.1315614E+00
         21   -1    0    0  503  502  0.00000000000E+00  0.00000000000E+00  0.42824968949E+03  0.42824968949E+03  0.00000000000E+00 0. -1.
          2   -1    0    0  505    0 -0.00000000000E+00 -0.00000000000E+00 -0.15392375436E+03  0.15392375436E+03  0.00000000000E+00 0. -1.
         21    1    1    2  503  504 -0.19537460149E+02 -0.28527885529E+02  0.17889382707E+03  0.18220470346E+03  0.00000000000E+00 0.  1.
         21    1    1    2  504  501  0.91215785338E+02  0.63668908139E+02  0.13183812651E+03  0.17249736508E+03  0.00000000000E+00 0. -1.
         21    1    1    2  505  502 -0.53912892769E+02  0.42041090998E+02 -0.10325033412E+03  0.12383329453E+03  0.00000000000E+00 0. -1.
          2    1    1    2  501    0 -0.17765432420E+02 -0.77182113607E+02  0.66844315671E+02  0.10363808078E+03  0.00000000000E+00 0. -1.
<scales pt_clust_3="34.57676" pt_clust_4="14000.00000" pt_clust_5="68.29336" pt_clust_6="84.93047"></scales>
<clustering>
<clus scale="   34.577">  1  3  2 -1</clus>
<clus scale="   68.293">  2  5  1 -1</clus>
<clus scale="   84.930">  2  6  1 -1</clus>
<clus scale="   34.577">  1  3  2 -1</clus>
</clustering>
</event>
<event>
 6    0  0.5775861E+002  0.1072953E+03  0.7546771E-02  0.1265662E+00
          1   -1    0    0  504    0 -0.00000000000E+00  0.00000000000E+00  0.87842084379E+03  0.87842084379E+03  0.00000000000E+00 0.  1.
         21   -1    0    0  505  502  0.00000000000E+00 -0.00000000000E+00 -0.12276113088E+03  0.12276113088E+03  0.00000000000E+00 0.  1.
         21    1    1    2  503  502 -0.48395913144E+02  0.59067945863E+01 -0.31404285173E+01  0.48856083782E+02  0.00000000000E+00 0. -1.
         21    1    1    2  504  503 -0.73657156270E+02 -0.34730319001E+02  0.86561093160E+02  0.11884609618E+03  0.00000000000E+00 0.  1.
         21    1    1    2  505  501  0.60291334033E+02 -0.72224860014E+02 -0.46571968419E+02  0.10497820539E+03  0.00000000000E+00 0.  1.
          1    1    1    2  501    0  0.61761735381E+02  0.10104838443E+03  0.71881101668E+03  0.72850158933E+03  0.00000000000E+00 0.  1.
<scales pt_clust_3="48.75505" pt_clust_4="107.29533" pt_clust_5="71.21151" pt_clust_6="14000.00000"></scales>
<clustering>
<clus scale="   48.755">  2  3  1 -1</clus>
<clus scale="   71.212">  2  5  1 -1</clus>
<clus scale="  107.295">  2  4  1 -1</clus>
<clus scale="   48.755">  2  3  1 -1</clus>
</clustering>
</event>
<event>
 6    0  0.5775861E+002  0.6270425E+02  0.7546771E-02  0.1386821E+00
         21   -1    0    0  503  502  0.00000000000E+00  0.00000000000E+00  0.30257564109E+03  0.30257564109E+03  0.00000000000E+00 0. -1.
         -2   -1    0    0    0  501 -0.00000000000E+00 -0.00000000000E+00 -0.61168792358E+03  0.61168792358E+03  0.00000000000E+00 0.  1.
         21    1    1    2  503  504  0.14915336331E+01  0.31183066964E+02  0.21095964739E+03  0.21325707765E+03  0.00000000000E+00 0. -1.
         21    1    1    2  504  501  0.45091687667E+02 -0.46514691952E+02 -0.72997542736E+02  0.97598760799E+02  0.00000000000E+00 0.  1.
         21    1    1    2  505  502 -0.92310721815E+02 -0.26683486493E+02  0.45933480312E+02  0.10650428361E+03  0.00000000000E+00 0. -1.
         -2    1    1    2    0  505  0.45727500515E+02  0.42015111481E+02 -0.49300786746E+03  0.49690344261E+03  0.00000000000E+00 0.  1.
<scales pt_clust_3="31.21872" pt_clust_4="61.95765" pt_clust_5="62.70425" pt_clust_6="14000.00000"></scales>
<clustering>
<clus scale="   31.219">  1  3  2 -1</clus>
<clus scale="   61.958">  1  4  2 -1</clus>
<clus scale="   62.704">  1  5  2 -1</clus>
<clus scale="   31.219">  1  3  2 -1</clus>
</clustering>
</event>
<event>
 6    0  0.5775861E+002  0.8168289E+02  0.7546771E-02  0.1324342E+00
          2   -1    0    0  503    0 -0.00000000000E+00  0.00000000000E+00  0.53702434548E+03  0.53702434548E+03  0.00000000000E+00 0.  1.
         21   -1    0    0  505  502  0.00000000000E+00 -0.00000000000E+00 -0.23460009974E+04  0.23460009974E+04  0.00000000000E+00 0.  1.
         21    1    1    2  503  502 -0.56011099390E+02  0.71822265946E+02 -0.13334875156E+04  0.13365944170E+04  0.00000000000E+00 0.  1.
         21    1    1    2  504  501 -0.56941401168E+02 -0.30674020900E+02 -0.12453544042E+03  0.14032923660E+03  0.00000000000E+00 0.  1.
         21    1    1    2  505  504  0.35700335918E+02 -0.14572742187E+02 -0.87493783566E+03  0.87578712886E+03  0.00000000000E+00 0. -1.
          2    1    1    2  501    0  0.77252164641E+02 -0.26575502859E+02  0.52398413978E+03  0.53031456046E+03  0.00000000000E+00 0.  1.
<scales pt_clust_3="14000.00000" pt_clust_4="62.52733" pt_clust_5="38.56007" pt_clust_6="81.68289"></scales>
<clustering>
<clus scale="   38.560">  2  5  1 -1</clus>
<clus scale="   62.527">  2  4  1 -1</clus>
<clus scale="   81.683">  1  6  2 -1</clus>
<clus scale="   38.560">  2  3  1 -1</clus>
</clustering>
</event>
<event>
 6    0  0.5775861E+002  0.9408508E+02  0.7546771E-02  0.1293250E+00
          2   -1    0    0  505    0 -0.00000000000E+00  0.00000000000E+00  0.10867175531E+04  0.10867175531E+04  0.00000000000E+00 0.  1.
         21   -1    0    0  504  502  0.00000000000E+00 -0.00000000000E+00 -0.17972135604E+04  0.17972135604E+04  0.00000000000E+00 0.  1.
         21    1    1    2  503  502 -0.22279706410E+02  0.25721940801E+02 -0.29464799211E+02  0.45013086418E+02  0.00000000000E+00 0. -1.
         21    1    1    2  504  501 -0.48481472276E+02  0.29487330328E+02 -0.16852417805E+04  0.16861968493E+04  0.00000000000E+00 0.  1.
         21    1    1    2  505  503  0.11635182164E+03 -0.70528189606E+02 -0.10878909301E+02  0.13649293973E+03  0.00000000000E+00 0. -1.
          2    1    1    2  501    0 -0.45590642955E+02  0.15318918477E+02  0.10150894817E+04  0.10162282380E+04  0.00000000000E+00 0.  1.
<scales pt_clust_3="34.02945" pt_clust_4="14000.00000" pt_clust_5="94.08508" pt_clust_6="48.10497"></scales>
<clustering>
<clus scale="   34.029">  2  3  1 -1</clus>
<clus scale="   48.105">  1  6  2 -1</clus>
<clus scale="   94.085">  1  5  2 -1</clus>
<clus scale="   34.029">  2  3  1 -1</clus>
</clustering>
</event>
