<event>
 4    0  0.2188063E-002  0.1615218E+03  0.7546771E-02  0.1186989E+00
         21   -1    0    0  502  501  0.00000000000E+00  0.00000000000E+00  0.33868145747E+03  0.33868145747E+03  0.00000000000E+00 0. -1.
         21   -1    0    0  501  502 -0.00000000000E+00 -0.00000000000E+00 -0.77031907582E+02  0.77031907582E+02  0.00000000000E+00 0. -1.
         25    1    1    2    0    0 -0.43076925607E+02 -0.58306791841E+02  0.22370197227E+03  0.26631349176E+03  0.12500000000E+03 0.  0.
         25    1    1    2    0    0  0.43076925607E+02  0.58306791841E+02  0.37947577624E+02  0.14939987330E+03  0.12500000000E+03 0.  0.
</event>
<event>
 4    0  0.2188063E-002  0.1782788E+03  0.7546771E-02  0.1169479E+00
         21   -1    0    0  502  501  0.00000000000E+00  0.00000000000E+00  0.86424691253E+03  0.86424691253E+03  0.00000000000E+00 0. -1.
         21   -1    0    0  501  502 -0.00000000000E+00 -0.00000000000E+00 -0.36775737076E+02  0.36775737076E+02  0.00000000000E+00 0. -1.
         25    1    1    2    0    0  0.10601618041E+03 -0.23259039621E+02  0.58093671761E+03  0.60406364177E+03  0.12500000000E+03 0.  0.
         25    1    1    2    0    0 -0.10601618041E+03  0.23259039621E+02  0.24653445784E+03  0.29695900784E+03  0.12500000000E+03 0.  0.
</event>
<event>
 4    0  0.2188063E-002  0.1911972E+03  0.7546771E-02  0.1157386E+00
         21   -1    0    0  502  501  0.00000000000E+00  0.00000000000E+00  0.30251985286E+03  0.30251985286E+03  0.00000000000E+00 0.  1.
         21   -1    0    0  501  502 -0.00000000000E+00 -0.00000000000E+00 -0.12083958217E+03  0.12083958217E+03  0.00000000000E+00 0.  1.
         25    1    1    2    0    0 -0.38630397008E+02 -0.43903205108E+01 -0.63443536302E+02  0.14547049455E+03  0.12500000000E+03 0.  0.
         25    1    1    2    0    0  0.38630397008E+02  0.43903205108E+01  0.24512380699E+03  0.27788894048E+03  0.12500000000E+03 0.  0.
</event>
<event>
 4    0  0.2188063E-002  0.2676455E+03  0.7546771E-02  0.1102635E+00
         21   -1    0    0  502  501  0.00000000000E+00  0.00000000000E+00  0.13335359428E+03  0.13335359428E+03  0.00000000000E+00 0.  1.
         21   -1    0    0  501  502 -0.00000000000E+00 -0.00000000000E+00 -0.53717420289E+03  0.53717420289E+03  0.00000000000E+00 0.  1.
         25    1    1    2    0    0 -0.57091301917E+02  0.22738996801E+03 -0.24237463224E+03  0.35963325300E+03  0.12500000000E+03 0.  0.
         25    1    1    2    0    0  0.57091301917E+02 -0.22738996801E+03 -0.16144597638E+03  0.31089454417E+03  0.12500000000E+03 0.  0.
</event>
<event>
 4    0  0.2188063E-002  0.2577447E+03  0.7546771E-02  0.1108506E+00
         21   -1    0    0  502  501  0.00000000000E+00  0.00000000000E+00  0.61197539262E+03  0.61197539262E+03  0.00000000000E+00 0. -1.
         21   -1    0    0  501  502 -0.00000000000E+00 -0.00000000000E+00 -0.10855393303E+03  0.10855393303E+03  0.00000000000E+00 0. -1.
         25    1    1    2    0    0  0.18457471288E+03 -0.12022750908E+03  0.18489765839E+03  0.31358351783E+03  0.12500000000E+03 0.  0.
         25    1    1    2    0    0 -0.18457471288E+03  0.12022750908E+03  0.31852380120E+03  0.40694580782E+03  0.12500000000E+03 0.  0.
</event>
<event>
 4    0  0.2188063E-002  0.1697437E+03  0.7546771E-02  0.1178115E+00
         21   -1    0    0  502  501  0.00000000000E+00  0.00000000000E+00  0.41522834837E+03  0.41522834837E+03  0.00000000000E+00 0.  1.
         21   -1    0    0  501  502 -0.00000000000E+00 -0.00000000000E+00 -0.69390580907E+02  0.69390580907E+02  0.00000000000E+00 0.  1.
         25    1    1    2    0    0  0.46125321935E+01 -0.11385374121E+03  0.15253075860E+03  0.22775992220E+03  0.12500000000E+03 0.  0.
         25    1    1    2    0    0 -0.46125321935E+01  0.11385374121E+03  0.19330700885E+03  0.25685900707E+03  0.12500000000E+03 0.  0.
</event>
<event>
 4    0  0.2188063E-002  0.2343377E+03  0.7546771E-02  0.1123623E+00
         21   -1    0    0  502  501  0.00000000000E+00  0.00000000000E+00  0.15735891498E+03  0.15735891498E+03  0.00000000000E+00 0. -1.
         21   -1    0    0  501  502 -0.00000000000E+00 -0.00000000000E+00 -0.34897392851E+03  0.34897392851E+03  0.00000000000E+00 0. -1.
         25    1    1    2    0    0  0.14014951404E+03 -0.13204450040E+03 -0.45002138376E+02  0.23393979745E+03  0.12500000000E+03 0.  0.
         25    1    1    2    0    0 -0.14014951404E+03  0.13204450040E+03 -0.14661287515E+03  0.27239304604E+03  0.12500000000E+03 0.  0.
</event>
<event>
 4    0  0.2188063E-002  0.1884827E+03  0.7546771E-02  0.1159837E+00
         21   -1    0    0  502  501  0.00000000000E+00  0.00000000000E+00  0.84612909261E+02  0.84612909261E+02  0.00000000000E+00 0. -1.
         21   -1    0    0  501  502 -0.00000000000E+00 -0.00000000000E+00 -0.41986168350E+03  0.41986168350E+03  0.00000000000E+00 0. -1.
         25    1    1    2    0    0  0.19794769378E+02 -0.96918510865E+02 -0.30222144844E+03  0.34168382247E+03  0.12500000000E+03 0.  0.
         25    1    1    2    0    0 -0.19794769378E+02  0.96918510865E+02 -0.33027325808E+02  0.16279077029E+03  0.12500000000E+03 0.  0.
</event>
<event>
 4    0  0.2188063E-002  0.2191829E+03  0.7546771E-02  0.1134494E+00
         21   -1    0    0  502  501  0.00000000000E+00  0.00000000000E+00  0.82800558681E+02  0.82800558681E+02  0.00000000000E+00 0. -1.
         21   -1    0    0  501  502 -0.00000000000E+00 -0.00000000000E+00 -0.58020297877E+03  0.58020297877E+03  0.00000000000E+00 0. -1.
         25    1    1    2    0    0 -0.14431866904E+03 -0.24217357447E+02 -0.90061991247E+02  0.21248651934E+03  0.12500000000E+03 0.  0.
         25    1    1    2    0    0  0.14431866904E+03  0.24217357447E+02 -0.40734042885E+03  0.45051701811E+03  0.12500000000E+03 0.  0.
</event>
<event>
 4    0  0.2188063E-002  0.3187579E+03  0.7546771E-02  0.1076222E+00
         21   -1    0    0  502  501  0.00000000000E+00  0.00000000000E+00  0.87613039444E+02  0.87613039444E+02  0.00000000000E+00 0. -1.
         21   -1    0    0  501  502 -0.00000000000E+00 -0.00000000000E+00 -0.11597199871E+04  0.11597199871E+04  0.00000000000E+00 0. -1.
         25    1    1    2    0    0 -0.56506838979E+02 -0.22643630100E+03 -0.88339069089E+03  0.92220959332E+03  0.12500000000E+03 0.  0.
         25    1    1    2    0    0  0.56506838979E+02  0.22643630100E+03 -0.18871625676E+03  0.32512343322E+03  0.12500000000E+03 0.  0.
</event>
<event>
 4    0  0.2188063E-002  0.2393280E+03  0.7546771E-02  0.1120241E+00
         21   -1    0    0  502  501  0.00000000000E+00  0.00000000000E+00  0.31494154760E+03  0.31494154760E+03  0.00000000000E+00 0.  1.
         21   -1    0    0  501  502 -0.00000000000E+00 -0.00000000000E+00 -0.18186827263E+03  0.18186827263E+03  0.00000000000E+00 0.  1.
         25    1    1    2    0    0  0.14034784290E+03  0.14212523967E+03  0.23045467266E+02  0.23675555816E+03  0.12500000000E+03 0.  0.
         25    1    1    2    0    0 -0.14034784290E+03 -0.14212523967E+03  0.11002780770E+03  0.26005426208E+03  0.12500000000E+03 0.  0.
</event>
<event>
 4    0  0.2188063E-002  0.2459623E+03  0.7546771E-02  0.1115883E+00
         21   -1    0    0  502  501  0.00000000000E+00  0.00000000000E+00  0.35736426621E+03  0.35736426621E+03  0.00000000000E+00 0. -1.
         21   -1    0    0  501  502 -0.00000000000E+00 -0.00000000000E+00 -0.16928787167E+03  0.16928787167E+03  0.00000000000E+00 0. -1.
         25    1    1    2    0    0  0.40700598295E+02 -0.48871919584E+02 -0.12228416044E+03  0.18607369271E+03  0.12500000000E+03 0.  0.
         25    1    1    2    0    0 -0.40700598295E+02  0.48871919584E+02  0.31036055498E+03  0.34057844516E+03  0.12500000000E+03 0.  0.
</event>
<event>
 4    0  0.2188063E-002  0.2019281E+03  0.7546771E-02  0.1148122E+00
         21   -1    0    0  502  501  0.00000000000E+00  0.00000000000E+00  0.42633043484E+03  0.42633043484E+03  0.00000000000E+00 0. -1.
         21   -1    0    0  501  502 -0.00000000000E+00 -0.00000000000E+00 -0.95641655672E+02  0.95641655672E+02  0.00000000000E+00 0. -1.
         25    1    1    2    0    0 -0.11064230114E+03  0.11356595284E+03  0.16105693108E+03  0.25826978045E+03  0.12500000000E+03 0.  0.
         25    1    1    2    0    0  0.11064230114E+03 -0.11356595284E+03  0.16963184809E+03  0.26370231006E+03  0.12500000000E+03 0.  0.
</event>
<event>
 4    0  0.2188063E-002  0.2744331E+03  0.7546771E-02  0.1098769E+00
         21   -1    0    0  502  501  0.00000000000E+00  0.00000000000E+00  0.80516455860E+03  0.80516455860E+03  0.00000000000E+00 0.  1.
         21   -1    0    0  501  502 -0.00000000000E+00 -0.00000000000E+00 -0.93538059330E+02  0.93538059330E+02  0.00000000000E+00 0.  1.
         25    1    1    2    0    0 -0.76468999101E+01  0.30620863902E+02  0.75249343633E+03  0.76345758501E+03  0.12500000000E+03 0.  0.
         25    1    1    2    0    0  0.76468999101E+01 -0.30620863902E+02 -0.40866937064E+02  0.13524503292E+03  0.12500000000E+03 0.  0.
</event>
<event>
 4    0  0.2188063E-002  0.2197953E+03  0.7546771E-02  0.1134036E+00
         21   -1    0    0  502  501  0.00000000000E+00  0.00000000000E+00  0.21583285227E+04  0.21583285227E+04  0.00000000000E+00 0.  1.
         21   -1    0    0  501  502 -0.00000000000E+00 -0.00000000000E+00 -0.22383046069E+02  0.22383046069E+02  0.00000000000E+00 0.  1.
         25    1    1    2    0    0  0.15423932259E+03 -0.34346206401E+02  0.15037182476E+04  0.15171562209E+04  0.12500000000E+03 0.  0.
         25    1    1    2    0    0 -0.15423932259E+03  0.34346206401E+02  0.63222722906E+03  0.66355534787E+03  0.12500000000E+03 0.  0.
</event>
<event>
 4    0  0.2188063E-002  0.2488262E+03  0.7546771E-02  0.1114049E+00
         21   -1    0    0  502  501  0.00000000000E+00  0.00000000000E+00  0.16045623960E+03  0.16045623960E+03  0.00000000000E+00 0.  1.
         21   -1    0    0  501  502 -0.00000000000E+00 -0.00000000000E+00 -0.38586522490E+03  0.38586522490E+03  0.00000000000E+00 0.  1.
         25    1    1    2    0    0 -0.16606263835E+03 -0.12606927648E+03 -0.54415482968E+02  0.24911103371E+03  0.12500000000E+03 0.  0.
         25    1    1    2    0    0  0.16606263835E+03  0.12606927648E+03 -0.17099350233E+03  0.29721043079E+03  0.12500000000E+03 0.  0.
</event>
<event>
 4    0  0.2188063E-002  0.2096171E+03  0.7546771E-02  0.1141870E+00
         21   -1    0    0  502  501  0.00000000000E+00  0.00000000000E+00  0.96358794011E+02  0.96358794011E+02  0.00000000000E+00 0. -1.
         21   -1    0    0  501  502 -0.00000000000E+00 -0.00000000000E+00 -0.45599698209E+03  0.45599698209E+03  0.00000000000E+00 0. -1.
         25    1    1    2    0    0 -0.16104636948E+03  0.48165283275E+02 -0.16974260786E+03  0.26961709990E+03  0.12500000000E+03 0.  0.
         25    1    1    2    0    0  0.16104636948E+03 -0.48165283275E+02 -0.18989558023E+03  0.28273867621E+03  0.12500000000E+03 0.  0.
</event>
<event>
 4    0  0.2188063E-002  0.2555527E+03  0.7546771E-02  0.1109845E+00
         21   -1    0    0  502  501  0.00000000000E+00  0.00000000000E+00  0.83653639055E+03  0.83653639055E+03  0.00000000000E+00 0.  1.
         21   -1    0    0  501  502 -0.00000000000E+00 -0.00000000000E+00 -0.78068577303E+02  0.78068577303E+02  0.00000000000E+00 0.  1.
         25    1    1    2    0    0 -0.12120597415E+03  0.18088463676E+03  0.46453085020E+03  0.52803792550E+03  0.12500000000E+03 0.  0.
         25    1    1    2    0    0  0.12120597415E+03 -0.18088463676E+03  0.29393696305E+03  0.38656704235E+03  0.12500000000E+03 0.  0.
</event>
<event>
 4    0  0.2188063E-002  0.2150635E+03  0.7546771E-02  0.1137618E+00
         21   -1    0    0  502  501  0.00000000000E+00  0.00000000000E+00  0.66562334613E+02  0.66562334613E+02  0.00000000000E+00 0. -1.
         21   -1    0    0  501  502 -0.00000000000E+00 -0.00000000000E+00 -0.69487237778E+03  0.69487237778E+03  0.00000000000E+00 0. -1.
         25    1    1    2    0    0  0.15540742699E+03 -0.79012120260E+02 -0.34117355935E+03  0.40301213519E+03  0.12500000000E+03 0.  0.
         25    1    1    2    0    0 -0.15540742699E+03  0.79012120260E+02 -0.28713648382E+03  0.35842257721E+03  0.12500000000E+03 0.  0.
</event>
<event>
 4    0  0.2188063E-002  0.1996619E+03  0.7546771E-02  0.1150025E+00
         21   -1    0    0  502  501  0.00000000000E+00  0.00000000000E+00  0.49048843540E+03  0.49048843540E+03  0.00000000000E+00 0.  1.
         21   -1    0    0  501  502 -0.00000000000E+00 -0.00000000000E+00 -0.81275884673E+02  0.81275884673E+02  0.00000000000E+00 0.  1.
         25    1    1    2    0    0  0.14734777907E+03  0.26284976905E+02  0.14322740342E+03  0.24195321262E+03  0.12500000000E+03 0.  0.
         25    1    1    2    0    0 -0.14734777907E+03 -0.26284976905E+02  0.26598514731E+03  0.32981110745E+03  0.12500000000E+03 0.  0.
</event>
<event>
 4    0  0.2188063E-002  0.2249058E+03  0.7546771E-02  0.1130278E+00
         21   -1    0    0  502  501  0.00000000000E+00  0.00000000000E+00  0.24799713729E+03  0.24799713729E+03  0.00000000000E+00 0.  1.
         21   -1    0    0  501  502 -0.00000000000E+00 -0.00000000000E+00 -0.20396448640E+03  0.20396448640E+03  0.00000000000E+00 0.  1.
         25    1    1    2    0    0 -0.10480701388E+03  0.10336965798E+03  0.13784009533E+03  0.23726501687E+03  0.12500000000E+03 0.  0.
         25    1    1    2    0    0  0.10480701388E+03 -0.10336965798E+03 -0.93807444437E+02  0.21469660682E+03  0.12500000000E+03 0.  0.
</event>
<event>
 4    0  0.2188063E-002  0.2215055E+03  0.7546771E-02  0.1132766E+00
         21   -1    0    0  502  501  0.00000000000E+00  0.00000000000E+00  0.33842395605E+03  0.33842395605E+03  0.00000000000E+00 0.  1.
         21   -1    0    0  501  502 -0.00000000000E+00 -0.00000000000E+00 -0.14497991512E+03  0.14497991512E+03  0.00000000000E+00 0.  1.
         25    1    1    2    0    0  0.16709292357E+03 -0.50079780859E+02  0.15660421147E+03  0.26566503083E+03  0.12500000000E+03 0.  0.
         25    1    1    2    0    0 -0.16709292357E+03  0.50079780859E+02  0.36839829465E+02  0.21773884034E+03  0.12500000000E+03 0.  0.
</event>
<event>
 4    0  0.2188063E-002  0.3902707E+03  0.7546771E-02  0.1047202E+00
         21   -1    0    0  502  501  0.00000000000E+00  0.00000000000E+00  0.39643779960E+03  0.39643779960E+03  0.00000000000E+00 0. -1.
         21   -1    0    0  501  502 -0.00000000000E+00 -0.00000000000E+00 -0.38419962677E+03  0.38419962677E+03  0.00000000000E+00 0. -1.
         25    1    1    2    0    0 -0.25923016970E+03  0.28505041996E+02 -0.25596929291E+03  0.38620991340E+03  0.12500000000E+03 0.  0.
         25    1    1    2    0    0  0.25923016970E+03 -0.28505041996E+02  0.26820746574E+03  0.39442751296E+03  0.12500000000E+03 0.  0.
</event>
<event>
 4    0  0.2188063E-002  0.2642228E+03  0.7546771E-02  0.1104632E+00
         21   -1    0    0  502  501  0.00000000000E+00  0.00000000000E+00  0.39463385736E+02  0.39463385736E+02  0.00000000000E+00 0. -1.
         21   -1    0    0  501  502 -0.00000000000E+00 -0.00000000000E+00 -0.17690745108E+04  0.17690745108E+04  0.00000000000E+00 0. -1.
         25    1    1    2    0    0 -0.21969693253E+03  0.15879842649E+02 -0.60710838917E+03  0.65781798985E+03  0.12500000000E+03 0.  0.
         25    1    1    2    0    0  0.21969693253E+03 -0.15879842649E+02 -0.11225027359E+04  0.11507199067E+04  0.12500000000E+03 0.  0.
</event>
<event>
 4    0  0.2188063E-002  0.3142002E+03  0.7546771E-02  0.1078350E+00
         21   -1    0    0  502  501  0.00000000000E+00  0.00000000000E+00  0.20441876021E+04  0.20441876021E+04  0.00000000000E+00 0.  1.
         21   -1    0    0  501  502 -0.00000000000E+00 -0.00000000000E+00 -0.48293894478E+02  0.48293894478E+02  0.00000000000E+00 0. -1.
         25    1    1    2    0    0  0.14243138000E+03  0.25060074811E+03  0.10081273802E+04  0.10559513472E+04  0.12500000000E+03 0.  0.
         25    1    1    2    0    0 -0.14243138000E+03 -0.25060074811E+03  0.98776632750E+03  0.10365301494E+04  0.12500000000E+03 0.  0.
</event>
<event>
 4    0  0.2188063E-002  0.2475951E+03  0.7546771E-02  0.1114834E+00
         21   -1    0    0  502  501  0.00000000000E+00  0.00000000000E+00  0.17857961139E+03  0.17857961139E+03  0.00000000000E+00 0.  1.
         21   -1    0    0  501  502 -0.00000000000E+00 -0.00000000000E+00 -0.34328297509E+03  0.34328297509E+03  0.00000000000E+00 0.  1.
         25    1    1    2    0    0 -0.40499343763E+02 -0.12356868642E+03 -0.26110162014E+03  0.31734598335E+03  0.12500000000E+03 0.  0.
         25    1    1    2    0    0  0.40499343763E+02  0.12356868642E+03  0.96398256444E+02  0.20451660313E+03  0.12500000000E+03 0.  0.
</event>
<event>
 4    0  0.2188063E-002  0.2301492E+03  0.7546771E-02  0.1126535E+00
         21   -1    0    0  502  501  0.00000000000E+00  0.00000000000E+00  0.10403087358E+03  0.10403087358E+03  0.00000000000E+00 0. -1.
         21   -1    0    0  501  502 -0.00000000000E+00 -0.00000000000E+00 -0.50916297495E+03  0.50916297495E+03  0.00000000000E+00 0. -1.
         25    1    1    2    0    0 -0.15711072755E+03  0.70194173316E+02 -0.85421281614E+02  0.22920034475E+03  0.12500000000E+03 0.  0.
         25    1    1    2    0    0  0.15711072755E+03 -0.70194173316E+02 -0.31971081975E+03  0.38399350378E+03  0.12500000000E+03 0.  0.
</event>
<event>
 4    0  0.2188063E-002  0.2295805E+03  0.7546771E-02  0.1126935E+00
         21   -1    0    0  502  501  0.00000000000E+00  0.00000000000E+00  0.80474808808E+02  0.80474808808E+02  0.00000000000E+00 0. -1.
         21   -1    0    0  501  502 -0.00000000000E+00 -0.00000000000E+00 -0.65495292942E+03  0.65495292942E+03  0.00000000000E+00 0. -1.
         25    1    1    2    0    0  0.12264625269E+03 -0.32619442294E+02 -0.55266209709E+02  0.18650867339E+03  0.12500000000E+03 0.  0.
         25    1    1    2    0    0 -0.12264625269E+03  0.32619442294E+02 -0.51921191090E+03  0.54891906483E+03  0.12500000000E+03 0.  0.
</event>
<event>
 4    0  0.2188063E-002  0.2178115E+03  0.7546771E-02  0.1135525E+00
         21   -1    0    0  502  501  0.00000000000E+00  0.00000000000E+00  0.76865119693E+02  0.76865119693E+02  0.00000000000E+00 0. -1.
         21   -1    0    0  501  502 -0.00000000000E+00 -0.00000000000E+00 -0.61720933654E+03  0.61720933654E+03  0.00000000000E+00 0. -1.
         25    1    1    2    0    0 -0.41107581293E+02  0.17073444821E+03 -0.31996811831E+03  0.38580394215E+03  0.12500000000E+03 0.  0.
         25    1    1    2    0    0  0.41107581293E+02 -0.17073444821E+03 -0.22037609853E+03  0.30827051408E+03  0.12500000000E+03 0.  0.
</event>
<event>
 4    0  0.2188063E-002  0.1926082E+03  0.7546771E-02  0.1156130E+00
         21   -1    0    0  502  501  0.00000000000E+00  0.00000000000E+00  0.77824168616E+02  0.77824168616E+02  0.00000000000E+00 0.  1.
         21   -1    0    0  501  502 -0.00000000000E+00 -0.00000000000E+00 -0.47668900453E+03  0.47668900453E+03  0.00000000000E+00 0.  1.
         25    1    1    2    0    0 -0.55298798681E+02  0.13559940330E+03 -0.20701812752E+03  0.28271303548E+03  0.12500000000E+03 0.  0.
         25    1    1    2    0    0  0.55298798681E+02 -0.13559940330E+03 -0.19184670840E+03  0.27180013767E+03  0.12500000000E+03 0.  0.
</event>
<event>
 4    0  0.2188063E-002  0.4727031E+03  0.7546771E-02  0.1021160E+00
         21   -1    0    0  502  501  0.00000000000E+00  0.00000000000E+00  0.68127741938E+03  0.68127741938E+03  0.00000000000E+00 0. -1.
         21   -1    0    0  501  502 -0.00000000000E+00 -0.00000000000E+00 -0.32798419154E+03  0.32798419154E+03  0.00000000000E+00 0.  1.
         25    1    1    2    0    0 -0.44451281170E+03 -0.91646503153E+02  0.13094752198E+03  0.48863378395E+03  0.12500000000E+03 0.  0.
         25    1    1    2    0    0  0.44451281170E+03  0.91646503153E+02  0.22234570585E+03  0.52062782697E+03  0.12500000000E+03 0.  0.
</event>
<event>
 4    0  0.2188063E-002  0.2002087E+03  0.7546771E-02  0.1149563E+00
         21   -1    0    0  502  501  0.00000000000E+00  0.00000000000E+00  0.51524733827E+02  0.51524733827E+02  0.00000000000E+00 0.  1.
         21   -1    0    0  501  502 -0.00000000000E+00 -0.00000000000E+00 -0.77794692415E+03  0.77794692415E+03  0.00000000000E+00 0.  1.
         25    1    1    2    0    0 -0.94393539184E+02  0.74453652304E+02 -0.15600729852E+03  0.23327401006E+03  0.12500000000E+03 0.  0.
         25    1    1    2    0    0  0.94393539184E+02 -0.74453652304E+02 -0.57041489181E+03  0.59619764791E+03  0.12500000000E+03 0.  0.
</event>
<event>
 4    0  0.2188063E-002  0.1625017E+03  0.7546771E-02  0.1185901E+00
         21   -1    0    0  502  501  0.00000000000E+00  0.00000000000E+00  0.19881776759E+03  0.19881776759E+03  0.00000000000E+00 0. -1.
         21   -1    0    0  501  502 -0.00000000000E+00 -0.00000000000E+00 -0.13281906878E+03  0.13281906878E+03  0.00000000000E+00 0. -1.
         25    1    1    2    0    0 -0.26016529641E+02  0.10017260555E+03  0.41559860286E+02  0.16752203647E+03  0.12500000000E+03 0.  0.
         25    1    1    2    0    0  0.26016529641E+02 -0.10017260555E+03  0.24438838518E+02  0.16411479990E+03  0.12500000000E+03 0.  0.
</event>
<event>
 4    0  0.2188063E-002  0.3173253E+03  0.7546771E-02  0.1076887E+00
         21   -1    0    0  502  501  0.00000000000E+00  0.00000000000E+00  0.45488337557E+03  0.45488337557E+03  0.00000000000E+00 0.  1.
         21   -1    0    0  501  502 -0.00000000000E+00 -0.00000000000E+00 -0.22136521085E+03  0.22136521085E+03  0.00000000000E+00 0.  1.
         25    1    1    2    0    0  0.27907867887E+03 -0.14518798779E+02  0.27770792384E+02  0.30739538290E+03  0.12500000000E+03 0.  0.
         25    1    1    2    0    0 -0.27907867887E+03  0.14518798779E+02  0.20574737234E+03  0.36885320352E+03  0.12500000000E+03 0.  0.
</event>
<event>
 4    0  0.2188063E-002  0.2142340E+03  0.7546771E-02  0.1138256E+00
         21   -1    0    0  502  501  0.00000000000E+00  0.00000000000E+00  0.22928449410E+03  0.22928449410E+03  0.00000000000E+00 0. -1.
         21   -1    0    0  501  502 -0.00000000000E+00 -0.00000000000E+00 -0.20017145828E+03  0.20017145828E+03  0.00000000000E+00 0. -1.
         25    1    1    2    0    0  0.19451308489E+02  0.16056127232E+03 -0.49723529149E+02  0.21037039935E+03  0.12500000000E+03 0.  0.
         25    1    1    2    0    0 -0.19451308489E+02 -0.16056127232E+03  0.78836564969E+02  0.21908555303E+03  0.12500000000E+03 0.  0.
</event>
<event>
 4    0  0.2188063E-002  0.2627090E+03  0.7546771E-02  0.1105526E+00
         21   -1    0    0  502  501  0.00000000000E+00  0.00000000000E+00  0.73018026631E+03  0.73018026631E+03  0.00000000000E+00 0.  1.
         21   -1    0    0  501  502 -0.00000000000E+00 -0.00000000000E+00 -0.94519149553E+02  0.94519149553E+02  0.00000000000E+00 0.  1.
         25    1    1    2    0    0  0.14830938205E+03 -0.17548224739E+03  0.35632036019E+03  0.44201684475E+03  0.12500000000E+03 0.  0.
         25    1    1    2    0    0 -0.14830938205E+03  0.17548224739E+03  0.27934075656E+03  0.38268257111E+03  0.12500000000E+03 0.  0.
</event>
<event>
 4    0  0.2188063E-002  0.1334795E+03  0.7546771E-02  0.1222382E+00
         21   -1    0    0  502  501  0.00000000000E+00  0.00000000000E+00  0.20793700549E+02  0.20793700549E+02  0.00000000000E+00 0. -1.
         21   -1    0    0  501  502 -0.00000000000E+00 -0.00000000000E+00 -0.85683550343E+03  0.85683550343E+03  0.00000000000E+00 0. -1.
         25    1    1    2    0    0  0.22369545341E+02  0.11424869601E+02 -0.28813920152E+03  0.31508748572E+03  0.12500000000E+03 0.  0.
         25    1    1    2    0    0 -0.22369545341E+02 -0.11424869601E+02 -0.54790260135E+03  0.56254171825E+03  0.12500000000E+03 0.  0.
</event>
<event>
 4    0  0.2188063E-002  0.1473337E+03  0.7546771E-02  0.1203788E+00
         21   -1    0    0  502  501  0.00000000000E+00  0.00000000000E+00  0.12238213554E+03  0.12238213554E+03  0.00000000000E+00 0.  1.
         21   -1    0    0  501  502 -0.00000000000E+00 -0.00000000000E+00 -0.17737252477E+03  0.17737252477E+03  0.00000000000E+00 0.  1.
         25    1    1    2    0    0  0.57908480493E+00  0.77942071459E+02 -0.30172460069E+02  0.15036847804E+03  0.12500000000E+03 0.  0.
         25    1    1    2    0    0 -0.57908480493E+00 -0.77942071459E+02 -0.24817929160E+02  0.14938618226E+03  0.12500000000E+03 0.  0.
</event>
<event>
 4    0  0.2188063E-002  0.2569540E+03  0.7546771E-02  0.1108987E+00
         21   -1    0    0  502  501  0.00000000000E+00  0.00000000000E+00  0.73365309338E+03  0.73365309338E+03  0.00000000000E+00 0. -1.
         21   -1    0    0  501  502 -0.00000000000E+00 -0.00000000000E+00 -0.89995315101E+02  0.89995315101E+02  0.00000000000E+00 0.  1.
         25    1    1    2    0    0 -0.47192938441E+02  0.18789361830E+03  0.14001310870E+03  0.26974034893E+03  0.12500000000E+03 0.  0.
         25    1    1    2    0    0  0.47192938441E+02 -0.18789361830E+03  0.50364466958E+03  0.55390805954E+03  0.12500000000E+03 0.  0.
</event>
<event>
 4    0  0.2188063E-002  0.2184421E+03  0.7546771E-02  0.1135050E+00
         21   -1    0    0  502  501  0.00000000000E+00  0.00000000000E+00  0.44226754868E+03  0.44226754868E+03  0.00000000000E+00 0. -1.
         21   -1    0    0  501  502 -0.00000000000E+00 -0.00000000000E+00 -0.10789160622E+03  0.10789160622E+03  0.00000000000E+00 0. -1.
         25    1    1    2    0    0  0.11600432823E+03  0.13566372737E+03  0.18629854697E+03  0.28669461051E+03  0.12500000000E+03 0.  0.
         25    1    1    2    0    0 -0.11600432823E+03 -0.13566372737E+03  0.14807739549E+03  0.26346454439E+03  0.12500000000E+03 0.  0.
</event>
<event>
 4    0  0.2188063E-002  0.1968553E+03  0.7546771E-02  0.1152420E+00
         21   -1    0    0  502  501  0.00000000000E+00  0.00000000000E+00  0.44097256908E+02  0.44097256908E+02  0.00000000000E+00 0.  1.
         21   -1    0    0  501  502 -0.00000000000E+00 -0.00000000000E+00 -0.87878515548E+03  0.87878515548E+03  0.00000000000E+00 0.  1.
         25    1    1    2    0    0 -0.98148917387E+02 -0.99611964163E+02 -0.55742521237E+03  0.58813571629E+03  0.12500000000E+03 0.  0.
         25    1    1    2    0    0  0.98148917387E+02  0.99611964163E+02 -0.27726268620E+03  0.33474669610E+03  0.12500000000E+03 0.  0.
</event>
<event>
 4    0  0.2188063E-002  0.2245931E+03  0.7546771E-02  0.1130504E+00
         21   -1    0    0  502  501  0.00000000000E+00  0.00000000000E+00  0.16393047090E+03  0.16393047090E+03  0.00000000000E+00 0.  1.
         21   -1    0    0  501  502 -0.00000000000E+00 -0.00000000000E+00 -0.30770396124E+03  0.30770396124E+03  0.00000000000E+00 0.  1.
         25    1    1    2    0    0  0.17846946524E+02  0.17906535242E+03 -0.20084090484E+02  0.22002564539E+03  0.12500000000E+03 0.  0.
         25    1    1    2    0    0 -0.17846946524E+02 -0.17906535242E+03 -0.12368939986E+03  0.25160878676E+03  0.12500000000E+03 0.  0.
</event>
<event>
 4    0  0.2188063E-002  0.3008913E+03  0.7546771E-02  0.1084796E+00
         21   -1    0    0  502  501  0.00000000000E+00  0.00000000000E+00  0.16302287935E+03  0.16302287935E+03  0.00000000000E+00 0.  1.
         21   -1    0    0  501  502 -0.00000000000E+00 -0.00000000000E+00 -0.55535496278E+03  0.55535496278E+03  0.00000000000E+00 0.  1.
         25    1    1    2    0    0 -0.11657315838E+03 -0.15708692123E+03 -0.42468407000E+03  0.48399086912E+03  0.12500000000E+03 0.  0.
         25    1    1    2    0    0  0.11657315838E+03  0.15708692123E+03  0.32351986575E+02  0.23438697300E+03  0.12500000000E+03 0.  0.
</event>
<event>
 4    0  0.2188063E-002  0.1755402E+03  0.7546771E-02  0.1172190E+00
         21   -1    0    0  502  501  0.00000000000E+00  0.00000000000E+00  0.63472070353E+03  0.63472070353E+03  0.00000000000E+00 0. -1.
         21   -1    0    0  501  502 -0.00000000000E+00 -0.00000000000E+00 -0.48547924734E+02  0.48547924734E+02  0.00000000000E+00 0. -1.
         25    1    1    2    0    0 -0.14766061619E+02  0.66541505390E+02  0.93248172448E+02  0.17019409561E+03  0.12500000000E+03 0.  0.
         25    1    1    2    0    0  0.14766061619E+02 -0.66541505390E+02  0.49292460635E+03  0.51307453266E+03  0.12500000000E+03 0.  0.
</event>
<event>
 4    0  0.2188063E-002  0.2407416E+03  0.7546771E-02  0.1119300E+00
         21   -1    0    0  502  501  0.00000000000E+00  0.00000000000E+00  0.14264497545E+03  0.14264497545E+03  0.00000000000E+00 0. -1.
         21   -1    0    0  501  502 -0.00000000000E+00 -0.00000000000E+00 -0.40629888766E+03  0.40629888766E+03  0.00000000000E+00 0. -1.
         25    1    1    2    0    0 -0.18502792040E+03 -0.48362575025E+02 -0.21833439982E+03  0.31602085395E+03  0.12500000000E+03 0.  0.
         25    1    1    2    0    0  0.18502792040E+03  0.48362575025E+02 -0.45319512391E+02  0.23292300915E+03  0.12500000000E+03 0.  0.
</event>
<event>
 4    0  0.2188063E-002  0.2385217E+03  0.7546771E-02  0.1120782E+00
         21   -1    0    0  502  501  0.00000000000E+00  0.00000000000E+00  0.39794121269E+02  0.39794121269E+02  0.00000000000E+00 0. -1.
         21   -1    0    0  501  502 -0.00000000000E+00 -0.00000000000E+00 -0.14296729449E+04  0.14296729449E+04  0.00000000000E+00 0. -1.
         25    1    1    2    0    0  0.70847110789E+02 -0.17974298222E+03 -0.88830988510E+03  0.91763081069E+03  0.12500000000E+03 0.  0.
         25    1    1    2    0    0 -0.70847110789E+02  0.17974298222E+03 -0.50156893858E+03  0.55183625552E+03  0.12500000000E+03 0.  0.
</event>
<event>
 4    0  0.2188063E-002  0.2517483E+03  0.7546771E-02  0.1112205E+00
         21   -1    0    0  502  501  0.00000000000E+00  0.00000000000E+00  0.15321308402E+03  0.15321308402E+03  0.00000000000E+00 0. -1.
         21   -1    0    0  501  502 -0.00000000000E+00 -0.00000000000E+00 -0.41365405298E+03  0.41365405298E+03  0.00000000000E+00 0. -1.
         25    1    1    2    0    0 -0.14986683196E+03  0.61109645539E+02 -0.29552567952E+03  0.35938125070E+03  0.12500000000E+03 0.  0.
         25    1    1    2    0    0  0.14986683196E+03 -0.61109645539E+02  0.35084710560E+02  0.20748588630E+03  0.12500000000E+03 0.  0.
</event>
<event>
 4    0  0.2188063E-002  0.1892128E+03  0.7546771E-02  0.1159173E+00
         21   -1    0    0  502  501  0.00000000000E+00  0.00000000000E+00  0.12340115533E+04  0.12340115533E+04  0.00000000000E+00 0. -1.
         21   -1    0    0  501  502 -0.00000000000E+00 -0.00000000000E+00 -0.29012278735E+02  0.29012278735E+02  0.00000000000E+00 0. -1.
         25    1    1    2    0    0 -0.68581515472E+02 -0.71358032909E+02  0.94255731014E+03  0.95594700482E+03  0.12500000000E+03 0.  0.
         25    1    1    2    0    0  0.68581515472E+02  0.71358032909E+02  0.26244196447E+03  0.30707682726E+03  0.12500000000E+03 0.  0.
</event>
<event>
 4    0  0.2188063E-002  0.1999491E+03  0.7546771E-02  0.1149782E+00
         21   -1    0    0  502  501  0.00000000000E+00  0.00000000000E+00  0.54108202538E+03  0.54108202538E+03  0.00000000000E+00 0.  1.
         21   -1    0    0  501  502 -0.00000000000E+00 -0.00000000000E+00 -0.73888325030E+02  0.73888325030E+02  0.00000000000E+00 0.  1.
         25    1    1    2    0    0 -0.66782749715E+02  0.14097389373E+03  0.22653791981E+03  0.30212249748E+03  0.12500000000E+03 0.  0.
         25    1    1    2    0    0  0.66782749715E+02 -0.14097389373E+03  0.24065578054E+03  0.31284785293E+03  0.12500000000E+03 0.  0.
</event>
<event>
 4    0  0.2188063E-002  0.3049799E+03  0.7546771E-02  0.1082777E+00
         21   -1    0    0  502  501  0.00000000000E+00  0.00000000000E+00  0.49276312992E+03  0.49276312992E+03  0.00000000000E+00 0.  1.
         21   -1    0    0  501  502 -0.00000000000E+00 -0.00000000000E+00 -0.18875755799E+03  0.18875755799E+03  0.00000000000E+00 0.  1.
         25    1    1    2    0    0  0.22523497104E+03  0.12873893341E+03  0.26419901271E+03  0.39080765534E+03  0.12500000000E+03 0.  0.
         25    1    1    2    0    0 -0.22523497104E+03 -0.12873893341E+03  0.39806559215E+02  0.29071303258E+03  0.12500000000E+03 0.  0.
</event>
<event>
 4    0  0.2188063E-002  0.1929564E+03  0.7546771E-02  0.1155822E+00
         21   -1    0    0  502  501  0.00000000000E+00  0.00000000000E+00  0.10561405215E+03  0.10561405215E+03  0.00000000000E+00 0. -1.
         21   -1    0    0  501  502 -0.00000000000E+00 -0.00000000000E+00 -0.35253057143E+03  0.35253057143E+03  0.00000000000E+00 0. -1.
         25    1    1    2    0    0 -0.52408649560E+01  0.13011183893E+03 -0.20441798157E+03  0.27270546105E+03  0.12500000000E+03 0.  0.
         25    1    1    2    0    0  0.52408649560E+01 -0.13011183893E+03 -0.42498537708E+02  0.18543916253E+03  0.12500000000E+03 0.  0.
</event>
<event>
 4    0  0.2188063E-002  0.2033241E+03  0.7546771E-02  0.1146964E+00
         21   -1    0    0  502  501  0.00000000000E+00  0.00000000000E+00  0.22811546811E+03  0.22811546811E+03  0.00000000000E+00 0.  1.
         21   -1    0    0  501  502 -0.00000000000E+00 -0.00000000000E+00 -0.18122701635E+03  0.18122701635E+03  0.00000000000E+00 0.  1.
         25    1    1    2    0    0  0.34308778881E+02 -0.14081211779E+03 -0.45643894078E+02  0.19675749005E+03  0.12500000000E+03 0.  0.
         25    1    1    2    0    0 -0.34308778881E+02  0.14081211779E+03  0.92532345836E+02  0.21258499441E+03  0.12500000000E+03 0.  0.
</event>
<event>
 4    0  0.2188063E-002  0.2545164E+03  0.7546771E-02  0.1110483E+00
         21   -1    0    0  502  501  0.00000000000E+00  0.00000000000E+00  0.20323649547E+03  0.20323649547E+03  0.00000000000E+00 0.  1.
         21   -1    0    0  501  502 -0.00000000000E+00 -0.00000000000E+00 -0.31873501983E+03  0.31873501983E+03  0.00000000000E+00 0.  1.
         25    1    1    2    0    0  0.11949254309E+02 -0.13108781625E+03 -0.24068454438E+03  0.30146450894E+03  0.12500000000E+03 0.  0.
         25    1    1    2    0    0 -0.11949254309E+02  0.13108781625E+03  0.12518602002E+03  0.22050700637E+03  0.12500000000E+03 0.  0.
</event>
<event>
 4    0  0.2188063E-002  0.2839188E+03  0.7546771E-02  0.1093568E+00
         21   -1    0    0  502  501  0.00000000000E+00  0.00000000000E+00  0.88530921137E+02  0.88530921137E+02  0.00000000000E+00 0. -1.
         21   -1    0    0  501  502 -0.00000000000E+00 -0.00000000000E+00 -0.91052808977E+03  0.91052808977E+03  0.00000000000E+00 0. -1.
         25    1    1    2    0    0 -0.62926277952E+01 -0.21316244717E+03 -0.16526589168E+03  0.29734767697E+03  0.12500000000E+03 0.  0.
         25    1    1    2    0    0  0.62926277952E+01  0.21316244717E+03 -0.65673127695E+03  0.70171133394E+03  0.12500000000E+03 0.  0.
</event>
<event>
 4    0  0.2188063E-002  0.2127210E+03  0.7546771E-02  0.1139429E+00
         21   -1    0    0  502  501  0.00000000000E+00  0.00000000000E+00  0.23156141954E+03  0.23156141954E+03  0.00000000000E+00 0.  1.
         21   -1    0    0  501  502 -0.00000000000E+00 -0.00000000000E+00 -0.19541356045E+03  0.19541356045E+03  0.00000000000E+00 0.  1.
         25    1    1    2    0    0 -0.10483320961E+03  0.11391527072E+03  0.93568303336E+02  0.21987887149E+03  0.12500000000E+03 0.  0.
         25    1    1    2    0    0  0.10483320961E+03 -0.11391527072E+03 -0.57420444250E+02  0.20709610850E+03  0.12500000000E+03 0.  0.
</event>
<event>
 4    0  0.2188063E-002  0.3004894E+03  0.7546771E-02  0.1084996E+00
         21   -1    0    0  502  501  0.00000000000E+00  0.00000000000E+00  0.15491818406E+03  0.15491818406E+03  0.00000000000E+00 0. -1.
         21   -1    0    0  501  502 -0.00000000000E+00 -0.00000000000E+00 -0.58284885588E+03  0.58284885588E+03  0.00000000000E+00 0. -1.
         25    1    1    2    0    0  0.20571423477E+03 -0.17849807031E+03 -0.18681938166E+03  0.35313791762E+03  0.12500000000E+03 0.  0.
         25    1    1    2    0    0 -0.20571423477E+03  0.17849807031E+03 -0.24111129017E+03  0.38462912232E+03  0.12500000000E+03 0.  0.
</event>
<event>
 4    0  0.2188063E-002  0.1764449E+03  0.7546771E-02  0.1171289E+00
         21   -1    0    0  502  501  0.00000000000E+00  0.00000000000E+00  0.16350010785E+03  0.16350010785E+03  0.00000000000E+00 0.  1.
         21   -1    0    0  501  502 -0.00000000000E+00 -0.00000000000E+00 -0.19041451662E+03  0.19041451662E+03  0.00000000000E+00 0.  1.
         25    1    1    2    0    0  0.11990453635E+03 -0.33608607352E+02 -0.12378124255E+02  0.17687525063E+03  0.12500000000E+03 0.  0.
         25    1    1    2    0    0 -0.11990453635E+03  0.33608607352E+02 -0.14536284520E+02  0.17703937385E+03  0.12500000000E+03 0.  0.
</event>
<event>
 4    0  0.2188063E-002  0.1738782E+03  0.7546771E-02  0.1173863E+00
         21   -1    0    0  502  501  0.00000000000E+00  0.00000000000E+00  0.32180012645E+04  0.32180012645E+04  0.00000000000E+00 0.  1.
         21   -1    0    0  501  502 -0.00000000000E+00 -0.00000000000E+00 -0.93951589362E+01  0.93951589362E+01  0.00000000000E+00 0.  1.
         25    1    1    2    0    0  0.16497921221E+02 -0.11322377906E+03  0.12428555032E+04  0.12543550564E+04  0.12500000000E+03 0.  0.
         25    1    1    2    0    0 -0.16497921221E+02  0.11322377906E+03  0.19657506024E+04  0.19730413671E+04  0.12500000000E+03 0.  0.
</event>
<event>
 4    0  0.2188063E-002  0.2365027E+03  0.7546771E-02  0.1122145E+00
         21   -1    0    0  502  501  0.00000000000E+00  0.00000000000E+00  0.62535615367E+03  0.62535615367E+03  0.00000000000E+00 0.  1.
         21   -1    0    0  501  502 -0.00000000000E+00 -0.00000000000E+00 -0.89442640322E+02  0.89442640322E+02  0.00000000000E+00 0.  1.
         25    1    1    2    0    0  0.33435354604E+02  0.71579772830E+02 -0.10966176193E+02  0.14827961369E+03  0.12500000000E+03 0.  0.
         25    1    1    2    0    0 -0.33435354604E+02 -0.71579772830E+02  0.54687968954E+03  0.56651918030E+03  0.12500000000E+03 0.  0.
</event>
<event>
 4    0  0.2188063E-002  0.1838692E+03  0.7546771E-02  0.1164110E+00
         21   -1    0    0  502  501  0.00000000000E+00  0.00000000000E+00  0.16276012106E+04  0.16276012106E+04  0.00000000000E+00 0. -1.
         21   -1    0    0  501  502 -0.00000000000E+00 -0.00000000000E+00 -0.20771590128E+02  0.20771590128E+02  0.00000000000E+00 0. -1.
         25    1    1    2    0    0 -0.28024159838E+02 -0.12737182242E+03  0.64983371039E+03  0.67447593422E+03  0.12500000000E+03 0.  0.
         25    1    1    2    0    0  0.28024159838E+02  0.12737182242E+03  0.95699591014E+03  0.97389686656E+03  0.12500000000E+03 0.  0.
</event>
<event>
 4    0  0.2188063E-002  0.2977079E+03  0.7546771E-02  0.1086392E+00
         21   -1    0    0  502  501  0.00000000000E+00  0.00000000000E+00  0.16645554944E+03  0.16645554944E+03  0.00000000000E+00 0. -1.
         21   -1    0    0  501  502 -0.00000000000E+00 -0.00000000000E+00 -0.53245447997E+03  0.53245447997E+03  0.00000000000E+00 0. -1.
         25    1    1    2    0    0 -0.23032734359E+03 -0.40998693711E+02 -0.34167532922E+03  0.43254896681E+03  0.12500000000E+03 0.  0.
         25    1    1    2    0    0  0.23032734359E+03  0.40998693711E+02 -0.24323601312E+02  0.26636106260E+03  0.12500000000E+03 0.  0.
</event>
<event>
 4    0  0.2188063E-002  0.1664449E+03  0.7546771E-02  0.1181607E+00
         21   -1    0    0  502  501  0.00000000000E+00  0.00000000000E+00  0.11662348994E+02  0.11662348994E+02  0.00000000000E+00 0.  1.
         21   -1    0    0  501  502 -0.00000000000E+00 -0.00000000000E+00 -0.23755000474E+04  0.23755000474E+04  0.00000000000E+00 0.  1.
         25    1    1    2    0    0  0.61098917876E+02  0.69933675153E+02 -0.76040425579E+03  0.77618517694E+03  0.12500000000E+03 0.  0.
         25    1    1    2    0    0 -0.61098917876E+02 -0.69933675153E+02 -0.16034334426E+04  0.16109772194E+04  0.12500000000E+03 0.  0.
</event>
<event>
 4    0  0.2188063E-002  0.1986132E+03  0.7546771E-02  0.1150914E+00
         21   -1    0    0  502  501  0.00000000000E+00  0.00000000000E+00  0.10011937369E+04  0.10011937369E+04  0.00000000000E+00 0. -1.
         21   -1    0    0  501  502 -0.00000000000E+00 -0.00000000000E+00 -0.39400175411E+02  0.39400175411E+02  0.00000000000E+00 0. -1.
         25    1    1    2    0    0  0.82365270002E+02 -0.12998257148E+03  0.51219060047E+03  0.54922100998E+03  0.12500000000E+03 0.  0.
         25    1    1    2    0    0 -0.82365270002E+02  0.12998257148E+03  0.44960296104E+03  0.49137290235E+03  0.12500000000E+03 0.  0.
</event>
<event>
 4    0  0.2188063E-002  0.1738483E+03  0.7546771E-02  0.1173893E+00
         21   -1    0    0  502  501  0.00000000000E+00  0.00000000000E+00  0.62518500996E+02  0.62518500996E+02  0.00000000000E+00 0. -1.
         21   -1    0    0  501  502 -0.00000000000E+00 -0.00000000000E+00 -0.48342883574E+03  0.48342883574E+03  0.00000000000E+00 0. -1.
         25    1    1    2    0    0  0.79744294712E+02  0.24847093112E+02 -0.73374386136E+02  0.16728816789E+03  0.12500000000E+03 0.  0.
         25    1    1    2    0    0 -0.79744294712E+02 -0.24847093112E+02 -0.34753594861E+03  0.37865916884E+03  0.12500000000E+03 0.  0.
</event>
<event>
 4    0  0.2188063E-002  0.1617432E+03  0.7546771E-02  0.1186743E+00
         21   -1    0    0  502  501  0.00000000000E+00  0.00000000000E+00  0.23354295521E+02  0.23354295521E+02  0.00000000000E+00 0.  1.
         21   -1    0    0  501  502 -0.00000000000E+00 -0.00000000000E+00 -0.11201728011E+04  0.11201728011E+04  0.00000000000E+00 0.  1.
         25    1    1    2    0    0 -0.93261497488E+02  0.25963364829E+02 -0.66901698579E+03  0.68744492907E+03  0.12500000000E+03 0.  0.
         25    1    1    2    0    0  0.93261497488E+02 -0.25963364829E+02 -0.42780151983E+03  0.45608216759E+03  0.12500000000E+03 0.  0.
</event>
<event>
 4    0  0.2188063E-002  0.2316431E+03  0.7546771E-02  0.1125489E+00
         21   -1    0    0  502  501  0.00000000000E+00  0.00000000000E+00  0.21439033687E+03  0.21439033687E+03  0.00000000000E+00 0.  1.
         21   -1    0    0  501  502 -0.00000000000E+00 -0.00000000000E+00 -0.25028430540E+03  0.25028430540E+03  0.00000000000E+00 0.  1.
         25    1    1    2    0    0  0.85079869394E+01  0.10411573183E+03  0.14723129449E+03  0.21957806250E+03  0.12500000000E+03 0.  0.
         25    1    1    2    0    0 -0.85079869394E+01 -0.10411573183E+03 -0.18312526302E+03  0.24509657976E+03  0.12500000000E+03 0.  0.
</event>
<event>
 4    0  0.2188063E-002  0.1780874E+03  0.7546771E-02  0.1169667E+00
         21   -1    0    0  502  501  0.00000000000E+00  0.00000000000E+00  0.14763023479E+04  0.14763023479E+04  0.00000000000E+00 0.  1.
         21   -1    0    0  501  502 -0.00000000000E+00 -0.00000000000E+00 -0.21482799353E+02  0.21482799353E+02  0.00000000000E+00 0.  1.
         25    1    1    2    0    0 -0.33870273779E+02  0.96430812451E+02  0.10433321039E+04  0.10557523271E+04  0.12500000000E+03 0.  0.
         25    1    1    2    0    0  0.33870273779E+02 -0.96430812451E+02  0.41148744462E+03  0.44203282018E+03  0.12500000000E+03 0.  0.
</event>
<event>
 4    0  0.2188063E-002  0.1874284E+03  0.7546771E-02  0.1160801E+00
         21   -1    0    0  502  501  0.00000000000E+00  0.00000000000E+00  0.23212944271E+02  0.23212944271E+02  0.00000000000E+00 0. -1.
         21   -1    0    0  501  502 -0.00000000000E+00 -0.00000000000E+00 -0.15133536774E+04  0.15133536774E+04  0.00000000000E+00 0. -1.
         25    1    1    2    0    0  0.12664111814E+03 -0.18576208021E+02 -0.51605899823E+03  0.54619130162E+03  0.12500000000E+03 0.  0.
         25    1    1    2    0    0 -0.12664111814E+03  0.18576208021E+02 -0.97408173492E+03  0.99037532007E+03  0.12500000000E+03 0.  0.
</event>
<event>
 4    0  0.2188063E-002  0.2002065E+03  0.7546771E-02  0.1149565E+00
         21   -1    0    0  502  501  0.00000000000E+00  0.00000000000E+00  0.30759982164E+03  0.30759982164E+03  0.00000000000E+00 0. -1.
         21   -1    0    0  501  502 -0.00000000000E+00 -0.00000000000E+00 -0.13030773519E+03  0.13030773519E+03  0.00000000000E+00 0. -1.
         25    1    1    2    0    0 -0.10871943214E+02  0.50222726128E+02 -0.72891310428E+02  0.15355345813E+03  0.12500000000E+03 0.  0.
         25    1    1    2    0    0  0.10871943214E+02 -0.50222726128E+02  0.25018339688E+03  0.28435409869E+03  0.12500000000E+03 0.  0.
</event>
<event>
 4    0  0.2188063E-002  0.1740485E+03  0.7546771E-02  0.1173690E+00
         21   -1    0    0  502  501  0.00000000000E+00  0.00000000000E+00  0.72136597946E+02  0.72136597946E+02  0.00000000000E+00 0. -1.
         21   -1    0    0  501  502 -0.00000000000E+00 -0.00000000000E+00 -0.41993767555E+03  0.41993767555E+03  0.00000000000E+00 0. -1.
         25    1    1    2    0    0  0.66352612155E+02 -0.74623312955E+02 -0.27077754079E+03  0.31451038866E+03  0.12500000000E+03 0.  0.
         25    1    1    2    0    0 -0.66352612155E+02  0.74623312955E+02 -0.77023536813E+02  0.17756388484E+03  0.12500000000E+03 0.  0.
</event>
<event>
 4    0  0.2188063E-002  0.2160620E+03  0.7546771E-02  0.1136853E+00
         21   -1    0    0  502  501  0.00000000000E+00  0.00000000000E+00  0.94354506747E+02  0.94354506747E+02  0.00000000000E+00 0.  1.
         21   -1    0    0  501  502 -0.00000000000E+00 -0.00000000000E+00 -0.49475962618E+03  0.49475962618E+03  0.00000000000E+00 0.  1.
         25    1    1    2    0    0  0.59043063256E+01 -0.16120504122E+03 -0.10345758006E+03  0.22880209138E+03  0.12500000000E+03 0.  0.
         25    1    1    2    0    0 -0.59043063256E+01  0.16120504122E+03 -0.29694753937E+03  0.36031204155E+03  0.12500000000E+03 0.  0.
</event>
<event>
 4    0  0.2188063E-002  0.1946036E+03  0.7546771E-02  0.1154373E+00
         21   -1    0    0  502  501  0.00000000000E+00  0.00000000000E+00  0.10292364406E+03  0.10292364406E+03  0.00000000000E+00 0.  1.
         21   -1    0    0  501  502 -0.00000000000E+00 -0.00000000000E+00 -0.36794827496E+03  0.36794827496E+03  0.00000000000E+00 0.  1.
         25    1    1    2    0    0  0.14551165980E+03 -0.32711915737E+02 -0.13416438388E+03  0.23636580647E+03  0.12500000000E+03 0.  0.
         25    1    1    2    0    0 -0.14551165980E+03  0.32711915737E+02 -0.13086024702E+03  0.23450611254E+03  0.12500000000E+03 0.  0.
</event>
<event>
 4    0  0.2188063E-002  0.3002665E+03  0.7546771E-02  0.1085107E+00
         21   -1    0    0  502  501  0.00000000000E+00  0.00000000000E+00  0.16729933323E+03  0.16729933323E+03  0.00000000000E+00 0. -1.
         21   -1    0    0  501  502 -0.00000000000E+00 -0.00000000000E+00 -0.53891418281E+03  0.53891418281E+03  0.00000000000E+00 0. -1.
         25    1    1    2    0    0 -0.19861366122E+03 -0.93768276345E+02 -0.37650123316E+03  0.45345127042E+03  0.12500000000E+03 0.  0.
         25    1    1    2    0    0  0.19861366122E+03  0.93768276345E+02  0.48863835782E+01  0.25276224563E+03  0.12500000000E+03 0.  0.
</event>
<event>
 4    0  0.2188063E-002  0.1765581E+03  0.7546771E-02  0.1171176E+00
         21   -1    0    0  502  501  0.00000000000E+00  0.00000000000E+00  0.94993758147E+02  0.94993758147E+02  0.00000000000E+00 0. -1.
         21   -1    0    0  501  502 -0.00000000000E+00 -0.00000000000E+00 -0.32815586415E+03  0.32815586415E+03  0.00000000000E+00 0. -1.
         25    1    1    2    0    0  0.35555619073E+01  0.11732413601E+03 -0.66163347146E+02  0.18379386120E+03  0.12500000000E+03 0.  0.
         25    1    1    2    0    0 -0.35555619073E+01 -0.11732413601E+03 -0.16699875886E+03  0.23935576110E+03  0.12500000000E+03 0.  0.
</event>
<event>
 4    0  0.2188063E-002  0.1770590E+03  0.7546771E-02  0.1170680E+00
         21   -1    0    0  502  501  0.00000000000E+00  0.00000000000E+00  0.15337225112E+04  0.15337225112E+04  0.00000000000E+00 0.  1.
         21   -1    0    0  501  502 -0.00000000000E+00 -0.00000000000E+00 -0.20440397442E+02  0.20440397442E+02  0.00000000000E+00 0.  1.
         25    1    1    2    0    0 -0.27882130667E+02  0.81938729417E+02  0.35840416213E+03  0.38931980687E+03  0.12500000000E+03 0.  0.
         25    1    1    2    0    0  0.27882130667E+02 -0.81938729417E+02  0.11548779516E+04  0.11648431017E+04  0.12500000000E+03 0.  0.
</event>
<event>
 4    0  0.2188063E-002  0.1877328E+03  0.7546771E-02  0.1160522E+00
         21   -1    0    0  502  501  0.00000000000E+00  0.00000000000E+00  0.15331689323E+03  0.15331689323E+03  0.00000000000E+00 0. -1.
         21   -1    0    0  501  502 -0.00000000000E+00 -0.00000000000E+00 -0.22987432412E+03  0.22987432412E+03  0.00000000000E+00 0. -1.
         25    1    1    2    0    0 -0.92080676050E+02  0.34649979361E+02  0.63467867193E+02  0.17126774985E+03  0.12500000000E+03 0.  0.
         25    1    1    2    0    0  0.92080676050E+02 -0.34649979361E+02 -0.14002529808E+03  0.21192346749E+03  0.12500000000E+03 0.  0.
</event>
<event>
 4    0  0.2188063E-002  0.2549480E+03  0.7546771E-02  0.1110217E+00
         21   -1    0    0  502  501  0.00000000000E+00  0.00000000000E+00  0.17505071689E+03  0.17505071689E+03  0.00000000000E+00 0. -1.
         21   -1    0    0  501  502 -0.00000000000E+00 -0.00000000000E+00 -0.37131228916E+03  0.37131228916E+03  0.00000000000E+00 0. -1.
         25    1    1    2    0    0  0.22029986334E+03 -0.72230503031E+01 -0.68027405108E+02  0.26236792885E+03  0.12500000000E+03 0.  0.
         25    1    1    2    0    0 -0.22029986334E+03  0.72230503031E+01 -0.12823416716E+03  0.28399507720E+03  0.12500000000E+03 0.  0.
</event>
<event>
 4    0  0.2188063E-002  0.2112468E+03  0.7546771E-02  0.1140582E+00
         21   -1    0    0  502  501  0.00000000000E+00  0.00000000000E+00  0.25676669710E+03  0.25676669710E+03  0.00000000000E+00 0.  1.
         21   -1    0    0  501  502 -0.00000000000E+00 -0.00000000000E+00 -0.17379666726E+03  0.17379666726E+03  0.00000000000E+00 0.  1.
         25    1    1    2    0    0 -0.27979824483E+02  0.12673252825E+03  0.15384606338E+03  0.23693377875E+03  0.12500000000E+03 0.  0.
         25    1    1    2    0    0  0.27979824483E+02 -0.12673252825E+03 -0.70876033531E+02  0.19362958561E+03  0.12500000000E+03 0.  0.
</event>
<event>
 4    0  0.2188063E-002  0.1983638E+03  0.7546771E-02  0.1151127E+00
         21   -1    0    0  502  501  0.00000000000E+00  0.00000000000E+00  0.25760987777E+04  0.25760987777E+04  0.00000000000E+00 0. -1.
         21   -1    0    0  501  502 -0.00000000000E+00 -0.00000000000E+00 -0.15274336523E+02  0.15274336523E+02  0.00000000000E+00 0. -1.
         25    1    1    2    0    0 -0.13308206831E+03  0.27153650479E+02  0.80600588421E+03  0.82687280946E+03  0.12500000000E+03 0.  0.
         25    1    1    2    0    0  0.13308206831E+03 -0.27153650479E+02  0.17548185570E+04  0.17645003048E+04  0.12500000000E+03 0.  0.
</event>
<event>
 4    0  0.2188063E-002  0.1682669E+03  0.7546771E-02  0.1179667E+00
         21   -1    0    0  502  501  0.00000000000E+00  0.00000000000E+00  0.59558718570E+03  0.59558718570E+03  0.00000000000E+00 0. -1.
         21   -1    0    0  501  502 -0.00000000000E+00 -0.00000000000E+00 -0.47539227254E+02  0.47539227254E+02  0.00000000000E+00 0. -1.
         25    1    1    2    0    0  0.39568433704E+02  0.49790191093E+01  0.72699813705E+02  0.15000238161E+03  0.12500000000E+03 0.  0.
         25    1    1    2    0    0 -0.39568433704E+02 -0.49790191093E+01  0.47534814474E+03  0.49312403134E+03  0.12500000000E+03 0.  0.
</event>
<event>
 4    0  0.2188063E-002  0.2251277E+03  0.7546771E-02  0.1130117E+00
         21   -1    0    0  502  501  0.00000000000E+00  0.00000000000E+00  0.88542930071E+02  0.88542930071E+02  0.00000000000E+00 0.  1.
         21   -1    0    0  501  502 -0.00000000000E+00 -0.00000000000E+00 -0.57240581401E+03  0.57240581401E+03  0.00000000000E+00 0.  1.
         25    1    1    2    0    0 -0.15023012407E+03  0.17718876386E+02 -0.79961918047E+02  0.21190081901E+03  0.12500000000E+03 0.  0.
         25    1    1    2    0    0  0.15023012407E+03 -0.17718876386E+02 -0.40390096589E+03  0.44904792507E+03  0.12500000000E+03 0.  0.
</event>
<event>
 4    0  0.2188063E-002  0.2350073E+03  0.7546771E-02  0.1123164E+00
         21   -1    0    0  502  501  0.00000000000E+00  0.00000000000E+00  0.65080943900E+03  0.65080943900E+03  0.00000000000E+00 0. -1.
         21   -1    0    0  501  502 -0.00000000000E+00 -0.00000000000E+00 -0.84861122387E+02  0.84861122387E+02  0.00000000000E+00 0. -1.
         25    1    1    2    0    0 -0.17007129606E+03  0.80920535390E+02  0.38357504521E+03  0.44522712642E+03  0.12500000000E+03 0.  0.
         25    1    1    2    0    0  0.17007129606E+03 -0.80920535390E+02  0.18237327140E+03  0.29044343496E+03  0.12500000000E+03 0.  0.
</event>
<event>
 4    0  0.2188063E-002  0.1423291E+03  0.7546771E-02  0.1210229E+00
         21   -1    0    0  502  501  0.00000000000E+00  0.00000000000E+00  0.25305168918E+03  0.25305168918E+03  0.00000000000E+00 0.  1.
         21   -1    0    0  501  502 -0.00000000000E+00 -0.00000000000E+00 -0.80053058653E+02  0.80053058653E+02  0.00000000000E+00 0.  1.
         25    1    1    2    0    0  0.17393608322E+02  0.60954090228E+02  0.57488385842E+02  0.15148548852E+03  0.12500000000E+03 0.  0.
         25    1    1    2    0    0 -0.17393608322E+02 -0.60954090228E+02  0.11551024469E+03  0.18161925931E+03  0.12500000000E+03 0.  0.
</event>
<event>
 4    0  0.2188063E-002  0.1654152E+03  0.7546771E-02  0.1182715E+00
         21   -1    0    0  502  501  0.00000000000E+00  0.00000000000E+00  0.82870203671E+03  0.82870203671E+03  0.00000000000E+00 0. -1.
         21   -1    0    0  501  502 -0.00000000000E+00 -0.00000000000E+00 -0.33018141377E+02  0.33018141377E+02  0.00000000000E+00 0. -1.
         25    1    1    2    0    0 -0.98362721172E+02  0.44047991322E+02  0.36910132177E+03  0.40432194621E+03  0.12500000000E+03 0.  0.
         25    1    1    2    0    0  0.98362721172E+02 -0.44047991322E+02  0.42658257356E+03  0.45739823187E+03  0.12500000000E+03 0.  0.
</event>
<event>
 4    0  0.2188063E-002  0.2008896E+03  0.7546771E-02  0.1148991E+00
         21   -1    0    0  502  501  0.00000000000E+00  0.00000000000E+00  0.37710342273E+03  0.37710342273E+03  0.00000000000E+00 0.  1.
         21   -1    0    0  501  502 -0.00000000000E+00 -0.00000000000E+00 -0.10701740476E+03  0.10701740476E+03  0.00000000000E+00 0.  1.
         25    1    1    2    0    0  0.69380276755E+02 -0.11907220124E+03  0.22633136308E+03  0.29298924524E+03  0.12500000000E+03 0.  0.
         25    1    1    2    0    0 -0.69380276755E+02  0.11907220124E+03  0.43754654885E+02  0.19113158226E+03  0.12500000000E+03 0.  0.
</event>
<event>
 4    0  0.2188063E-002  0.2991813E+03  0.7546771E-02  0.1085651E+00
         21   -1    0    0  502  501  0.00000000000E+00  0.00000000000E+00  0.16174120431E+03  0.16174120431E+03  0.00000000000E+00 0.  1.
         21   -1    0    0  501  502 -0.00000000000E+00 -0.00000000000E+00 -0.55341151285E+03  0.55341151285E+03  0.00000000000E+00 0.  1.
         25    1    1    2    0    0  0.23034570164E+03 -0.91290987058E+02 -0.62256379609E+02  0.28441878170E+03  0.12500000000E+03 0.  0.
         25    1    1    2    0    0 -0.23034570164E+03  0.91290987058E+02 -0.32941392893E+03  0.43073393546E+03  0.12500000000E+03 0.  0.
</event>
<event>
 4    0  0.2188063E-002  0.3620927E+03  0.7546771E-02  0.1057758E+00
         21   -1    0    0  502  501  0.00000000000E+00  0.00000000000E+00  0.97052663812E+03  0.97052663812E+03  0.00000000000E+00 0.  1.
         21   -1    0    0  501  502 -0.00000000000E+00 -0.00000000000E+00 -0.13509274183E+03  0.13509274183E+03  0.00000000000E+00 0.  1.
         25    1    1    2    0    0  0.31815946534E+03  0.42889348512E+02  0.58786894052E+03  0.68138082804E+03  0.12500000000E+03 0.  0.
         25    1    1    2    0    0 -0.31815946534E+03 -0.42889348512E+02  0.24756495577E+03  0.42423855191E+03  0.12500000000E+03 0.  0.
</event>
<event>
 4    0  0.2188063E-002  0.2847128E+03  0.7546771E-02  0.1093142E+00
         21   -1    0    0  502  501  0.00000000000E+00  0.00000000000E+00  0.96494433475E+03  0.96494433475E+03  0.00000000000E+00 0.  1.
         21   -1    0    0  501  502 -0.00000000000E+00 -0.00000000000E+00 -0.84006288544E+02  0.84006288544E+02  0.00000000000E+00 0.  1.
         25    1    1    2    0    0  0.16999139069E+03 -0.13211732556E+03  0.69495068802E+03  0.73819612530E+03  0.12500000000E+03 0.  0.
         25    1    1    2    0    0 -0.16999139069E+03  0.13211732556E+03  0.18598735819E+03  0.31075449800E+03  0.12500000000E+03 0.  0.
</event>
<event>
 4    0  0.2188063E-002  0.2114254E+03  0.7546771E-02  0.1140442E+00
         21   -1    0    0  502  501  0.00000000000E+00  0.00000000000E+00  0.30372859664E+03  0.30372859664E+03  0.00000000000E+00 0.  1.
         21   -1    0    0  501  502 -0.00000000000E+00 -0.00000000000E+00 -0.14717322490E+03  0.14717322490E+03  0.00000000000E+00 0. -1.
         25    1    1    2    0    0 -0.88110354100E+02  0.14505673059E+03  0.60729141097E+02  0.21935796809E+03  0.12500000000E+03 0.  0.
         25    1    1    2    0    0  0.88110354100E+02 -0.14505673059E+03  0.95826230644E+02  0.23154385344E+03  0.12500000000E+03 0.  0.
</event>
<event>
 4    0  0.2188063E-002  0.2309526E+03  0.7546771E-02  0.1125971E+00
         21   -1    0    0  502  501  0.00000000000E+00  0.00000000000E+00  0.21380900785E+03  0.21380900785E+03  0.00000000000E+00 0. -1.
         21   -1    0    0  501  502 -0.00000000000E+00 -0.00000000000E+00 -0.24947085428E+03  0.24947085428E+03  0.00000000000E+00 0. -1.
         25    1    1    2    0    0 -0.94244952579E+02 -0.16067749631E+03 -0.72901034200E+02  0.23587905735E+03  0.12500000000E+03 0.  0.
         25    1    1    2    0    0  0.94244952579E+02  0.16067749631E+03  0.37239187765E+02  0.22740080478E+03  0.12500000000E+03 0.  0.
</event>
<event>
 4    0  0.2188063E-002  0.2252735E+03  0.7546771E-02  0.1130011E+00
         21   -1    0    0  502  501  0.00000000000E+00  0.00000000000E+00  0.11948111303E+04  0.11948111303E+04  0.00000000000E+00 0. -1.
         21   -1    0    0  501  502 -0.00000000000E+00 -0.00000000000E+00 -0.42473770995E+02  0.42473770995E+02  0.00000000000E+00 0. -1.
         25    1    1    2    0    0 -0.86988193246E+02 -0.16358534440E+03  0.49868813471E+03  0.54648144193E+03  0.12500000000E+03 0.  0.
         25    1    1    2    0    0  0.86988193246E+02  0.16358534440E+03  0.65364922456E+03  0.69080345933E+03  0.12500000000E+03 0.  0.
</event>
<event>
 4    0  0.2188063E-002  0.1782809E+03  0.7546771E-02  0.1169477E+00
         21   -1    0    0  502  501  0.00000000000E+00  0.00000000000E+00  0.16679787978E+03  0.16679787978E+03  0.00000000000E+00 0.  1.
         21   -1    0    0  501  502 -0.00000000000E+00 -0.00000000000E+00 -0.19055447079E+03  0.19055447079E+03  0.00000000000E+00 0.  1.
         25    1    1    2    0    0 -0.10186077331E+02  0.34928226297E+02  0.11019217872E+03  0.17056099617E+03  0.12500000000E+03 0.  0.
         25    1    1    2    0    0  0.10186077331E+02 -0.34928226297E+02 -0.13394876973E+03  0.18679135440E+03  0.12500000000E+03 0.  0.
</event>
<event>
 4    0  0.2188063E-002  0.2337084E+03  0.7546771E-02  0.1124057E+00
         21   -1    0    0  502  501  0.00000000000E+00  0.00000000000E+00  0.11271496909E+03  0.11271496909E+03  0.00000000000E+00 0. -1.
         21   -1    0    0  501  502 -0.00000000000E+00 -0.00000000000E+00 -0.48458171665E+03  0.48458171665E+03  0.00000000000E+00 0. -1.
         25    1    1    2    0    0  0.13572094884E+03  0.11485388891E+03 -0.29573350636E+03  0.36700803606E+03  0.12500000000E+03 0.  0.
         25    1    1    2    0    0 -0.13572094884E+03 -0.11485388891E+03 -0.76133241199E+02  0.23028864967E+03  0.12500000000E+03 0.  0.
</event>
<event>
 4    0  0.2188063E-002  0.1970927E+03  0.7546771E-02  0.1152215E+00
         21   -1    0    0  502  501  0.00000000000E+00  0.00000000000E+00  0.47683083533E+02  0.47683083533E+02  0.00000000000E+00 0.  1.
         21   -1    0    0  501  502 -0.00000000000E+00 -0.00000000000E+00 -0.81466029229E+03  0.81466029229E+03  0.00000000000E+00 0.  1.
         25    1    1    2    0    0  0.87740869255E+02  0.23261775280E+02 -0.65125088117E+03  0.66932225464E+03  0.12500000000E+03 0.  0.
         25    1    1    2    0    0 -0.87740869255E+02 -0.23261775280E+02 -0.11572632758E+03  0.19302112118E+03  0.12500000000E+03 0.  0.
</event>
<event>
 4    0  0.2188063E-002  0.2528451E+03  0.7546771E-02  0.1111520E+00
         21   -1    0    0  502  501  0.00000000000E+00  0.00000000000E+00  0.29580534849E+03  0.29580534849E+03  0.00000000000E+00 0.  1.
         21   -1    0    0  501  502 -0.00000000000E+00 -0.00000000000E+00 -0.21612405858E+03  0.21612405858E+03  0.00000000000E+00 0.  1.
         25    1    1    2    0    0  0.15714922307E+03 -0.10768188423E+03  0.15080316298E+03  0.27323590626E+03  0.12500000000E+03 0.  0.
         25    1    1    2    0    0 -0.15714922307E+03  0.10768188423E+03 -0.71121873061E+02  0.23869350081E+03  0.12500000000E+03 0.  0.
</event>
<event>
 4    0  0.2188063E-002  0.1856586E+03  0.7546771E-02  0.1162436E+00
         21   -1    0    0  502  501  0.00000000000E+00  0.00000000000E+00  0.64458157167E+03  0.64458157167E+03  0.00000000000E+00 0. -1.
         21   -1    0    0  501  502 -0.00000000000E+00 -0.00000000000E+00 -0.53475154833E+02  0.53475154833E+02  0.00000000000E+00 0. -1.
         25    1    1    2    0    0  0.54369411234E+02 -0.12349929810E+03  0.24814311172E+03  0.30888203800E+03  0.12500000000E+03 0.  0.
         25    1    1    2    0    0 -0.54369411234E+02  0.12349929810E+03  0.34296330512E+03  0.38917468850E+03  0.12500000000E+03 0.  0.
</event>
<event>
 4    0  0.2188063E-002  0.3496859E+03  0.7546771E-02  0.1062744E+00
         21   -1    0    0  502  501  0.00000000000E+00  0.00000000000E+00  0.68002111371E+03  0.68002111371E+03  0.00000000000E+00 0. -1.
         21   -1    0    0  501  502 -0.00000000000E+00 -0.00000000000E+00 -0.17981827218E+03  0.17981827218E+03  0.00000000000E+00 0. -1.
         25    1    1    2    0    0  0.44388165510E+02  0.24158042814E+02 -0.14657584372E+03  0.19915671777E+03  0.12500000000E+03 0.  0.
         25    1    1    2    0    0 -0.44388165510E+02 -0.24158042814E+02  0.64677868525E+03  0.66068266812E+03  0.12500000000E+03 0.  0.
</event>
<event>
 4    0  0.2188063E-002  0.3526083E+03  0.7546771E-02  0.1061550E+00
         21   -1    0    0  502  501  0.00000000000E+00  0.00000000000E+00  0.79661535669E+03  0.79661535669E+03  0.00000000000E+00 0. -1.
         21   -1    0    0  501  502 -0.00000000000E+00 -0.00000000000E+00 -0.15607609118E+03  0.15607609118E+03  0.00000000000E+00 0. -1.
         25    1    1    2    0    0 -0.26153697490E+03  0.68435585226E+02  0.65297624154E+02  0.30491605121E+03  0.12500000000E+03 0.  0.
         25    1    1    2    0    0  0.26153697490E+03 -0.68435585226E+02  0.57524164136E+03  0.64777539666E+03  0.12500000000E+03 0.  0.
</event>
<event>
 4    0  0.2188063E-002  0.1955635E+03  0.7546771E-02  0.1153537E+00
         21   -1    0    0  502  501  0.00000000000E+00  0.00000000000E+00  0.52374549497E+03  0.52374549497E+03  0.00000000000E+00 0. -1.
         21   -1    0    0  501  502 -0.00000000000E+00 -0.00000000000E+00 -0.73022272286E+02  0.73022272286E+02  0.00000000000E+00 0. -1.
         25    1    1    2    0    0 -0.99009022104E+02  0.88077736917E+02  0.33389069723E+03  0.38035308845E+03  0.12500000000E+03 0.  0.
         25    1    1    2    0    0  0.99009022104E+02 -0.88077736917E+02  0.11683252546E+03  0.21641467881E+03  0.12500000000E+03 0.  0.
</event>
<event>
 4    0  0.2188063E-002  0.2077776E+03  0.7546771E-02  0.1143338E+00
         21   -1    0    0  502  501  0.00000000000E+00  0.00000000000E+00  0.82289029292E+02  0.82289029292E+02  0.00000000000E+00 0. -1.
         21   -1    0    0  501  502 -0.00000000000E+00 -0.00000000000E+00 -0.52463313217E+03  0.52463313217E+03  0.00000000000E+00 0. -1.
         25    1    1    2    0    0  0.12162810129E+03 -0.33292654840E+02 -0.37877682113E+03  0.41832843092E+03  0.12500000000E+03 0.  0.
         25    1    1    2    0    0 -0.12162810129E+03  0.33292654840E+02 -0.63567281742E+02  0.18859373054E+03  0.12500000000E+03 0.  0.
</event>
<event>
 4    0  0.2188063E-002  0.2282540E+03  0.7546771E-02  0.1127875E+00
         21   -1    0    0  502  501  0.00000000000E+00  0.00000000000E+00  0.14243437760E+04  0.14243437760E+04  0.00000000000E+00 0. -1.
         21   -1    0    0  501  502 -0.00000000000E+00 -0.00000000000E+00 -0.36578161019E+02  0.36578161019E+02  0.00000000000E+00 0. -1.
         25    1    1    2    0    0 -0.85810033545E+02  0.10271560458E+02  0.14884998094E+03  0.21272090550E+03  0.12500000000E+03 0.  0.
         25    1    1    2    0    0  0.85810033545E+02 -0.10271560458E+02  0.12389156341E+04  0.12482010315E+04  0.12500000000E+03 0.  0.
</event>
<event>
 4    0  0.2188063E-002  0.2263901E+03  0.7546771E-02  0.1129207E+00
         21   -1    0    0  502  501  0.00000000000E+00  0.00000000000E+00  0.18135669858E+03  0.18135669858E+03  0.00000000000E+00 0. -1.
         21   -1    0    0  501  502 -0.00000000000E+00 -0.00000000000E+00 -0.28260604554E+03  0.28260604554E+03  0.00000000000E+00 0. -1.
         25    1    1    2    0    0  0.16048417170E+02  0.12466167941E+03 -0.19491942069E+03  0.26347042826E+03  0.12500000000E+03 0.  0.
         25    1    1    2    0    0 -0.16048417170E+02 -0.12466167941E+03  0.93670073731E+02  0.20049231586E+03  0.12500000000E+03 0.  0.
</event>
<event>
 4    0  0.2188063E-002  0.3338641E+03  0.7546771E-02  0.1069440E+00
         21   -1    0    0  502  501  0.00000000000E+00  0.00000000000E+00  0.30801198368E+03  0.30801198368E+03  0.00000000000E+00 0.  1.
         21   -1    0    0  501  502 -0.00000000000E+00 -0.00000000000E+00 -0.36188594666E+03  0.36188594666E+03  0.00000000000E+00 0.  1.
         25    1    1    2    0    0 -0.14971934714E+03 -0.22545659674E+03  0.12386330172E+03  0.32282143274E+03  0.12500000000E+03 0.  0.
         25    1    1    2    0    0  0.14971934714E+03  0.22545659674E+03 -0.17773726470E+03  0.34707649760E+03  0.12500000000E+03 0.  0.
</event>
<event>
 4    0  0.2188063E-002  0.1496202E+03  0.7546771E-02  0.1200940E+00
         21   -1    0    0  502  501  0.00000000000E+00  0.00000000000E+00  0.47172755820E+03  0.47172755820E+03  0.00000000000E+00 0.  1.
         21   -1    0    0  501  502 -0.00000000000E+00 -0.00000000000E+00 -0.47455798321E+02  0.47455798321E+02  0.00000000000E+00 0.  1.
         25    1    1    2    0    0 -0.16563575037E+02  0.69751680889E+02  0.14226972240E+03  0.20249771090E+03  0.12500000000E+03 0.  0.
         25    1    1    2    0    0  0.16563575037E+02 -0.69751680889E+02  0.28200203747E+03  0.31668564562E+03  0.12500000000E+03 0.  0.
</event>
<event>
 4    0  0.2188063E-002  0.2212649E+03  0.7546771E-02  0.1132943E+00
         21   -1    0    0  502  501  0.00000000000E+00  0.00000000000E+00  0.62116683869E+03  0.62116683869E+03  0.00000000000E+00 0. -1.
         21   -1    0    0  501  502 -0.00000000000E+00 -0.00000000000E+00 -0.78816460679E+02  0.78816460679E+02  0.00000000000E+00 0. -1.
         25    1    1    2    0    0  0.17573224295E+03 -0.46007844251E+02  0.24223997318E+03  0.32757250732E+03  0.12500000000E+03 0.  0.
         25    1    1    2    0    0 -0.17573224295E+03  0.46007844251E+02  0.30011040483E+03  0.37241079205E+03  0.12500000000E+03 0.  0.
</event>
<event>
 4    0  0.2188063E-002  0.2112029E+03  0.7546771E-02  0.1140617E+00
         21   -1    0    0  502  501  0.00000000000E+00  0.00000000000E+00  0.16564818862E+03  0.16564818862E+03  0.00000000000E+00 0.  1.
         21   -1    0    0  501  502 -0.00000000000E+00 -0.00000000000E+00 -0.26928555813E+03  0.26928555813E+03  0.00000000000E+00 0.  1.
         25    1    1    2    0    0 -0.15048915068E+03 -0.45082714250E+02 -0.11935541207E+03  0.23355973537E+03  0.12500000000E+03 0.  0.
         25    1    1    2    0    0  0.15048915068E+03  0.45082714250E+02  0.15718042557E+02  0.20137401137E+03  0.12500000000E+03 0.  0.
</event>
<event>
 4    0  0.2188063E-002  0.1561851E+03  0.7546771E-02  0.1193072E+00
         21   -1    0    0  502  501  0.00000000000E+00  0.00000000000E+00  0.98145782603E+02  0.98145782603E+02  0.00000000000E+00 0. -1.
         21   -1    0    0  501  502 -0.00000000000E+00 -0.00000000000E+00 -0.24854643257E+03  0.24854643257E+03  0.00000000000E+00 0. -1.
         25    1    1    2    0    0 -0.24830869155E+02 -0.36569926762E+02 -0.16682295146E+03  0.21309347418E+03  0.12500000000E+03 0.  0.
         25    1    1    2    0    0  0.24830869155E+02  0.36569926762E+02  0.16422301495E+02  0.13359874098E+03  0.12500000000E+03 0.  0.
</event>
<event>
 4    0  0.2188063E-002  0.2054267E+03  0.7546771E-02  0.1145240E+00
         21   -1    0    0  502  501  0.00000000000E+00  0.00000000000E+00  0.70239975790E+03  0.70239975790E+03  0.00000000000E+00 0. -1.
         21   -1    0    0  501  502 -0.00000000000E+00 -0.00000000000E+00 -0.60079943007E+02  0.60079943007E+02  0.00000000000E+00 0. -1.
         25    1    1    2    0    0  0.67201967396E+02  0.57138531730E+02  0.66738573791E+02  0.16691301166E+03  0.12500000000E+03 0.  0.
         25    1    1    2    0    0 -0.67201967396E+02 -0.57138531730E+02  0.57558124110E+03  0.59556668925E+03  0.12500000000E+03 0.  0.
</event>
<event>
 4    0  0.2188063E-002  0.3544498E+03  0.7546771E-02  0.1060803E+00
         21   -1    0    0  502  501  0.00000000000E+00  0.00000000000E+00  0.77400623407E+03  0.77400623407E+03  0.00000000000E+00 0.  1.
         21   -1    0    0  501  502 -0.00000000000E+00 -0.00000000000E+00 -0.16231738354E+03  0.16231738354E+03  0.00000000000E+00 0.  1.
         25    1    1    2    0    0 -0.11594516168E+03  0.27963283708E+03  0.48487113561E+03  0.58511778493E+03  0.12500000000E+03 0.  0.
         25    1    1    2    0    0  0.11594516168E+03 -0.27963283708E+03  0.12681771492E+03  0.35120583268E+03  0.12500000000E+03 0.  0.
</event>
<event>
 4    0  0.2188063E-002  0.1645798E+03  0.7546771E-02  0.1183621E+00
         21   -1    0    0  502  501  0.00000000000E+00  0.00000000000E+00  0.15820916912E+04  0.15820916912E+04  0.00000000000E+00 0.  1.
         21   -1    0    0  501  502 -0.00000000000E+00 -0.00000000000E+00 -0.17120703523E+02  0.17120703523E+02  0.00000000000E+00 0.  1.
         25    1    1    2    0    0 -0.61057714849E+02 -0.58767534150E+02  0.11003295249E+04  0.11106447366E+04  0.12500000000E+03 0.  0.
         25    1    1    2    0    0  0.61057714849E+02  0.58767534150E+02  0.46464146275E+03  0.48856765808E+03  0.12500000000E+03 0.  0.
</event>
<event>
 4    0  0.2188063E-002  0.1734067E+03  0.7546771E-02  0.1174341E+00
         21   -1    0    0  502  501  0.00000000000E+00  0.00000000000E+00  0.22477443370E+02  0.22477443370E+02  0.00000000000E+00 0. -1.
         21   -1    0    0  501  502 -0.00000000000E+00 -0.00000000000E+00 -0.13377805067E+04  0.13377805067E+04  0.00000000000E+00 0. -1.
         25    1    1    2    0    0 -0.50625217226E+02 -0.90584609633E+02 -0.41983784022E+03  0.45017473963E+03  0.12500000000E+03 0.  0.
         25    1    1    2    0    0  0.50625217226E+02  0.90584609633E+02 -0.89546522313E+03  0.91008321046E+03  0.12500000000E+03 0.  0.
</event>
<event>
 4    0  0.2188063E-002  0.1887806E+03  0.7546771E-02  0.1159566E+00
         21   -1    0    0  502  501  0.00000000000E+00  0.00000000000E+00  0.66767481992E+03  0.66767481992E+03  0.00000000000E+00 0. -1.
         21   -1    0    0  501  502 -0.00000000000E+00 -0.00000000000E+00 -0.53376428274E+02  0.53376428274E+02  0.00000000000E+00 0. -1.
         25    1    1    2    0    0  0.25660836339E+02 -0.20135736415E+02  0.57003914843E+03  0.58449427469E+03  0.12500000000E+03 0.  0.
         25    1    1    2    0    0 -0.25660836339E+02  0.20135736415E+02  0.44259243217E+02  0.13655697350E+03  0.12500000000E+03 0.  0.
</event>
<event>
 4    0  0.2188063E-002  0.3095694E+03  0.7546771E-02  0.1080552E+00
         21   -1    0    0  502  501  0.00000000000E+00  0.00000000000E+00  0.38724928366E+03  0.38724928366E+03  0.00000000000E+00 0. -1.
         21   -1    0    0  501  502 -0.00000000000E+00 -0.00000000000E+00 -0.24747157954E+03  0.24747157954E+03  0.00000000000E+00 0. -1.
         25    1    1    2    0    0 -0.11242662795E+03  0.21871366871E+03 -0.74119903737E+02  0.28564694237E+03  0.12500000000E+03 0.  0.
         25    1    1    2    0    0  0.11242662795E+03 -0.21871366871E+03  0.21389760786E+03  0.34907392083E+03  0.12500000000E+03 0.  0.
</event>
<event>
 4    0  0.2188063E-002  0.3150586E+03  0.7546771E-02  0.1077946E+00
         21   -1    0    0  502  501  0.00000000000E+00  0.00000000000E+00  0.20424655276E+03  0.20424655276E+03  0.00000000000E+00 0. -1.
         21   -1    0    0  501  502 -0.00000000000E+00 -0.00000000000E+00 -0.48599064282E+03  0.48599064282E+03  0.00000000000E+00 0. -1.
         25    1    1    2    0    0  0.19158635729E+03  0.20132639513E+02 -0.37715157819E+03  0.44156422908E+03  0.12500000000E+03 0.  0.
         25    1    1    2    0    0 -0.19158635729E+03 -0.20132639513E+02  0.95407488125E+02  0.24867296649E+03  0.12500000000E+03 0.  0.
</event>
<event>
 4    0  0.2188063E-002  0.5248294E+03  0.7546771E-02  0.1007494E+00
         21   -1    0    0  502  501  0.00000000000E+00  0.00000000000E+00  0.13925181514E+04  0.13925181514E+04  0.00000000000E+00 0.  1.
         21   -1    0    0  501  502 -0.00000000000E+00 -0.00000000000E+00 -0.19780419227E+03  0.19780419227E+03  0.00000000000E+00 0. -1.
         25    1    1    2    0    0  0.45984020281E+03  0.66947274643E+02  0.91475183236E+03  0.10336009213E+04  0.12500000000E+03 0.  0.
         25    1    1    2    0    0 -0.45984020281E+03 -0.66947274643E+02  0.27996212679E+03  0.55672142239E+03  0.12500000000E+03 0.  0.
</event>
<event>
 4    0  0.2188063E-002  0.2214338E+03  0.7546771E-02  0.1132819E+00
         21   -1    0    0  502  501  0.00000000000E+00  0.00000000000E+00  0.15005532412E+03  0.15005532412E+03  0.00000000000E+00 0.  1.
         21   -1    0    0  501  502 -0.00000000000E+00 -0.00000000000E+00 -0.32676563646E+03  0.32676563646E+03  0.00000000000E+00 0. -1.
         25    1    1    2    0    0 -0.57264301310E+02  0.17350774270E+03 -0.93606213929E+02  0.24035652741E+03  0.12500000000E+03 0.  0.
         25    1    1    2    0    0  0.57264301310E+02 -0.17350774270E+03 -0.83104098416E+02  0.23646443317E+03  0.12500000000E+03 0.  0.
</event>
<event>
 4    0  0.2188063E-002  0.2317172E+03  0.7546771E-02  0.1125437E+00
         21   -1    0    0  502  501  0.00000000000E+00  0.00000000000E+00  0.43249667865E+03  0.43249667865E+03  0.00000000000E+00 0.  1.
         21   -1    0    0  501  502 -0.00000000000E+00 -0.00000000000E+00 -0.12414626593E+03  0.12414626593E+03  0.00000000000E+00 0.  1.
         25    1    1    2    0    0 -0.26859847217E+01  0.17159968637E+03  0.26565482788E+03  0.34007521881E+03  0.12500000000E+03 0.  0.
         25    1    1    2    0    0  0.26859847217E+01 -0.17159968637E+03  0.42695584848E+02  0.21656772576E+03  0.12500000000E+03 0.  0.
</event>
<event>
 4    0  0.2188063E-002  0.1768371E+03  0.7546771E-02  0.1170900E+00
         21   -1    0    0  502  501  0.00000000000E+00  0.00000000000E+00  0.26013863591E+02  0.26013863591E+02  0.00000000000E+00 0.  1.
         21   -1    0    0  501  502 -0.00000000000E+00 -0.00000000000E+00 -0.12021030173E+04  0.12021030173E+04  0.00000000000E+00 0.  1.
         25    1    1    2    0    0 -0.26770715012E+02 -0.99917665785E+02 -0.34383127329E+03  0.38019094625E+03  0.12500000000E+03 0.  0.
         25    1    1    2    0    0  0.26770715012E+02  0.99917665785E+02 -0.83225788040E+03  0.84792593463E+03  0.12500000000E+03 0.  0.
</event>
<event>
 4    0  0.2188063E-002  0.2211177E+03  0.7546771E-02  0.1133053E+00
         21   -1    0    0  502  501  0.00000000000E+00  0.00000000000E+00  0.53738734557E+03  0.53738734557E+03  0.00000000000E+00 0.  1.
         21   -1    0    0  501  502 -0.00000000000E+00 -0.00000000000E+00 -0.90982843990E+02  0.90982843990E+02  0.00000000000E+00 0.  1.
         25    1    1    2    0    0 -0.11553146787E+03 -0.11823557179E+03  0.11368394644E+03  0.23638149289E+03  0.12500000000E+03 0.  0.
         25    1    1    2    0    0  0.11553146787E+03  0.11823557179E+03  0.33272055514E+03  0.39198869667E+03  0.12500000000E+03 0.  0.
</event>
<event>
 4    0  0.2188063E-002  0.2197054E+03  0.7546771E-02  0.1134103E+00
         21   -1    0    0  502  501  0.00000000000E+00  0.00000000000E+00  0.44883115017E+03  0.44883115017E+03  0.00000000000E+00 0. -1.
         21   -1    0    0  501  502 -0.00000000000E+00 -0.00000000000E+00 -0.10754704218E+03  0.10754704218E+03  0.00000000000E+00 0. -1.
         25    1    1    2    0    0  0.99237313898E+02 -0.14826207178E+03  0.13447735126E+03  0.25600555541E+03  0.12500000000E+03 0.  0.
         25    1    1    2    0    0 -0.99237313898E+02  0.14826207178E+03  0.20680675673E+03  0.30037263694E+03  0.12500000000E+03 0.  0.
</event>
<event>
 4    0  0.2188063E-002  0.1879553E+03  0.7546771E-02  0.1160319E+00
         21   -1    0    0  502  501  0.00000000000E+00  0.00000000000E+00  0.60489120736E+02  0.60489120736E+02  0.00000000000E+00 0. -1.
         21   -1    0    0  501  502 -0.00000000000E+00 -0.00000000000E+00 -0.58402576666E+03  0.58402576666E+03  0.00000000000E+00 0. -1.
         25    1    1    2    0    0 -0.18157783553E+02  0.12012349224E+03 -0.38230990442E+03  0.42017284718E+03  0.12500000000E+03 0.  0.
         25    1    1    2    0    0  0.18157783553E+02 -0.12012349224E+03 -0.14122674150E+03  0.22434204021E+03  0.12500000000E+03 0.  0.
</event>
<event>
 4    0  0.2188063E-002  0.2484673E+03  0.7546771E-02  0.1114277E+00
         21   -1    0    0  502  501  0.00000000000E+00  0.00000000000E+00  0.78055259705E+03  0.78055259705E+03  0.00000000000E+00 0.  1.
         21   -1    0    0  501  502 -0.00000000000E+00 -0.00000000000E+00 -0.79092660418E+02  0.79092660418E+02  0.00000000000E+00 0.  1.
         25    1    1    2    0    0  0.18067219443E+03  0.74746758796E+02  0.19715392221E+03  0.30450646764E+03  0.12500000000E+03 0.  0.
         25    1    1    2    0    0 -0.18067219443E+03 -0.74746758796E+02  0.50430601442E+03  0.55513878982E+03  0.12500000000E+03 0.  0.
</event>
<event>
 4    0  0.2188063E-002  0.2034599E+03  0.7546771E-02  0.1146852E+00
         21   -1    0    0  502  501  0.00000000000E+00  0.00000000000E+00  0.89155282261E+03  0.89155282261E+03  0.00000000000E+00 0.  1.
         21   -1    0    0  501  502 -0.00000000000E+00 -0.00000000000E+00 -0.46431249835E+02  0.46431249835E+02  0.00000000000E+00 0.  1.
         25    1    1    2    0    0  0.99750362686E+02 -0.84549200735E+02  0.20790053899E+03  0.27558362853E+03  0.12500000000E+03 0.  0.
         25    1    1    2    0    0 -0.99750362686E+02  0.84549200735E+02  0.63722103379E+03  0.66240044392E+03  0.12500000000E+03 0.  0.
</event>
<event>
 4    0  0.2188063E-002  0.2436069E+03  0.7546771E-02  0.1117413E+00
         21   -1    0    0  502  501  0.00000000000E+00  0.00000000000E+00  0.11245964622E+03  0.11245964622E+03  0.00000000000E+00 0.  1.
         21   -1    0    0  501  502 -0.00000000000E+00 -0.00000000000E+00 -0.52769420368E+03  0.52769420368E+03  0.00000000000E+00 0.  1.
         25    1    1    2    0    0 -0.63235897612E+02  0.82182947653E+02  0.30944677893E+02  0.16533417288E+03  0.12500000000E+03 0.  0.
         25    1    1    2    0    0  0.63235897612E+02 -0.82182947653E+02 -0.44617923535E+03  0.47481967702E+03  0.12500000000E+03 0.  0.
</event>
<event>
 4    0  0.2188063E-002  0.2906836E+03  0.7546771E-02  0.1089993E+00
         21   -1    0    0  502  501  0.00000000000E+00  0.00000000000E+00  0.33344097319E+02  0.33344097319E+02  0.00000000000E+00 0. -1.
         21   -1    0    0  501  502 -0.00000000000E+00 -0.00000000000E+00 -0.25340895626E+04  0.25340895626E+04  0.00000000000E+00 0. -1.
         25    1    1    2    0    0 -0.59816405053E+02 -0.56124113482E+02 -0.14947136470E+03  0.21141099142E+03  0.12500000000E+03 0.  0.
         25    1    1    2    0    0  0.59816405053E+02  0.56124113482E+02 -0.23512741006E+04  0.23560226685E+04  0.12500000000E+03 0.  0.
</event>
<event>
 4    0  0.2188063E-002  0.1711330E+03  0.7546771E-02  0.1176671E+00
         21   -1    0    0  502  501  0.00000000000E+00  0.00000000000E+00  0.13433672584E+03  0.13433672584E+03  0.00000000000E+00 0.  1.
         21   -1    0    0  501  502 -0.00000000000E+00 -0.00000000000E+00 -0.21800826622E+03  0.21800826622E+03  0.00000000000E+00 0.  1.
         25    1    1    2    0    0 -0.64383430778E+02  0.21704470091E+02 -0.13974271322E+03  0.19942250645E+03  0.12500000000E+03 0.  0.
         25    1    1    2    0    0  0.64383430778E+02 -0.21704470091E+02  0.56071172844E+02  0.15292248561E+03  0.12500000000E+03 0.  0.
</event>
<event>
 4    0  0.2188063E-002  0.1739389E+03  0.7546771E-02  0.1173801E+00
         21   -1    0    0  502  501  0.00000000000E+00  0.00000000000E+00  0.44589731298E+02  0.44589731298E+02  0.00000000000E+00 0. -1.
         21   -1    0    0  501  502 -0.00000000000E+00 -0.00000000000E+00 -0.67851352934E+03  0.67851352934E+03  0.00000000000E+00 0. -1.
         25    1    1    2    0    0 -0.11369533509E+03  0.18421866433E+02 -0.24020106575E+03  0.29425761906E+03  0.12500000000E+03 0.  0.
         25    1    1    2    0    0  0.11369533509E+03 -0.18421866433E+02 -0.39372273229E+03  0.42884564159E+03  0.12500000000E+03 0.  0.
</event>
<event>
 4    0  0.2188063E-002  0.2124688E+03  0.7546771E-02  0.1139626E+00
         21   -1    0    0  502  501  0.00000000000E+00  0.00000000000E+00  0.51668689639E+02  0.51668689639E+02  0.00000000000E+00 0.  1.
         21   -1    0    0  501  502 -0.00000000000E+00 -0.00000000000E+00 -0.87370131631E+03  0.87370131631E+03  0.00000000000E+00 0.  1.
         25    1    1    2    0    0 -0.10299284425E+03  0.91352854954E+02 -0.18718148171E+03  0.26384612404E+03  0.12500000000E+03 0.  0.
         25    1    1    2    0    0  0.10299284425E+03 -0.91352854954E+02 -0.63485114496E+03  0.66152388191E+03  0.12500000000E+03 0.  0.
</event>
<event>
 4    0  0.2188063E-002  0.2063518E+03  0.7546771E-02  0.1144488E+00
         21   -1    0    0  502  501  0.00000000000E+00  0.00000000000E+00  0.24597596979E+03  0.24597596979E+03  0.00000000000E+00 0. -1.
         21   -1    0    0  501  502 -0.00000000000E+00 -0.00000000000E+00 -0.17311073099E+03  0.17311073099E+03  0.00000000000E+00 0. -1.
         25    1    1    2    0    0  0.10457030074E+03 -0.10921955557E+03  0.10139247905E+03  0.22083770947E+03  0.12500000000E+03 0.  0.
         25    1    1    2    0    0 -0.10457030074E+03  0.10921955557E+03 -0.28527240262E+02  0.19824899131E+03  0.12500000000E+03 0.  0.
</event>
<event>
 4    0  0.2188063E-002  0.1594627E+03  0.7546771E-02  0.1189305E+00
         21   -1    0    0  502  501  0.00000000000E+00  0.00000000000E+00  0.15259462447E+03  0.15259462447E+03  0.00000000000E+00 0.  1.
         21   -1    0    0  501  502 -0.00000000000E+00 -0.00000000000E+00 -0.16663997599E+03  0.16663997599E+03  0.00000000000E+00 0.  1.
         25    1    1    2    0    0  0.86483736984E+02  0.48198311306E+02 -0.60995117870E+01  0.15957668382E+03  0.12500000000E+03 0.  0.
         25    1    1    2    0    0 -0.86483736984E+02 -0.48198311306E+02 -0.79458397375E+01  0.15965791664E+03  0.12500000000E+03 0.  0.
</event>
<event>
 4    0  0.2188063E-002  0.2224027E+03  0.7546771E-02  0.1132104E+00
         21   -1    0    0  502  501  0.00000000000E+00  0.00000000000E+00  0.91872624469E+02  0.91872624469E+02  0.00000000000E+00 0. -1.
         21   -1    0    0  501  502 -0.00000000000E+00 -0.00000000000E+00 -0.53838629113E+03  0.53838629113E+03  0.00000000000E+00 0. -1.
         25    1    1    2    0    0 -0.73598479609E+02  0.87338180053E+02 -0.42757656814E+03  0.45988195825E+03  0.12500000000E+03 0.  0.
         25    1    1    2    0    0  0.73598479609E+02 -0.87338180053E+02 -0.18937098516E+02  0.17037695735E+03  0.12500000000E+03 0.  0.
</event>
<event>
 4    0  0.2188063E-002  0.2046238E+03  0.7546771E-02  0.1145896E+00
         21   -1    0    0  502  501  0.00000000000E+00  0.00000000000E+00  0.50247013522E+03  0.50247013522E+03  0.00000000000E+00 0. -1.
         21   -1    0    0  501  502 -0.00000000000E+00 -0.00000000000E+00 -0.83330119468E+02  0.83330119468E+02  0.00000000000E+00 0. -1.
         25    1    1    2    0    0  0.16137920691E+03  0.14032380759E+02  0.20614051950E+03  0.29044632880E+03  0.12500000000E+03 0.  0.
         25    1    1    2    0    0 -0.16137920691E+03 -0.14032380759E+02  0.21299949625E+03  0.29535392589E+03  0.12500000000E+03 0.  0.
</event>
<event>
 4    0  0.2188063E-002  0.1564271E+03  0.7546771E-02  0.1192791E+00
         21   -1    0    0  502  501  0.00000000000E+00  0.00000000000E+00  0.98783377042E+02  0.98783377042E+02  0.00000000000E+00 0. -1.
         21   -1    0    0  501  502 -0.00000000000E+00 -0.00000000000E+00 -0.24770801543E+03  0.24770801543E+03  0.00000000000E+00 0. -1.
         25    1    1    2    0    0  0.80900642845E+02  0.23430027410E+02 -0.12080042290E+03  0.19316216599E+03  0.12500000000E+03 0.  0.
         25    1    1    2    0    0 -0.80900642845E+02 -0.23430027410E+02 -0.28124215489E+02  0.15332922648E+03  0.12500000000E+03 0.  0.
</event>
<event>
 4    0  0.2188063E-002  0.1662160E+03  0.7546771E-02  0.1181852E+00
         21   -1    0    0  502  501  0.00000000000E+00  0.00000000000E+00  0.13980427244E+03  0.13980427244E+03  0.00000000000E+00 0.  1.
         21   -1    0    0  501  502 -0.00000000000E+00 -0.00000000000E+00 -0.19761740440E+03  0.19761740440E+03  0.00000000000E+00 0.  1.
         25    1    1    2    0    0 -0.10221697804E+02 -0.10050704056E+03  0.14116065291E+02  0.16133942980E+03  0.12500000000E+03 0.  0.
         25    1    1    2    0    0  0.10221697804E+02  0.10050704056E+03 -0.71929197251E+02  0.17608224705E+03  0.12500000000E+03 0.  0.
</event>
<event>
 4    0  0.2188063E-002  0.3184553E+03  0.7546771E-02  0.1076362E+00
         21   -1    0    0  502  501  0.00000000000E+00  0.00000000000E+00  0.18207480747E+03  0.18207480747E+03  0.00000000000E+00 0.  1.
         21   -1    0    0  501  502 -0.00000000000E+00 -0.00000000000E+00 -0.55698964528E+03  0.55698964528E+03  0.00000000000E+00 0.  1.
         25    1    1    2    0    0  0.15591709162E+03  0.22192930702E+03 -0.59151562576E+02  0.30444484579E+03  0.12500000000E+03 0.  0.
         25    1    1    2    0    0 -0.15591709162E+03 -0.22192930702E+03 -0.31576327523E+03  0.43461960696E+03  0.12500000000E+03 0.  0.
</event>
<event>
 4    0  0.2188063E-002  0.3157669E+03  0.7546771E-02  0.1077614E+00
         21   -1    0    0  502  501  0.00000000000E+00  0.00000000000E+00  0.30891175737E+03  0.30891175737E+03  0.00000000000E+00 0. -1.
         21   -1    0    0  501  502 -0.00000000000E+00 -0.00000000000E+00 -0.32277423019E+03  0.32277423019E+03  0.00000000000E+00 0. -1.
         25    1    1    2    0    0  0.58863699111E+02  0.20225689167E+03  0.19239287921E+03  0.31146878700E+03  0.12500000000E+03 0.  0.
         25    1    1    2    0    0 -0.58863699111E+02 -0.20225689167E+03 -0.20625535202E+03  0.32021720057E+03  0.12500000000E+03 0.  0.
</event>
<event>
 4    0  0.2188063E-002  0.2260579E+03  0.7546771E-02  0.1129446E+00
         21   -1    0    0  502  501  0.00000000000E+00  0.00000000000E+00  0.18735744576E+03  0.18735744576E+03  0.00000000000E+00 0.  1.
         21   -1    0    0  501  502 -0.00000000000E+00 -0.00000000000E+00 -0.27275241828E+03  0.27275241828E+03  0.00000000000E+00 0.  1.
         25    1    1    2    0    0  0.22816269801E+02 -0.14935437649E+03  0.71762857131E+02  0.20881144511E+03  0.12500000000E+03 0.  0.
         25    1    1    2    0    0 -0.22816269801E+02  0.14935437649E+03 -0.15715782965E+03  0.25129841894E+03  0.12500000000E+03 0.  0.
</event>
<event>
 4    0  0.2188063E-002  0.1565136E+03  0.7546771E-02  0.1192690E+00
         21   -1    0    0  502  501  0.00000000000E+00  0.00000000000E+00  0.68143146087E+03  0.68143146087E+03  0.00000000000E+00 0. -1.
         21   -1    0    0  501  502 -0.00000000000E+00 -0.00000000000E+00 -0.35948581368E+02  0.35948581368E+02  0.00000000000E+00 0. -1.
         25    1    1    2    0    0 -0.35927472125E+02  0.79731395725E+02  0.24257551094E+03  0.28655847087E+03  0.12500000000E+03 0.  0.
         25    1    1    2    0    0  0.35927472125E+02 -0.79731395725E+02  0.40290736856E+03  0.43082157137E+03  0.12500000000E+03 0.  0.
</event>
<event>
 4    0  0.2188063E-002  0.2136532E+03  0.7546771E-02  0.1138705E+00
         21   -1    0    0  502  501  0.00000000000E+00  0.00000000000E+00  0.66288611143E+02  0.66288611143E+02  0.00000000000E+00 0.  1.
         21   -1    0    0  501  502 -0.00000000000E+00 -0.00000000000E+00 -0.68862071655E+03  0.68862071655E+03  0.00000000000E+00 0.  1.
         25    1    1    2    0    0 -0.12975995806E+03 -0.78436211057E+02 -0.45932237841E+03  0.49959176657E+03  0.12500000000E+03 0.  0.
         25    1    1    2    0    0  0.12975995806E+03  0.78436211057E+02 -0.16300972700E+03  0.25531756112E+03  0.12500000000E+03 0.  0.
</event>
<event>
 4    0  0.2188063E-002  0.3469517E+03  0.7546771E-02  0.1063873E+00
         21   -1    0    0  502  501  0.00000000000E+00  0.00000000000E+00  0.18405003584E+03  0.18405003584E+03  0.00000000000E+00 0.  1.
         21   -1    0    0  501  502 -0.00000000000E+00 -0.00000000000E+00 -0.65403664192E+03  0.65403664192E+03  0.00000000000E+00 0.  1.
         25    1    1    2    0    0 -0.31940113541E+03 -0.46456182849E+02 -0.26396015744E+03  0.43528752215E+03  0.12500000000E+03 0.  0.
         25    1    1    2    0    0  0.31940113541E+03  0.46456182849E+02 -0.20602644865E+03  0.40279915562E+03  0.12500000000E+03 0.  0.
</event>
<event>
 4    0  0.2188063E-002  0.1865559E+03  0.7546771E-02  0.1161605E+00
         21   -1    0    0  502  501  0.00000000000E+00  0.00000000000E+00  0.26579735276E+03  0.26579735276E+03  0.00000000000E+00 0.  1.
         21   -1    0    0  501  502 -0.00000000000E+00 -0.00000000000E+00 -0.13093842515E+03  0.13093842515E+03  0.00000000000E+00 0.  1.
         25    1    1    2    0    0  0.12946416754E+03  0.13126279771E+02  0.17050068645E+02  0.18124286121E+03  0.12500000000E+03 0.  0.
         25    1    1    2    0    0 -0.12946416754E+03 -0.13126279771E+02  0.11780885896E+03  0.21549291670E+03  0.12500000000E+03 0.  0.
</event>
<event>
 4    0  0.2188063E-002  0.2103369E+03  0.7546771E-02  0.1141300E+00
         21   -1    0    0  502  501  0.00000000000E+00  0.00000000000E+00  0.19300860900E+03  0.19300860900E+03  0.00000000000E+00 0. -1.
         21   -1    0    0  501  502 -0.00000000000E+00 -0.00000000000E+00 -0.22922081677E+03  0.22922081677E+03  0.00000000000E+00 0. -1.
         25    1    1    2    0    0 -0.12254889430E+02  0.43670373439E+02  0.14546685268E+03  0.19708599407E+03  0.12500000000E+03 0.  0.
         25    1    1    2    0    0  0.12254889430E+02 -0.43670373439E+02 -0.18167906044E+03  0.22514343169E+03  0.12500000000E+03 0.  0.
</event>
<event>
 4    0  0.2188063E-002  0.2057546E+03  0.7546771E-02  0.1144973E+00
         21   -1    0    0  502  501  0.00000000000E+00  0.00000000000E+00  0.79743581007E+02  0.79743581007E+02  0.00000000000E+00 0. -1.
         21   -1    0    0  501  502 -0.00000000000E+00 -0.00000000000E+00 -0.53088838814E+03  0.53088838814E+03  0.00000000000E+00 0. -1.
         25    1    1    2    0    0 -0.17030763722E+02  0.14784118555E+03 -0.12533738015E+03  0.23126072282E+03  0.12500000000E+03 0.  0.
         25    1    1    2    0    0  0.17030763722E+02 -0.14784118555E+03 -0.32580742699E+03  0.37937124633E+03  0.12500000000E+03 0.  0.
</event>
<event>
 4    0  0.2188063E-002  0.2230753E+03  0.7546771E-02  0.1131611E+00
         21   -1    0    0  502  501  0.00000000000E+00  0.00000000000E+00  0.54710653287E+03  0.54710653287E+03  0.00000000000E+00 0.  1.
         21   -1    0    0  501  502 -0.00000000000E+00 -0.00000000000E+00 -0.90955966097E+02  0.90955966097E+02  0.00000000000E+00 0.  1.
         25    1    1    2    0    0  0.42051360777E+02  0.17224485631E+03  0.15374879200E+03  0.26589527734E+03  0.12500000000E+03 0.  0.
         25    1    1    2    0    0 -0.42051360777E+02 -0.17224485631E+03  0.30240177477E+03  0.37216722162E+03  0.12500000000E+03 0.  0.
</event>
<event>
 4    0  0.2188063E-002  0.2119752E+03  0.7546771E-02  0.1140011E+00
         21   -1    0    0  502  501  0.00000000000E+00  0.00000000000E+00  0.59037463045E+03  0.59037463045E+03  0.00000000000E+00 0.  1.
         21   -1    0    0  501  502 -0.00000000000E+00 -0.00000000000E+00 -0.76110113981E+02  0.76110113981E+02  0.00000000000E+00 0.  1.
         25    1    1    2    0    0 -0.59857091175E+02  0.65035954445E+02  0.48762292519E+03  0.51109066115E+03  0.12500000000E+03 0.  0.
         25    1    1    2    0    0  0.59857091175E+02 -0.65035954445E+02  0.26641591273E+02  0.15539408328E+03  0.12500000000E+03 0.  0.
</event>
<event>
 4    0  0.2188063E-002  0.1652584E+03  0.7546771E-02  0.1182885E+00
         21   -1    0    0  502  501  0.00000000000E+00  0.00000000000E+00  0.13066909700E+02  0.13066909700E+02  0.00000000000E+00 0.  1.
         21   -1    0    0  501  502 -0.00000000000E+00 -0.00000000000E+00 -0.20900370099E+04  0.20900370099E+04  0.00000000000E+00 0.  1.
         25    1    1    2    0    0 -0.55267522935E+02 -0.25890493041E+02 -0.16062096328E+04  0.16122218213E+04  0.12500000000E+03 0.  0.
         25    1    1    2    0    0  0.55267522935E+02  0.25890493041E+02 -0.47076046743E+03  0.49088209828E+03  0.12500000000E+03 0.  0.
</event>
<event>
 4    0  0.2188063E-002  0.2292512E+03  0.7546771E-02  0.1127168E+00
         21   -1    0    0  502  501  0.00000000000E+00  0.00000000000E+00  0.78280754127E+02  0.78280754127E+02  0.00000000000E+00 0.  1.
         21   -1    0    0  501  502 -0.00000000000E+00 -0.00000000000E+00 -0.67137994230E+03  0.67137994230E+03  0.00000000000E+00 0.  1.
         25    1    1    2    0    0 -0.11024979156E+03 -0.99281598159E+02 -0.49625827249E+03  0.53283123528E+03  0.12500000000E+03 0.  0.
         25    1    1    2    0    0  0.11024979156E+03  0.99281598159E+02 -0.96840915684E+02  0.21682946115E+03  0.12500000000E+03 0.  0.
</event>
<event>
 4    0  0.2188063E-002  0.2324806E+03  0.7546771E-02  0.1124906E+00
         21   -1    0    0  502  501  0.00000000000E+00  0.00000000000E+00  0.51031445630E+02  0.51031445630E+02  0.00000000000E+00 0.  1.
         21   -1    0    0  501  502 -0.00000000000E+00 -0.00000000000E+00 -0.10590968904E+04  0.10590968904E+04  0.00000000000E+00 0.  1.
         25    1    1    2    0    0  0.69305399656E+02  0.85540056807E+02 -0.11681964347E+03  0.20345065456E+03  0.12500000000E+03 0.  0.
         25    1    1    2    0    0 -0.69305399656E+02 -0.85540056807E+02 -0.89124580132E+03  0.90667768149E+03  0.12500000000E+03 0.  0.
</event>
<event>
 4    0  0.2188063E-002  0.1877488E+03  0.7546771E-02  0.1160508E+00
         21   -1    0    0  502  501  0.00000000000E+00  0.00000000000E+00  0.10955908014E+03  0.10955908014E+03  0.00000000000E+00 0.  1.
         21   -1    0    0  501  502 -0.00000000000E+00 -0.00000000000E+00 -0.32174071350E+03  0.32174071350E+03  0.00000000000E+00 0.  1.
         25    1    1    2    0    0 -0.10894161132E+03 -0.77512441349E+02 -0.15411534016E+03  0.23927597312E+03  0.12500000000E+03 0.  0.
         25    1    1    2    0    0  0.10894161132E+03  0.77512441349E+02 -0.58066293213E+02  0.19202382052E+03  0.12500000000E+03 0.  0.
</event>
<event>
 4    0  0.2188063E-002  0.2037434E+03  0.7546771E-02  0.1146619E+00
         21   -1    0    0  502  501  0.00000000000E+00  0.00000000000E+00  0.41713744294E+03  0.41713744294E+03  0.00000000000E+00 0. -1.
         21   -1    0    0  501  502 -0.00000000000E+00 -0.00000000000E+00 -0.99514843115E+02  0.99514843115E+02  0.00000000000E+00 0. -1.
         25    1    1    2    0    0 -0.15276275652E+03  0.38048430506E+02  0.11671733435E+03  0.23244801350E+03  0.12500000000E+03 0.  0.
         25    1    1    2    0    0  0.15276275652E+03 -0.38048430506E+02  0.20090526548E+03  0.28420427256E+03  0.12500000000E+03 0.  0.
</event>
<event>
 4    0  0.2188063E-002  0.1893761E+03  0.7546771E-02  0.1159025E+00
         21   -1    0    0  502  501  0.00000000000E+00  0.00000000000E+00  0.39285163195E+03  0.39285163195E+03  0.00000000000E+00 0.  1.
         21   -1    0    0  501  502 -0.00000000000E+00 -0.00000000000E+00 -0.91289723198E+02  0.91289723198E+02  0.00000000000E+00 0.  1.
         25    1    1    2    0    0  0.45341454709E+02 -0.11657213508E+03  0.64147745203E+02  0.18810859472E+03  0.12500000000E+03 0.  0.
         25    1    1    2    0    0 -0.45341454709E+02  0.11657213508E+03  0.23741416355E+03  0.29603276043E+03  0.12500000000E+03 0.  0.
</event>
<event>
 4    0  0.2188063E-002  0.1732412E+03  0.7546771E-02  0.1174509E+00
         21   -1    0    0  502  501  0.00000000000E+00  0.00000000000E+00  0.24047520827E+03  0.24047520827E+03  0.00000000000E+00 0.  1.
         21   -1    0    0  501  502 -0.00000000000E+00 -0.00000000000E+00 -0.12480502582E+03  0.12480502582E+03  0.00000000000E+00 0.  1.
         25    1    1    2    0    0 -0.54105939750E+02 -0.59496259087E+02  0.15165923768E+03  0.21235061087E+03  0.12500000000E+03 0.  0.
         25    1    1    2    0    0  0.54105939750E+02  0.59496259087E+02 -0.35989055228E+02  0.15292962322E+03  0.12500000000E+03 0.  0.
</event>
<event>
 4    0  0.2188063E-002  0.1624374E+03  0.7546771E-02  0.1185972E+00
         21   -1    0    0  502  501  0.00000000000E+00  0.00000000000E+00  0.34549732958E+03  0.34549732958E+03  0.00000000000E+00 0.  1.
         21   -1    0    0  501  502 -0.00000000000E+00 -0.00000000000E+00 -0.76370784071E+02  0.76370784071E+02  0.00000000000E+00 0.  1.
         25    1    1    2    0    0  0.89829174746E+02 -0.49842076968E+02  0.15326377450E+03  0.22286385496E+03  0.12500000000E+03 0.  0.
         25    1    1    2    0    0 -0.89829174746E+02  0.49842076968E+02  0.11586277100E+03  0.19900425869E+03  0.12500000000E+03 0.  0.
</event>
<event>
 4    0  0.2188063E-002  0.3507922E+03  0.7546771E-02  0.1062290E+00
         21   -1    0    0  502  501  0.00000000000E+00  0.00000000000E+00  0.19692091367E+03  0.19692091367E+03  0.00000000000E+00 0.  1.
         21   -1    0    0  501  502 -0.00000000000E+00 -0.00000000000E+00 -0.62489642235E+03  0.62489642235E+03  0.00000000000E+00 0.  1.
         25    1    1    2    0    0 -0.21286373760E+03  0.35312106878E+01  0.77932822825E+02  0.25888600794E+03  0.12500000000E+03 0.  0.
         25    1    1    2    0    0  0.21286373760E+03 -0.35312106878E+01 -0.50590833151E+03  0.56293132808E+03  0.12500000000E+03 0.  0.
</event>
<event>
 4    0  0.2188063E-002  0.1800689E+03  0.7546771E-02  0.1167736E+00
         21   -1    0    0  502  501  0.00000000000E+00  0.00000000000E+00  0.34758324216E+03  0.34758324216E+03  0.00000000000E+00 0. -1.
         21   -1    0    0  501  502 -0.00000000000E+00 -0.00000000000E+00 -0.93286460344E+02  0.93286460344E+02  0.00000000000E+00 0. -1.
         25    1    1    2    0    0  0.52117442084E+02 -0.11851062910E+03  0.13477501156E+03  0.22483394032E+03  0.12500000000E+03 0.  0.
         25    1    1    2    0    0 -0.52117442084E+02  0.11851062910E+03  0.11952177026E+03  0.21603576219E+03  0.12500000000E+03 0.  0.
</event>
<event>
 4    0  0.2188063E-002  0.2305052E+03  0.7546771E-02  0.1126285E+00
         21   -1    0    0  502  501  0.00000000000E+00  0.00000000000E+00  0.17903668521E+04  0.17903668521E+04  0.00000000000E+00 0.  1.
         21   -1    0    0  501  502 -0.00000000000E+00 -0.00000000000E+00 -0.29676965720E+02  0.29676965720E+02  0.00000000000E+00 0.  1.
         25    1    1    2    0    0 -0.81125779430E+02 -0.15290261861E+03  0.53737206231E+03  0.57823380757E+03  0.12500000000E+03 0.  0.
         25    1    1    2    0    0  0.81125779430E+02  0.15290261861E+03  0.12233178241E+04  0.12418100103E+04  0.12500000000E+03 0.  0.
</event>
<event>
 4    0  0.2188063E-002  0.2063337E+03  0.7546771E-02  0.1144503E+00
         21   -1    0    0  502  501  0.00000000000E+00  0.00000000000E+00  0.14094245225E+03  0.14094245225E+03  0.00000000000E+00 0.  1.
         21   -1    0    0  501  502 -0.00000000000E+00 -0.00000000000E+00 -0.30206366405E+03  0.30206366405E+03  0.00000000000E+00 0.  1.
         25    1    1    2    0    0 -0.98874329236E+01 -0.14898011062E+03 -0.73110812264E+01  0.19486222466E+03  0.12500000000E+03 0.  0.
         25    1    1    2    0    0  0.98874329236E+01  0.14898011062E+03 -0.15381013057E+03  0.24814389164E+03  0.12500000000E+03 0.  0.
</event>
<event>
 4    0  0.2188063E-002  0.1874249E+03  0.7546771E-02  0.1160805E+00
         21   -1    0    0  502  501  0.00000000000E+00  0.00000000000E+00  0.19406890583E+04  0.19406890583E+04  0.00000000000E+00 0. -1.
         21   -1    0    0  501  502 -0.00000000000E+00 -0.00000000000E+00 -0.18100826774E+02  0.18100826774E+02  0.00000000000E+00 0. -1.
         25    1    1    2    0    0 -0.44479527070E+02  0.59012386763E+02  0.34206974809E+03  0.37161485799E+03  0.12500000000E+03 0.  0.
         25    1    1    2    0    0  0.44479527070E+02 -0.59012386763E+02  0.15805184834E+04  0.15871750270E+04  0.12500000000E+03 0.  0.
</event>
<event>
 4    0  0.2188063E-002  0.2312191E+03  0.7546771E-02  0.1125785E+00
         21   -1    0    0  502  501  0.00000000000E+00  0.00000000000E+00  0.24757843897E+03  0.24757843897E+03  0.00000000000E+00 0.  1.
         21   -1    0    0  501  502 -0.00000000000E+00 -0.00000000000E+00 -0.21594080622E+03  0.21594080622E+03  0.00000000000E+00 0.  1.
         25    1    1    2    0    0 -0.79814384189E+02  0.17705895203E+03  0.49732044056E+01  0.23101935239E+03  0.12500000000E+03 0.  0.
         25    1    1    2    0    0  0.79814384189E+02 -0.17705895203E+03  0.26664428339E+02  0.23249989281E+03  0.12500000000E+03 0.  0.
</event>
<event>
 4    0  0.2188063E-002  0.1923213E+03  0.7546771E-02  0.1156384E+00
         21   -1    0    0  502  501  0.00000000000E+00  0.00000000000E+00  0.49723449853E+03  0.49723449853E+03  0.00000000000E+00 0. -1.
         21   -1    0    0  501  502 -0.00000000000E+00 -0.00000000000E+00 -0.74386364830E+02  0.74386364830E+02  0.00000000000E+00 0. -1.
         25    1    1    2    0    0 -0.93570565657E+02  0.60290354380E+02  0.70658130483E+02  0.18168089881E+03  0.12500000000E+03 0.  0.
         25    1    1    2    0    0  0.93570565657E+02 -0.60290354380E+02  0.35219000322E+03  0.38993996455E+03  0.12500000000E+03 0.  0.
</event>
<event>
 4    0  0.2188063E-002  0.2723171E+03  0.7546771E-02  0.1099961E+00
         21   -1    0    0  502  501  0.00000000000E+00  0.00000000000E+00  0.10772298254E+04  0.10772298254E+04  0.00000000000E+00 0. -1.
         21   -1    0    0  501  502 -0.00000000000E+00 -0.00000000000E+00 -0.68840118846E+02  0.68840118846E+02  0.00000000000E+00 0. -1.
         25    1    1    2    0    0 -0.22098521292E+03  0.92540246465E+02  0.57504009797E+03  0.63536940108E+03  0.12500000000E+03 0.  0.
         25    1    1    2    0    0  0.22098521292E+03 -0.92540246465E+02  0.43334960861E+03  0.51070054320E+03  0.12500000000E+03 0.  0.
</event>
<event>
 4    0  0.2188063E-002  0.2578236E+03  0.7546771E-02  0.1108458E+00
         21   -1    0    0  502  501  0.00000000000E+00  0.00000000000E+00  0.16281386793E+03  0.16281386793E+03  0.00000000000E+00 0. -1.
         21   -1    0    0  501  502 -0.00000000000E+00 -0.00000000000E+00 -0.40827622268E+03  0.40827622268E+03  0.00000000000E+00 0. -1.
         25    1    1    2    0    0 -0.20232348759E+03 -0.65742640798E+02 -0.20554487388E+03  0.32113950805E+03  0.12500000000E+03 0.  0.
         25    1    1    2    0    0  0.20232348759E+03  0.65742640798E+02 -0.39917480861E+02  0.24995058257E+03  0.12500000000E+03 0.  0.
</event>
<event>
 4    0  0.2188063E-002  0.2019848E+03  0.7546771E-02  0.1148075E+00
         21   -1    0    0  502  501  0.00000000000E+00  0.00000000000E+00  0.50120256222E+03  0.50120256222E+03  0.00000000000E+00 0.  1.
         21   -1    0    0  501  502 -0.00000000000E+00 -0.00000000000E+00 -0.81399967676E+02  0.81399967676E+02  0.00000000000E+00 0.  1.
         25    1    1    2    0    0  0.11279740380E+03  0.11151943627E+03  0.20469471950E+03  0.28754959079E+03  0.12500000000E+03 0.  0.
         25    1    1    2    0    0 -0.11279740380E+03 -0.11151943627E+03  0.21510787504E+03  0.29505293910E+03  0.12500000000E+03 0.  0.
</event>
<event>
 4    0  0.2188063E-002  0.2011872E+03  0.7546771E-02  0.1148741E+00
         21   -1    0    0  502  501  0.00000000000E+00  0.00000000000E+00  0.10110182428E+03  0.10110182428E+03  0.00000000000E+00 0. -1.
         21   -1    0    0  501  502 -0.00000000000E+00 -0.00000000000E+00 -0.40035162914E+03  0.40035162914E+03  0.00000000000E+00 0. -1.
         25    1    1    2    0    0 -0.76602410114E+02  0.42723043200E+02 -0.31286800339E+03  0.34814447461E+03  0.12500000000E+03 0.  0.
         25    1    1    2    0    0  0.76602410114E+02 -0.42723043200E+02  0.13618198528E+02  0.15330897882E+03  0.12500000000E+03 0.  0.
</event>
<event>
 4    0  0.2188063E-002  0.2182027E+03  0.7546771E-02  0.1135230E+00
         21   -1    0    0  502  501  0.00000000000E+00  0.00000000000E+00  0.89896547063E+02  0.89896547063E+02  0.00000000000E+00 0.  1.
         21   -1    0    0  501  502 -0.00000000000E+00 -0.00000000000E+00 -0.52963564912E+03  0.52963564912E+03  0.00000000000E+00 0.  1.
         25    1    1    2    0    0  0.10342634877E+03  0.13392327358E+03 -0.13764194287E+03  0.25140158564E+03  0.12500000000E+03 0.  0.
         25    1    1    2    0    0 -0.10342634877E+03 -0.13392327358E+03 -0.30209715919E+03  0.36813061054E+03  0.12500000000E+03 0.  0.
</event>
<event>
 4    0  0.2188063E-002  0.2856798E+03  0.7546771E-02  0.1092627E+00
         21   -1    0    0  502  501  0.00000000000E+00  0.00000000000E+00  0.59102407220E+03  0.59102407220E+03  0.00000000000E+00 0.  1.
         21   -1    0    0  501  502 -0.00000000000E+00 -0.00000000000E+00 -0.13808737103E+03  0.13808737103E+03  0.00000000000E+00 0.  1.
         25    1    1    2    0    0  0.99487096432E+02 -0.67362127027E+02  0.51620920185E+03  0.54454777439E+03  0.12500000000E+03 0.  0.
         25    1    1    2    0    0 -0.99487096432E+02  0.67362127027E+02 -0.63272500688E+02  0.18456366884E+03  0.12500000000E+03 0.  0.
</event>
<event>
 4    0  0.2188063E-002  0.2077926E+03  0.7546771E-02  0.1143326E+00
         21   -1    0    0  502  501  0.00000000000E+00  0.00000000000E+00  0.60720113065E+02  0.60720113065E+02  0.00000000000E+00 0.  1.
         21   -1    0    0  501  502 -0.00000000000E+00 -0.00000000000E+00 -0.71109466005E+03  0.71109466005E+03  0.00000000000E+00 0.  1.
         25    1    1    2    0    0 -0.21950939657E+02  0.12080468909E+03 -0.11773869031E+03  0.21109954016E+03  0.12500000000E+03 0.  0.
         25    1    1    2    0    0  0.21950939657E+02 -0.12080468909E+03 -0.53263585667E+03  0.56071523296E+03  0.12500000000E+03 0.  0.
</event>
<event>
 4    0  0.2188063E-002  0.2631185E+03  0.7546771E-02  0.1105284E+00
         21   -1    0    0  502  501  0.00000000000E+00  0.00000000000E+00  0.26994993979E+02  0.26994993979E+02  0.00000000000E+00 0. -1.
         21   -1    0    0  501  502 -0.00000000000E+00 -0.00000000000E+00 -0.25645994706E+04  0.25645994706E+04  0.00000000000E+00 0. -1.
         25    1    1    2    0    0  0.12366959716E+03  0.12096690336E+03 -0.51097703695E+03  0.55375959880E+03  0.12500000000E+03 0.  0.
         25    1    1    2    0    0 -0.12366959716E+03 -0.12096690336E+03 -0.20266274397E+04  0.20378348658E+04  0.12500000000E+03 0.  0.
</event>
<event>
 4    0  0.2188063E-002  0.2422849E+03  0.7546771E-02  0.1118280E+00
         21   -1    0    0  502  501  0.00000000000E+00  0.00000000000E+00  0.51716947164E+03  0.51716947164E+03  0.00000000000E+00 0. -1.
         21   -1    0    0  501  502 -0.00000000000E+00 -0.00000000000E+00 -0.11350628814E+03  0.11350628814E+03  0.00000000000E+00 0. -1.
         25    1    1    2    0    0 -0.17757125955E+03  0.59704620341E+02  0.85560227083E+02  0.24091854716E+03  0.12500000000E+03 0.  0.
         25    1    1    2    0    0  0.17757125955E+03 -0.59704620341E+02  0.31810295642E+03  0.38975721262E+03  0.12500000000E+03 0.  0.
</event>
<event>
 4    0  0.2188063E-002  0.2498806E+03  0.7546771E-02  0.1113380E+00
         21   -1    0    0  502  501  0.00000000000E+00  0.00000000000E+00  0.66912003220E+03  0.66912003220E+03  0.00000000000E+00 0.  1.
         21   -1    0    0  501  502 -0.00000000000E+00 -0.00000000000E+00 -0.93317046919E+02  0.93317046919E+02  0.00000000000E+00 0.  1.
         25    1    1    2    0    0  0.12802292041E+03  0.72800457023E+01  0.55377883714E+03  0.58201277278E+03  0.12500000000E+03 0.  0.
         25    1    1    2    0    0 -0.12802292041E+03 -0.72800457023E+01  0.22024148139E+02  0.18042430634E+03  0.12500000000E+03 0.  0.
</event>
<event>
 4    0  0.2188063E-002  0.2637357E+03  0.7546771E-02  0.1104919E+00
         21   -1    0    0  502  501  0.00000000000E+00  0.00000000000E+00  0.51971408778E+03  0.51971408778E+03  0.00000000000E+00 0.  1.
         21   -1    0    0  501  502 -0.00000000000E+00 -0.00000000000E+00 -0.13383613007E+03  0.13383613007E+03  0.00000000000E+00 0.  1.
         25    1    1    2    0    0 -0.12679291859E+03  0.14662698140E+03  0.34481273244E+02  0.23321636753E+03  0.12500000000E+03 0.  0.
         25    1    1    2    0    0  0.12679291859E+03 -0.14662698140E+03  0.35139668446E+03  0.42033385032E+03  0.12500000000E+03 0.  0.
</event>
<event>
 4    0  0.2188063E-002  0.1796166E+03  0.7546771E-02  0.1168175E+00
         21   -1    0    0  502  501  0.00000000000E+00  0.00000000000E+00  0.49499953933E+03  0.49499953933E+03  0.00000000000E+00 0.  1.
         21   -1    0    0  501  502 -0.00000000000E+00 -0.00000000000E+00 -0.65176067297E+02  0.65176067297E+02  0.00000000000E+00 0.  1.
         25    1    1    2    0    0  0.95511418039E+02  0.82785421191E+02  0.25501095703E+03  0.31085598779E+03  0.12500000000E+03 0.  0.
         25    1    1    2    0    0 -0.95511418039E+02 -0.82785421191E+02  0.17481251501E+03  0.24931961884E+03  0.12500000000E+03 0.  0.
</event>
<event>
 4    0  0.2188063E-002  0.2010716E+03  0.7546771E-02  0.1148838E+00
         21   -1    0    0  502  501  0.00000000000E+00  0.00000000000E+00  0.66794465486E+02  0.66794465486E+02  0.00000000000E+00 0. -1.
         21   -1    0    0  501  502 -0.00000000000E+00 -0.00000000000E+00 -0.60528624992E+03  0.60528624992E+03  0.00000000000E+00 0. -1.
         25    1    1    2    0    0 -0.13488693386E+03 -0.50901374732E+02 -0.37520004581E+03  0.42093409134E+03  0.12500000000E+03 0.  0.
         25    1    1    2    0    0  0.13488693386E+03  0.50901374732E+02 -0.16329173863E+03  0.25114662407E+03  0.12500000000E+03 0.  0.
</event>
<event>
 4    0  0.2188063E-002  0.1931028E+03  0.7546771E-02  0.1155692E+00
         21   -1    0    0  502  501  0.00000000000E+00  0.00000000000E+00  0.26631043435E+03  0.26631043435E+03  0.00000000000E+00 0.  1.
         21   -1    0    0  501  502 -0.00000000000E+00 -0.00000000000E+00 -0.14001970685E+03  0.14001970685E+03  0.00000000000E+00 0.  1.
         25    1    1    2    0    0 -0.72041130656E+02 -0.90828887082E+02 -0.32265805908E+02  0.17351049958E+03  0.12500000000E+03 0.  0.
         25    1    1    2    0    0  0.72041130656E+02  0.90828887082E+02  0.15855653341E+03  0.23281964162E+03  0.12500000000E+03 0.  0.
</event>
<event>
 4    0  0.2188063E-002  0.2942950E+03  0.7546771E-02  0.1088128E+00
         21   -1    0    0  502  501  0.00000000000E+00  0.00000000000E+00  0.23952757989E+03  0.23952757989E+03  0.00000000000E+00 0.  1.
         21   -1    0    0  501  502 -0.00000000000E+00 -0.00000000000E+00 -0.36158498425E+03  0.36158498425E+03  0.00000000000E+00 0.  1.
         25    1    1    2    0    0  0.20989379392E+03  0.24847585567E+02  0.10463138157E+03  0.26691858917E+03  0.12500000000E+03 0.  0.
         25    1    1    2    0    0 -0.20989379392E+03 -0.24847585567E+02 -0.22668878593E+03  0.33419397496E+03  0.12500000000E+03 0.  0.
</event>
<event>
 4    0  0.2188063E-002  0.2316447E+03  0.7546771E-02  0.1125487E+00
         21   -1    0    0  502  501  0.00000000000E+00  0.00000000000E+00  0.39312442505E+03  0.39312442505E+03  0.00000000000E+00 0. -1.
         21   -1    0    0  501  502 -0.00000000000E+00 -0.00000000000E+00 -0.13649437679E+03  0.13649437679E+03  0.00000000000E+00 0. -1.
         25    1    1    2    0    0 -0.75265769035E+02  0.16507739839E+03  0.46526069141E+02  0.22517805967E+03  0.12500000000E+03 0.  0.
         25    1    1    2    0    0  0.75265769035E+02 -0.16507739839E+03  0.21010397912E+03  0.30444074216E+03  0.12500000000E+03 0.  0.
</event>
<event>
 4    0  0.2188063E-002  0.2300195E+03  0.7546771E-02  0.1126626E+00
         21   -1    0    0  502  501  0.00000000000E+00  0.00000000000E+00  0.36673645811E+02  0.36673645811E+02  0.00000000000E+00 0.  1.
         21   -1    0    0  501  502 -0.00000000000E+00 -0.00000000000E+00 -0.14426972310E+04  0.14426972310E+04  0.00000000000E+00 0.  1.
         25    1    1    2    0    0  0.98787512924E+02  0.15201743645E+03 -0.48932292844E+03  0.53659128020E+03  0.12500000000E+03 0.  0.
         25    1    1    2    0    0 -0.98787512924E+02 -0.15201743645E+03 -0.91670065674E+03  0.94277959660E+03  0.12500000000E+03 0.  0.
</event>
<event>
 4    0  0.2188063E-002  0.1932285E+03  0.7546771E-02  0.1155581E+00
         21   -1    0    0  502  501  0.00000000000E+00  0.00000000000E+00  0.27808711336E+03  0.27808711336E+03  0.00000000000E+00 0.  1.
         21   -1    0    0  501  502 -0.00000000000E+00 -0.00000000000E+00 -0.13426458823E+03  0.13426458823E+03  0.00000000000E+00 0.  1.
         25    1    1    2    0    0  0.22919289037E+02 -0.79216585352E+02 -0.58384431214E+02  0.16073052919E+03  0.12500000000E+03 0.  0.
         25    1    1    2    0    0 -0.22919289037E+02  0.79216585352E+02  0.20220695634E+03  0.25162117240E+03  0.12500000000E+03 0.  0.
</event>
<event>
 4    0  0.2188063E-002  0.1838005E+03  0.7546771E-02  0.1164175E+00
         21   -1    0    0  502  501  0.00000000000E+00  0.00000000000E+00  0.16440625635E+03  0.16440625635E+03  0.00000000000E+00 0.  1.
         21   -1    0    0  501  502 -0.00000000000E+00 -0.00000000000E+00 -0.20548260112E+03  0.20548260112E+03  0.00000000000E+00 0. -1.
         25    1    1    2    0    0 -0.11498766791E+03 -0.68678102060E+02 -0.35421432992E+02  0.18659722235E+03  0.12500000000E+03 0.  0.
         25    1    1    2    0    0  0.11498766791E+03  0.68678102060E+02 -0.56549117807E+01  0.18329163511E+03  0.12500000000E+03 0.  0.
</event>
<event>
 4    0  0.2188063E-002  0.2694245E+03  0.7546771E-02  0.1101609E+00
         21   -1    0    0  502  501  0.00000000000E+00  0.00000000000E+00  0.28740610274E+02  0.28740610274E+02  0.00000000000E+00 0.  1.
         21   -1    0    0  501  502 -0.00000000000E+00 -0.00000000000E+00 -0.25256796067E+04  0.25256796067E+04  0.00000000000E+00 0.  1.
         25    1    1    2    0    0 -0.80006691095E+02 -0.50377679316E+02 -0.22873404171E+04  0.22927036802E+04  0.12500000000E+03 0.  0.
         25    1    1    2    0    0  0.80006691095E+02  0.50377679316E+02 -0.20959857926E+03  0.26171653677E+03  0.12500000000E+03 0.  0.
</event>
<event>
 4    0  0.2188063E-002  0.5096851E+03  0.7546771E-02  0.1011281E+00
         21   -1    0    0  502  501  0.00000000000E+00  0.00000000000E+00  0.11926132338E+04  0.11926132338E+04  0.00000000000E+00 0. -1.
         21   -1    0    0  501  502 -0.00000000000E+00 -0.00000000000E+00 -0.21782322461E+03  0.21782322461E+03  0.00000000000E+00 0. -1.
         25    1    1    2    0    0 -0.42536830155E+03 -0.20305878320E+03  0.28224897328E+03  0.56343637114E+03  0.12500000000E+03 0.  0.
         25    1    1    2    0    0  0.42536830155E+03  0.20305878320E+03  0.69254103589E+03  0.84700008725E+03  0.12500000000E+03 0.  0.
</event>
<event>
 4    0  0.2188063E-002  0.3166883E+03  0.7546771E-02  0.1077184E+00
         21   -1    0    0  502  501  0.00000000000E+00  0.00000000000E+00  0.40553129033E+02  0.40553129033E+02  0.00000000000E+00 0. -1.
         21   -1    0    0  501  502 -0.00000000000E+00 -0.00000000000E+00 -0.24730882430E+04  0.24730882430E+04  0.00000000000E+00 0. -1.
         25    1    1    2    0    0  0.17562983059E+03 -0.57026701323E+02 -0.32382200801E+03  0.39317117764E+03  0.12500000000E+03 0.  0.
         25    1    1    2    0    0 -0.17562983059E+03  0.57026701323E+02 -0.21087131060E+04  0.21204701944E+04  0.12500000000E+03 0.  0.
</event>
<event>
 4    0  0.2188063E-002  0.3098243E+03  0.7546771E-02  0.1080430E+00
         21   -1    0    0  502  501  0.00000000000E+00  0.00000000000E+00  0.85133109776E+03  0.85133109776E+03  0.00000000000E+00 0.  1.
         21   -1    0    0  501  502 -0.00000000000E+00 -0.00000000000E+00 -0.11275414900E+03  0.11275414900E+03  0.00000000000E+00 0.  1.
         25    1    1    2    0    0 -0.26129977061E+03  0.85903276044E+02  0.47605672663E+03  0.56383681143E+03  0.12500000000E+03 0.  0.
         25    1    1    2    0    0  0.26129977061E+03 -0.85903276044E+02  0.26252022213E+03  0.40024843533E+03  0.12500000000E+03 0.  0.
</event>
<event>
 4    0  0.2188063E-002  0.1900889E+03  0.7546771E-02  0.1158381E+00
         21   -1    0    0  502  501  0.00000000000E+00  0.00000000000E+00  0.50458724343E+03  0.50458724343E+03  0.00000000000E+00 0. -1.
         21   -1    0    0  501  502 -0.00000000000E+00 -0.00000000000E+00 -0.71610561738E+02  0.71610561738E+02  0.00000000000E+00 0. -1.
         25    1    1    2    0    0  0.10017091600E+03 -0.47841676648E+02  0.79364225929E+02  0.18505869014E+03  0.12500000000E+03 0.  0.
         25    1    1    2    0    0 -0.10017091600E+03  0.47841676648E+02  0.35361245577E+03  0.39113911504E+03  0.12500000000E+03 0.  0.
</event>
<event>
 4    0  0.2188063E-002  0.2471464E+03  0.7546771E-02  0.1115122E+00
         21   -1    0    0  502  501  0.00000000000E+00  0.00000000000E+00  0.83296304084E+03  0.83296304084E+03  0.00000000000E+00 0. -1.
         21   -1    0    0  501  502 -0.00000000000E+00 -0.00000000000E+00 -0.73330183067E+02  0.73330183067E+02  0.00000000000E+00 0. -1.
         25    1    1    2    0    0 -0.20107111981E+03  0.54802468875E+02  0.29734031324E+03  0.38401714505E+03  0.12500000000E+03 0.  0.
         25    1    1    2    0    0  0.20107111981E+03 -0.54802468875E+02  0.46229254454E+03  0.52227607886E+03  0.12500000000E+03 0.  0.
</event>
<event>
 4    0  0.2188063E-002  0.2564630E+03  0.7546771E-02  0.1109287E+00
         21   -1    0    0  502  501  0.00000000000E+00  0.00000000000E+00  0.19710244812E+03  0.19710244812E+03  0.00000000000E+00 0.  1.
         21   -1    0    0  501  502 -0.00000000000E+00 -0.00000000000E+00 -0.33370100535E+03  0.33370100535E+03  0.00000000000E+00 0.  1.
         25    1    1    2    0    0 -0.10533451765E+03  0.18319486467E+03 -0.14499420258E+03  0.28513862914E+03  0.12500000000E+03 0.  0.
         25    1    1    2    0    0  0.10533451765E+03 -0.18319486467E+03  0.83956453519E+01  0.24566482433E+03  0.12500000000E+03 0.  0.
</event>
<event>
 4    0  0.2188063E-002  0.1927707E+03  0.7546771E-02  0.1155986E+00
         21   -1    0    0  502  501  0.00000000000E+00  0.00000000000E+00  0.23509377473E+04  0.23509377473E+04  0.00000000000E+00 0. -1.
         21   -1    0    0  501  502 -0.00000000000E+00 -0.00000000000E+00 -0.15806683425E+02  0.15806683425E+02  0.00000000000E+00 0. -1.
         25    1    1    2    0    0  0.11242590442E+03  0.75483977886E+02  0.82040736703E+03  0.84085115376E+03  0.12500000000E+03 0.  0.
         25    1    1    2    0    0 -0.11242590442E+03 -0.75483977886E+02  0.15147236969E+04  0.15258932770E+04  0.12500000000E+03 0.  0.
</event>
<event>
 4    0  0.2188063E-002  0.3454943E+03  0.7546771E-02  0.1064480E+00
         21   -1    0    0  502  501  0.00000000000E+00  0.00000000000E+00  0.13576151702E+03  0.13576151702E+03  0.00000000000E+00 0. -1.
         21   -1    0    0  501  502 -0.00000000000E+00 -0.00000000000E+00 -0.87923520182E+03  0.87923520182E+03  0.00000000000E+00 0. -1.
         25    1    1    2    0    0  0.30686718819E+03 -0.12554093520E+02 -0.51427536697E+03  0.61190622609E+03  0.12500000000E+03 0.  0.
         25    1    1    2    0    0 -0.30686718819E+03  0.12554093520E+02 -0.22919831783E+03  0.40309049276E+03  0.12500000000E+03 0.  0.
</event>
<event>
 4    0  0.2188063E-002  0.1997560E+03  0.7546771E-02  0.1149945E+00
         21   -1    0    0  502  501  0.00000000000E+00  0.00000000000E+00  0.91696434993E+03  0.91696434993E+03  0.00000000000E+00 0. -1.
         21   -1    0    0  501  502 -0.00000000000E+00 -0.00000000000E+00 -0.43515814217E+02  0.43515814217E+02  0.00000000000E+00 0. -1.
         25    1    1    2    0    0 -0.36948352429E+01 -0.15467982701E+03  0.39252810225E+03  0.44004864703E+03  0.12500000000E+03 0.  0.
         25    1    1    2    0    0  0.36948352429E+01  0.15467982701E+03  0.48092043346E+03  0.52043151712E+03  0.12500000000E+03 0.  0.
</event>
<event>
 4    0  0.2188063E-002  0.2426069E+03  0.7546771E-02  0.1118068E+00
         21   -1    0    0  502  501  0.00000000000E+00  0.00000000000E+00  0.88646904374E+03  0.88646904374E+03  0.00000000000E+00 0.  1.
         21   -1    0    0  501  502 -0.00000000000E+00 -0.00000000000E+00 -0.66396111044E+02  0.66396111044E+02  0.00000000000E+00 0.  1.
         25    1    1    2    0    0 -0.89481844625E+02  0.15570288509E+01  0.77860279531E+03  0.79363514143E+03  0.12500000000E+03 0.  0.
         25    1    1    2    0    0  0.89481844625E+02 -0.15570288509E+01  0.41470137386E+02  0.15923001335E+03  0.12500000000E+03 0.  0.
</event>
<event>
 4    0  0.2188063E-002  0.4619211E+03  0.7546771E-02  0.1024226E+00
         21   -1    0    0  502  501  0.00000000000E+00  0.00000000000E+00  0.53332597975E+03  0.53332597975E+03  0.00000000000E+00 0. -1.
         21   -1    0    0  501  502 -0.00000000000E+00 -0.00000000000E+00 -0.40007629942E+03  0.40007629942E+03  0.00000000000E+00 0. -1.
         25    1    1    2    0    0  0.38132505765E+03  0.11022492825E+03 -0.13591848006E+03  0.43778666907E+03  0.12500000000E+03 0.  0.
         25    1    1    2    0    0 -0.38132505765E+03 -0.11022492825E+03  0.26916816038E+03  0.49561561009E+03  0.12500000000E+03 0.  0.
</event>
<event>
 4    0  0.2188063E-002  0.2303131E+03  0.7546771E-02  0.1126420E+00
         21   -1    0    0  502  501  0.00000000000E+00  0.00000000000E+00  0.35769526137E+03  0.35769526137E+03  0.00000000000E+00 0. -1.
         21   -1    0    0  501  502 -0.00000000000E+00 -0.00000000000E+00 -0.14829413044E+03  0.14829413044E+03  0.00000000000E+00 0. -1.
         25    1    1    2    0    0  0.14718994113E+03  0.79794610557E+02  0.21112892959E+03  0.29703953197E+03  0.12500000000E+03 0.  0.
         25    1    1    2    0    0 -0.14718994113E+03 -0.79794610557E+02 -0.17277986585E+01  0.20894985985E+03  0.12500000000E+03 0.  0.
</event>
<event>
 4    0  0.2188063E-002  0.3812927E+03  0.7546771E-02  0.1050457E+00
         21   -1    0    0  502  501  0.00000000000E+00  0.00000000000E+00  0.20638216303E+03  0.20638216303E+03  0.00000000000E+00 0. -1.
         21   -1    0    0  501  502 -0.00000000000E+00 -0.00000000000E+00 -0.70444149012E+03  0.70444149012E+03  0.00000000000E+00 0. -1.
         25    1    1    2    0    0  0.25471748008E+02  0.14359164322E+03 -0.64243857700E+03  0.67053687084E+03  0.12500000000E+03 0.  0.
         25    1    1    2    0    0 -0.25471748008E+02 -0.14359164322E+03  0.14437924990E+03  0.24028678230E+03  0.12500000000E+03 0.  0.
</event>
<event>
 4    0  0.2188063E-002  0.2117638E+03  0.7546771E-02  0.1140177E+00
         21   -1    0    0  502  501  0.00000000000E+00  0.00000000000E+00  0.65839550909E+02  0.65839550909E+02  0.00000000000E+00 0.  1.
         21   -1    0    0  501  502 -0.00000000000E+00 -0.00000000000E+00 -0.68110867270E+03  0.68110867270E+03  0.00000000000E+00 0.  1.
         25    1    1    2    0    0  0.13754163622E+02 -0.17033690183E+03 -0.31447691947E+03  0.37911023465E+03  0.12500000000E+03 0.  0.
         25    1    1    2    0    0 -0.13754163622E+02  0.17033690183E+03 -0.30079220232E+03  0.36783798896E+03  0.12500000000E+03 0.  0.
</event>
<event>
 4    0  0.2188063E-002  0.1842938E+03  0.7546771E-02  0.1163711E+00
         21   -1    0    0  502  501  0.00000000000E+00  0.00000000000E+00  0.71269658193E+03  0.71269658193E+03  0.00000000000E+00 0. -1.
         21   -1    0    0  501  502 -0.00000000000E+00 -0.00000000000E+00 -0.47655886150E+02  0.47655886150E+02  0.00000000000E+00 0. -1.
         25    1    1    2    0    0  0.23495584985E+02 -0.45800685001E+02  0.59091177425E+03  0.60617775463E+03  0.12500000000E+03 0.  0.
         25    1    1    2    0    0 -0.23495584985E+02  0.45800685001E+02  0.74128921529E+02  0.15417471345E+03  0.12500000000E+03 0.  0.
</event>
<event>
 4    0  0.2188063E-002  0.2252508E+03  0.7546771E-02  0.1130028E+00
         21   -1    0    0  502  501  0.00000000000E+00  0.00000000000E+00  0.60402973304E+03  0.60402973304E+03  0.00000000000E+00 0. -1.
         21   -1    0    0  501  502 -0.00000000000E+00 -0.00000000000E+00 -0.83999069454E+02  0.83999069454E+02  0.00000000000E+00 0. -1.
         25    1    1    2    0    0 -0.76897344838E+02  0.24449246160E+02  0.17249778622E+01  0.14879160873E+03  0.12500000000E+03 0.  0.
         25    1    1    2    0    0  0.76897344838E+02 -0.24449246160E+02  0.51830568572E+03  0.53923719376E+03  0.12500000000E+03 0.  0.
</event>
<event>
 4    0  0.2188063E-002  0.2642460E+03  0.7546771E-02  0.1104619E+00
         21   -1    0    0  502  501  0.00000000000E+00  0.00000000000E+00  0.54990796434E+03  0.54990796434E+03  0.00000000000E+00 0.  1.
         21   -1    0    0  501  502 -0.00000000000E+00 -0.00000000000E+00 -0.12697752398E+03  0.12697752398E+03  0.00000000000E+00 0.  1.
         25    1    1    2    0    0  0.47682334918E+02  0.39229945221E+01 -0.80351704009E+02  0.15611018957E+03  0.12500000000E+03 0.  0.
         25    1    1    2    0    0 -0.47682334918E+02 -0.39229945221E+01  0.50328214437E+03  0.52077529876E+03  0.12500000000E+03 0.  0.
</event>
<event>
 4    0  0.2188063E-002  0.2198623E+03  0.7546771E-02  0.1133986E+00
         21   -1    0    0  502  501  0.00000000000E+00  0.00000000000E+00  0.64821785268E+02  0.64821785268E+02  0.00000000000E+00 0.  1.
         21   -1    0    0  501  502 -0.00000000000E+00 -0.00000000000E+00 -0.74572801835E+03  0.74572801835E+03  0.00000000000E+00 0. -1.
         25    1    1    2    0    0 -0.96631615507E+02 -0.14394808020E+03 -0.24546075126E+03  0.32547611174E+03  0.12500000000E+03 0.  0.
         25    1    1    2    0    0  0.96631615507E+02  0.14394808020E+03 -0.43544548183E+03  0.48507369188E+03  0.12500000000E+03 0.  0.
</event>
<event>
 4    0  0.2188063E-002  0.4492013E+03  0.7546771E-02  0.1027960E+00
         21   -1    0    0  502  501  0.00000000000E+00  0.00000000000E+00  0.16520571485E+03  0.16520571485E+03  0.00000000000E+00 0. -1.
         21   -1    0    0  501  502 -0.00000000000E+00 -0.00000000000E+00 -0.12213972122E+04  0.12213972122E+04  0.00000000000E+00 0.  1.
         25    1    1    2    0    0  0.35129738586E+03  0.63944195753E+02 -0.15429078346E+03  0.40856989530E+03  0.12500000000E+03 0.  0.
         25    1    1    2    0    0 -0.35129738586E+03 -0.63944195753E+02 -0.90190071391E+03  0.97803303177E+03  0.12500000000E+03 0.  0.
</event>
<event>
 4    0  0.2188063E-002  0.2690822E+03  0.7546771E-02  0.1101806E+00
         21   -1    0    0  502  501  0.00000000000E+00  0.00000000000E+00  0.10190453791E+04  0.10190453791E+04  0.00000000000E+00 0. -1.
         21   -1    0    0  501  502 -0.00000000000E+00 -0.00000000000E+00 -0.71052026917E+02  0.71052026917E+02  0.00000000000E+00 0. -1.
         25    1    1    2    0    0  0.96076493724E+02  0.79654892766E+02  0.62824799797E+02  0.18747679872E+03  0.12500000000E+03 0.  0.
         25    1    1    2    0    0 -0.96076493724E+02 -0.79654892766E+02  0.88516855234E+03  0.90262060725E+03  0.12500000000E+03 0.  0.
</event>
<event>
 4    0  0.2188063E-002  0.3383816E+03  0.7546771E-02  0.1067487E+00
         21   -1    0    0  502  501  0.00000000000E+00  0.00000000000E+00  0.22718609718E+03  0.22718609718E+03  0.00000000000E+00 0.  1.
         21   -1    0    0  501  502 -0.00000000000E+00 -0.00000000000E+00 -0.50400146679E+03  0.50400146679E+03  0.00000000000E+00 0. -1.
         25    1    1    2    0    0  0.98469391426E+02 -0.25811376228E+03 -0.30067989772E+03  0.42702732491E+03  0.12500000000E+03 0.  0.
         25    1    1    2    0    0 -0.98469391426E+02  0.25811376228E+03  0.23864528114E+02  0.30416023907E+03  0.12500000000E+03 0.  0.
</event>
<event>
 4    0  0.2188063E-002  0.2151068E+03  0.7546771E-02  0.1137585E+00
         21   -1    0    0  502  501  0.00000000000E+00  0.00000000000E+00  0.96559373134E+02  0.96559373134E+02  0.00000000000E+00 0.  1.
         21   -1    0    0  501  502 -0.00000000000E+00 -0.00000000000E+00 -0.47919673150E+03  0.47919673150E+03  0.00000000000E+00 0.  1.
         25    1    1    2    0    0 -0.93921164212E+02  0.78290896459E+02 -0.23654982853E+02  0.17645171512E+03  0.12500000000E+03 0.  0.
         25    1    1    2    0    0  0.93921164212E+02 -0.78290896459E+02 -0.35898237552E+03  0.39930438952E+03  0.12500000000E+03 0.  0.
</event>
<event>
 4    0  0.2188063E-002  0.2656508E+03  0.7546771E-02  0.1103795E+00
         21   -1    0    0  502  501  0.00000000000E+00  0.00000000000E+00  0.24365990966E+04  0.24365990966E+04  0.00000000000E+00 0. -1.
         21   -1    0    0  501  502 -0.00000000000E+00 -0.00000000000E+00 -0.28962640401E+02  0.28962640401E+02  0.00000000000E+00 0. -1.
         25    1    1    2    0    0  0.77634954916E+02  0.19071027031E+03  0.17236438708E+04  0.17403938597E+04  0.12500000000E+03 0.  0.
         25    1    1    2    0    0 -0.77634954916E+02 -0.19071027031E+03  0.68399258533E+03  0.72516787726E+03  0.12500000000E+03 0.  0.
</event>
<event>
 4    0  0.2188063E-002  0.5574911E+03  0.7546771E-02  0.9997747E-01
         21   -1    0    0  502  501  0.00000000000E+00  0.00000000000E+00  0.19759276594E+04  0.19759276594E+04  0.00000000000E+00 0.  1.
         21   -1    0    0  501  502 -0.00000000000E+00 -0.00000000000E+00 -0.15729136812E+03  0.15729136812E+03  0.00000000000E+00 0.  1.
         25    1    1    2    0    0 -0.18717398208E+03  0.49229767412E+03  0.11644335052E+04  0.12841033789E+04  0.12500000000E+03 0.  0.
         25    1    1    2    0    0  0.18717398208E+03 -0.49229767412E+03  0.65420278607E+03  0.84911564867E+03  0.12500000000E+03 0.  0.
</event>
<event>
 4    0  0.2188063E-002  0.2205541E+03  0.7546771E-02  0.1133471E+00
         21   -1    0    0  502  501  0.00000000000E+00  0.00000000000E+00  0.28018045084E+03  0.28018045084E+03  0.00000000000E+00 0.  1.
         21   -1    0    0  501  502 -0.00000000000E+00 -0.00000000000E+00 -0.17361715443E+03  0.17361715443E+03  0.00000000000E+00 0.  1.
         25    1    1    2    0    0 -0.12553915914E+03  0.41346752021E+02 -0.75003140060E+02  0.19677424984E+03  0.12500000000E+03 0.  0.
         25    1    1    2    0    0  0.12553915914E+03 -0.41346752021E+02  0.18156643647E+03  0.25702335543E+03  0.12500000000E+03 0.  0.
</event>
<event>
 4    0  0.2188063E-002  0.2553630E+03  0.7546771E-02  0.1109962E+00
         21   -1    0    0  502  501  0.00000000000E+00  0.00000000000E+00  0.17000906774E+04  0.17000906774E+04  0.00000000000E+00 0. -1.
         21   -1    0    0  501  502 -0.00000000000E+00 -0.00000000000E+00 -0.38356934612E+02  0.38356934612E+02  0.00000000000E+00 0. -1.
         25    1    1    2    0    0 -0.83944588579E+02 -0.11633579072E+03  0.25116228028E+03  0.31510030338E+03  0.12500000000E+03 0.  0.
         25    1    1    2    0    0  0.83944588579E+02  0.11633579072E+03  0.14105714625E+04  0.14233473086E+04  0.12500000000E+03 0.  0.
</event>
<event>
 4    0  0.2188063E-002  0.2250225E+03  0.7546771E-02  0.1130193E+00
         21   -1    0    0  502  501  0.00000000000E+00  0.00000000000E+00  0.11091895581E+03  0.11091895581E+03  0.00000000000E+00 0.  1.
         21   -1    0    0  501  502 -0.00000000000E+00 -0.00000000000E+00 -0.45650573592E+03  0.45650573592E+03  0.00000000000E+00 0. -1.
         25    1    1    2    0    0  0.18151173316E+03  0.24958782340E+01 -0.11560449726E+03  0.24888177609E+03  0.12500000000E+03 0.  0.
         25    1    1    2    0    0 -0.18151173316E+03 -0.24958782340E+01 -0.22998228284E+03  0.31854291564E+03  0.12500000000E+03 0.  0.
</event>
<event>
 4    0  0.2188063E-002  0.1760274E+03  0.7546771E-02  0.1171704E+00
         21   -1    0    0  502  501  0.00000000000E+00  0.00000000000E+00  0.11949623398E+03  0.11949623398E+03  0.00000000000E+00 0. -1.
         21   -1    0    0  501  502 -0.00000000000E+00 -0.00000000000E+00 -0.25930214231E+03  0.25930214231E+03  0.00000000000E+00 0. -1.
         25    1    1    2    0    0  0.59094110169E+02  0.14440935850E+02  0.46281162603E+02  0.14651825994E+03  0.12500000000E+03 0.  0.
         25    1    1    2    0    0 -0.59094110169E+02 -0.14440935850E+02 -0.18608707092E+03  0.23228011635E+03  0.12500000000E+03 0.  0.
</event>
<event>
 4    0  0.2188063E-002  0.1858130E+03  0.7546771E-02  0.1162293E+00
         21   -1    0    0  502  501  0.00000000000E+00  0.00000000000E+00  0.61420840351E+02  0.61420840351E+02  0.00000000000E+00 0.  1.
         21   -1    0    0  501  502 -0.00000000000E+00 -0.00000000000E+00 -0.56212939807E+03  0.56212939807E+03  0.00000000000E+00 0.  1.
         25    1    1    2    0    0 -0.12547431706E+03 -0.33925271001E+02 -0.17519024319E+03  0.25141867385E+03  0.12500000000E+03 0.  0.
         25    1    1    2    0    0  0.12547431706E+03  0.33925271001E+02 -0.32551831453E+03  0.37213156457E+03  0.12500000000E+03 0.  0.
</event>
<event>
 4    0  0.2188063E-002  0.2411789E+03  0.7546771E-02  0.1119010E+00
         21   -1    0    0  502  501  0.00000000000E+00  0.00000000000E+00  0.50091181076E+03  0.50091181076E+03  0.00000000000E+00 0.  1.
         21   -1    0    0  501  502 -0.00000000000E+00 -0.00000000000E+00 -0.11612272825E+03  0.11612272825E+03  0.00000000000E+00 0.  1.
         25    1    1    2    0    0  0.19793800096E+03 -0.25182081163E+02  0.12557327939E+03  0.26684684359E+03  0.12500000000E+03 0.  0.
         25    1    1    2    0    0 -0.19793800096E+03  0.25182081163E+02  0.25921580312E+03  0.35018769542E+03  0.12500000000E+03 0.  0.
</event>
<event>
 4    0  0.2188063E-002  0.2195947E+03  0.7546771E-02  0.1134186E+00
         21   -1    0    0  502  501  0.00000000000E+00  0.00000000000E+00  0.28010327688E+03  0.28010327688E+03  0.00000000000E+00 0.  1.
         21   -1    0    0  501  502 -0.00000000000E+00 -0.00000000000E+00 -0.17215740136E+03  0.17215740136E+03  0.00000000000E+00 0.  1.
         25    1    1    2    0    0 -0.23171619403E+01 -0.11374285557E+03 -0.90392380339E+02  0.19167313024E+03  0.12500000000E+03 0.  0.
         25    1    1    2    0    0  0.23171619403E+01  0.11374285557E+03  0.19833825586E+03  0.26058754799E+03  0.12500000000E+03 0.  0.
</event>
<event>
 4    0  0.2188063E-002  0.1960981E+03  0.7546771E-02  0.1153073E+00
         21   -1    0    0  502  501  0.00000000000E+00  0.00000000000E+00  0.15987353862E+03  0.15987353862E+03  0.00000000000E+00 0. -1.
         21   -1    0    0  501  502 -0.00000000000E+00 -0.00000000000E+00 -0.24053047822E+03  0.24053047822E+03  0.00000000000E+00 0. -1.
         25    1    1    2    0    0  0.10512564750E+03  0.61018241758E+02 -0.13195543409E+03  0.21865924215E+03  0.12500000000E+03 0.  0.
         25    1    1    2    0    0 -0.10512564750E+03 -0.61018241758E+02  0.51298494494E+02  0.18174477469E+03  0.12500000000E+03 0.  0.
</event>
<event>
 4    0  0.2188063E-002  0.1731133E+03  0.7546771E-02  0.1174640E+00
         21   -1    0    0  502  501  0.00000000000E+00  0.00000000000E+00  0.51754146131E+02  0.51754146131E+02  0.00000000000E+00 0.  1.
         21   -1    0    0  501  502 -0.00000000000E+00 -0.00000000000E+00 -0.57904950887E+03  0.57904950887E+03  0.00000000000E+00 0.  1.
         25    1    1    2    0    0 -0.56826161499E+02 -0.10542248504E+03 -0.26422358644E+03  0.31588323256E+03  0.12500000000E+03 0.  0.
         25    1    1    2    0    0  0.56826161499E+02  0.10542248504E+03 -0.26307177630E+03  0.31492042244E+03  0.12500000000E+03 0.  0.
</event>
<event>
 4    0  0.2188063E-002  0.2366817E+03  0.7546771E-02  0.1122023E+00
         21   -1    0    0  502  501  0.00000000000E+00  0.00000000000E+00  0.82085178661E+03  0.82085178661E+03  0.00000000000E+00 0. -1.
         21   -1    0    0  501  502 -0.00000000000E+00 -0.00000000000E+00 -0.68244015790E+02  0.68244015790E+02  0.00000000000E+00 0. -1.
         25    1    1    2    0    0  0.14548875992E+03 -0.11426070100E+03  0.22875961162E+03  0.31965363593E+03  0.12500000000E+03 0.  0.
         25    1    1    2    0    0 -0.14548875992E+03  0.11426070100E+03  0.52384815920E+03  0.56944216647E+03  0.12500000000E+03 0.  0.
</event>
<event>
 4    0  0.2188063E-002  0.4097445E+03  0.7546771E-02  0.1040457E+00
         21   -1    0    0  502  501  0.00000000000E+00  0.00000000000E+00  0.37898368978E+03  0.37898368978E+03  0.00000000000E+00 0. -1.
         21   -1    0    0  501  502 -0.00000000000E+00 -0.00000000000E+00 -0.44300204777E+03  0.44300204777E+03  0.00000000000E+00 0.  1.
         25    1    1    2    0    0  0.87263551285E+01  0.35292660649E+03  0.13472666961E+03  0.39800705314E+03  0.12500000000E+03 0.  0.
         25    1    1    2    0    0 -0.87263551285E+01 -0.35292660649E+03 -0.19874502760E+03  0.42397868441E+03  0.12500000000E+03 0.  0.
</event>
<event>
 4    0  0.2188063E-002  0.2428005E+03  0.7546771E-02  0.1117941E+00
         21   -1    0    0  502  501  0.00000000000E+00  0.00000000000E+00  0.17228804503E+03  0.17228804503E+03  0.00000000000E+00 0. -1.
         21   -1    0    0  501  502 -0.00000000000E+00 -0.00000000000E+00 -0.34217150932E+03  0.34217150932E+03  0.00000000000E+00 0. -1.
         25    1    1    2    0    0  0.11777759508E+03  0.14277767460E+03 -0.18583825699E+03  0.29054755897E+03  0.12500000000E+03 0.  0.
         25    1    1    2    0    0 -0.11777759508E+03 -0.14277767460E+03  0.15954792691E+02  0.22391199538E+03  0.12500000000E+03 0.  0.
</event>
<event>
 4    0  0.2188063E-002  0.2725103E+03  0.7546771E-02  0.1099851E+00
         21   -1    0    0  502  501  0.00000000000E+00  0.00000000000E+00  0.21181587184E+04  0.21181587184E+04  0.00000000000E+00 0.  1.
         21   -1    0    0  501  502 -0.00000000000E+00 -0.00000000000E+00 -0.35059624625E+02  0.35059624625E+02  0.00000000000E+00 0.  1.
         25    1    1    2    0    0  0.48574355398E+02  0.23683477406E+03  0.10955272043E+04  0.11288290542E+04  0.12500000000E+03 0.  0.
         25    1    1    2    0    0 -0.48574355398E+02 -0.23683477406E+03  0.98757188943E+03  0.10243892888E+04  0.12500000000E+03 0.  0.
</event>
<event>
 4    0  0.2188063E-002  0.1561821E+03  0.7546771E-02  0.1193076E+00
         21   -1    0    0  502  501  0.00000000000E+00  0.00000000000E+00  0.48406770903E+03  0.48406770903E+03  0.00000000000E+00 0. -1.
         21   -1    0    0  501  502 -0.00000000000E+00 -0.00000000000E+00 -0.50391414880E+02  0.50391414880E+02  0.00000000000E+00 0. -1.
         25    1    1    2    0    0 -0.84303646565E+02  0.28559485598E+02  0.26657853866E+03  0.30759041974E+03  0.12500000000E+03 0.  0.
         25    1    1    2    0    0  0.84303646565E+02 -0.28559485598E+02  0.16709775549E+03  0.22686870417E+03  0.12500000000E+03 0.  0.
</event>
<event>
 4    0  0.2188063E-002  0.2787637E+03  0.7546771E-02  0.1096366E+00
         21   -1    0    0  502  501  0.00000000000E+00  0.00000000000E+00  0.17457852192E+04  0.17457852192E+04  0.00000000000E+00 0. -1.
         21   -1    0    0  501  502 -0.00000000000E+00 -0.00000000000E+00 -0.44512472983E+02  0.44512472983E+02  0.00000000000E+00 0. -1.
         25    1    1    2    0    0 -0.11500027021E+03 -0.22094921522E+03  0.87109703072E+03  0.91459207015E+03  0.12500000000E+03 0.  0.
         25    1    1    2    0    0  0.11500027021E+03  0.22094921522E+03  0.83017571548E+03  0.87570562201E+03  0.12500000000E+03 0.  0.
</event>
<event>
 4    0  0.2188063E-002  0.1924457E+03  0.7546771E-02  0.1156274E+00
         21   -1    0    0  502  501  0.00000000000E+00  0.00000000000E+00  0.23778953431E+04  0.23778953431E+04  0.00000000000E+00 0.  1.
         21   -1    0    0  501  502 -0.00000000000E+00 -0.00000000000E+00 -0.15574848725E+02  0.15574848725E+02  0.00000000000E+00 0.  1.
         25    1    1    2    0    0  0.52625708990E+02 -0.12043837191E+03  0.78125839458E+03  0.80203774586E+03  0.12500000000E+03 0.  0.
         25    1    1    2    0    0 -0.52625708990E+02  0.12043837191E+03  0.15810620998E+04  0.15914324460E+04  0.12500000000E+03 0.  0.
</event>
<event>
 4    0  0.2188063E-002  0.2160072E+03  0.7546771E-02  0.1136895E+00
         21   -1    0    0  502  501  0.00000000000E+00  0.00000000000E+00  0.11664498930E+03  0.11664498930E+03  0.00000000000E+00 0.  1.
         21   -1    0    0  501  502 -0.00000000000E+00 -0.00000000000E+00 -0.40000955678E+03  0.40000955678E+03  0.00000000000E+00 0.  1.
         25    1    1    2    0    0  0.97754195346E+02 -0.42996516306E+02  0.25872546933E+02  0.16643008084E+03  0.12500000000E+03 0.  0.
         25    1    1    2    0    0 -0.97754195346E+02  0.42996516306E+02 -0.30923711442E+03  0.35022446525E+03  0.12500000000E+03 0.  0.
</event>
<event>
 4    0  0.2188063E-002  0.1760184E+03  0.7546771E-02  0.1171713E+00
         21   -1    0    0  502  501  0.00000000000E+00  0.00000000000E+00  0.10991081060E+03  0.10991081060E+03  0.00000000000E+00 0. -1.
         21   -1    0    0  501  502 -0.00000000000E+00 -0.00000000000E+00 -0.28188734474E+03  0.28188734474E+03  0.00000000000E+00 0. -1.
         25    1    1    2    0    0  0.71215037862E+02 -0.49007509918E+02  0.12833315748E+02  0.15252216770E+03  0.12500000000E+03 0.  0.
         25    1    1    2    0    0 -0.71215037862E+02  0.49007509918E+02 -0.18480984989E+03  0.23927598765E+03  0.12500000000E+03 0.  0.
</event>
<event>
 4    0  0.2188063E-002  0.2239591E+03  0.7546771E-02  0.1130965E+00
         21   -1    0    0  502  501  0.00000000000E+00  0.00000000000E+00  0.69662801564E+02  0.69662801564E+02  0.00000000000E+00 0. -1.
         21   -1    0    0  501  502 -0.00000000000E+00 -0.00000000000E+00 -0.72000649563E+03  0.72000649563E+03  0.00000000000E+00 0. -1.
         25    1    1    2    0    0  0.21022926040E+02  0.11489069296E+03 -0.70357146093E+02  0.18497827644E+03  0.12500000000E+03 0.  0.
         25    1    1    2    0    0 -0.21022926040E+02 -0.11489069296E+03 -0.57998654798E+03  0.60469102076E+03  0.12500000000E+03 0.  0.
</event>
<event>
 4    0  0.2188063E-002  0.1625280E+03  0.7546771E-02  0.1185872E+00
         21   -1    0    0  502  501  0.00000000000E+00  0.00000000000E+00  0.54987412031E+02  0.54987412031E+02  0.00000000000E+00 0. -1.
         21   -1    0    0  501  502 -0.00000000000E+00 -0.00000000000E+00 -0.48038891533E+03  0.48038891533E+03  0.00000000000E+00 0. -1.
         25    1    1    2    0    0  0.36064244918E+02  0.90824352942E+02 -0.27071380779E+03  0.31378441417E+03  0.12500000000E+03 0.  0.
         25    1    1    2    0    0 -0.36064244918E+02 -0.90824352942E+02 -0.15468769551E+03  0.22159191319E+03  0.12500000000E+03 0.  0.
</event>
<event>
 4    0  0.2188063E-002  0.1923713E+03  0.7546771E-02  0.1156340E+00
         21   -1    0    0  502  501  0.00000000000E+00  0.00000000000E+00  0.54984492315E+03  0.54984492315E+03  0.00000000000E+00 0.  1.
         21   -1    0    0  501  502 -0.00000000000E+00 -0.00000000000E+00 -0.67303941382E+02  0.67303941382E+02  0.00000000000E+00 0.  1.
         25    1    1    2    0    0 -0.81607554592E+02 -0.10984588361E+03  0.15860602832E+03  0.24394012243E+03  0.12500000000E+03 0.  0.
         25    1    1    2    0    0  0.81607554592E+02  0.10984588361E+03  0.32393495345E+03  0.37320874210E+03  0.12500000000E+03 0.  0.
</event>
<event>
 4    0  0.2188063E-002  0.1643075E+03  0.7546771E-02  0.1183918E+00
         21   -1    0    0  502  501  0.00000000000E+00  0.00000000000E+00  0.31308869635E+02  0.31308869635E+02  0.00000000000E+00 0.  1.
         21   -1    0    0  501  502 -0.00000000000E+00 -0.00000000000E+00 -0.86227846722E+03  0.86227846722E+03  0.00000000000E+00 0.  1.
         25    1    1    2    0    0  0.62663958215E+02 -0.43976281312E+02 -0.61735664251E+03  0.63451943157E+03  0.12500000000E+03 0.  0.
         25    1    1    2    0    0 -0.62663958215E+02  0.43976281312E+02 -0.21361295507E+03  0.25906790529E+03  0.12500000000E+03 0.  0.
</event>
<event>
 4    0  0.2188063E-002  0.3811669E+03  0.7546771E-02  0.1050503E+00
         21   -1    0    0  502  501  0.00000000000E+00  0.00000000000E+00  0.22970374551E+03  0.22970374551E+03  0.00000000000E+00 0. -1.
         21   -1    0    0  501  502 -0.00000000000E+00 -0.00000000000E+00 -0.63250244160E+03  0.63250244160E+03  0.00000000000E+00 0. -1.
         25    1    1    2    0    0 -0.12074120206E+03 -0.30135009386E+03 -0.37760770412E+03  0.51342272560E+03  0.12500000000E+03 0.  0.
         25    1    1    2    0    0  0.12074120206E+03  0.30135009386E+03 -0.25190991968E+02  0.34878346151E+03  0.12500000000E+03 0.  0.
</event>
<event>
 4    0  0.2188063E-002  0.2682691E+03  0.7546771E-02  0.1102274E+00
         21   -1    0    0  502  501  0.00000000000E+00  0.00000000000E+00  0.33006040296E+02  0.33006040296E+02  0.00000000000E+00 0. -1.
         21   -1    0    0  501  502 -0.00000000000E+00 -0.00000000000E+00 -0.21804581113E+04  0.21804581113E+04  0.00000000000E+00 0.  1.
         25    1    1    2    0    0 -0.16933099048E+03  0.92653995399E+02 -0.16436594880E+04  0.16596684186E+04  0.12500000000E+03 0.  0.
         25    1    1    2    0    0  0.16933099048E+03 -0.92653995399E+02 -0.50379258306E+03  0.55379573305E+03  0.12500000000E+03 0.  0.
</event>
<event>
 4    0  0.2188063E-002  0.1894283E+03  0.7546771E-02  0.1158978E+00
         21   -1    0    0  502  501  0.00000000000E+00  0.00000000000E+00  0.26125916579E+03  0.26125916579E+03  0.00000000000E+00 0.  1.
         21   -1    0    0  501  502 -0.00000000000E+00 -0.00000000000E+00 -0.13734669717E+03  0.13734669717E+03  0.00000000000E+00 0.  1.
         25    1    1    2    0    0  0.22773889543E+02  0.67398771759E+02 -0.67745397625E+02  0.15898328019E+03  0.12500000000E+03 0.  0.
         25    1    1    2    0    0 -0.22773889543E+02 -0.67398771759E+02  0.19165786624E+03  0.23962258277E+03  0.12500000000E+03 0.  0.
</event>
<event>
 4    0  0.2188063E-002  0.1499430E+03  0.7546771E-02  0.1200543E+00
         21   -1    0    0  502  501  0.00000000000E+00  0.00000000000E+00  0.65009623572E+03  0.65009623572E+03  0.00000000000E+00 0. -1.
         21   -1    0    0  501  502 -0.00000000000E+00 -0.00000000000E+00 -0.34583979185E+02  0.34583979185E+02  0.00000000000E+00 0. -1.
         25    1    1    2    0    0  0.55616283143E+02  0.37120218754E+02  0.19621308181E+03  0.24206539419E+03  0.12500000000E+03 0.  0.
         25    1    1    2    0    0 -0.55616283143E+02 -0.37120218754E+02  0.41929917472E+03  0.44261482071E+03  0.12500000000E+03 0.  0.
</event>
<event>
 4    0  0.2188063E-002  0.1919902E+03  0.7546771E-02  0.1156678E+00
         21   -1    0    0  502  501  0.00000000000E+00  0.00000000000E+00  0.12449835177E+04  0.12449835177E+04  0.00000000000E+00 0. -1.
         21   -1    0    0  501  502 -0.00000000000E+00 -0.00000000000E+00 -0.29607007190E+02  0.29607007190E+02  0.00000000000E+00 0. -1.
         25    1    1    2    0    0 -0.11230956258E+03  0.57435755537E+02  0.84986759871E+03  0.86822361129E+03  0.12500000000E+03 0.  0.
         25    1    1    2    0    0  0.11230956258E+03 -0.57435755537E+02  0.36550891177E+03  0.40636691357E+03  0.12500000000E+03 0.  0.
</event>
<event>
 4    0  0.2188063E-002  0.1925909E+03  0.7546771E-02  0.1156145E+00
         21   -1    0    0  502  501  0.00000000000E+00  0.00000000000E+00  0.11703677917E+04  0.11703677917E+04  0.00000000000E+00 0.  1.
         21   -1    0    0  501  502 -0.00000000000E+00 -0.00000000000E+00 -0.31691948463E+02  0.31691948463E+02  0.00000000000E+00 0.  1.
         25    1    1    2    0    0  0.52279362118E+02  0.12802873260E+03  0.41831931720E+03  0.45797438707E+03  0.12500000000E+03 0.  0.
         25    1    1    2    0    0 -0.52279362118E+02 -0.12802873260E+03  0.72035652600E+03  0.74408535305E+03  0.12500000000E+03 0.  0.
</event>
<event>
 4    0  0.2188063E-002  0.1724503E+03  0.7546771E-02  0.1175316E+00
         21   -1    0    0  502  501  0.00000000000E+00  0.00000000000E+00  0.42369215576E+03  0.42369215576E+03  0.00000000000E+00 0.  1.
         21   -1    0    0  501  502 -0.00000000000E+00 -0.00000000000E+00 -0.70190335198E+02  0.70190335198E+02  0.00000000000E+00 0.  1.
         25    1    1    2    0    0 -0.59404753225E+02 -0.96631800796E+02  0.12617497594E+03  0.21074096465E+03  0.12500000000E+03 0.  0.
         25    1    1    2    0    0  0.59404753225E+02  0.96631800796E+02  0.22732684463E+03  0.28314152631E+03  0.12500000000E+03 0.  0.
</event>
<event>
 4    0  0.2188063E-002  0.2332503E+03  0.7546771E-02  0.1124373E+00
         21   -1    0    0  502  501  0.00000000000E+00  0.00000000000E+00  0.55800063479E+03  0.55800063479E+03  0.00000000000E+00 0. -1.
         21   -1    0    0  501  502 -0.00000000000E+00 -0.00000000000E+00 -0.97501139573E+02  0.97501139573E+02  0.00000000000E+00 0. -1.
         25    1    1    2    0    0 -0.10970389569E+03  0.14959842016E+03  0.32309652156E+03  0.39297709131E+03  0.12500000000E+03 0.  0.
         25    1    1    2    0    0  0.10970389569E+03 -0.14959842016E+03  0.13740297366E+03  0.26252468306E+03  0.12500000000E+03 0.  0.
</event>
<event>
 4    0  0.2188063E-002  0.2594280E+03  0.7546771E-02  0.1107487E+00
         21   -1    0    0  502  501  0.00000000000E+00  0.00000000000E+00  0.20511055510E+03  0.20511055510E+03  0.00000000000E+00 0. -1.
         21   -1    0    0  501  502 -0.00000000000E+00 -0.00000000000E+00 -0.32812984296E+03  0.32812984296E+03  0.00000000000E+00 0. -1.
         25    1    1    2    0    0  0.20472716500E+03  0.82148374628E+02 -0.11795332985E+03  0.27964183443E+03  0.12500000000E+03 0.  0.
         25    1    1    2    0    0 -0.20472716500E+03 -0.82148374628E+02 -0.50659580082E+01  0.25359856363E+03  0.12500000000E+03 0.  0.
</event>
<event>
 4    0  0.2188063E-002  0.1814924E+03  0.7546771E-02  0.1166366E+00
         21   -1    0    0  502  501  0.00000000000E+00  0.00000000000E+00  0.30159087194E+03  0.30159087194E+03  0.00000000000E+00 0.  1.
         21   -1    0    0  501  502 -0.00000000000E+00 -0.00000000000E+00 -0.10921911255E+03  0.10921911255E+03  0.00000000000E+00 0.  1.
         25    1    1    2    0    0  0.44173829960E+02  0.21814813812E+02 -0.41903464714E+02  0.14074130065E+03  0.12500000000E+03 0.  0.
         25    1    1    2    0    0 -0.44173829960E+02 -0.21814813812E+02  0.23427522411E+03  0.27006868383E+03  0.12500000000E+03 0.  0.
</event>
<event>
 4    0  0.2188063E-002  0.2250837E+03  0.7546771E-02  0.1130149E+00
         21   -1    0    0  502  501  0.00000000000E+00  0.00000000000E+00  0.72305862704E+03  0.72305862704E+03  0.00000000000E+00 0.  1.
         21   -1    0    0  501  502 -0.00000000000E+00 -0.00000000000E+00 -0.70067188804E+02  0.70067188804E+02  0.00000000000E+00 0.  1.
         25    1    1    2    0    0  0.89129459120E+02 -0.12515018197E+03  0.13812596138E+03  0.24147548476E+03  0.12500000000E+03 0.  0.
         25    1    1    2    0    0 -0.89129459120E+02  0.12515018197E+03  0.51486547686E+03  0.55165033109E+03  0.12500000000E+03 0.  0.
</event>
<event>
 4    0  0.2188063E-002  0.2204972E+03  0.7546771E-02  0.1133513E+00
         21   -1    0    0  502  501  0.00000000000E+00  0.00000000000E+00  0.19541647991E+03  0.19541647991E+03  0.00000000000E+00 0.  1.
         21   -1    0    0  501  502 -0.00000000000E+00 -0.00000000000E+00 -0.24879692857E+03  0.24879692857E+03  0.00000000000E+00 0.  1.
         25    1    1    2    0    0  0.19740233279E+02 -0.17430482637E+03 -0.74174221978E+02  0.22781278391E+03  0.12500000000E+03 0.  0.
         25    1    1    2    0    0 -0.19740233279E+02  0.17430482637E+03  0.20793773316E+02  0.21640062457E+03  0.12500000000E+03 0.  0.
</event>
<event>
 4    0  0.2188063E-002  0.2893884E+03  0.7546771E-02  0.1090669E+00
         21   -1    0    0  502  501  0.00000000000E+00  0.00000000000E+00  0.46658142420E+02  0.46658142420E+02  0.00000000000E+00 0.  1.
         21   -1    0    0  501  502 -0.00000000000E+00 -0.00000000000E+00 -0.17948776740E+04  0.17948776740E+04  0.00000000000E+00 0.  1.
         25    1    1    2    0    0 -0.19331664847E+03  0.14855655501E+03 -0.11705491687E+04  0.12021858147E+04  0.12500000000E+03 0.  0.
         25    1    1    2    0    0  0.19331664847E+03 -0.14855655501E+03 -0.57767036289E+03  0.63935000178E+03  0.12500000000E+03 0.  0.
</event>
<event>
 4    0  0.2188063E-002  0.2332680E+03  0.7546771E-02  0.1124361E+00
         21   -1    0    0  502  501  0.00000000000E+00  0.00000000000E+00  0.65146864525E+02  0.65146864525E+02  0.00000000000E+00 0. -1.
         21   -1    0    0  501  502 -0.00000000000E+00 -0.00000000000E+00 -0.83525035427E+03  0.83525035427E+03  0.00000000000E+00 0. -1.
         25    1    1    2    0    0  0.62367354683E+01  0.11213578696E+03 -0.69729816088E+03  0.71726080107E+03  0.12500000000E+03 0.  0.
         25    1    1    2    0    0 -0.62367354683E+01 -0.11213578696E+03 -0.72805328868E+02  0.18313641773E+03  0.12500000000E+03 0.  0.
</event>
<event>
 4    0  0.2188063E-002  0.2251144E+03  0.7546771E-02  0.1130127E+00
         21   -1    0    0  502  501  0.00000000000E+00  0.00000000000E+00  0.15555057844E+04  0.15555057844E+04  0.00000000000E+00 0. -1.
         21   -1    0    0  501  502 -0.00000000000E+00 -0.00000000000E+00 -0.32578775505E+02  0.32578775505E+02  0.00000000000E+00 0. -1.
         25    1    1    2    0    0 -0.13334269793E+03 -0.35341659103E+02  0.12079425124E+04  0.12222026924E+04  0.12500000000E+03 0.  0.
         25    1    1    2    0    0  0.13334269793E+03  0.35341659103E+02  0.31498449647E+03  0.36588186752E+03  0.12500000000E+03 0.  0.
</event>
<event>
 4    0  0.2188063E-002  0.3611581E+03  0.7546771E-02  0.1058126E+00
         21   -1    0    0  502  501  0.00000000000E+00  0.00000000000E+00  0.18812698590E+04  0.18812698590E+04  0.00000000000E+00 0.  1.
         21   -1    0    0  501  502 -0.00000000000E+00 -0.00000000000E+00 -0.69333582536E+02  0.69333582536E+02  0.00000000000E+00 0.  1.
         25    1    1    2    0    0 -0.31863833795E+03 -0.10463984246E+03  0.77560740540E+03  0.85420824999E+03  0.12500000000E+03 0.  0.
         25    1    1    2    0    0  0.31863833795E+03  0.10463984246E+03  0.10363288711E+04  0.10963951915E+04  0.12500000000E+03 0.  0.
</event>
<event>
 4    0  0.2188063E-002  0.1564135E+03  0.7546771E-02  0.1192806E+00
         21   -1    0    0  502  501  0.00000000000E+00  0.00000000000E+00  0.24106778713E+02  0.24106778713E+02  0.00000000000E+00 0. -1.
         21   -1    0    0  501  502 -0.00000000000E+00 -0.00000000000E+00 -0.10148674651E+04  0.10148674651E+04  0.00000000000E+00 0. -1.
         25    1    1    2    0    0 -0.76209357993E+02 -0.23741542790E+02 -0.33036245646E+03  0.36212688348E+03  0.12500000000E+03 0.  0.
         25    1    1    2    0    0  0.76209357993E+02  0.23741542790E+02 -0.66039822988E+03  0.67684736029E+03  0.12500000000E+03 0.  0.
</event>
<event>
 4    0  0.2188063E-002  0.2386183E+03  0.7546771E-02  0.1120717E+00
         21   -1    0    0  502  501  0.00000000000E+00  0.00000000000E+00  0.11674715373E+03  0.11674715373E+03  0.00000000000E+00 0.  1.
         21   -1    0    0  501  502 -0.00000000000E+00 -0.00000000000E+00 -0.48770964333E+03  0.48770964333E+03  0.00000000000E+00 0.  1.
         25    1    1    2    0    0 -0.22637962803E+02  0.75304114248E+02  0.51914960310E+02  0.15653545952E+03  0.12500000000E+03 0.  0.
         25    1    1    2    0    0  0.22637962803E+02 -0.75304114248E+02 -0.42287744991E+03  0.44792133754E+03  0.12500000000E+03 0.  0.
</event>
<event>
 4    0  0.2188063E-002  0.2170423E+03  0.7546771E-02  0.1136108E+00
         21   -1    0    0  502  501  0.00000000000E+00  0.00000000000E+00  0.36847442482E+03  0.36847442482E+03  0.00000000000E+00 0.  1.
         21   -1    0    0  501  502 -0.00000000000E+00 -0.00000000000E+00 -0.12784435661E+03  0.12784435661E+03  0.00000000000E+00 0. -1.
         25    1    1    2    0    0  0.10623795097E+03 -0.13938652529E+03  0.88644134599E+02  0.23280439914E+03  0.12500000000E+03 0.  0.
         25    1    1    2    0    0 -0.10623795097E+03  0.13938652529E+03  0.15198593361E+03  0.26351438229E+03  0.12500000000E+03 0.  0.
</event>
<event>
 4    0  0.2188063E-002  0.3182340E+03  0.7546771E-02  0.1076465E+00
         21   -1    0    0  502  501  0.00000000000E+00  0.00000000000E+00  0.42125051022E+02  0.42125051022E+02  0.00000000000E+00 0. -1.
         21   -1    0    0  501  502 -0.00000000000E+00 -0.00000000000E+00 -0.24041008853E+04  0.24041008853E+04  0.00000000000E+00 0. -1.
         25    1    1    2    0    0  0.29256611966E+03 -0.97876866978E+00 -0.11532777881E+04  0.11963571995E+04  0.12500000000E+03 0.  0.
         25    1    1    2    0    0 -0.29256611966E+03  0.97876866978E+00 -0.12086980462E+04  0.12498687368E+04  0.12500000000E+03 0.  0.
</event>
<event>
 4    0  0.2188063E-002  0.3628894E+03  0.7546771E-02  0.1057446E+00
         21   -1    0    0  502  501  0.00000000000E+00  0.00000000000E+00  0.28213213286E+03  0.28213213286E+03  0.00000000000E+00 0. -1.
         21   -1    0    0  501  502 -0.00000000000E+00 -0.00000000000E+00 -0.46676263910E+03  0.46676263910E+03  0.00000000000E+00 0. -1.
         25    1    1    2    0    0  0.30695698387E+03 -0.14699566416E+03 -0.76550435773E+02  0.37056077024E+03  0.12500000000E+03 0.  0.
         25    1    1    2    0    0 -0.30695698387E+03  0.14699566416E+03 -0.10808007046E+03  0.37833400172E+03  0.12500000000E+03 0.  0.
</event>
<event>
 4    0  0.2188063E-002  0.2152281E+03  0.7546771E-02  0.1137492E+00
         21   -1    0    0  502  501  0.00000000000E+00  0.00000000000E+00  0.10535386365E+03  0.10535386365E+03  0.00000000000E+00 0. -1.
         21   -1    0    0  501  502 -0.00000000000E+00 -0.00000000000E+00 -0.43969093205E+03  0.43969093205E+03  0.00000000000E+00 0. -1.
         25    1    1    2    0    0  0.13290451810E+03 -0.88678202266E+02 -0.25821813638E+03  0.32837332481E+03  0.12500000000E+03 0.  0.
         25    1    1    2    0    0 -0.13290451810E+03  0.88678202266E+02 -0.76118932011E+02  0.21667147089E+03  0.12500000000E+03 0.  0.
</event>
<event>
 4    0  0.2188063E-002  0.1901458E+03  0.7546771E-02  0.1158330E+00
         21   -1    0    0  502  501  0.00000000000E+00  0.00000000000E+00  0.73304983626E+02  0.73304983626E+02  0.00000000000E+00 0.  1.
         21   -1    0    0  501  502 -0.00000000000E+00 -0.00000000000E+00 -0.49321938409E+03  0.49321938409E+03  0.00000000000E+00 0.  1.
         25    1    1    2    0    0 -0.11510780171E+03 -0.42882288234E+02 -0.10006401472E+03  0.20180808631E+03  0.12500000000E+03 0.  0.
         25    1    1    2    0    0  0.11510780171E+03  0.42882288234E+02 -0.31985038575E+03  0.36471628140E+03  0.12500000000E+03 0.  0.
</event>
<event>
 4    0  0.2188063E-002  0.2032678E+03  0.7546771E-02  0.1147011E+00
         21   -1    0    0  502  501  0.00000000000E+00  0.00000000000E+00  0.48523373191E+02  0.48523373191E+02  0.00000000000E+00 0.  1.
         21   -1    0    0  501  502 -0.00000000000E+00 -0.00000000000E+00 -0.85150285732E+03  0.85150285732E+03  0.00000000000E+00 0.  1.
         25    1    1    2    0    0 -0.40953279841E+02 -0.11017674850E+03 -0.16021903970E+03  0.23475780652E+03  0.12500000000E+03 0.  0.
         25    1    1    2    0    0  0.40953279841E+02  0.11017674850E+03 -0.64276044443E+03  0.66526842399E+03  0.12500000000E+03 0.  0.
</event>
<event>
 4    0  0.2188063E-002  0.1691813E+03  0.7546771E-02  0.1178704E+00
         21   -1    0    0  502  501  0.00000000000E+00  0.00000000000E+00  0.28963887383E+03  0.28963887383E+03  0.00000000000E+00 0.  1.
         21   -1    0    0  501  502 -0.00000000000E+00 -0.00000000000E+00 -0.98820724225E+02  0.98820724225E+02  0.00000000000E+00 0.  1.
         25    1    1    2    0    0 -0.59445058526E+02 -0.16089528910E+02 -0.14737012083E+02  0.14012411444E+03  0.12500000000E+03 0.  0.
         25    1    1    2    0    0  0.59445058526E+02  0.16089528910E+02  0.20555516169E+03  0.24833548362E+03  0.12500000000E+03 0.  0.
</event>
<event>
 4    0  0.2188063E-002  0.1676929E+03  0.7546771E-02  0.1180275E+00
         21   -1    0    0  502  501  0.00000000000E+00  0.00000000000E+00  0.41167069913E+03  0.41167069913E+03  0.00000000000E+00 0.  1.
         21   -1    0    0  501  502 -0.00000000000E+00 -0.00000000000E+00 -0.68309225289E+02  0.68309225289E+02  0.00000000000E+00 0.  1.
         25    1    1    2    0    0  0.68786181337E+02  0.88059688086E+02  0.16718710427E+03  0.23677536874E+03  0.12500000000E+03 0.  0.
         25    1    1    2    0    0 -0.68786181337E+02 -0.88059688086E+02  0.17617436958E+03  0.24320455568E+03  0.12500000000E+03 0.  0.
</event>
<event>
 4    0  0.2188063E-002  0.1867574E+03  0.7546771E-02  0.1161419E+00
         21   -1    0    0  502  501  0.00000000000E+00  0.00000000000E+00  0.33536620911E+02  0.33536620911E+02  0.00000000000E+00 0.  1.
         21   -1    0    0  501  502 -0.00000000000E+00 -0.00000000000E+00 -0.10400072112E+04  0.10400072112E+04  0.00000000000E+00 0.  1.
         25    1    1    2    0    0 -0.11549028553E+03  0.21350080300E+02 -0.71560287588E+03  0.73587112183E+03  0.12500000000E+03 0.  0.
         25    1    1    2    0    0  0.11549028553E+03 -0.21350080300E+02 -0.29086771440E+03  0.33767271027E+03  0.12500000000E+03 0.  0.
</event>
<event>
 4    0  0.2188063E-002  0.2370528E+03  0.7546771E-02  0.1121772E+00
         21   -1    0    0  502  501  0.00000000000E+00  0.00000000000E+00  0.17654962569E+03  0.17654962569E+03  0.00000000000E+00 0.  1.
         21   -1    0    0  501  502 -0.00000000000E+00 -0.00000000000E+00 -0.31829020516E+03  0.31829020516E+03  0.00000000000E+00 0.  1.
         25    1    1    2    0    0 -0.68275012390E+02 -0.87774045087E+02  0.10441248654E+03  0.19721239224E+03  0.12500000000E+03 0.  0.
         25    1    1    2    0    0  0.68275012390E+02  0.87774045087E+02 -0.24615306601E+03  0.29762743861E+03  0.12500000000E+03 0.  0.
</event>
<event>
 4    0  0.2188063E-002  0.1903200E+03  0.7546771E-02  0.1158173E+00
         21   -1    0    0  502  501  0.00000000000E+00  0.00000000000E+00  0.62780289867E+03  0.62780289867E+03  0.00000000000E+00 0.  1.
         21   -1    0    0  501  502 -0.00000000000E+00 -0.00000000000E+00 -0.57695955182E+02  0.57695955182E+02  0.00000000000E+00 0.  1.
         25    1    1    2    0    0  0.41396179602E+01  0.14231333505E+03  0.31759301578E+03  0.36981149988E+03  0.12500000000E+03 0.  0.
         25    1    1    2    0    0 -0.41396179602E+01 -0.14231333505E+03  0.25251392771E+03  0.31568735397E+03  0.12500000000E+03 0.  0.
</event>
<event>
 4    0  0.2188063E-002  0.1934428E+03  0.7546771E-02  0.1155392E+00
         21   -1    0    0  502  501  0.00000000000E+00  0.00000000000E+00  0.18584797338E+04  0.18584797338E+04  0.00000000000E+00 0. -1.
         21   -1    0    0  501  502 -0.00000000000E+00 -0.00000000000E+00 -0.20134790334E+02  0.20134790334E+02  0.00000000000E+00 0. -1.
         25    1    1    2    0    0  0.94610127283E+02 -0.90421226309E+01  0.37061887758E+03  0.40251234588E+03  0.12500000000E+03 0.  0.
         25    1    1    2    0    0 -0.94610127283E+02  0.90421226309E+01  0.14677260659E+04  0.14761021782E+04  0.12500000000E+03 0.  0.
</event>
<event>
 4    0  0.2188063E-002  0.1844803E+03  0.7546771E-02  0.1163536E+00
         21   -1    0    0  502  501  0.00000000000E+00  0.00000000000E+00  0.12099155564E+04  0.12099155564E+04  0.00000000000E+00 0. -1.
         21   -1    0    0  501  502 -0.00000000000E+00 -0.00000000000E+00 -0.28128401336E+02  0.28128401336E+02  0.00000000000E+00 0. -1.
         25    1    1    2    0    0  0.12218737027E+03 -0.58480722619E+02  0.56528567030E+03  0.59457769670E+03  0.12500000000E+03 0.  0.
         25    1    1    2    0    0 -0.12218737027E+03  0.58480722619E+02  0.61650148473E+03  0.64346626100E+03  0.12500000000E+03 0.  0.
</event>
<event>
 4    0  0.2188063E-002  0.2031064E+03  0.7546771E-02  0.1147144E+00
         21   -1    0    0  502  501  0.00000000000E+00  0.00000000000E+00  0.11080408713E+03  0.11080408713E+03  0.00000000000E+00 0. -1.
         21   -1    0    0  501  502 -0.00000000000E+00 -0.00000000000E+00 -0.37229861818E+03  0.37229861818E+03  0.00000000000E+00 0.  1.
         25    1    1    2    0    0 -0.95612880441E+02  0.12665618070E+03 -0.10569884064E+03  0.22799310500E+03  0.12500000000E+03 0.  0.
         25    1    1    2    0    0  0.95612880441E+02 -0.12665618070E+03 -0.15579569042E+03  0.25510960031E+03  0.12500000000E+03 0.  0.
</event>
<event>
 4    0  0.2188063E-002  0.1874928E+03  0.7546771E-02  0.1160742E+00
         21   -1    0    0  502  501  0.00000000000E+00  0.00000000000E+00  0.12492361650E+03  0.12492361650E+03  0.00000000000E+00 0. -1.
         21   -1    0    0  501  502 -0.00000000000E+00 -0.00000000000E+00 -0.28140036923E+03  0.28140036923E+03  0.00000000000E+00 0. -1.
         25    1    1    2    0    0  0.60131577105E+02  0.12544925175E+03 -0.63894627136E+02  0.19763816612E+03  0.12500000000E+03 0.  0.
         25    1    1    2    0    0 -0.60131577105E+02 -0.12544925175E+03 -0.92582125592E+02  0.20868581961E+03  0.12500000000E+03 0.  0.
</event>
<event>
 4    0  0.2188063E-002  0.2079571E+03  0.7546771E-02  0.1143194E+00
         21   -1    0    0  502  501  0.00000000000E+00  0.00000000000E+00  0.17259835676E+03  0.17259835676E+03  0.00000000000E+00 0. -1.
         21   -1    0    0  501  502 -0.00000000000E+00 -0.00000000000E+00 -0.25055947188E+03  0.25055947188E+03  0.00000000000E+00 0. -1.
         25    1    1    2    0    0  0.55045310567E+02 -0.15661543712E+03 -0.47041406570E+02  0.21306401689E+03  0.12500000000E+03 0.  0.
         25    1    1    2    0    0 -0.55045310567E+02  0.15661543712E+03 -0.30919708555E+02  0.21009381176E+03  0.12500000000E+03 0.  0.
</event>
<event>
 4    0  0.2188063E-002  0.3451470E+03  0.7546771E-02  0.1064625E+00
         21   -1    0    0  502  501  0.00000000000E+00  0.00000000000E+00  0.60966770673E+02  0.60966770673E+02  0.00000000000E+00 0.  1.
         21   -1    0    0  501  502 -0.00000000000E+00 -0.00000000000E+00 -0.19539571734E+04  0.19539571734E+04  0.00000000000E+00 0.  1.
         25    1    1    2    0    0  0.31071250256E+03 -0.80878210307E+02 -0.10061668990E+04  0.10635226245E+04  0.12500000000E+03 0.  0.
         25    1    1    2    0    0 -0.31071250256E+03  0.80878210307E+02 -0.88682350371E+03  0.95140131957E+03  0.12500000000E+03 0.  0.
</event>
<event>
 4    0  0.2188063E-002  0.3791828E+03  0.7546771E-02  0.1051236E+00
         21   -1    0    0  502  501  0.00000000000E+00  0.00000000000E+00  0.12394753077E+04  0.12394753077E+04  0.00000000000E+00 0. -1.
         21   -1    0    0  501  502 -0.00000000000E+00 -0.00000000000E+00 -0.11600036974E+03  0.11600036974E+03  0.00000000000E+00 0. -1.
         25    1    1    2    0    0  0.83551195740E+02 -0.22603625160E+03  0.88570406083E+02  0.28555718548E+03  0.12500000000E+03 0.  0.
         25    1    1    2    0    0 -0.83551195740E+02  0.22603625160E+03  0.10349045318E+04  0.10699184919E+04  0.12500000000E+03 0.  0.
</event>
<event>
 4    0  0.2188063E-002  0.1677515E+03  0.7546771E-02  0.1180213E+00
         21   -1    0    0  502  501  0.00000000000E+00  0.00000000000E+00  0.56961961715E+03  0.56961961715E+03  0.00000000000E+00 0. -1.
         21   -1    0    0  501  502 -0.00000000000E+00 -0.00000000000E+00 -0.49402370888E+02  0.49402370888E+02  0.00000000000E+00 0. -1.
         25    1    1    2    0    0  0.93042198856E+02 -0.35671628951E+02  0.35393921140E+03  0.38836488158E+03  0.12500000000E+03 0.  0.
         25    1    1    2    0    0 -0.93042198856E+02  0.35671628951E+02  0.16627803486E+03  0.23065710645E+03  0.12500000000E+03 0.  0.
</event>
<event>
 4    0  0.2188063E-002  0.2505817E+03  0.7546771E-02  0.1112938E+00
         21   -1    0    0  502  501  0.00000000000E+00  0.00000000000E+00  0.48934080835E+03  0.48934080835E+03  0.00000000000E+00 0. -1.
         21   -1    0    0  501  502 -0.00000000000E+00 -0.00000000000E+00 -0.12831793971E+03  0.12831793971E+03  0.00000000000E+00 0. -1.
         25    1    1    2    0    0 -0.17392928063E+03  0.11124411600E+03  0.26354924683E+03  0.35736515430E+03  0.12500000000E+03 0.  0.
         25    1    1    2    0    0  0.17392928063E+03 -0.11124411600E+03  0.97473621805E+02  0.26029359376E+03  0.12500000000E+03 0.  0.
</event>
<event>
 4    0  0.2188063E-002  0.1884637E+03  0.7546771E-02  0.1159854E+00
         21   -1    0    0  502  501  0.00000000000E+00  0.00000000000E+00  0.37590110410E+02  0.37590110410E+02  0.00000000000E+00 0. -1.
         21   -1    0    0  501  502 -0.00000000000E+00 -0.00000000000E+00 -0.94489139260E+03  0.94489139260E+03  0.00000000000E+00 0. -1.
         25    1    1    2    0    0 -0.51294530949E+02  0.70440867285E+02 -0.16456368200E+03  0.22427494315E+03  0.12500000000E+03 0.  0.
         25    1    1    2    0    0  0.51294530949E+02 -0.70440867285E+02 -0.74273760018E+03  0.75820655986E+03  0.12500000000E+03 0.  0.
</event>
<event>
 4    0  0.2188063E-002  0.2411820E+03  0.7546771E-02  0.1119008E+00
         21   -1    0    0  502  501  0.00000000000E+00  0.00000000000E+00  0.32718625158E+03  0.32718625158E+03  0.00000000000E+00 0. -1.
         21   -1    0    0  501  502 -0.00000000000E+00 -0.00000000000E+00 -0.17778490065E+03  0.17778490065E+03  0.00000000000E+00 0. -1.
         25    1    1    2    0    0 -0.20397799591E+03 -0.29083814858E+02  0.64720558364E+02  0.24953284709E+03  0.12500000000E+03 0.  0.
         25    1    1    2    0    0  0.20397799591E+03  0.29083814858E+02  0.84680792572E+02  0.25543830514E+03  0.12500000000E+03 0.  0.
</event>
<event>
 4    0  0.2188063E-002  0.2990238E+03  0.7546771E-02  0.1085730E+00
         21   -1    0    0  502  501  0.00000000000E+00  0.00000000000E+00  0.11305563922E+03  0.11305563922E+03  0.00000000000E+00 0. -1.
         21   -1    0    0  501  502 -0.00000000000E+00 -0.00000000000E+00 -0.79089581587E+03  0.79089581587E+03  0.00000000000E+00 0. -1.
         25    1    1    2    0    0  0.60619816007E+02 -0.92707418503E+02  0.35984159831E+02  0.17084872635E+03  0.12500000000E+03 0.  0.
         25    1    1    2    0    0 -0.60619816007E+02  0.92707418503E+02 -0.71382433648E+03  0.73310272874E+03  0.12500000000E+03 0.  0.
</event>
<event>
 4    0  0.2188063E-002  0.1780793E+03  0.7546771E-02  0.1169675E+00
         21   -1    0    0  502  501  0.00000000000E+00  0.00000000000E+00  0.17782619823E+03  0.17782619823E+03  0.00000000000E+00 0.  1.
         21   -1    0    0  501  502 -0.00000000000E+00 -0.00000000000E+00 -0.17833273739E+03  0.17833273739E+03  0.00000000000E+00 0.  1.
         25    1    1    2    0    0  0.69925479450E+02 -0.10356575912E+03  0.21467562019E+02  0.17804857584E+03  0.12500000000E+03 0.  0.
         25    1    1    2    0    0 -0.69925479450E+02  0.10356575912E+03 -0.21974101184E+02  0.17811035978E+03  0.12500000000E+03 0.  0.
</event>
<event>
 4    0  0.2188063E-002  0.2391103E+03  0.7546771E-02  0.1120387E+00
         21   -1    0    0  502  501  0.00000000000E+00  0.00000000000E+00  0.18418047403E+03  0.18418047403E+03  0.00000000000E+00 0.  1.
         21   -1    0    0  501  502 -0.00000000000E+00 -0.00000000000E+00 -0.31042238053E+03  0.31042238053E+03  0.00000000000E+00 0.  1.
         25    1    1    2    0    0 -0.18017160818E+03  0.45613685227E+01 -0.16159895092E+03  0.27243684665E+03  0.12500000000E+03 0.  0.
         25    1    1    2    0    0  0.18017160818E+03 -0.45613685227E+01  0.35357044418E+02  0.22216600790E+03  0.12500000000E+03 0.  0.
</event>
<event>
 4    0  0.2188063E-002  0.2223014E+03  0.7546771E-02  0.1132179E+00
         21   -1    0    0  502  501  0.00000000000E+00  0.00000000000E+00  0.32638804923E+03  0.32638804923E+03  0.00000000000E+00 0. -1.
         21   -1    0    0  501  502 -0.00000000000E+00 -0.00000000000E+00 -0.15140850157E+03  0.15140850157E+03  0.00000000000E+00 0. -1.
         25    1    1    2    0    0  0.12083008771E+03 -0.98615205240E+02 -0.17078799743E+02  0.20060297655E+03  0.12500000000E+03 0.  0.
         25    1    1    2    0    0 -0.12083008771E+03  0.98615205240E+02  0.19205834740E+03  0.27719357425E+03  0.12500000000E+03 0.  0.
</event>
<event>
 4    0  0.2188063E-002  0.2486856E+03  0.7546771E-02  0.1114138E+00
         21   -1    0    0  502  501  0.00000000000E+00  0.00000000000E+00  0.10912995932E+04  0.10912995932E+04  0.00000000000E+00 0. -1.
         21   -1    0    0  501  502 -0.00000000000E+00 -0.00000000000E+00 -0.56670523463E+02  0.56670523463E+02  0.00000000000E+00 0. -1.
         25    1    1    2    0    0  0.50454859179E+02 -0.19568021846E+03  0.68665678826E+03  0.72660786231E+03  0.12500000000E+03 0.  0.
         25    1    1    2    0    0 -0.50454859179E+02  0.19568021846E+03  0.34797228145E+03  0.42136225432E+03  0.12500000000E+03 0.  0.
</event>
<event>
 4    0  0.2188063E-002  0.4332816E+03  0.7546771E-02  0.1032828E+00
         21   -1    0    0  502  501  0.00000000000E+00  0.00000000000E+00  0.55024204267E+03  0.55024204267E+03  0.00000000000E+00 0.  1.
         21   -1    0    0  501  502 -0.00000000000E+00 -0.00000000000E+00 -0.34118243218E+03  0.34118243218E+03  0.00000000000E+00 0.  1.
         25    1    1    2    0    0 -0.11217801870E+03 -0.21714513136E+03 -0.24030683287E+03  0.36484008809E+03  0.12500000000E+03 0.  0.
         25    1    1    2    0    0  0.11217801870E+03  0.21714513136E+03  0.44936644337E+03  0.52658438676E+03  0.12500000000E+03 0.  0.
</event>
<event>
 4    0  0.2188063E-002  0.2318125E+03  0.7546771E-02  0.1125371E+00
         21   -1    0    0  502  501  0.00000000000E+00  0.00000000000E+00  0.49029041249E+02  0.49029041249E+02  0.00000000000E+00 0.  1.
         21   -1    0    0  501  502 -0.00000000000E+00 -0.00000000000E+00 -0.10960242399E+04  0.10960242399E+04  0.00000000000E+00 0.  1.
         25    1    1    2    0    0  0.28012187601E+02 -0.15814335023E+03 -0.24938481050E+03  0.32188784628E+03  0.12500000000E+03 0.  0.
         25    1    1    2    0    0 -0.28012187601E+02  0.15814335023E+03 -0.79761038815E+03  0.82316543486E+03  0.12500000000E+03 0.  0.
</event>
<event>
 4    0  0.2188063E-002  0.2055443E+03  0.7546771E-02  0.1145144E+00
         21   -1    0    0  502  501  0.00000000000E+00  0.00000000000E+00  0.36431022352E+03  0.36431022352E+03  0.00000000000E+00 0. -1.
         21   -1    0    0  501  502 -0.00000000000E+00 -0.00000000000E+00 -0.11596837585E+03  0.11596837585E+03  0.00000000000E+00 0. -1.
         25    1    1    2    0    0  0.16233476715E+03 -0.20674805071E+01  0.10509440595E+03  0.23027523806E+03  0.12500000000E+03 0.  0.
         25    1    1    2    0    0 -0.16233476715E+03  0.20674805071E+01  0.14324744172E+03  0.25000336130E+03  0.12500000000E+03 0.  0.
</event>
<event>
 4    0  0.2188063E-002  0.2486172E+03  0.7546771E-02  0.1114182E+00
         21   -1    0    0  502  501  0.00000000000E+00  0.00000000000E+00  0.27475771300E+03  0.27475771300E+03  0.00000000000E+00 0.  1.
         21   -1    0    0  501  502 -0.00000000000E+00 -0.00000000000E+00 -0.22496362007E+03  0.22496362007E+03  0.00000000000E+00 0.  1.
         25    1    1    2    0    0  0.19420948176E+03  0.62381396913E+02 -0.43092847858E+02  0.24308590050E+03  0.12500000000E+03 0.  0.
         25    1    1    2    0    0 -0.19420948176E+03 -0.62381396913E+02  0.92886940784E+02  0.25663543258E+03  0.12500000000E+03 0.  0.
</event>
<event>
 4    0  0.2188063E-002  0.1918432E+03  0.7546771E-02  0.1156809E+00
         21   -1    0    0  502  501  0.00000000000E+00  0.00000000000E+00  0.61160726172E+03  0.61160726172E+03  0.00000000000E+00 0.  1.
         21   -1    0    0  501  502 -0.00000000000E+00 -0.00000000000E+00 -0.60175564168E+02  0.60175564168E+02  0.00000000000E+00 0.  1.
         25    1    1    2    0    0  0.13775825493E+03 -0.34641038072E+00  0.19356774116E+03  0.26846028983E+03  0.12500000000E+03 0.  0.
         25    1    1    2    0    0 -0.13775825493E+03  0.34641038072E+00  0.35786395640E+03  0.40332253605E+03  0.12500000000E+03 0.  0.
</event>
<event>
 4    0  0.2188063E-002  0.1915005E+03  0.7546771E-02  0.1157115E+00
         21   -1    0    0  502  501  0.00000000000E+00  0.00000000000E+00  0.81384364515E+03  0.81384364515E+03  0.00000000000E+00 0. -1.
         21   -1    0    0  501  502 -0.00000000000E+00 -0.00000000000E+00 -0.45060789581E+02  0.45060789581E+02  0.00000000000E+00 0. -1.
         25    1    1    2    0    0 -0.79342866173E+01 -0.46465169446E+02  0.69208463141E+03  0.70486034213E+03  0.12500000000E+03 0.  0.
         25    1    1    2    0    0  0.79342866173E+01  0.46465169446E+02  0.76698224159E+02  0.15404409260E+03  0.12500000000E+03 0.  0.
</event>
<event>
 4    0  0.2188063E-002  0.2040689E+03  0.7546771E-02  0.1146351E+00
         21   -1    0    0  502  501  0.00000000000E+00  0.00000000000E+00  0.47557696124E+03  0.47557696124E+03  0.00000000000E+00 0. -1.
         21   -1    0    0  501  502 -0.00000000000E+00 -0.00000000000E+00 -0.87565444867E+02  0.87565444867E+02  0.00000000000E+00 0. -1.
         25    1    1    2    0    0  0.37887182197E+02 -0.73499575280E+02  0.38510217032E+03  0.41323880230E+03  0.12500000000E+03 0.  0.
         25    1    1    2    0    0 -0.37887182197E+02  0.73499575280E+02  0.29093460573E+01  0.14990360381E+03  0.12500000000E+03 0.  0.
</event>
<event>
 4    0  0.2188063E-002  0.2071406E+03  0.7546771E-02  0.1143851E+00
         21   -1    0    0  502  501  0.00000000000E+00  0.00000000000E+00  0.12621930948E+03  0.12621930948E+03  0.00000000000E+00 0. -1.
         21   -1    0    0  501  502 -0.00000000000E+00 -0.00000000000E+00 -0.33994195097E+03  0.33994195097E+03  0.00000000000E+00 0. -1.
         25    1    1    2    0    0 -0.94985204583E+02  0.10106516898E+03 -0.59295945924E+01  0.18680609616E+03  0.12500000000E+03 0.  0.
         25    1    1    2    0    0  0.94985204583E+02 -0.10106516898E+03 -0.20779304690E+03  0.27935516428E+03  0.12500000000E+03 0.  0.
</event>
<event>
 4    0  0.2188063E-002  0.2084130E+03  0.7546771E-02  0.1142829E+00
         21   -1    0    0  502  501  0.00000000000E+00  0.00000000000E+00  0.15704619644E+03  0.15704619644E+03  0.00000000000E+00 0.  1.
         21   -1    0    0  501  502 -0.00000000000E+00 -0.00000000000E+00 -0.27658100580E+03  0.27658100580E+03  0.00000000000E+00 0.  1.
         25    1    1    2    0    0 -0.12986515527E+03  0.84721420945E+02  0.40935438511E+01  0.19920952493E+03  0.12500000000E+03 0.  0.
         25    1    1    2    0    0  0.12986515527E+03 -0.84721420945E+02 -0.12362835321E+03  0.23441767732E+03  0.12500000000E+03 0.  0.
</event>
<event>
 4    0  0.2188063E-002  0.1705697E+03  0.7546771E-02  0.1177255E+00
         21   -1    0    0  502  501  0.00000000000E+00  0.00000000000E+00  0.35049008983E+03  0.35049008983E+03  0.00000000000E+00 0.  1.
         21   -1    0    0  501  502 -0.00000000000E+00 -0.00000000000E+00 -0.83009557145E+02  0.83009557145E+02  0.00000000000E+00 0.  1.
         25    1    1    2    0    0 -0.78010875768E+02  0.24104489719E+02  0.23854595366E+03  0.28141765255E+03  0.12500000000E+03 0.  0.
         25    1    1    2    0    0  0.78010875768E+02 -0.24104489719E+02  0.28934579024E+02  0.15208199442E+03  0.12500000000E+03 0.  0.
</event>
<event>
 4    0  0.2188063E-002  0.2599529E+03  0.7546771E-02  0.1107172E+00
         21   -1    0    0  502  501  0.00000000000E+00  0.00000000000E+00  0.44548766586E+03  0.44548766586E+03  0.00000000000E+00 0. -1.
         21   -1    0    0  501  502 -0.00000000000E+00 -0.00000000000E+00 -0.15168882616E+03  0.15168882616E+03  0.00000000000E+00 0. -1.
         25    1    1    2    0    0 -0.87609862100E+02  0.15879300569E+03  0.30547531704E+03  0.37660440240E+03  0.12500000000E+03 0.  0.
         25    1    1    2    0    0  0.87609862100E+02 -0.15879300569E+03 -0.11676477334E+02  0.22057208961E+03  0.12500000000E+03 0.  0.
</event>
<event>
 4    0  0.2188063E-002  0.1983564E+03  0.7546771E-02  0.1151133E+00
         21   -1    0    0  502  501  0.00000000000E+00  0.00000000000E+00  0.43510639798E+02  0.43510639798E+02  0.00000000000E+00 0.  1.
         21   -1    0    0  501  502 -0.00000000000E+00 -0.00000000000E+00 -0.90426747375E+03  0.90426747375E+03  0.00000000000E+00 0.  1.
         25    1    1    2    0    0  0.67263667208E+02 -0.12689915357E+03 -0.56323483888E+03  0.59454712163E+03  0.12500000000E+03 0.  0.
         25    1    1    2    0    0 -0.67263667208E+02  0.12689915357E+03 -0.29752199507E+03  0.35323099192E+03  0.12500000000E+03 0.  0.
</event>
<event>
 4    0  0.2188063E-002  0.2154687E+03  0.7546771E-02  0.1137307E+00
         21   -1    0    0  502  501  0.00000000000E+00  0.00000000000E+00  0.20028747051E+04  0.20028747051E+04  0.00000000000E+00 0.  1.
         21   -1    0    0  501  502 -0.00000000000E+00 -0.00000000000E+00 -0.23180064562E+02  0.23180064562E+02  0.00000000000E+00 0.  1.
         25    1    1    2    0    0 -0.16630169589E+02 -0.26252825612E+02  0.17775161804E+03  0.21951403397E+03  0.12500000000E+03 0.  0.
         25    1    1    2    0    0  0.16630169589E+02  0.26252825612E+02  0.18019430225E+04  0.18065407357E+04  0.12500000000E+03 0.  0.
</event>
<event>
 4    0  0.2188063E-002  0.2871666E+03  0.7546771E-02  0.1091838E+00
         21   -1    0    0  502  501  0.00000000000E+00  0.00000000000E+00  0.39891318447E+02  0.39891318447E+02  0.00000000000E+00 0. -1.
         21   -1    0    0  501  502 -0.00000000000E+00 -0.00000000000E+00 -0.20672329620E+04  0.20672329620E+04  0.00000000000E+00 0. -1.
         25    1    1    2    0    0 -0.21992901523E+03  0.13396393078E+03 -0.92964430824E+03  0.97271714611E+03  0.12500000000E+03 0.  0.
         25    1    1    2    0    0  0.21992901523E+03 -0.13396393078E+03 -0.10976973353E+04  0.11344071343E+04  0.12500000000E+03 0.  0.
</event>
<event>
 4    0  0.2188063E-002  0.5634537E+03  0.7546771E-02  0.9984270E-01
         21   -1    0    0  502  501  0.00000000000E+00  0.00000000000E+00  0.54606015012E+03  0.54606015012E+03  0.00000000000E+00 0.  1.
         21   -1    0    0  501  502 -0.00000000000E+00 -0.00000000000E+00 -0.58140120273E+03  0.58140120273E+03  0.00000000000E+00 0.  1.
         25    1    1    2    0    0 -0.72398277653E+02  0.27278034583E+03 -0.48928789506E+03  0.57851384766E+03  0.12500000000E+03 0.  0.
         25    1    1    2    0    0  0.72398277653E+02 -0.27278034583E+03  0.45394684245E+03  0.54894750519E+03  0.12500000000E+03 0.  0.
</event>
<event>
 4    0  0.2188063E-002  0.1596914E+03  0.7546771E-02  0.1189046E+00
         21   -1    0    0  502  501  0.00000000000E+00  0.00000000000E+00  0.59247093504E+03  0.59247093504E+03  0.00000000000E+00 0.  1.
         21   -1    0    0  501  502 -0.00000000000E+00 -0.00000000000E+00 -0.43042375237E+02  0.43042375237E+02  0.00000000000E+00 0.  1.
         25    1    1    2    0    0  0.37589070610E+02  0.44931814874E+02  0.11497588460E+03  0.17965594969E+03  0.12500000000E+03 0.  0.
         25    1    1    2    0    0 -0.37589070610E+02 -0.44931814874E+02  0.43445267520E+03  0.45585736059E+03  0.12500000000E+03 0.  0.
</event>
<event>
 4    0  0.2188063E-002  0.2393207E+03  0.7546771E-02  0.1120246E+00
         21   -1    0    0  502  501  0.00000000000E+00  0.00000000000E+00  0.16182830145E+02  0.16182830145E+02  0.00000000000E+00 0. -1.
         21   -1    0    0  501  502 -0.00000000000E+00 -0.00000000000E+00 -0.35392068722E+04  0.35392068722E+04  0.00000000000E+00 0. -1.
         25    1    1    2    0    0 -0.17584516735E+02 -0.14744399609E+03 -0.28014558290E+04  0.28081717735E+04  0.12500000000E+03 0.  0.
         25    1    1    2    0    0  0.17584516735E+02  0.14744399609E+03 -0.72156821304E+03  0.74721792890E+03  0.12500000000E+03 0.  0.
</event>
<event>
 4    0  0.2188063E-002  0.2373937E+03  0.7546771E-02  0.1121541E+00
         21   -1    0    0  502  501  0.00000000000E+00  0.00000000000E+00  0.31960918069E+03  0.31960918069E+03  0.00000000000E+00 0.  1.
         21   -1    0    0  501  502 -0.00000000000E+00 -0.00000000000E+00 -0.17632711671E+03  0.17632711671E+03  0.00000000000E+00 0.  1.
         25    1    1    2    0    0 -0.60516491243E+02  0.11945548094E+03 -0.86077869513E+02  0.20240122840E+03  0.12500000000E+03 0.  0.
         25    1    1    2    0    0  0.60516491243E+02 -0.11945548094E+03  0.22935993349E+03  0.29353506900E+03  0.12500000000E+03 0.  0.
</event>
<event>
 4    0  0.2188063E-002  0.1868074E+03  0.7546771E-02  0.1161373E+00
         21   -1    0    0  502  501  0.00000000000E+00  0.00000000000E+00  0.55463679944E+03  0.55463679944E+03  0.00000000000E+00 0.  1.
         21   -1    0    0  501  502 -0.00000000000E+00 -0.00000000000E+00 -0.62918655428E+02  0.62918655428E+02  0.00000000000E+00 0.  1.
         25    1    1    2    0    0  0.20283199067E+02 -0.31264439979E+02  0.46690048880E+03  0.48477823777E+03  0.12500000000E+03 0.  0.
         25    1    1    2    0    0 -0.20283199067E+02  0.31264439979E+02  0.24817655216E+02  0.13277721710E+03  0.12500000000E+03 0.  0.
</event>
<event>
 4    0  0.2188063E-002  0.4437209E+03  0.7546771E-02  0.1029611E+00
         21   -1    0    0  502  501  0.00000000000E+00  0.00000000000E+00  0.10887615548E+04  0.10887615548E+04  0.00000000000E+00 0. -1.
         21   -1    0    0  501  502 -0.00000000000E+00 -0.00000000000E+00 -0.18083683684E+03  0.18083683684E+03  0.00000000000E+00 0. -1.
         25    1    1    2    0    0 -0.34643548080E+03  0.22354481636E+02  0.10136007375E+03  0.38264360672E+03  0.12500000000E+03 0.  0.
         25    1    1    2    0    0  0.34643548080E+03 -0.22354481636E+02  0.80656464423E+03  0.88695478494E+03  0.12500000000E+03 0.  0.
</event>
<event>
 4    0  0.2188063E-002  0.1763089E+03  0.7546771E-02  0.1171424E+00
         21   -1    0    0  502  501  0.00000000000E+00  0.00000000000E+00  0.44154935948E+03  0.44154935948E+03  0.00000000000E+00 0.  1.
         21   -1    0    0  501  502 -0.00000000000E+00 -0.00000000000E+00 -0.70399439587E+02  0.70399439587E+02  0.00000000000E+00 0.  1.
         25    1    1    2    0    0  0.50186751949E+02 -0.20854580553E+02  0.34793720735E+03  0.37368291888E+03  0.12500000000E+03 0.  0.
         25    1    1    2    0    0 -0.50186751949E+02  0.20854580553E+02  0.23212712543E+02  0.13826588019E+03  0.12500000000E+03 0.  0.
</event>
<event>
 4    0  0.2188063E-002  0.1933204E+03  0.7546771E-02  0.1155500E+00
         21   -1    0    0  502  501  0.00000000000E+00  0.00000000000E+00  0.12677424584E+03  0.12677424584E+03  0.00000000000E+00 0. -1.
         21   -1    0    0  501  502 -0.00000000000E+00 -0.00000000000E+00 -0.29479798650E+03  0.29479798650E+03  0.00000000000E+00 0. -1.
         25    1    1    2    0    0 -0.53559406194E+02  0.13343152496E+03 -0.48258993701E+02  0.19653628753E+03  0.12500000000E+03 0.  0.
         25    1    1    2    0    0  0.53559406194E+02 -0.13343152496E+03 -0.11976474696E+03  0.22503594481E+03  0.12500000000E+03 0.  0.
</event>
<event>
 4    0  0.2188063E-002  0.1998787E+03  0.7546771E-02  0.1149841E+00
         21   -1    0    0  502  501  0.00000000000E+00  0.00000000000E+00  0.24904483401E+03  0.24904483401E+03  0.00000000000E+00 0.  1.
         21   -1    0    0  501  502 -0.00000000000E+00 -0.00000000000E+00 -0.16041890943E+03  0.16041890943E+03  0.00000000000E+00 0.  1.
         25    1    1    2    0    0  0.83598669112E+02 -0.79795490579E+02  0.15159598186E+03  0.22795262558E+03  0.12500000000E+03 0.  0.
         25    1    1    2    0    0 -0.83598669112E+02  0.79795490579E+02 -0.62970057274E+02  0.18151111786E+03  0.12500000000E+03 0.  0.
</event>
<event>
 4    0  0.2188063E-002  0.2339509E+03  0.7546771E-02  0.1123889E+00
         21   -1    0    0  502  501  0.00000000000E+00  0.00000000000E+00  0.42484821547E+02  0.42484821547E+02  0.00000000000E+00 0.  1.
         21   -1    0    0  501  502 -0.00000000000E+00 -0.00000000000E+00 -0.12882960417E+04  0.12882960417E+04  0.00000000000E+00 0.  1.
         25    1    1    2    0    0  0.43577066544E+02 -0.81344821493E+02 -0.12544767039E+03  0.19969491410E+03  0.12500000000E+03 0.  0.
         25    1    1    2    0    0 -0.43577066544E+02  0.81344821493E+02 -0.11203635498E+04  0.11310859492E+04  0.12500000000E+03 0.  0.
</event>
<event>
 4    0  0.2188063E-002  0.1477649E+03  0.7546771E-02  0.1203247E+00
         21   -1    0    0  502  501  0.00000000000E+00  0.00000000000E+00  0.21318407181E+04  0.21318407181E+04  0.00000000000E+00 0.  1.
         21   -1    0    0  501  502 -0.00000000000E+00 -0.00000000000E+00 -0.10242067465E+02  0.10242067465E+02  0.00000000000E+00 0.  1.
         25    1    1    2    0    0  0.94072211398E+01 -0.50647030436E+02  0.62857808550E+03  0.64295336307E+03  0.12500000000E+03 0.  0.
         25    1    1    2    0    0 -0.94072211398E+01  0.50647030436E+02  0.14930205651E+04  0.14991294225E+04  0.12500000000E+03 0.  0.
</event>
<event>
 4    0  0.2188063E-002  0.1840510E+03  0.7546771E-02  0.1163939E+00
         21   -1    0    0  502  501  0.00000000000E+00  0.00000000000E+00  0.50130845054E+02  0.50130845054E+02  0.00000000000E+00 0. -1.
         21   -1    0    0  501  502 -0.00000000000E+00 -0.00000000000E+00 -0.67572723731E+03  0.67572723731E+03  0.00000000000E+00 0. -1.
         25    1    1    2    0    0  0.11825094020E+03  0.38744476933E+02 -0.20910286955E+03  0.27355699480E+03  0.12500000000E+03 0.  0.
         25    1    1    2    0    0 -0.11825094020E+03 -0.38744476933E+02 -0.41649352271E+03  0.45230108757E+03  0.12500000000E+03 0.  0.
</event>
<event>
 4    0  0.2188063E-002  0.2299559E+03  0.7546771E-02  0.1126671E+00
         21   -1    0    0  502  501  0.00000000000E+00  0.00000000000E+00  0.13532473399E+03  0.13532473399E+03  0.00000000000E+00 0. -1.
         21   -1    0    0  501  502 -0.00000000000E+00 -0.00000000000E+00 -0.39076173207E+03  0.39076173207E+03  0.00000000000E+00 0. -1.
         25    1    1    2    0    0 -0.25881326248E+01 -0.15850200367E+03 -0.17604342532E+01  0.20188532073E+03  0.12500000000E+03 0.  0.
         25    1    1    2    0    0  0.25881326248E+01  0.15850200367E+03 -0.25367656383E+03  0.32420114533E+03  0.12500000000E+03 0.  0.
</event>
<event>
 4    0  0.2188063E-002  0.1746999E+03  0.7546771E-02  0.1173033E+00
         21   -1    0    0  502  501  0.00000000000E+00  0.00000000000E+00  0.10444156326E+03  0.10444156326E+03  0.00000000000E+00 0. -1.
         21   -1    0    0  501  502 -0.00000000000E+00 -0.00000000000E+00 -0.29222121392E+03  0.29222121392E+03  0.00000000000E+00 0. -1.
         25    1    1    2    0    0 -0.45147989041E+02 -0.10506177756E+03 -0.14230506722E+03  0.22125110209E+03  0.12500000000E+03 0.  0.
         25    1    1    2    0    0  0.45147989041E+02  0.10506177756E+03 -0.45474583434E+02  0.17541167509E+03  0.12500000000E+03 0.  0.
</event>
<event>
 4    0  0.2188063E-002  0.1965060E+03  0.7546771E-02  0.1152721E+00
         21   -1    0    0  502  501  0.00000000000E+00  0.00000000000E+00  0.26431746439E+03  0.26431746439E+03  0.00000000000E+00 0.  1.
         21   -1    0    0  501  502 -0.00000000000E+00 -0.00000000000E+00 -0.14609178766E+03  0.14609178766E+03  0.00000000000E+00 0.  1.
         25    1    1    2    0    0  0.13231945509E+03  0.74032941552E+02  0.59681223183E+02  0.20536835937E+03  0.12500000000E+03 0.  0.
         25    1    1    2    0    0 -0.13231945509E+03 -0.74032941552E+02  0.58544453551E+02  0.20504089268E+03  0.12500000000E+03 0.  0.
</event>
<event>
 4    0  0.2188063E-002  0.2160121E+03  0.7546771E-02  0.1136892E+00
         21   -1    0    0  502  501  0.00000000000E+00  0.00000000000E+00  0.25509451793E+03  0.25509451793E+03  0.00000000000E+00 0. -1.
         21   -1    0    0  501  502 -0.00000000000E+00 -0.00000000000E+00 -0.18291745469E+03  0.18291745469E+03  0.00000000000E+00 0. -1.
         25    1    1    2    0    0  0.14193037906E+03  0.46739218660E+02 -0.58518499610E+02  0.20341632643E+03  0.12500000000E+03 0.  0.
         25    1    1    2    0    0 -0.14193037906E+03 -0.46739218660E+02  0.13069556285E+03  0.23459564618E+03  0.12500000000E+03 0.  0.
</event>
<event>
 4    0  0.2188063E-002  0.1868168E+03  0.7546771E-02  0.1161364E+00
         21   -1    0    0  502  501  0.00000000000E+00  0.00000000000E+00  0.32801245902E+03  0.32801245902E+03  0.00000000000E+00 0. -1.
         21   -1    0    0  501  502 -0.00000000000E+00 -0.00000000000E+00 -0.10639999385E+03  0.10639999385E+03  0.00000000000E+00 0. -1.
         25    1    1    2    0    0  0.11937499942E+03  0.67665085419E+02  0.13537598359E+03  0.22974031253E+03  0.12500000000E+03 0.  0.
         25    1    1    2    0    0 -0.11937499942E+03 -0.67665085419E+02  0.86236481584E+02  0.20467214033E+03  0.12500000000E+03 0.  0.
</event>
<event>
 4    0  0.2188063E-002  0.2246554E+03  0.7546771E-02  0.1130459E+00
         21   -1    0    0  502  501  0.00000000000E+00  0.00000000000E+00  0.67509180756E+02  0.67509180756E+02  0.00000000000E+00 0. -1.
         21   -1    0    0  501  502 -0.00000000000E+00 -0.00000000000E+00 -0.74760258942E+03  0.74760258942E+03  0.00000000000E+00 0. -1.
         25    1    1    2    0    0  0.12980676761E+03 -0.13268747852E+03 -0.30425368699E+03  0.37769176576E+03  0.12500000000E+03 0.  0.
         25    1    1    2    0    0 -0.12980676761E+03  0.13268747852E+03 -0.37583972167E+03  0.43742000442E+03  0.12500000000E+03 0.  0.
</event>
<event>
 4    0  0.2188063E-002  0.2157351E+03  0.7546771E-02  0.1137103E+00
         21   -1    0    0  502  501  0.00000000000E+00  0.00000000000E+00  0.61499494109E+03  0.61499494109E+03  0.00000000000E+00 0.  1.
         21   -1    0    0  501  502 -0.00000000000E+00 -0.00000000000E+00 -0.75678070819E+02  0.75678070819E+02  0.00000000000E+00 0.  1.
         25    1    1    2    0    0 -0.13530052502E+03  0.24451964357E+02  0.44510238420E+03  0.48233314530E+03  0.12500000000E+03 0.  0.
         25    1    1    2    0    0  0.13530052502E+03 -0.24451964357E+02  0.94214486066E+02  0.20833986661E+03  0.12500000000E+03 0.  0.
</event>
<event>
 4    0  0.2188063E-002  0.1866980E+03  0.7546771E-02  0.1161474E+00
         21   -1    0    0  502  501  0.00000000000E+00  0.00000000000E+00  0.47920817108E+03  0.47920817108E+03  0.00000000000E+00 0.  1.
         21   -1    0    0  501  502 -0.00000000000E+00 -0.00000000000E+00 -0.72736989624E+02  0.72736989624E+02  0.00000000000E+00 0.  1.
         25    1    1    2    0    0 -0.10262014420E+03 -0.75959269089E+02  0.12321648204E+03  0.21704378821E+03  0.12500000000E+03 0.  0.
         25    1    1    2    0    0  0.10262014420E+03  0.75959269089E+02  0.28325469941E+03  0.33490137249E+03  0.12500000000E+03 0.  0.
</event>
<event>
 4    0  0.2188063E-002  0.2033791E+03  0.7546771E-02  0.1146919E+00
         21   -1    0    0  502  501  0.00000000000E+00  0.00000000000E+00  0.48098140604E+02  0.48098140604E+02  0.00000000000E+00 0. -1.
         21   -1    0    0  501  502 -0.00000000000E+00 -0.00000000000E+00 -0.85997204427E+03  0.85997204427E+03  0.00000000000E+00 0. -1.
         25    1    1    2    0    0  0.19747121539E+02 -0.14047682127E+03 -0.57321295085E+03  0.60359073315E+03  0.12500000000E+03 0.  0.
         25    1    1    2    0    0 -0.19747121539E+02  0.14047682127E+03 -0.23866095282E+03  0.30447945173E+03  0.12500000000E+03 0.  0.
</event>
<event>
 4    0  0.2188063E-002  0.4418198E+03  0.7546771E-02  0.1030190E+00
         21   -1    0    0  502  501  0.00000000000E+00  0.00000000000E+00  0.55541242439E+03  0.55541242439E+03  0.00000000000E+00 0. -1.
         21   -1    0    0  501  502 -0.00000000000E+00 -0.00000000000E+00 -0.35145909705E+03  0.35145909705E+03  0.00000000000E+00 0. -1.
         25    1    1    2    0    0 -0.35430707825E+03  0.13705223652E+03 -0.90744657102E+02  0.41009317725E+03  0.12500000000E+03 0.  0.
         25    1    1    2    0    0  0.35430707825E+03 -0.13705223652E+03  0.29469798444E+03  0.49677834419E+03  0.12500000000E+03 0.  0.
</event>
<event>
 4    0  0.2188063E-002  0.2620793E+03  0.7546771E-02  0.1105900E+00
         21   -1    0    0  502  501  0.00000000000E+00  0.00000000000E+00  0.26020483927E+03  0.26020483927E+03  0.00000000000E+00 0.  1.
         21   -1    0    0  501  502 -0.00000000000E+00 -0.00000000000E+00 -0.26396726847E+03  0.26396726847E+03  0.00000000000E+00 0.  1.
         25    1    1    2    0    0 -0.14688315121E+03 -0.67269473452E+02 -0.16608263855E+03  0.26326466720E+03  0.12500000000E+03 0.  0.
         25    1    1    2    0    0  0.14688315121E+03  0.67269473452E+02  0.16232020935E+03  0.26090744054E+03  0.12500000000E+03 0.  0.
</event>
<event>
 4    0  0.2188063E-002  0.2073889E+03  0.7546771E-02  0.1143651E+00
         21   -1    0    0  502  501  0.00000000000E+00  0.00000000000E+00  0.20274864675E+03  0.20274864675E+03  0.00000000000E+00 0. -1.
         21   -1    0    0  501  502 -0.00000000000E+00 -0.00000000000E+00 -0.21213531080E+03  0.21213531080E+03  0.00000000000E+00 0. -1.
         25    1    1    2    0    0 -0.15865561886E+03  0.22461824992E+02  0.36657405231E+02  0.20650642687E+03  0.12500000000E+03 0.  0.
         25    1    1    2    0    0  0.15865561886E+03 -0.22461824992E+02 -0.46044069280E+02  0.20837753069E+03  0.12500000000E+03 0.  0.
</event>
<event>
 4    0  0.2188063E-002  0.2526373E+03  0.7546771E-02  0.1111649E+00
         21   -1    0    0  502  501  0.00000000000E+00  0.00000000000E+00  0.10165313155E+04  0.10165313155E+04  0.00000000000E+00 0.  1.
         21   -1    0    0  501  502 -0.00000000000E+00 -0.00000000000E+00 -0.62787621524E+02  0.62787621524E+02  0.00000000000E+00 0.  1.
         25    1    1    2    0    0 -0.11058603252E+02 -0.17564184671E+03  0.19649460059E+03  0.29190320156E+03  0.12500000000E+03 0.  0.
         25    1    1    2    0    0  0.11058603252E+02  0.17564184671E+03  0.75724909341E+03  0.78741573549E+03  0.12500000000E+03 0.  0.
</event>
<event>
 4    0  0.2188063E-002  0.2044185E+03  0.7546771E-02  0.1146064E+00
         21   -1    0    0  502  501  0.00000000000E+00  0.00000000000E+00  0.94000118549E+02  0.94000118549E+02  0.00000000000E+00 0. -1.
         21   -1    0    0  501  502 -0.00000000000E+00 -0.00000000000E+00 -0.44454112190E+03  0.44454112190E+03  0.00000000000E+00 0. -1.
         25    1    1    2    0    0  0.10494506000E+02  0.12261789363E+03 -0.37011539399E+02  0.17927670385E+03  0.12500000000E+03 0.  0.
         25    1    1    2    0    0 -0.10494506000E+02 -0.12261789363E+03 -0.31352946395E+03  0.35926453660E+03  0.12500000000E+03 0.  0.
</event>
<event>
 4    0  0.2188063E-002  0.1841904E+03  0.7546771E-02  0.1163808E+00
         21   -1    0    0  502  501  0.00000000000E+00  0.00000000000E+00  0.11407847729E+04  0.11407847729E+04  0.00000000000E+00 0. -1.
         21   -1    0    0  501  502 -0.00000000000E+00 -0.00000000000E+00 -0.29739281693E+02  0.29739281693E+02  0.00000000000E+00 0. -1.
         25    1    1    2    0    0 -0.47068133254E+02 -0.10702567104E+03  0.77176013222E+03  0.79051160973E+03  0.12500000000E+03 0.  0.
         25    1    1    2    0    0  0.47068133254E+02  0.10702567104E+03  0.33928535899E+03  0.38001244487E+03  0.12500000000E+03 0.  0.
</event>
<event>
 4    0  0.2188063E-002  0.2831856E+03  0.7546771E-02  0.1093962E+00
         21   -1    0    0  502  501  0.00000000000E+00  0.00000000000E+00  0.56235480568E+02  0.56235480568E+02  0.00000000000E+00 0.  1.
         21   -1    0    0  501  502 -0.00000000000E+00 -0.00000000000E+00 -0.14260407773E+04  0.14260407773E+04  0.00000000000E+00 0.  1.
         25    1    1    2    0    0  0.24243155100E+03  0.75743354853E+02 -0.66480410760E+03  0.72256460902E+03  0.12500000000E+03 0.  0.
         25    1    1    2    0    0 -0.24243155100E+03 -0.75743354853E+02 -0.70500118916E+03  0.75971164888E+03  0.12500000000E+03 0.  0.
</event>
<event>
 4    0  0.2188063E-002  0.2901764E+03  0.7546771E-02  0.1090257E+00
         21   -1    0    0  502  501  0.00000000000E+00  0.00000000000E+00  0.15022314034E+03  0.15022314034E+03  0.00000000000E+00 0. -1.
         21   -1    0    0  501  502 -0.00000000000E+00 -0.00000000000E+00 -0.56051530965E+03  0.56051530965E+03  0.00000000000E+00 0. -1.
         25    1    1    2    0    0  0.27540773246E+02 -0.25010916418E+03 -0.11628998968E+03  0.30407474393E+03  0.12500000000E+03 0.  0.
         25    1    1    2    0    0 -0.27540773246E+02  0.25010916418E+03 -0.29400217964E+03  0.40666370606E+03  0.12500000000E+03 0.  0.
</event>
<event>
 4    0  0.2188063E-002  0.2068138E+03  0.7546771E-02  0.1144114E+00
         21   -1    0    0  502  501  0.00000000000E+00  0.00000000000E+00  0.76589872057E+03  0.76589872057E+03  0.00000000000E+00 0.  1.
         21   -1    0    0  501  502 -0.00000000000E+00 -0.00000000000E+00 -0.55845444740E+02  0.55845444740E+02  0.00000000000E+00 0.  1.
         25    1    1    2    0    0  0.12527438939E+03 -0.10534912627E+03  0.39245024053E+03  0.44320909550E+03  0.12500000000E+03 0.  0.
         25    1    1    2    0    0 -0.12527438939E+03  0.10534912627E+03  0.31760303530E+03  0.37853506981E+03  0.12500000000E+03 0.  0.
</event>
<event>
 4    0  0.2188063E-002  0.1822947E+03  0.7546771E-02  0.1165601E+00
         21   -1    0    0  502  501  0.00000000000E+00  0.00000000000E+00  0.57288383540E+03  0.57288383540E+03  0.00000000000E+00 0. -1.
         21   -1    0    0  501  502 -0.00000000000E+00 -0.00000000000E+00 -0.58007141538E+02  0.58007141538E+02  0.00000000000E+00 0. -1.
         25    1    1    2    0    0  0.60653487331E+02  0.67387545809E+02  0.42508714890E+03  0.45226542098E+03  0.12500000000E+03 0.  0.
         25    1    1    2    0    0 -0.60653487331E+02 -0.67387545809E+02  0.89789544960E+02  0.17862555595E+03  0.12500000000E+03 0.  0.
</event>
<event>
 4    0  0.2188063E-002  0.1671568E+03  0.7546771E-02  0.1180846E+00
         21   -1    0    0  502  501  0.00000000000E+00  0.00000000000E+00  0.12507243316E+03  0.12507243316E+03  0.00000000000E+00 0.  1.
         21   -1    0    0  501  502 -0.00000000000E+00 -0.00000000000E+00 -0.22340159588E+03  0.22340159588E+03  0.00000000000E+00 0.  1.
         25    1    1    2    0    0  0.15770224311E+02 -0.77592197243E+02 -0.13022170990E+03  0.19710896169E+03  0.12500000000E+03 0.  0.
         25    1    1    2    0    0 -0.15770224311E+02  0.77592197243E+02  0.31892547187E+02  0.15136506735E+03  0.12500000000E+03 0.  0.
</event>
<event>
 4    0  0.2188063E-002  0.2289560E+03  0.7546771E-02  0.1127377E+00
         21   -1    0    0  502  501  0.00000000000E+00  0.00000000000E+00  0.21874666030E+03  0.21874666030E+03  0.00000000000E+00 0. -1.
         21   -1    0    0  501  502 -0.00000000000E+00 -0.00000000000E+00 -0.23964186114E+03  0.23964186114E+03  0.00000000000E+00 0. -1.
         25    1    1    2    0    0 -0.22771478702E+02  0.14360092291E+02  0.17967397302E+03  0.22052775125E+03  0.12500000000E+03 0.  0.
         25    1    1    2    0    0  0.22771478702E+02 -0.14360092291E+02 -0.20056917385E+03  0.23786077018E+03  0.12500000000E+03 0.  0.
</event>
<event>
 4    0  0.2188063E-002  0.2489432E+03  0.7546771E-02  0.1113975E+00
         21   -1    0    0  502  501  0.00000000000E+00  0.00000000000E+00  0.54931888528E+03  0.54931888528E+03  0.00000000000E+00 0.  1.
         21   -1    0    0  501  502 -0.00000000000E+00 -0.00000000000E+00 -0.11281736289E+03  0.11281736289E+03  0.00000000000E+00 0.  1.
         25    1    1    2    0    0 -0.79897344132E+02 -0.84934709404E+02  0.45892201791E+03  0.48972636133E+03  0.12500000000E+03 0.  0.
         25    1    1    2    0    0  0.79897344132E+02  0.84934709404E+02 -0.22420495516E+02  0.17240988684E+03  0.12500000000E+03 0.  0.
</event>
<event>
 4    0  0.2188063E-002  0.1737866E+03  0.7546771E-02  0.1173956E+00
         21   -1    0    0  502  501  0.00000000000E+00  0.00000000000E+00  0.29433045995E+02  0.29433045995E+02  0.00000000000E+00 0.  1.
         21   -1    0    0  501  502 -0.00000000000E+00 -0.00000000000E+00 -0.10261182479E+04  0.10261182479E+04  0.00000000000E+00 0.  1.
         25    1    1    2    0    0 -0.20737569232E+01  0.11992243211E+03 -0.54032412018E+03  0.56741593654E+03  0.12500000000E+03 0.  0.
         25    1    1    2    0    0  0.20737569232E+01 -0.11992243211E+03 -0.45636108175E+03  0.48813535738E+03  0.12500000000E+03 0.  0.
</event>
<event>
 4    0  0.2188063E-002  0.3149245E+03  0.7546771E-02  0.1078009E+00
         21   -1    0    0  502  501  0.00000000000E+00  0.00000000000E+00  0.74797997265E+02  0.74797997265E+02  0.00000000000E+00 0.  1.
         21   -1    0    0  501  502 -0.00000000000E+00 -0.00000000000E+00 -0.13259371365E+04  0.13259371365E+04  0.00000000000E+00 0.  1.
         25    1    1    2    0    0  0.10132855370E+03  0.13932582343E+03 -0.10938348941E+03  0.23930923222E+03  0.12500000000E+03 0.  0.
         25    1    1    2    0    0 -0.10132855370E+03 -0.13932582343E+03 -0.11417556499E+04  0.11614259016E+04  0.12500000000E+03 0.  0.
</event>
<event>
 4    0  0.2188063E-002  0.1416823E+03  0.7546771E-02  0.1211083E+00
         21   -1    0    0  502  501  0.00000000000E+00  0.00000000000E+00  0.10659179510E+04  0.10659179510E+04  0.00000000000E+00 0.  1.
         21   -1    0    0  501  502 -0.00000000000E+00 -0.00000000000E+00 -0.18832465497E+02  0.18832465497E+02  0.00000000000E+00 0.  1.
         25    1    1    2    0    0  0.50254197481E+02 -0.11613389740E+02  0.36164910683E+03  0.38610287703E+03  0.12500000000E+03 0.  0.
         25    1    1    2    0    0 -0.50254197481E+02  0.11613389740E+02  0.68543637872E+03  0.69864753951E+03  0.12500000000E+03 0.  0.
</event>
<event>
 4    0  0.2188063E-002  0.2876227E+03  0.7546771E-02  0.1091597E+00
         21   -1    0    0  502  501  0.00000000000E+00  0.00000000000E+00  0.12849059097E+03  0.12849059097E+03  0.00000000000E+00 0.  1.
         21   -1    0    0  501  502 -0.00000000000E+00 -0.00000000000E+00 -0.64383539665E+03  0.64383539665E+03  0.00000000000E+00 0.  1.
         25    1    1    2    0    0  0.25471800986E+02 -0.17843380699E+03 -0.78820375238E+01  0.21948704435E+03  0.12500000000E+03 0.  0.
         25    1    1    2    0    0 -0.25471800986E+02  0.17843380699E+03 -0.50746276816E+03  0.55283894326E+03  0.12500000000E+03 0.  0.
</event>
<event>
 4    0  0.2188063E-002  0.1883028E+03  0.7546771E-02  0.1160001E+00
         21   -1    0    0  502  501  0.00000000000E+00  0.00000000000E+00  0.96106617042E+02  0.96106617042E+02  0.00000000000E+00 0. -1.
         21   -1    0    0  501  502 -0.00000000000E+00 -0.00000000000E+00 -0.36894402065E+03  0.36894402065E+03  0.00000000000E+00 0. -1.
         25    1    1    2    0    0  0.91428761211E+02 -0.94456395766E+02 -0.74040773276E+02  0.19592923515E+03  0.12500000000E+03 0.  0.
         25    1    1    2    0    0 -0.91428761211E+02  0.94456395766E+02 -0.19879663033E+03  0.26912140255E+03  0.12500000000E+03 0.  0.
</event>
<event>
 4    0  0.2188063E-002  0.2402396E+03  0.7546771E-02  0.1119633E+00
         21   -1    0    0  502  501  0.00000000000E+00  0.00000000000E+00  0.42017729357E+03  0.42017729357E+03  0.00000000000E+00 0.  1.
         21   -1    0    0  501  502 -0.00000000000E+00 -0.00000000000E+00 -0.13735879915E+03  0.13735879915E+03  0.00000000000E+00 0.  1.
         25    1    1    2    0    0 -0.13839191171E+03  0.15138075748E+03  0.14680137384E+03  0.28150328298E+03  0.12500000000E+03 0.  0.
         25    1    1    2    0    0  0.13839191171E+03 -0.15138075748E+03  0.13601712058E+03  0.27603280975E+03  0.12500000000E+03 0.  0.
</event>
<event>
 4    0  0.2188063E-002  0.2349281E+03  0.7546771E-02  0.1123218E+00
         21   -1    0    0  502  501  0.00000000000E+00  0.00000000000E+00  0.40128512290E+03  0.40128512290E+03  0.00000000000E+00 0.  1.
         21   -1    0    0  501  502 -0.00000000000E+00 -0.00000000000E+00 -0.13753609703E+03  0.13753609703E+03  0.00000000000E+00 0.  1.
         25    1    1    2    0    0 -0.11021315297E+03  0.71529931708E+02  0.30313561236E+03  0.35324165906E+03  0.12500000000E+03 0.  0.
         25    1    1    2    0    0  0.11021315297E+03 -0.71529931708E+02 -0.39386586491E+02  0.18557956087E+03  0.12500000000E+03 0.  0.
</event>
<event>
 4    0  0.2188063E-002  0.2149134E+03  0.7546771E-02  0.1137733E+00
         21   -1    0    0  502  501  0.00000000000E+00  0.00000000000E+00  0.22140839410E+03  0.22140839410E+03  0.00000000000E+00 0. -1.
         21   -1    0    0  501  502 -0.00000000000E+00 -0.00000000000E+00 -0.20860886732E+03  0.20860886732E+03  0.00000000000E+00 0. -1.
         25    1    1    2    0    0  0.27299699812E+02 -0.16124546409E+03 -0.55412582207E+02  0.21316877719E+03  0.12500000000E+03 0.  0.
         25    1    1    2    0    0 -0.27299699812E+02  0.16124546409E+03  0.68212108988E+02  0.21684848423E+03  0.12500000000E+03 0.  0.
</event>
<event>
 4    0  0.2188063E-002  0.1999181E+03  0.7546771E-02  0.1149808E+00
         21   -1    0    0  502  501  0.00000000000E+00  0.00000000000E+00  0.40250675129E+03  0.40250675129E+03  0.00000000000E+00 0. -1.
         21   -1    0    0  501  502 -0.00000000000E+00 -0.00000000000E+00 -0.99295793634E+02  0.99295793634E+02  0.00000000000E+00 0. -1.
         25    1    1    2    0    0 -0.10909547581E+03 -0.66956922809E+02  0.39653878214E+02  0.18325523843E+03  0.12500000000E+03 0.  0.
         25    1    1    2    0    0  0.10909547581E+03  0.66956922809E+02  0.26355707944E+03  0.31854730649E+03  0.12500000000E+03 0.  0.
</event>
<event>
 4    0  0.2188063E-002  0.1983080E+03  0.7546771E-02  0.1151174E+00
         21   -1    0    0  502  501  0.00000000000E+00  0.00000000000E+00  0.25161793814E+02  0.25161793814E+02  0.00000000000E+00 0. -1.
         21   -1    0    0  501  502 -0.00000000000E+00 -0.00000000000E+00 -0.15629282690E+04  0.15629282690E+04  0.00000000000E+00 0. -1.
         25    1    1    2    0    0  0.11471397994E+03 -0.26379977766E+01 -0.35790538021E+03  0.39609028946E+03  0.12500000000E+03 0.  0.
         25    1    1    2    0    0 -0.11471397994E+03  0.26379977766E+01 -0.11798610949E+04  0.11919997733E+04  0.12500000000E+03 0.  0.
</event>
<event>
 4    0  0.2188063E-002  0.2167973E+03  0.7546771E-02  0.1136294E+00
         21   -1    0    0  502  501  0.00000000000E+00  0.00000000000E+00  0.14667370152E+03  0.14667370152E+03  0.00000000000E+00 0.  1.
         21   -1    0    0  501  502 -0.00000000000E+00 -0.00000000000E+00 -0.32044650831E+03  0.32044650831E+03  0.00000000000E+00 0.  1.
         25    1    1    2    0    0 -0.12305395098E+03 -0.82893690281E+02 -0.19112755788E+03  0.27233872681E+03  0.12500000000E+03 0.  0.
         25    1    1    2    0    0  0.12305395098E+03  0.82893690281E+02  0.17354751095E+02  0.19478148302E+03  0.12500000000E+03 0.  0.
</event>
<event>
 4    0  0.2188063E-002  0.2027445E+03  0.7546771E-02  0.1147444E+00
         21   -1    0    0  502  501  0.00000000000E+00  0.00000000000E+00  0.14067039912E+03  0.14067039912E+03  0.00000000000E+00 0. -1.
         21   -1    0    0  501  502 -0.00000000000E+00 -0.00000000000E+00 -0.29221034418E+03  0.29221034418E+03  0.00000000000E+00 0. -1.
         25    1    1    2    0    0 -0.50351053912E+02 -0.58969641062E+02  0.73182056853E+02  0.16429625876E+03  0.12500000000E+03 0.  0.
         25    1    1    2    0    0  0.50351053912E+02  0.58969641062E+02 -0.22472200191E+03  0.26858448455E+03  0.12500000000E+03 0.  0.
</event>
<event>
 4    0  0.2188063E-002  0.1781684E+03  0.7546771E-02  0.1169588E+00
         21   -1    0    0  502  501  0.00000000000E+00  0.00000000000E+00  0.54895409427E+02  0.54895409427E+02  0.00000000000E+00 0.  1.
         21   -1    0    0  501  502 -0.00000000000E+00 -0.00000000000E+00 -0.57826308655E+03  0.57826308655E+03  0.00000000000E+00 0.  1.
         25    1    1    2    0    0  0.40471492640E+02 -0.74071721864E+02 -0.43019879377E+03  0.45587340771E+03  0.12500000000E+03 0.  0.
         25    1    1    2    0    0 -0.40471492640E+02  0.74071721864E+02 -0.93168883355E+02  0.17728508827E+03  0.12500000000E+03 0.  0.
</event>
<event>
 4    0  0.2188063E-002  0.1817575E+03  0.7546771E-02  0.1166113E+00
         21   -1    0    0  502  501  0.00000000000E+00  0.00000000000E+00  0.42923292747E+03  0.42923292747E+03  0.00000000000E+00 0. -1.
         21   -1    0    0  501  502 -0.00000000000E+00 -0.00000000000E+00 -0.76964678209E+02  0.76964678209E+02  0.00000000000E+00 0. -1.
         25    1    1    2    0    0 -0.72824032060E+02 -0.99548310250E+02  0.11085579250E+03  0.20767092346E+03  0.12500000000E+03 0.  0.
         25    1    1    2    0    0  0.72824032060E+02  0.99548310250E+02  0.24141245676E+03  0.29852668222E+03  0.12500000000E+03 0.  0.
</event>
<event>
 4    0  0.2188063E-002  0.2403086E+03  0.7546771E-02  0.1119587E+00
         21   -1    0    0  502  501  0.00000000000E+00  0.00000000000E+00  0.56520892466E+02  0.56520892466E+02  0.00000000000E+00 0. -1.
         21   -1    0    0  501  502 -0.00000000000E+00 -0.00000000000E+00 -0.10217149204E+04  0.10217149204E+04  0.00000000000E+00 0. -1.
         25    1    1    2    0    0  0.15287084714E+03  0.11171001713E+03 -0.66030540561E+03  0.69819542573E+03  0.12500000000E+03 0.  0.
         25    1    1    2    0    0 -0.15287084714E+03 -0.11171001713E+03 -0.30488862233E+03  0.38004038714E+03  0.12500000000E+03 0.  0.
</event>
<event>
 4    0  0.2188063E-002  0.1706821E+03  0.7546771E-02  0.1177138E+00
         21   -1    0    0  502  501  0.00000000000E+00  0.00000000000E+00  0.12849483876E+03  0.12849483876E+03  0.00000000000E+00 0.  1.
         21   -1    0    0  501  502 -0.00000000000E+00 -0.00000000000E+00 -0.22672033344E+03  0.22672033344E+03  0.00000000000E+00 0.  1.
         25    1    1    2    0    0 -0.58347130380E+01 -0.48914730652E+01 -0.16978995409E+03  0.21097772132E+03  0.12500000000E+03 0.  0.
         25    1    1    2    0    0  0.58347130380E+01  0.48914730652E+01  0.71564459410E+02  0.14423745088E+03  0.12500000000E+03 0.  0.
</event>
<event>
 4    0  0.2188063E-002  0.4178626E+03  0.7546771E-02  0.1037764E+00
         21   -1    0    0  502  501  0.00000000000E+00  0.00000000000E+00  0.69754227253E+03  0.69754227253E+03  0.00000000000E+00 0. -1.
         21   -1    0    0  501  502 -0.00000000000E+00 -0.00000000000E+00 -0.25032056144E+03  0.25032056144E+03  0.00000000000E+00 0. -1.
         25    1    1    2    0    0 -0.33779593407E+03 -0.35586659047E+02  0.46046627664E+03  0.58568480883E+03  0.12500000000E+03 0.  0.
         25    1    1    2    0    0  0.33779593407E+03  0.35586659047E+02 -0.13244565550E+02  0.36217802514E+03  0.12500000000E+03 0.  0.
</event>
<event>
 4    0  0.2188063E-002  0.2030313E+03  0.7546771E-02  0.1147206E+00
         21   -1    0    0  502  501  0.00000000000E+00  0.00000000000E+00  0.75931536010E+02  0.75931536010E+02  0.00000000000E+00 0.  1.
         21   -1    0    0  501  502 -0.00000000000E+00 -0.00000000000E+00 -0.54287993958E+03  0.54287993958E+03  0.00000000000E+00 0.  1.
         25    1    1    2    0    0 -0.36140153013E+02 -0.13875020524E+03 -0.12529679008E+03  0.22777624046E+03  0.12500000000E+03 0.  0.
         25    1    1    2    0    0  0.36140153013E+02  0.13875020524E+03 -0.34165161348E+03  0.39103523513E+03  0.12500000000E+03 0.  0.
</event>
<event>
 4    0  0.2188063E-002  0.2053688E+03  0.7546771E-02  0.1145287E+00
         21   -1    0    0  502  501  0.00000000000E+00  0.00000000000E+00  0.15052663857E+03  0.15052663857E+03  0.00000000000E+00 0.  1.
         21   -1    0    0  501  502 -0.00000000000E+00 -0.00000000000E+00 -0.28019184403E+03  0.28019184403E+03  0.00000000000E+00 0.  1.
         25    1    1    2    0    0  0.10032004914E+03 -0.80519146537E+02  0.40052441672E+02  0.18378423029E+03  0.12500000000E+03 0.  0.
         25    1    1    2    0    0 -0.10032004914E+03  0.80519146537E+02 -0.16971764713E+03  0.24693425232E+03  0.12500000000E+03 0.  0.
</event>
<event>
 4    0  0.2188063E-002  0.2058765E+03  0.7546771E-02  0.1144874E+00
         21   -1    0    0  502  501  0.00000000000E+00  0.00000000000E+00  0.13029324764E+03  0.13029324764E+03  0.00000000000E+00 0. -1.
         21   -1    0    0  501  502 -0.00000000000E+00 -0.00000000000E+00 -0.32530555259E+03  0.32530555259E+03  0.00000000000E+00 0. -1.
         25    1    1    2    0    0 -0.14050871922E+02 -0.12405238606E+03  0.19455716129E+02  0.17773560808E+03  0.12500000000E+03 0.  0.
         25    1    1    2    0    0  0.14050871922E+02  0.12405238606E+03 -0.21446802107E+03  0.27786319215E+03  0.12500000000E+03 0.  0.
</event>
<event>
 4    0  0.2188063E-002  0.3409106E+03  0.7546771E-02  0.1066409E+00
         21   -1    0    0  502  501  0.00000000000E+00  0.00000000000E+00  0.16329638955E+04  0.16329638955E+04  0.00000000000E+00 0.  1.
         21   -1    0    0  501  502 -0.00000000000E+00 -0.00000000000E+00 -0.71171204272E+02  0.71171204272E+02  0.00000000000E+00 0.  1.
         25    1    1    2    0    0 -0.17439530694E+03  0.19841908148E+03  0.12196164592E+04  0.12541424012E+04  0.12500000000E+03 0.  0.
         25    1    1    2    0    0  0.17439530694E+03 -0.19841908148E+03  0.34217623197E+03  0.44999269850E+03  0.12500000000E+03 0.  0.
</event>
<event>
 4    0  0.2188063E-002  0.2775284E+03  0.7546771E-02  0.1097047E+00
         21   -1    0    0  502  501  0.00000000000E+00  0.00000000000E+00  0.14355733655E+03  0.14355733655E+03  0.00000000000E+00 0. -1.
         21   -1    0    0  501  502 -0.00000000000E+00 -0.00000000000E+00 -0.53652434761E+03  0.53652434761E+03  0.00000000000E+00 0. -1.
         25    1    1    2    0    0  0.14706279594E+03 -0.10151928669E+03 -0.40679592260E+03  0.46156424706E+03  0.12500000000E+03 0.  0.
         25    1    1    2    0    0 -0.14706279594E+03  0.10151928669E+03  0.13828911551E+02  0.21851743710E+03  0.12500000000E+03 0.  0.
</event>
<event>
 4    0  0.2188063E-002  0.2488810E+03  0.7546771E-02  0.1114014E+00
         21   -1    0    0  502  501  0.00000000000E+00  0.00000000000E+00  0.15267676204E+04  0.15267676204E+04  0.00000000000E+00 0.  1.
         21   -1    0    0  501  502 -0.00000000000E+00 -0.00000000000E+00 -0.40570507999E+02  0.40570507999E+02  0.00000000000E+00 0.  1.
         25    1    1    2    0    0  0.18374747681E+03 -0.11132948873E+03  0.78284642620E+03  0.82135918897E+03  0.12500000000E+03 0.  0.
         25    1    1    2    0    0 -0.18374747681E+03  0.11132948873E+03  0.70335068625E+03  0.74597893947E+03  0.12500000000E+03 0.  0.
</event>
<event>
 4    0  0.2188063E-002  0.2927185E+03  0.7546771E-02  0.1088938E+00
         21   -1    0    0  502  501  0.00000000000E+00  0.00000000000E+00  0.47834566633E+03  0.47834566633E+03  0.00000000000E+00 0.  1.
         21   -1    0    0  501  502 -0.00000000000E+00 -0.00000000000E+00 -0.17912600252E+03  0.17912600252E+03  0.00000000000E+00 0.  1.
         25    1    1    2    0    0 -0.19036431744E+03 -0.12056136873E+03  0.30556960642E+03  0.39971414955E+03  0.12500000000E+03 0.  0.
         25    1    1    2    0    0  0.19036431744E+03  0.12056136873E+03 -0.63499426134E+01  0.25775751930E+03  0.12500000000E+03 0.  0.
</event>
<event>
 4    0  0.2188063E-002  0.2121827E+03  0.7546771E-02  0.1139849E+00
         21   -1    0    0  502  501  0.00000000000E+00  0.00000000000E+00  0.95539471588E+03  0.95539471588E+03  0.00000000000E+00 0.  1.
         21   -1    0    0  501  502 -0.00000000000E+00 -0.00000000000E+00 -0.47123433843E+02  0.47123433843E+02  0.00000000000E+00 0.  1.
         25    1    1    2    0    0  0.16793337882E+03 -0.27934550275E+02  0.40603780197E+03  0.45768292021E+03  0.12500000000E+03 0.  0.
         25    1    1    2    0    0 -0.16793337882E+03  0.27934550275E+02  0.50223348007E+03  0.54483522952E+03  0.12500000000E+03 0.  0.
</event>
<event>
 4    0  0.2188063E-002  0.1562652E+03  0.7546771E-02  0.1192979E+00
         21   -1    0    0  502  501  0.00000000000E+00  0.00000000000E+00  0.77468438886E+01  0.77468438886E+01  0.00000000000E+00 0.  1.
         21   -1    0    0  501  502 -0.00000000000E+00 -0.00000000000E+00 -0.31520977413E+04  0.31520977413E+04  0.00000000000E+00 0. -1.
         25    1    1    2    0    0  0.38246220661E+02 -0.79469494322E+02 -0.18943879299E+04  0.19005548671E+04  0.12500000000E+03 0.  0.
         25    1    1    2    0    0 -0.38246220661E+02  0.79469494322E+02 -0.12499629675E+04  0.12592897180E+04  0.12500000000E+03 0.  0.
</event>
<event>
 4    0  0.2188063E-002  0.2392296E+03  0.7546771E-02  0.1120307E+00
         21   -1    0    0  502  501  0.00000000000E+00  0.00000000000E+00  0.60377522904E+02  0.60377522904E+02  0.00000000000E+00 0.  1.
         21   -1    0    0  501  502 -0.00000000000E+00 -0.00000000000E+00 -0.94788217301E+03  0.94788217301E+03  0.00000000000E+00 0.  1.
         25    1    1    2    0    0 -0.15332002346E+03 -0.64840626040E+02 -0.69215034584E+03  0.72277827695E+03  0.12500000000E+03 0.  0.
         25    1    1    2    0    0  0.15332002346E+03  0.64840626040E+02 -0.19535430426E+03  0.28548141896E+03  0.12500000000E+03 0.  0.
</event>
<event>
 4    0  0.2188063E-002  0.2677830E+03  0.7546771E-02  0.1102555E+00
         21   -1    0    0  502  501  0.00000000000E+00  0.00000000000E+00  0.17536217368E+04  0.17536217368E+04  0.00000000000E+00 0.  1.
         21   -1    0    0  501  502 -0.00000000000E+00 -0.00000000000E+00 -0.40891224889E+02  0.40891224889E+02  0.00000000000E+00 0.  1.
         25    1    1    2    0    0 -0.21138665169E+03  0.31773100633E+02  0.51484359872E+03  0.57129920146E+03  0.12500000000E+03 0.  0.
         25    1    1    2    0    0  0.21138665169E+03 -0.31773100633E+02  0.11978869132E+04  0.12232137603E+04  0.12500000000E+03 0.  0.
</event>
<event>
 4    0  0.2188063E-002  0.1792350E+03  0.7546771E-02  0.1168545E+00
         21   -1    0    0  502  501  0.00000000000E+00  0.00000000000E+00  0.60501434124E+03  0.60501434124E+03  0.00000000000E+00 0. -1.
         21   -1    0    0  501  502 -0.00000000000E+00 -0.00000000000E+00 -0.53098220032E+02  0.53098220032E+02  0.00000000000E+00 0. -1.
         25    1    1    2    0    0  0.10078195420E+03 -0.56622395299E+02  0.17313024093E+03  0.24282128874E+03  0.12500000000E+03 0.  0.
         25    1    1    2    0    0 -0.10078195420E+03  0.56622395299E+02  0.37878588028E+03  0.41529127253E+03  0.12500000000E+03 0.  0.
</event>
<event>
 4    0  0.2188063E-002  0.2202119E+03  0.7546771E-02  0.1133725E+00
         21   -1    0    0  502  501  0.00000000000E+00  0.00000000000E+00  0.74753320056E+02  0.74753320056E+02  0.00000000000E+00 0. -1.
         21   -1    0    0  501  502 -0.00000000000E+00 -0.00000000000E+00 -0.64871070167E+03  0.64871070167E+03  0.00000000000E+00 0. -1.
         25    1    1    2    0    0  0.24638931200E+01 -0.82431877162E+02 -0.21766607633E+02  0.15132703113E+03  0.12500000000E+03 0.  0.
         25    1    1    2    0    0 -0.24638931200E+01  0.82431877162E+02 -0.55219077398E+03  0.57213699060E+03  0.12500000000E+03 0.  0.
</event>
<event>
 4    0  0.2188063E-002  0.2416707E+03  0.7546771E-02  0.1118685E+00
         21   -1    0    0  502  501  0.00000000000E+00  0.00000000000E+00  0.92065113370E+02  0.92065113370E+02  0.00000000000E+00 0.  1.
         21   -1    0    0  501  502 -0.00000000000E+00 -0.00000000000E+00 -0.63438516559E+03  0.63438516559E+03  0.00000000000E+00 0.  1.
         25    1    1    2    0    0  0.16158073634E+03  0.35539177624E+02 -0.84594988956E+02  0.22394793962E+03  0.12500000000E+03 0.  0.
         25    1    1    2    0    0 -0.16158073634E+03 -0.35539177624E+02 -0.45772506326E+03  0.50250233934E+03  0.12500000000E+03 0.  0.
</event>
<event>
 4    0  0.2188063E-002  0.2506468E+03  0.7546771E-02  0.1112897E+00
         21   -1    0    0  502  501  0.00000000000E+00  0.00000000000E+00  0.47188133861E+03  0.47188133861E+03  0.00000000000E+00 0.  1.
         21   -1    0    0  501  502 -0.00000000000E+00 -0.00000000000E+00 -0.13313475208E+03  0.13313475208E+03  0.00000000000E+00 0. -1.
         25    1    1    2    0    0 -0.18285035858E+03 -0.10234956313E+03  0.10015600842E+03  0.26375350752E+03  0.12500000000E+03 0.  0.
         25    1    1    2    0    0  0.18285035858E+03  0.10234956313E+03  0.23859057811E+03  0.34126258317E+03  0.12500000000E+03 0.  0.
</event>
<event>
 4    0  0.2188063E-002  0.1557205E+03  0.7546771E-02  0.1193615E+00
         21   -1    0    0  502  501  0.00000000000E+00  0.00000000000E+00  0.33504845344E+03  0.33504845344E+03  0.00000000000E+00 0.  1.
         21   -1    0    0  501  502 -0.00000000000E+00 -0.00000000000E+00 -0.72374200482E+02  0.72374200482E+02  0.00000000000E+00 0.  1.
         25    1    1    2    0    0  0.83752627815E+02 -0.18744506396E+02  0.17773634016E+03  0.23362590995E+03  0.12500000000E+03 0.  0.
         25    1    1    2    0    0 -0.83752627815E+02  0.18744506396E+02  0.84937912806E+02  0.17379674398E+03  0.12500000000E+03 0.  0.
</event>
<event>
 4    0  0.2188063E-002  0.2359729E+03  0.7546771E-02  0.1122505E+00
         21   -1    0    0  502  501  0.00000000000E+00  0.00000000000E+00  0.50082024996E+03  0.50082024996E+03  0.00000000000E+00 0. -1.
         21   -1    0    0  501  502 -0.00000000000E+00 -0.00000000000E+00 -0.11118406586E+03  0.11118406586E+03  0.00000000000E+00 0. -1.
         25    1    1    2    0    0  0.16994302275E+02 -0.18581906744E+03  0.28869459499E+03  0.36576919131E+03  0.12500000000E+03 0.  0.
         25    1    1    2    0    0 -0.16994302275E+02  0.18581906744E+03  0.10094158910E+03  0.24623512451E+03  0.12500000000E+03 0.  0.
</event>
<event>
 4    0  0.2188063E-002  0.1790527E+03  0.7546771E-02  0.1168723E+00
         21   -1    0    0  502  501  0.00000000000E+00  0.00000000000E+00  0.82234271333E+02  0.82234271333E+02  0.00000000000E+00 0.  1.
         21   -1    0    0  501  502 -0.00000000000E+00 -0.00000000000E+00 -0.38986012814E+03  0.38986012814E+03  0.00000000000E+00 0.  1.
         25    1    1    2    0    0  0.42076383152E+02 -0.11411385209E+03 -0.10038519127E+03  0.20123265114E+03  0.12500000000E+03 0.  0.
         25    1    1    2    0    0 -0.42076383152E+02  0.11411385209E+03 -0.20724066554E+03  0.27086174833E+03  0.12500000000E+03 0.  0.
</event>
<event>
 4    0  0.2188063E-002  0.2518885E+03  0.7546771E-02  0.1112117E+00
         21   -1    0    0  502  501  0.00000000000E+00  0.00000000000E+00  0.12041910945E+04  0.12041910945E+04  0.00000000000E+00 0. -1.
         21   -1    0    0  501  502 -0.00000000000E+00 -0.00000000000E+00 -0.52689145502E+02  0.52689145502E+02  0.00000000000E+00 0. -1.
         25    1    1    2    0    0 -0.12843844345E+02 -0.32208639200E+02  0.11144470344E+04  0.11219712801E+04  0.12500000000E+03 0.  0.
         25    1    1    2    0    0  0.12843844345E+02  0.32208639200E+02  0.37054914585E+02  0.13490895994E+03  0.12500000000E+03 0.  0.
</event>
<event>
 4    0  0.2188063E-002  0.2215381E+03  0.7546771E-02  0.1132742E+00
         21   -1    0    0  502  501  0.00000000000E+00  0.00000000000E+00  0.21551937543E+04  0.21551937543E+04  0.00000000000E+00 0. -1.
         21   -1    0    0  501  502 -0.00000000000E+00 -0.00000000000E+00 -0.22772485467E+02  0.22772485467E+02  0.00000000000E+00 0. -1.
         25    1    1    2    0    0  0.47175760184E+02  0.16562663751E+03  0.13690816987E+04  0.13855206361E+04  0.12500000000E+03 0.  0.
         25    1    1    2    0    0 -0.47175760184E+02 -0.16562663751E+03  0.76333957010E+03  0.79244560361E+03  0.12500000000E+03 0.  0.
</event>
<event>
 4    0  0.2188063E-002  0.2448702E+03  0.7546771E-02  0.1116590E+00
         21   -1    0    0  502  501  0.00000000000E+00  0.00000000000E+00  0.64395301712E+03  0.64395301712E+03  0.00000000000E+00 0. -1.
         21   -1    0    0  501  502 -0.00000000000E+00 -0.00000000000E+00 -0.93114586464E+02  0.93114586464E+02  0.00000000000E+00 0. -1.
         25    1    1    2    0    0  0.15875089541E+02 -0.12698164749E+03  0.23761390280E+02  0.18046041376E+03  0.12500000000E+03 0.  0.
         25    1    1    2    0    0 -0.15875089541E+02  0.12698164749E+03  0.52707704037E+03  0.55660718982E+03  0.12500000000E+03 0.  0.
</event>
<event>
 4    0  0.2188063E-002  0.2534468E+03  0.7546771E-02  0.1111146E+00
         21   -1    0    0  502  501  0.00000000000E+00  0.00000000000E+00  0.63289104206E+02  0.63289104206E+02  0.00000000000E+00 0.  1.
         21   -1    0    0  501  502 -0.00000000000E+00 -0.00000000000E+00 -0.10149504286E+04  0.10149504286E+04  0.00000000000E+00 0.  1.
         25    1    1    2    0    0 -0.55258674893E+02  0.16876826324E+03 -0.75378068305E+03  0.78444028834E+03  0.12500000000E+03 0.  0.
         25    1    1    2    0    0  0.55258674893E+02 -0.16876826324E+03 -0.19788064133E+03  0.29379924446E+03  0.12500000000E+03 0.  0.
</event>
<event>
 4    0  0.2188063E-002  0.1915575E+03  0.7546771E-02  0.1157064E+00
         21   -1    0    0  502  501  0.00000000000E+00  0.00000000000E+00  0.32387767997E+03  0.32387767997E+03  0.00000000000E+00 0.  1.
         21   -1    0    0  501  502 -0.00000000000E+00 -0.00000000000E+00 -0.11329672978E+03  0.11329672978E+03  0.00000000000E+00 0.  1.
         25    1    1    2    0    0  0.16114453467E+02 -0.13684793688E+03  0.15736098421E+03  0.24366885888E+03  0.12500000000E+03 0.  0.
         25    1    1    2    0    0 -0.16114453467E+02  0.13684793688E+03  0.53219965983E+02  0.19350555087E+03  0.12500000000E+03 0.  0.
</event>
<event>
 4    0  0.2188063E-002  0.1818819E+03  0.7546771E-02  0.1165994E+00
         21   -1    0    0  502  501  0.00000000000E+00  0.00000000000E+00  0.22072520277E+03  0.22072520277E+03  0.00000000000E+00 0.  1.
         21   -1    0    0  501  502 -0.00000000000E+00 -0.00000000000E+00 -0.14987427423E+03  0.14987427423E+03  0.00000000000E+00 0.  1.
         25    1    1    2    0    0 -0.23122312546E+02  0.12638050875E+03  0.40348601784E+01  0.17929850648E+03  0.12500000000E+03 0.  0.
         25    1    1    2    0    0  0.23122312546E+02 -0.12638050875E+03  0.66816068364E+02  0.19130097052E+03  0.12500000000E+03 0.  0.
</event>
<event>
 4    0  0.2188063E-002  0.1736184E+03  0.7546771E-02  0.1174126E+00
         21   -1    0    0  502  501  0.00000000000E+00  0.00000000000E+00  0.76320371261E+03  0.76320371261E+03  0.00000000000E+00 0. -1.
         21   -1    0    0  501  502 -0.00000000000E+00 -0.00000000000E+00 -0.39495824949E+02  0.39495824949E+02  0.00000000000E+00 0. -1.
         25    1    1    2    0    0 -0.10894053037E+03  0.37441550039E+02  0.28017445580E+03  0.32770815448E+03  0.12500000000E+03 0.  0.
         25    1    1    2    0    0  0.10894053037E+03 -0.37441550039E+02  0.44353343186E+03  0.47499138309E+03  0.12500000000E+03 0.  0.
</event>
<event>
 4    0  0.2188063E-002  0.1948714E+03  0.7546771E-02  0.1154140E+00
         21   -1    0    0  502  501  0.00000000000E+00  0.00000000000E+00  0.11248958834E+03  0.11248958834E+03  0.00000000000E+00 0. -1.
         21   -1    0    0  501  502 -0.00000000000E+00 -0.00000000000E+00 -0.33758574334E+03  0.33758574334E+03  0.00000000000E+00 0. -1.
         25    1    1    2    0    0  0.13861197669E+03 -0.54489959844E+01 -0.48179884885E+02  0.19284520462E+03  0.12500000000E+03 0.  0.
         25    1    1    2    0    0 -0.13861197669E+03  0.54489959844E+01 -0.17691627012E+03  0.25723012706E+03  0.12500000000E+03 0.  0.
</event>
<event>
 4    0  0.2188063E-002  0.1770744E+03  0.7546771E-02  0.1170665E+00
         21   -1    0    0  502  501  0.00000000000E+00  0.00000000000E+00  0.89477053795E+03  0.89477053795E+03  0.00000000000E+00 0. -1.
         21   -1    0    0  501  502 -0.00000000000E+00 -0.00000000000E+00 -0.35042881771E+02  0.35042881771E+02  0.00000000000E+00 0. -1.
         25    1    1    2    0    0  0.37554765677E+02  0.80131575375E+02  0.19652145633E+03  0.24915278966E+03  0.12500000000E+03 0.  0.
         25    1    1    2    0    0 -0.37554765677E+02 -0.80131575375E+02  0.66320619985E+03  0.68066063006E+03  0.12500000000E+03 0.  0.
</event>
<event>
 4    0  0.2188063E-002  0.2101804E+03  0.7546771E-02  0.1141423E+00
         21   -1    0    0  502  501  0.00000000000E+00  0.00000000000E+00  0.56573984120E+02  0.56573984120E+02  0.00000000000E+00 0. -1.
         21   -1    0    0  501  502 -0.00000000000E+00 -0.00000000000E+00 -0.78084980294E+03  0.78084980294E+03  0.00000000000E+00 0. -1.
         25    1    1    2    0    0 -0.14988196608E+03  0.38059677266E+02 -0.49780413808E+03  0.53604766829E+03  0.12500000000E+03 0.  0.
         25    1    1    2    0    0  0.14988196608E+03 -0.38059677266E+02 -0.22647168074E+03  0.30137611877E+03  0.12500000000E+03 0.  0.
</event>
<event>
 4    0  0.2188063E-002  0.3053982E+03  0.7546771E-02  0.1082573E+00
         21   -1    0    0  502  501  0.00000000000E+00  0.00000000000E+00  0.87431485878E+02  0.87431485878E+02  0.00000000000E+00 0.  1.
         21   -1    0    0  501  502 -0.00000000000E+00 -0.00000000000E+00 -0.10667558175E+04  0.10667558175E+04  0.00000000000E+00 0.  1.
         25    1    1    2    0    0 -0.15021000255E+03 -0.63914070915E+02 -0.91638278154E+03  0.93916476490E+03  0.12500000000E+03 0.  0.
         25    1    1    2    0    0  0.15021000255E+03  0.63914070915E+02 -0.62941550085E+02  0.21502253848E+03  0.12500000000E+03 0.  0.
</event>
<event>
 4    0  0.2188063E-002  0.2746027E+03  0.7546771E-02  0.1098674E+00
         21   -1    0    0  502  501  0.00000000000E+00  0.00000000000E+00  0.58656548546E+03  0.58656548546E+03  0.00000000000E+00 0. -1.
         21   -1    0    0  501  502 -0.00000000000E+00 -0.00000000000E+00 -0.12855622143E+03  0.12855622143E+03  0.00000000000E+00 0. -1.
         25    1    1    2    0    0  0.18339394358E+03  0.11888880471E+03  0.37172454326E+03  0.44896772990E+03  0.12500000000E+03 0.  0.
         25    1    1    2    0    0 -0.18339394358E+03 -0.11888880471E+03  0.86284720775E+02  0.26615397699E+03  0.12500000000E+03 0.  0.
</event>
<event>
 4    0  0.2188063E-002  0.3553251E+03  0.7546771E-02  0.1060450E+00
         21   -1    0    0  502  501  0.00000000000E+00  0.00000000000E+00  0.16410537789E+03  0.16410537789E+03  0.00000000000E+00 0.  1.
         21   -1    0    0  501  502 -0.00000000000E+00 -0.00000000000E+00 -0.76935870730E+03  0.76935870730E+03  0.00000000000E+00 0.  1.
         25    1    1    2    0    0 -0.80173324532E+02  0.29694107095E+03 -0.13632489049E+03  0.35890282439E+03  0.12500000000E+03 0.  0.
         25    1    1    2    0    0  0.80173324532E+02 -0.29694107095E+03 -0.46892843893E+03  0.57456126081E+03  0.12500000000E+03 0.  0.
</event>
<event>
 4    0  0.2188063E-002  0.1561262E+03  0.7546771E-02  0.1193141E+00
         21   -1    0    0  502  501  0.00000000000E+00  0.00000000000E+00  0.19755826040E+03  0.19755826040E+03  0.00000000000E+00 0. -1.
         21   -1    0    0  501  502 -0.00000000000E+00 -0.00000000000E+00 -0.12338323360E+03  0.12338323360E+03  0.00000000000E+00 0. -1.
         25    1    1    2    0    0 -0.53422388281E+01  0.11326740408E+02 -0.58193488767E+02  0.13844969014E+03  0.12500000000E+03 0.  0.
         25    1    1    2    0    0  0.53422388281E+01 -0.11326740408E+02  0.13236851557E+03  0.18249180387E+03  0.12500000000E+03 0.  0.
</event>
<event>
 4    0  0.2188063E-002  0.1958956E+03  0.7546771E-02  0.1153249E+00
         21   -1    0    0  502  501  0.00000000000E+00  0.00000000000E+00  0.13678209956E+03  0.13678209956E+03  0.00000000000E+00 0.  1.
         21   -1    0    0  501  502 -0.00000000000E+00 -0.00000000000E+00 -0.28055648505E+03  0.28055648505E+03  0.00000000000E+00 0.  1.
         25    1    1    2    0    0 -0.13960024626E+02  0.14273992875E+02  0.87365526705E+02  0.15380625610E+03  0.12500000000E+03 0.  0.
         25    1    1    2    0    0  0.13960024626E+02 -0.14273992875E+02 -0.23113991219E+03  0.26353232851E+03  0.12500000000E+03 0.  0.
</event>
<event>
 4    0  0.2188063E-002  0.2340641E+03  0.7546771E-02  0.1123812E+00
         21   -1    0    0  502  501  0.00000000000E+00  0.00000000000E+00  0.26788005962E+03  0.26788005962E+03  0.00000000000E+00 0.  1.
         21   -1    0    0  501  502 -0.00000000000E+00 -0.00000000000E+00 -0.20451685933E+03  0.20451685933E+03  0.00000000000E+00 0.  1.
         25    1    1    2    0    0  0.61652825835E+02  0.11091676693E+03 -0.12154965784E+03  0.21564535571E+03  0.12500000000E+03 0.  0.
         25    1    1    2    0    0 -0.61652825835E+02 -0.11091676693E+03  0.18491285813E+03  0.25675156323E+03  0.12500000000E+03 0.  0.
</event>
<event>
 4    0  0.2188063E-002  0.2084606E+03  0.7546771E-02  0.1142791E+00
         21   -1    0    0  502  501  0.00000000000E+00  0.00000000000E+00  0.30705179851E+03  0.30705179851E+03  0.00000000000E+00 0.  1.
         21   -1    0    0  501  502 -0.00000000000E+00 -0.00000000000E+00 -0.14152596382E+03  0.14152596382E+03  0.00000000000E+00 0.  1.
         25    1    1    2    0    0  0.14199724152E+03 -0.40669427296E+02 -0.67251277881E+00  0.19350108834E+03  0.12500000000E+03 0.  0.
         25    1    1    2    0    0 -0.14199724152E+03  0.40669427296E+02  0.16619834747E+03  0.25507667399E+03  0.12500000000E+03 0.  0.
</event>
<event>
 4    0  0.2188063E-002  0.2624961E+03  0.7546771E-02  0.1105653E+00
         21   -1    0    0  502  501  0.00000000000E+00  0.00000000000E+00  0.71222359888E+02  0.71222359888E+02  0.00000000000E+00 0. -1.
         21   -1    0    0  501  502 -0.00000000000E+00 -0.00000000000E+00 -0.96745217636E+03  0.96745217636E+03  0.00000000000E+00 0. -1.
         25    1    1    2    0    0  0.14002928228E+03  0.60364545906E+02 -0.10528113049E+03  0.22352000969E+03  0.12500000000E+03 0.  0.
         25    1    1    2    0    0 -0.14002928228E+03 -0.60364545906E+02 -0.79094868599E+03  0.81515452655E+03  0.12500000000E+03 0.  0.
</event>
<event>
 4    0  0.2188063E-002  0.2341070E+03  0.7546771E-02  0.1123782E+00
         21   -1    0    0  502  501  0.00000000000E+00  0.00000000000E+00  0.10587707334E+04  0.10587707334E+04  0.00000000000E+00 0.  1.
         21   -1    0    0  501  502 -0.00000000000E+00 -0.00000000000E+00 -0.51763893702E+02  0.51763893702E+02  0.00000000000E+00 0.  1.
         25    1    1    2    0    0 -0.93677879163E+02  0.80669728322E+02  0.13683968269E+03  0.22278520792E+03  0.12500000000E+03 0.  0.
         25    1    1    2    0    0  0.93677879163E+02 -0.80669728322E+02  0.87016715703E+03  0.88774941920E+03  0.12500000000E+03 0.  0.
</event>
<event>
 4    0  0.2188063E-002  0.1984326E+03  0.7546771E-02  0.1151068E+00
         21   -1    0    0  502  501  0.00000000000E+00  0.00000000000E+00  0.68163564712E+02  0.68163564712E+02  0.00000000000E+00 0.  1.
         21   -1    0    0  501  502 -0.00000000000E+00 -0.00000000000E+00 -0.57766187421E+03  0.57766187421E+03  0.00000000000E+00 0. -1.
         25    1    1    2    0    0  0.14703487513E+03  0.26771686099E+02 -0.31595260562E+03  0.37119674928E+03  0.12500000000E+03 0.  0.
         25    1    1    2    0    0 -0.14703487513E+03 -0.26771686099E+02 -0.19354570388E+03  0.27462868964E+03  0.12500000000E+03 0.  0.
</event>
<event>
 4    0  0.2188063E-002  0.5068271E+03  0.7546771E-02  0.1012012E+00
         21   -1    0    0  502  501  0.00000000000E+00  0.00000000000E+00  0.12088529760E+03  0.12088529760E+03  0.00000000000E+00 0. -1.
         21   -1    0    0  501  502 -0.00000000000E+00 -0.00000000000E+00 -0.21249372265E+04  0.21249372265E+04  0.00000000000E+00 0. -1.
         25    1    1    2    0    0 -0.46069058403E+03 -0.24707275526E+02 -0.13754164124E+04  0.14561049313E+04  0.12500000000E+03 0.  0.
         25    1    1    2    0    0  0.46069058403E+03  0.24707275526E+02 -0.62863551657E+03  0.78971759280E+03  0.12500000000E+03 0.  0.
</event>
<event>
 4    0  0.2188063E-002  0.2834663E+03  0.7546771E-02  0.1093811E+00
         21   -1    0    0  502  501  0.00000000000E+00  0.00000000000E+00  0.28697967676E+03  0.28697967676E+03  0.00000000000E+00 0. -1.
         21   -1    0    0  501  502 -0.00000000000E+00 -0.00000000000E+00 -0.27999598806E+03  0.27999598806E+03  0.00000000000E+00 0. -1.
         25    1    1    2    0    0 -0.66363496529E+02 -0.43898182450E+02 -0.23818118963E+03  0.28051103933E+03  0.12500000000E+03 0.  0.
         25    1    1    2    0    0  0.66363496529E+02  0.43898182450E+02  0.24516487832E+03  0.28646462549E+03  0.12500000000E+03 0.  0.
</event>
<event>
 4    0  0.2188063E-002  0.1598507E+03  0.7546771E-02  0.1188865E+00
         21   -1    0    0  502  501  0.00000000000E+00  0.00000000000E+00  0.33759635167E+02  0.33759635167E+02  0.00000000000E+00 0.  1.
         21   -1    0    0  501  502 -0.00000000000E+00 -0.00000000000E+00 -0.75688795258E+03  0.75688795258E+03  0.00000000000E+00 0.  1.
         25    1    1    2    0    0  0.25081587129E+02 -0.99148617097E+01 -0.12435625995E+03  0.17837283953E+03  0.12500000000E+03 0.  0.
         25    1    1    2    0    0 -0.25081587129E+02  0.99148617097E+01 -0.59877205747E+03  0.61227474821E+03  0.12500000000E+03 0.  0.
</event>
<event>
 4    0  0.2188063E-002  0.2024572E+03  0.7546771E-02  0.1147682E+00
         21   -1    0    0  502  501  0.00000000000E+00  0.00000000000E+00  0.22348180394E+03  0.22348180394E+03  0.00000000000E+00 0. -1.
         21   -1    0    0  501  502 -0.00000000000E+00 -0.00000000000E+00 -0.18341056629E+03  0.18341056629E+03  0.00000000000E+00 0. -1.
         25    1    1    2    0    0  0.61613582803E+02 -0.29488713280E+02 -0.12453551876E+03  0.18920864999E+03  0.12500000000E+03 0.  0.
         25    1    1    2    0    0 -0.61613582803E+02  0.29488713280E+02  0.16460675641E+03  0.21768372023E+03  0.12500000000E+03 0.  0.
</event>
<event>
 4    0  0.2188063E-002  0.2704600E+03  0.7546771E-02  0.1101017E+00
         21   -1    0    0  502  501  0.00000000000E+00  0.00000000000E+00  0.37938971610E+03  0.37938971610E+03  0.00000000000E+00 0. -1.
         21   -1    0    0  501  502 -0.00000000000E+00 -0.00000000000E+00 -0.19280606328E+03  0.19280606328E+03  0.00000000000E+00 0. -1.
         25    1    1    2    0    0  0.14123192829E+03 -0.93499600813E+02  0.27291879745E+03  0.34467129692E+03  0.12500000000E+03 0.  0.
         25    1    1    2    0    0 -0.14123192829E+03  0.93499600813E+02 -0.86335144630E+02  0.22752448246E+03  0.12500000000E+03 0.  0.
</event>
<event>
 4    0  0.2188063E-002  0.1805903E+03  0.7546771E-02  0.1167233E+00
         21   -1    0    0  502  501  0.00000000000E+00  0.00000000000E+00  0.38654933082E+03  0.38654933082E+03  0.00000000000E+00 0.  1.
         21   -1    0    0  501  502 -0.00000000000E+00 -0.00000000000E+00 -0.84369210106E+02  0.84369210106E+02  0.00000000000E+00 0.  1.
         25    1    1    2    0    0 -0.11450142759E+02 -0.12739858241E+03  0.18372120852E+03  0.25639810263E+03  0.12500000000E+03 0.  0.
         25    1    1    2    0    0  0.11450142759E+02  0.12739858241E+03  0.11845891219E+03  0.21452043830E+03  0.12500000000E+03 0.  0.
</event>
<event>
 4    0  0.2188063E-002  0.2747942E+03  0.7546771E-02  0.1098567E+00
         21   -1    0    0  502  501  0.00000000000E+00  0.00000000000E+00  0.34542064914E+02  0.34542064914E+02  0.00000000000E+00 0.  1.
         21   -1    0    0  501  502 -0.00000000000E+00 -0.00000000000E+00 -0.21860832946E+04  0.21860832946E+04  0.00000000000E+00 0.  1.
         25    1    1    2    0    0  0.38630083191E+02 -0.60907864594E+02 -0.13090285081E+03  0.19483995393E+03  0.12500000000E+03 0.  0.
         25    1    1    2    0    0 -0.38630083191E+02  0.60907864594E+02 -0.20206383789E+04  0.20257854056E+04  0.12500000000E+03 0.  0.
</event>
<event>
 4    0  0.2188063E-002  0.2283487E+03  0.7546771E-02  0.1127807E+00
         21   -1    0    0  502  501  0.00000000000E+00  0.00000000000E+00  0.32286620432E+03  0.32286620432E+03  0.00000000000E+00 0.  1.
         21   -1    0    0  501  502 -0.00000000000E+00 -0.00000000000E+00 -0.16150075751E+03  0.16150075751E+03  0.00000000000E+00 0.  1.
         25    1    1    2    0    0  0.28873992519E+02  0.95274215062E+02 -0.92317220112E+02  0.18454905209E+03  0.12500000000E+03 0.  0.
         25    1    1    2    0    0 -0.28873992519E+02 -0.95274215062E+02  0.25368266692E+03  0.29981790973E+03  0.12500000000E+03 0.  0.
</event>
<event>
 4    0  0.2188063E-002  0.2206781E+03  0.7546771E-02  0.1133379E+00
         21   -1    0    0  502  501  0.00000000000E+00  0.00000000000E+00  0.10458192905E+04  0.10458192905E+04  0.00000000000E+00 0. -1.
         21   -1    0    0  501  502 -0.00000000000E+00 -0.00000000000E+00 -0.46565224649E+02  0.46565224649E+02  0.00000000000E+00 0. -1.
         25    1    1    2    0    0 -0.92524111895E+02  0.11992414838E+03  0.74875294380E+03  0.77407911966E+03  0.12500000000E+03 0.  0.
         25    1    1    2    0    0  0.92524111895E+02 -0.11992414838E+03  0.25050112205E+03  0.31830539549E+03  0.12500000000E+03 0.  0.
</event>
<event>
 4    0  0.2188063E-002  0.1572901E+03  0.7546771E-02  0.1191791E+00
         21   -1    0    0  502  501  0.00000000000E+00  0.00000000000E+00  0.70279546098E+02  0.70279546098E+02  0.00000000000E+00 0. -1.
         21   -1    0    0  501  502 -0.00000000000E+00 -0.00000000000E+00 -0.35202523038E+03  0.35202523038E+03  0.00000000000E+00 0. -1.
         25    1    1    2    0    0  0.88525905850E+02 -0.16043119247E+02 -0.97978690530E+02  0.18253504179E+03  0.12500000000E+03 0.  0.
         25    1    1    2    0    0 -0.88525905850E+02  0.16043119247E+02 -0.18376699376E+03  0.23976973470E+03  0.12500000000E+03 0.  0.
</event>
<event>
 4    0  0.2188063E-002  0.1921128E+03  0.7546771E-02  0.1156569E+00
         21   -1    0    0  502  501  0.00000000000E+00  0.00000000000E+00  0.12755909422E+04  0.12755909422E+04  0.00000000000E+00 0.  1.
         21   -1    0    0  501  502 -0.00000000000E+00 -0.00000000000E+00 -0.28933502467E+02  0.28933502467E+02  0.00000000000E+00 0.  1.
         25    1    1    2    0    0 -0.85051130710E+02  0.60904865464E+02  0.27809769597E+03  0.32234519692E+03  0.12500000000E+03 0.  0.
         25    1    1    2    0    0  0.85051130710E+02 -0.60904865464E+02  0.96855974381E+03  0.98217924779E+03  0.12500000000E+03 0.  0.
</event>
<event>
 4    0  0.2188063E-002  0.4527751E+03  0.7546771E-02  0.1026898E+00
         21   -1    0    0  502  501  0.00000000000E+00  0.00000000000E+00  0.45797186093E+03  0.45797186093E+03  0.00000000000E+00 0.  1.
         21   -1    0    0  501  502 -0.00000000000E+00 -0.00000000000E+00 -0.44763740384E+03  0.44763740384E+03  0.00000000000E+00 0.  1.
         25    1    1    2    0    0 -0.40895062932E+03 -0.14876708201E+03  0.23257504984E+01  0.45277220655E+03  0.12500000000E+03 0.  0.
         25    1    1    2    0    0  0.40895062932E+03  0.14876708201E+03  0.80087065896E+01  0.45283705821E+03  0.12500000000E+03 0.  0.
</event>
<event>
 4    0  0.2188063E-002  0.1611788E+03  0.7546771E-02  0.1187372E+00
         21   -1    0    0  502  501  0.00000000000E+00  0.00000000000E+00  0.10308366923E+03  0.10308366923E+03  0.00000000000E+00 0. -1.
         21   -1    0    0  501  502 -0.00000000000E+00 -0.00000000000E+00 -0.25201463611E+03  0.25201463611E+03  0.00000000000E+00 0. -1.
         25    1    1    2    0    0 -0.15728718383E+02  0.90434071264E+02 -0.26098306726E+02  0.15726358587E+03  0.12500000000E+03 0.  0.
         25    1    1    2    0    0  0.15728718383E+02 -0.90434071264E+02 -0.12283266015E+03  0.19783471947E+03  0.12500000000E+03 0.  0.
</event>
<event>
 4    0  0.2188063E-002  0.2943702E+03  0.7546771E-02  0.1088089E+00
         21   -1    0    0  502  501  0.00000000000E+00  0.00000000000E+00  0.64058909790E+02  0.64058909790E+02  0.00000000000E+00 0. -1.
         21   -1    0    0  501  502 -0.00000000000E+00 -0.00000000000E+00 -0.13527208328E+04  0.13527208328E+04  0.00000000000E+00 0. -1.
         25    1    1    2    0    0 -0.12698756848E+03 -0.11792525404E+03 -0.15708025784E+03  0.26520070794E+03  0.12500000000E+03 0.  0.
         25    1    1    2    0    0  0.12698756848E+03  0.11792525404E+03 -0.11315816651E+04  0.11515790346E+04  0.12500000000E+03 0.  0.
</event>
<event>
 4    0  0.2188063E-002  0.1735302E+03  0.7546771E-02  0.1174216E+00
         21   -1    0    0  502  501  0.00000000000E+00  0.00000000000E+00  0.12236189638E+03  0.12236189638E+03  0.00000000000E+00 0.  1.
         21   -1    0    0  501  502 -0.00000000000E+00 -0.00000000000E+00 -0.24609555067E+03  0.24609555067E+03  0.00000000000E+00 0.  1.
         25    1    1    2    0    0  0.29941678490E+02  0.77149182900E+02 -0.15465803050E+03  0.21538943087E+03  0.12500000000E+03 0.  0.
         25    1    1    2    0    0 -0.29941678490E+02 -0.77149182900E+02  0.30924376209E+02  0.15306801618E+03  0.12500000000E+03 0.  0.
</event>
<event>
 4    0  0.2188063E-002  0.2018801E+03  0.7546771E-02  0.1148162E+00
         21   -1    0    0  502  501  0.00000000000E+00  0.00000000000E+00  0.24418858902E+02  0.24418858902E+02  0.00000000000E+00 0. -1.
         21   -1    0    0  501  502 -0.00000000000E+00 -0.00000000000E+00 -0.16690201779E+04  0.16690201779E+04  0.00000000000E+00 0. -1.
         25    1    1    2    0    0  0.58283639010E+02  0.33564031333E+02 -0.14243802662E+04  0.14314355275E+04  0.12500000000E+03 0.  0.
         25    1    1    2    0    0 -0.58283639010E+02 -0.33564031333E+02 -0.22022105289E+03  0.26200350935E+03  0.12500000000E+03 0.  0.
</event>
<event>
 4    0  0.2188063E-002  0.2087792E+03  0.7546771E-02  0.1142536E+00
         21   -1    0    0  502  501  0.00000000000E+00  0.00000000000E+00  0.14302050531E+03  0.14302050531E+03  0.00000000000E+00 0.  1.
         21   -1    0    0  501  502 -0.00000000000E+00 -0.00000000000E+00 -0.30477265948E+03  0.30477265948E+03  0.00000000000E+00 0.  1.
         25    1    1    2    0    0  0.15990855549E+03 -0.41891211957E+02 -0.53785922215E+02  0.21411105807E+03  0.12500000000E+03 0.  0.
         25    1    1    2    0    0 -0.15990855549E+03  0.41891211957E+02 -0.10796623196E+03  0.23368210672E+03  0.12500000000E+03 0.  0.
</event>
<event>
 4    0  0.2188063E-002  0.3425842E+03  0.7546771E-02  0.1065701E+00
         21   -1    0    0  502  501  0.00000000000E+00  0.00000000000E+00  0.21128867875E+03  0.21128867875E+03  0.00000000000E+00 0. -1.
         21   -1    0    0  501  502 -0.00000000000E+00 -0.00000000000E+00 -0.55546716637E+03  0.55546716637E+03  0.00000000000E+00 0. -1.
         25    1    1    2    0    0 -0.18208106838E+03 -0.24369949903E+03 -0.64774749704E+02  0.33520699499E+03  0.12500000000E+03 0.  0.
         25    1    1    2    0    0  0.18208106838E+03  0.24369949903E+03 -0.27940373791E+03  0.43154885013E+03  0.12500000000E+03 0.  0.
</event>
<event>
 4    0  0.2188063E-002  0.3139991E+03  0.7546771E-02  0.1078445E+00
         21   -1    0    0  502  501  0.00000000000E+00  0.00000000000E+00  0.13357209026E+04  0.13357209026E+04  0.00000000000E+00 0. -1.
         21   -1    0    0  501  502 -0.00000000000E+00 -0.00000000000E+00 -0.73814380572E+02  0.73814380572E+02  0.00000000000E+00 0. -1.
         25    1    1    2    0    0 -0.13178260209E+03 -0.18993104279E+03  0.24525382531E+03  0.35946473270E+03  0.12500000000E+03 0.  0.
         25    1    1    2    0    0  0.13178260209E+03  0.18993104279E+03  0.10166526967E+04  0.10500705505E+04  0.12500000000E+03 0.  0.
</event>
<event>
 4    0  0.2188063E-002  0.2675991E+03  0.7546771E-02  0.1102662E+00
         21   -1    0    0  502  501  0.00000000000E+00  0.00000000000E+00  0.25113798985E+03  0.25113798985E+03  0.00000000000E+00 0.  1.
         21   -1    0    0  501  502 -0.00000000000E+00 -0.00000000000E+00 -0.28513914938E+03  0.28513914938E+03  0.00000000000E+00 0.  1.
         25    1    1    2    0    0  0.17344418857E+03  0.38806878561E+02  0.13950460836E+03  0.25821579373E+03  0.12500000000E+03 0.  0.
         25    1    1    2    0    0 -0.17344418857E+03 -0.38806878561E+02 -0.17350576789E+03  0.27806134550E+03  0.12500000000E+03 0.  0.
</event>
<event>
 4    0  0.2188063E-002  0.1709836E+03  0.7546771E-02  0.1176826E+00
         21   -1    0    0  502  501  0.00000000000E+00  0.00000000000E+00  0.23533569418E+03  0.23533569418E+03  0.00000000000E+00 0. -1.
         21   -1    0    0  501  502 -0.00000000000E+00 -0.00000000000E+00 -0.12422844355E+03  0.12422844355E+03  0.00000000000E+00 0. -1.
         25    1    1    2    0    0  0.10210142284E+03 -0.36566944157E+01 -0.36679704272E+01  0.16148227756E+03  0.12500000000E+03 0.  0.
         25    1    1    2    0    0 -0.10210142284E+03  0.36566944157E+01  0.11477522106E+03  0.19808186017E+03  0.12500000000E+03 0.  0.
</event>
<event>
 4    0  0.2188063E-002  0.1863432E+03  0.7546771E-02  0.1161801E+00
         21   -1    0    0  502  501  0.00000000000E+00  0.00000000000E+00  0.71949491870E+02  0.71949491870E+02  0.00000000000E+00 0. -1.
         21   -1    0    0  501  502 -0.00000000000E+00 -0.00000000000E+00 -0.48261345650E+03  0.48261345650E+03  0.00000000000E+00 0. -1.
         25    1    1    2    0    0  0.93779763764E+02  0.14237617614E+02 -0.35488628099E+03  0.38802915648E+03  0.12500000000E+03 0.  0.
         25    1    1    2    0    0 -0.93779763764E+02 -0.14237617614E+02 -0.55777683637E+02  0.16653379188E+03  0.12500000000E+03 0.  0.
</event>
<event>
 4    0  0.2188063E-002  0.3277008E+03  0.7546771E-02  0.1072159E+00
         21   -1    0    0  502  501  0.00000000000E+00  0.00000000000E+00  0.11255258114E+03  0.11255258114E+03  0.00000000000E+00 0. -1.
         21   -1    0    0  501  502 -0.00000000000E+00 -0.00000000000E+00 -0.95411212254E+03  0.95411212254E+03  0.00000000000E+00 0. -1.
         25    1    1    2    0    0 -0.19532130288E+03  0.15157420619E+03 -0.70565066638E+03  0.75808509700E+03  0.12500000000E+03 0.  0.
         25    1    1    2    0    0  0.19532130288E+03 -0.15157420619E+03 -0.13590887502E+03  0.30857960667E+03  0.12500000000E+03 0.  0.
</event>
<event>
 4    0  0.2188063E-002  0.1805866E+03  0.7546771E-02  0.1167237E+00
         21   -1    0    0  502  501  0.00000000000E+00  0.00000000000E+00  0.77149924310E+02  0.77149924310E+02  0.00000000000E+00 0.  1.
         21   -1    0    0  501  502 -0.00000000000E+00 -0.00000000000E+00 -0.42270337771E+03  0.42270337771E+03  0.00000000000E+00 0.  1.
         25    1    1    2    0    0 -0.12983408177E+03  0.76298172664E+01 -0.18447358951E+03  0.25801280613E+03  0.12500000000E+03 0.  0.
         25    1    1    2    0    0  0.12983408177E+03 -0.76298172664E+01 -0.16107986390E+03  0.24184049589E+03  0.12500000000E+03 0.  0.
</event>
<event>
 4    0  0.2188063E-002  0.2189854E+03  0.7546771E-02  0.1134642E+00
         21   -1    0    0  502  501  0.00000000000E+00  0.00000000000E+00  0.17080638589E+03  0.17080638589E+03  0.00000000000E+00 0.  1.
         21   -1    0    0  501  502 -0.00000000000E+00 -0.00000000000E+00 -0.28075426892E+03  0.28075426892E+03  0.00000000000E+00 0.  1.
         25    1    1    2    0    0  0.15249122013E+03 -0.73755239705E+02  0.71981680195E+01  0.21064240130E+03  0.12500000000E+03 0.  0.
         25    1    1    2    0    0 -0.15249122013E+03  0.73755239705E+02 -0.11714605105E+03  0.24091825352E+03  0.12500000000E+03 0.  0.
</event>
<event>
 4    0  0.2188063E-002  0.2617326E+03  0.7546771E-02  0.1106107E+00
         21   -1    0    0  502  501  0.00000000000E+00  0.00000000000E+00  0.49869025002E+02  0.49869025002E+02  0.00000000000E+00 0. -1.
         21   -1    0    0  501  502 -0.00000000000E+00 -0.00000000000E+00 -0.13736774053E+04  0.13736774053E+04  0.00000000000E+00 0. -1.
         25    1    1    2    0    0  0.40793720171E+01  0.21933262694E+03 -0.84943921511E+03  0.88616895831E+03  0.12500000000E+03 0.  0.
         25    1    1    2    0    0 -0.40793720171E+01 -0.21933262694E+03 -0.47436916521E+03  0.53737747201E+03  0.12500000000E+03 0.  0.
</event>
<event>
 4    0  0.2188063E-002  0.1583012E+03  0.7546771E-02  0.1190628E+00
         21   -1    0    0  502  501  0.00000000000E+00  0.00000000000E+00  0.61037138053E+03  0.61037138053E+03  0.00000000000E+00 0.  1.
         21   -1    0    0  501  502 -0.00000000000E+00 -0.00000000000E+00 -0.41055749040E+02  0.41055749040E+02  0.00000000000E+00 0.  1.
         25    1    1    2    0    0 -0.55268390207E+02 -0.28809790866E+02  0.13137806838E+03  0.19175451978E+03  0.12500000000E+03 0.  0.
         25    1    1    2    0    0  0.55268390207E+02  0.28809790866E+02  0.43793756311E+03  0.45967260979E+03  0.12500000000E+03 0.  0.
</event>
<event>
 4    0  0.2188063E-002  0.2731058E+03  0.7546771E-02  0.1099515E+00
         21   -1    0    0  502  501  0.00000000000E+00  0.00000000000E+00  0.26708678079E+03  0.26708678079E+03  0.00000000000E+00 0. -1.
         21   -1    0    0  501  502 -0.00000000000E+00 -0.00000000000E+00 -0.27926055874E+03  0.27926055874E+03  0.00000000000E+00 0. -1.
         25    1    1    2    0    0 -0.29097670559E+02 -0.16165688045E+03  0.17279315190E+03  0.26918784291E+03  0.12500000000E+03 0.  0.
         25    1    1    2    0    0  0.29097670559E+02  0.16165688045E+03 -0.18496692984E+03  0.27715949662E+03  0.12500000000E+03 0.  0.
</event>
<event>
 4    0  0.2188063E-002  0.1904685E+03  0.7546771E-02  0.1158039E+00
         21   -1    0    0  502  501  0.00000000000E+00  0.00000000000E+00  0.27010572114E+03  0.27010572114E+03  0.00000000000E+00 0.  1.
         21   -1    0    0  501  502 -0.00000000000E+00 -0.00000000000E+00 -0.13431125866E+03  0.13431125866E+03  0.00000000000E+00 0.  1.
         25    1    1    2    0    0 -0.11348844965E+03  0.88055577748E+02  0.63170093784E+02  0.20062121953E+03  0.12500000000E+03 0.  0.
         25    1    1    2    0    0  0.11348844965E+03 -0.88055577748E+02  0.72624368697E+02  0.20379576027E+03  0.12500000000E+03 0.  0.
</event>
<event>
 4    0  0.2188063E-002  0.2144814E+03  0.7546771E-02  0.1138066E+00
         21   -1    0    0  502  501  0.00000000000E+00  0.00000000000E+00  0.13641972501E+03  0.13641972501E+03  0.00000000000E+00 0.  1.
         21   -1    0    0  501  502 -0.00000000000E+00 -0.00000000000E+00 -0.33721136426E+03  0.33721136426E+03  0.00000000000E+00 0.  1.
         25    1    1    2    0    0 -0.24289922954E+02 -0.17258900410E+03 -0.99774271058E+02  0.23655204471E+03  0.12500000000E+03 0.  0.
         25    1    1    2    0    0  0.24289922954E+02  0.17258900410E+03 -0.10101736819E+03  0.23707904456E+03  0.12500000000E+03 0.  0.
</event>
<event>
 4    0  0.2188063E-002  0.2009358E+03  0.7546771E-02  0.1148952E+00
         21   -1    0    0  502  501  0.00000000000E+00  0.00000000000E+00  0.38158117151E+02  0.38158117151E+02  0.00000000000E+00 0.  1.
         21   -1    0    0  501  502 -0.00000000000E+00 -0.00000000000E+00 -0.10581021218E+04  0.10581021218E+04  0.00000000000E+00 0.  1.
         25    1    1    2    0    0 -0.87858674089E+02 -0.12842947781E+03 -0.44676341611E+03  0.48932180348E+03  0.12500000000E+03 0.  0.
         25    1    1    2    0    0  0.87858674089E+02  0.12842947781E+03 -0.57318058857E+03  0.60693843550E+03  0.12500000000E+03 0.  0.
</event>
<event>
 4    0  0.2188063E-002  0.2118632E+03  0.7546771E-02  0.1140099E+00
         21   -1    0    0  502  501  0.00000000000E+00  0.00000000000E+00  0.51983335011E+02  0.51983335011E+02  0.00000000000E+00 0. -1.
         21   -1    0    0  501  502 -0.00000000000E+00 -0.00000000000E+00 -0.86346926728E+03  0.86346926728E+03  0.00000000000E+00 0. -1.
         25    1    1    2    0    0 -0.95717426798E+02  0.12189298550E+03 -0.56215469113E+03  0.59637456557E+03  0.12500000000E+03 0.  0.
         25    1    1    2    0    0  0.95717426798E+02 -0.12189298550E+03 -0.24933124115E+03  0.31907803672E+03  0.12500000000E+03 0.  0.
</event>
<event>
 4    0  0.2188063E-002  0.2226027E+03  0.7546771E-02  0.1131957E+00
         21   -1    0    0  502  501  0.00000000000E+00  0.00000000000E+00  0.14578481686E+03  0.14578481686E+03  0.00000000000E+00 0. -1.
         21   -1    0    0  501  502 -0.00000000000E+00 -0.00000000000E+00 -0.33989787571E+03  0.33989787571E+03  0.00000000000E+00 0. -1.
         25    1    1    2    0    0  0.11078739847E+03 -0.13482650074E+03 -0.16136444778E+03  0.26854332605E+03  0.12500000000E+03 0.  0.
         25    1    1    2    0    0 -0.11078739847E+03  0.13482650074E+03 -0.32748611073E+02  0.21713936651E+03  0.12500000000E+03 0.  0.
</event>
<event>
 4    0  0.2188063E-002  0.2161744E+03  0.7546771E-02  0.1136768E+00
         21   -1    0    0  502  501  0.00000000000E+00  0.00000000000E+00  0.46226903590E+02  0.46226903590E+02  0.00000000000E+00 0.  1.
         21   -1    0    0  501  502 -0.00000000000E+00 -0.00000000000E+00 -0.10109127279E+04  0.10109127279E+04  0.00000000000E+00 0.  1.
         25    1    1    2    0    0  0.11988546668E+03  0.79961039191E+02 -0.23370925829E+03  0.30168080867E+03  0.12500000000E+03 0.  0.
         25    1    1    2    0    0 -0.11988546668E+03 -0.79961039191E+02 -0.73097656606E+03  0.75545882286E+03  0.12500000000E+03 0.  0.
</event>
<event>
 4    0  0.2188063E-002  0.3192799E+03  0.7546771E-02  0.1075981E+00
         21   -1    0    0  502  501  0.00000000000E+00  0.00000000000E+00  0.74610490591E+02  0.74610490591E+02  0.00000000000E+00 0.  1.
         21   -1    0    0  501  502 -0.00000000000E+00 -0.00000000000E+00 -0.13662915562E+04  0.13662915562E+04  0.00000000000E+00 0.  1.
         25    1    1    2    0    0  0.12952332894E+03  0.19420452590E+03 -0.24330582547E+03  0.35960313587E+03  0.12500000000E+03 0.  0.
         25    1    1    2    0    0 -0.12952332894E+03 -0.19420452590E+03 -0.10483752402E+04  0.10812989109E+04  0.12500000000E+03 0.  0.
</event>
<event>
 4    0  0.2188063E-002  0.2989427E+03  0.7546771E-02  0.1085770E+00
         21   -1    0    0  502  501  0.00000000000E+00  0.00000000000E+00  0.11875392773E+04  0.11875392773E+04  0.00000000000E+00 0. -1.
         21   -1    0    0  501  502 -0.00000000000E+00 -0.00000000000E+00 -0.75253727179E+02  0.75253727179E+02  0.00000000000E+00 0. -1.
         25    1    1    2    0    0  0.61887670073E+02 -0.98002826395E+01  0.11142151128E+04  0.11229543387E+04  0.12500000000E+03 0.  0.
         25    1    1    2    0    0 -0.61887670073E+02  0.98002826395E+01 -0.19295626204E+01  0.13983866582E+03  0.12500000000E+03 0.  0.
</event>
<event>
 4    0  0.2188063E-002  0.1895962E+03  0.7546771E-02  0.1158826E+00
         21   -1    0    0  502  501  0.00000000000E+00  0.00000000000E+00  0.10275395590E+04  0.10275395590E+04  0.00000000000E+00 0. -1.
         21   -1    0    0  501  502 -0.00000000000E+00 -0.00000000000E+00 -0.34983303433E+02  0.34983303433E+02  0.00000000000E+00 0. -1.
         25    1    1    2    0    0  0.78282765379E+02 -0.94625600089E+02  0.29345154256E+03  0.34179087668E+03  0.12500000000E+03 0.  0.
         25    1    1    2    0    0 -0.78282765379E+02  0.94625600089E+02  0.69910471301E+03  0.72073198576E+03  0.12500000000E+03 0.  0.
</event>
<event>
 4    0  0.2188063E-002  0.2906778E+03  0.7546771E-02  0.1089996E+00
         21   -1    0    0  502  501  0.00000000000E+00  0.00000000000E+00  0.15587472024E+04  0.15587472024E+04  0.00000000000E+00 0.  1.
         21   -1    0    0  501  502 -0.00000000000E+00 -0.00000000000E+00 -0.54206071008E+02  0.54206071008E+02  0.00000000000E+00 0.  1.
         25    1    1    2    0    0 -0.72517813312E+02 -0.22878431295E+03  0.10467758683E+04  0.10811872241E+04  0.12500000000E+03 0.  0.
         25    1    1    2    0    0  0.72517813312E+02  0.22878431295E+03  0.45776526308E+03  0.53176604930E+03  0.12500000000E+03 0.  0.
</event>
<event>
 4    0  0.2188063E-002  0.2290055E+03  0.7546771E-02  0.1127342E+00
         21   -1    0    0  502  501  0.00000000000E+00  0.00000000000E+00  0.51893861645E+02  0.51893861645E+02  0.00000000000E+00 0. -1.
         21   -1    0    0  501  502 -0.00000000000E+00 -0.00000000000E+00 -0.10105921990E+04  0.10105921990E+04  0.00000000000E+00 0. -1.
         25    1    1    2    0    0 -0.13346148095E+03  0.13598108697E+03 -0.53202963003E+03  0.57877746167E+03  0.12500000000E+03 0.  0.
         25    1    1    2    0    0  0.13346148095E+03 -0.13598108697E+03 -0.42666870735E+03  0.48370859900E+03  0.12500000000E+03 0.  0.
</event>
<event>
 4    0  0.2188063E-002  0.1854282E+03  0.7546771E-02  0.1162651E+00
         21   -1    0    0  502  501  0.00000000000E+00  0.00000000000E+00  0.55401797824E+03  0.55401797824E+03  0.00000000000E+00 0. -1.
         21   -1    0    0  501  502 -0.00000000000E+00 -0.00000000000E+00 -0.62062291624E+02  0.62062291624E+02  0.00000000000E+00 0. -1.
         25    1    1    2    0    0 -0.92342466385E+02 -0.84345441174E+02  0.33872991375E+03  0.38210501046E+03  0.12500000000E+03 0.  0.
         25    1    1    2    0    0  0.92342466385E+02  0.84345441174E+02  0.15322577286E+03  0.23397525940E+03  0.12500000000E+03 0.  0.
</event>
<event>
 4    0  0.2188063E-002  0.1689851E+03  0.7546771E-02  0.1178910E+00
         21   -1    0    0  502  501  0.00000000000E+00  0.00000000000E+00  0.43093170734E+03  0.43093170734E+03  0.00000000000E+00 0. -1.
         21   -1    0    0  501  502 -0.00000000000E+00 -0.00000000000E+00 -0.66265620693E+02  0.66265620693E+02  0.00000000000E+00 0. -1.
         25    1    1    2    0    0 -0.76714303847E+02  0.63712308783E+02  0.26273007315E+03  0.30756533297E+03  0.12500000000E+03 0.  0.
         25    1    1    2    0    0  0.76714303847E+02 -0.63712308783E+02  0.10193601349E+03  0.18963199506E+03  0.12500000000E+03 0.  0.
</event>
<event>
 4    0  0.2188063E-002  0.2338766E+03  0.7546771E-02  0.1123941E+00
         21   -1    0    0  502  501  0.00000000000E+00  0.00000000000E+00  0.12342815020E+03  0.12342815020E+03  0.00000000000E+00 0. -1.
         21   -1    0    0  501  502 -0.00000000000E+00 -0.00000000000E+00 -0.44315874574E+03  0.44315874574E+03  0.00000000000E+00 0. -1.
         25    1    1    2    0    0  0.52410817685E+02 -0.58748997020E+02  0.59759891235E+02  0.15935677915E+03  0.12500000000E+03 0.  0.
         25    1    1    2    0    0 -0.52410817685E+02  0.58748997020E+02 -0.37949048678E+03  0.40723011679E+03  0.12500000000E+03 0.  0.
</event>
<event>
 4    0  0.2188063E-002  0.1789969E+03  0.7546771E-02  0.1168777E+00
         21   -1    0    0  502  501  0.00000000000E+00  0.00000000000E+00  0.41759748683E+02  0.41759748683E+02  0.00000000000E+00 0.  1.
         21   -1    0    0  501  502 -0.00000000000E+00 -0.00000000000E+00 -0.76724340584E+03  0.76724340584E+03  0.00000000000E+00 0.  1.
         25    1    1    2    0    0 -0.81387058530E+01  0.12780823769E+03 -0.37110856805E+03  0.41200455511E+03  0.12500000000E+03 0.  0.
         25    1    1    2    0    0  0.81387058530E+01 -0.12780823769E+03 -0.35437508911E+03  0.39699859941E+03  0.12500000000E+03 0.  0.
</event>
<event>
 4    0  0.2188063E-002  0.1651474E+03  0.7546771E-02  0.1183005E+00
         21   -1    0    0  502  501  0.00000000000E+00  0.00000000000E+00  0.46470400685E+03  0.46470400685E+03  0.00000000000E+00 0.  1.
         21   -1    0    0  501  502 -0.00000000000E+00 -0.00000000000E+00 -0.58690428582E+02  0.58690428582E+02  0.00000000000E+00 0.  1.
         25    1    1    2    0    0  0.77835638773E+02 -0.62079401460E+02  0.13697440635E+03  0.21047381486E+03  0.12500000000E+03 0.  0.
         25    1    1    2    0    0 -0.77835638773E+02  0.62079401460E+02  0.26903917192E+03  0.31292062057E+03  0.12500000000E+03 0.  0.
</event>
<event>
 4    0  0.2188063E-002  0.2374801E+03  0.7546771E-02  0.1121483E+00
         21   -1    0    0  502  501  0.00000000000E+00  0.00000000000E+00  0.58599422366E+02  0.58599422366E+02  0.00000000000E+00 0. -1.
         21   -1    0    0  501  502 -0.00000000000E+00 -0.00000000000E+00 -0.96241224517E+03  0.96241224517E+03  0.00000000000E+00 0. -1.
         25    1    1    2    0    0  0.94351061138E+02 -0.16143616611E+03 -0.61573450964E+03  0.65552859955E+03  0.12500000000E+03 0.  0.
         25    1    1    2    0    0 -0.94351061138E+02  0.16143616611E+03 -0.28807831316E+03  0.36548306798E+03  0.12500000000E+03 0.  0.
</event>
<event>
 4    0  0.2188063E-002  0.4877711E+03  0.7546771E-02  0.1017021E+00
         21   -1    0    0  502  501  0.00000000000E+00  0.00000000000E+00  0.12920467963E+03  0.12920467963E+03  0.00000000000E+00 0. -1.
         21   -1    0    0  501  502 -0.00000000000E+00 -0.00000000000E+00 -0.18414242366E+04  0.18414242366E+04  0.00000000000E+00 0. -1.
         25    1    1    2    0    0  0.52659012553E+02  0.38427454854E+03 -0.31462094635E+03  0.51483127347E+03  0.12500000000E+03 0.  0.
         25    1    1    2    0    0 -0.52659012553E+02 -0.38427454854E+03 -0.13975986107E+04  0.14557976428E+04  0.12500000000E+03 0.  0.
</event>
<event>
 4    0  0.2188063E-002  0.1698888E+03  0.7546771E-02  0.1177964E+00
         21   -1    0    0  502  501  0.00000000000E+00  0.00000000000E+00  0.16553005416E+03  0.16553005416E+03  0.00000000000E+00 0.  1.
         21   -1    0    0  501  502 -0.00000000000E+00 -0.00000000000E+00 -0.17436241764E+03  0.17436241764E+03  0.00000000000E+00 0.  1.
         25    1    1    2    0    0  0.58260971422E+02  0.83189079260E+02 -0.58494194711E+02  0.17135149405E+03  0.12500000000E+03 0.  0.
         25    1    1    2    0    0 -0.58260971422E+02 -0.83189079260E+02  0.49661831235E+02  0.16854097775E+03  0.12500000000E+03 0.  0.
</event>
<event>
 4    0  0.2188063E-002  0.2390913E+03  0.7546771E-02  0.1120400E+00
         21   -1    0    0  502  501  0.00000000000E+00  0.00000000000E+00  0.12937956424E+04  0.12937956424E+04  0.00000000000E+00 0. -1.
         21   -1    0    0  501  502 -0.00000000000E+00 -0.00000000000E+00 -0.44183680249E+02  0.44183680249E+02  0.00000000000E+00 0. -1.
         25    1    1    2    0    0  0.20200849936E+03 -0.18615889816E+02  0.56985666209E+03  0.61766949131E+03  0.12500000000E+03 0.  0.
         25    1    1    2    0    0 -0.20200849936E+03  0.18615889816E+02  0.67975530009E+03  0.72030983137E+03  0.12500000000E+03 0.  0.
</event>
<event>
 4    0  0.2188063E-002  0.1897620E+03  0.7546771E-02  0.1158676E+00
         21   -1    0    0  502  501  0.00000000000E+00  0.00000000000E+00  0.11961957980E+03  0.11961957980E+03  0.00000000000E+00 0. -1.
         21   -1    0    0  501  502 -0.00000000000E+00 -0.00000000000E+00 -0.30103456687E+03  0.30103456687E+03  0.00000000000E+00 0. -1.
         25    1    1    2    0    0 -0.50158907620E+02 -0.12485129983E+03 -0.37773375770E+02  0.18749824266E+03  0.12500000000E+03 0.  0.
         25    1    1    2    0    0  0.50158907620E+02  0.12485129983E+03 -0.14364161130E+03  0.23315590402E+03  0.12500000000E+03 0.  0.
</event>
<event>
 4    0  0.2188063E-002  0.2287069E+03  0.7546771E-02  0.1127553E+00
         21   -1    0    0  502  501  0.00000000000E+00  0.00000000000E+00  0.51462105449E+02  0.51462105449E+02  0.00000000000E+00 0. -1.
         21   -1    0    0  501  502 -0.00000000000E+00 -0.00000000000E+00 -0.10164150475E+04  0.10164150475E+04  0.00000000000E+00 0. -1.
         25    1    1    2    0    0  0.12800854835E+03 -0.50615931627E+02 -0.79336996064E+03  0.81486750790E+03  0.12500000000E+03 0.  0.
         25    1    1    2    0    0 -0.12800854835E+03  0.50615931627E+02 -0.17158298145E+03  0.25300964509E+03  0.12500000000E+03 0.  0.
</event>
<event>
 4    0  0.2188063E-002  0.2500498E+03  0.7546771E-02  0.1113273E+00
         21   -1    0    0  502  501  0.00000000000E+00  0.00000000000E+00  0.33579557424E+03  0.33579557424E+03  0.00000000000E+00 0. -1.
         21   -1    0    0  501  502 -0.00000000000E+00 -0.00000000000E+00 -0.18619931223E+03  0.18619931223E+03  0.00000000000E+00 0. -1.
         25    1    1    2    0    0  0.49349935023E+02 -0.17566723095E+03  0.19654763240E+03  0.29588910747E+03  0.12500000000E+03 0.  0.
         25    1    1    2    0    0 -0.49349935023E+02  0.17566723095E+03 -0.46951370382E+02  0.22610577900E+03  0.12500000000E+03 0.  0.
</event>
<event>
 4    0  0.2188063E-002  0.2501685E+03  0.7546771E-02  0.1113198E+00
         21   -1    0    0  502  501  0.00000000000E+00  0.00000000000E+00  0.94239302297E+02  0.94239302297E+02  0.00000000000E+00 0. -1.
         21   -1    0    0  501  502 -0.00000000000E+00 -0.00000000000E+00 -0.66409932552E+03  0.66409932552E+03  0.00000000000E+00 0. -1.
         25    1    1    2    0    0 -0.15307948915E+03 -0.11054934975E+03 -0.44608044066E+03  0.50026717689E+03  0.12500000000E+03 0.  0.
         25    1    1    2    0    0  0.15307948915E+03  0.11054934975E+03 -0.12377958256E+03  0.25807145093E+03  0.12500000000E+03 0.  0.
</event>
<event>
 4    0  0.2188063E-002  0.1628902E+03  0.7546771E-02  0.1185472E+00
         21   -1    0    0  502  501  0.00000000000E+00  0.00000000000E+00  0.24274650439E+02  0.24274650439E+02  0.00000000000E+00 0.  1.
         21   -1    0    0  501  502 -0.00000000000E+00 -0.00000000000E+00 -0.10930423978E+04  0.10930423978E+04  0.00000000000E+00 0.  1.
         25    1    1    2    0    0 -0.74218822647E+02 -0.70882555654E+02 -0.60083900541E+03  0.62222606885E+03  0.12500000000E+03 0.  0.
         25    1    1    2    0    0  0.74218822647E+02  0.70882555654E+02 -0.46792874197E+03  0.49509097941E+03  0.12500000000E+03 0.  0.
</event>
<event>
 4    0  0.2188063E-002  0.1916229E+03  0.7546771E-02  0.1157006E+00
         21   -1    0    0  502  501  0.00000000000E+00  0.00000000000E+00  0.18036028668E+04  0.18036028668E+04  0.00000000000E+00 0. -1.
         21   -1    0    0  501  502 -0.00000000000E+00 -0.00000000000E+00 -0.20358884430E+02  0.20358884430E+02  0.00000000000E+00 0. -1.
         25    1    1    2    0    0  0.90434106714E+01  0.11682102621E+03  0.13000698802E+04  0.13113106531E+04  0.12500000000E+03 0.  0.
         25    1    1    2    0    0 -0.90434106714E+01 -0.11682102621E+03  0.48317410218E+03  0.51265109818E+03  0.12500000000E+03 0.  0.
</event>
<event>
 4    0  0.2188063E-002  0.2018092E+03  0.7546771E-02  0.1148221E+00
         21   -1    0    0  502  501  0.00000000000E+00  0.00000000000E+00  0.83089018936E+02  0.83089018936E+02  0.00000000000E+00 0.  1.
         21   -1    0    0  501  502 -0.00000000000E+00 -0.00000000000E+00 -0.49016063450E+03  0.49016063450E+03  0.00000000000E+00 0.  1.
         25    1    1    2    0    0  0.60556219797E+02 -0.78379646747E+02 -0.27905926336E+02  0.16190789204E+03  0.12500000000E+03 0.  0.
         25    1    1    2    0    0 -0.60556219797E+02  0.78379646747E+02 -0.37916568923E+03  0.41134176139E+03  0.12500000000E+03 0.  0.
</event>
<event>
 4    0  0.2188063E-002  0.1740567E+03  0.7546771E-02  0.1173682E+00
         21   -1    0    0  502  501  0.00000000000E+00  0.00000000000E+00  0.84389552844E+03  0.84389552844E+03  0.00000000000E+00 0. -1.
         21   -1    0    0  501  502 -0.00000000000E+00 -0.00000000000E+00 -0.35899881249E+02  0.35899881249E+02  0.00000000000E+00 0. -1.
         25    1    1    2    0    0 -0.64417893802E+02  0.10240779317E+03  0.38932016184E+03  0.42641788138E+03  0.12500000000E+03 0.  0.
         25    1    1    2    0    0  0.64417893802E+02 -0.10240779317E+03  0.41867548534E+03  0.45337752830E+03  0.12500000000E+03 0.  0.
</event>
<event>
 4    0  0.2188063E-002  0.1657755E+03  0.7546771E-02  0.1182326E+00
         21   -1    0    0  502  501  0.00000000000E+00  0.00000000000E+00  0.40229670531E+03  0.40229670531E+03  0.00000000000E+00 0. -1.
         21   -1    0    0  501  502 -0.00000000000E+00 -0.00000000000E+00 -0.68311600659E+02  0.68311600659E+02  0.00000000000E+00 0. -1.
         25    1    1    2    0    0  0.95845006799E+01  0.10342532918E+03  0.21337657605E+03  0.26822234168E+03  0.12500000000E+03 0.  0.
         25    1    1    2    0    0 -0.95845006799E+01 -0.10342532918E+03  0.12060852859E+03  0.20238596428E+03  0.12500000000E+03 0.  0.
</event>
<event>
 4    0  0.2188063E-002  0.1769058E+03  0.7546771E-02  0.1170832E+00
         21   -1    0    0  502  501  0.00000000000E+00  0.00000000000E+00  0.25022913199E+02  0.25022913199E+02  0.00000000000E+00 0.  1.
         21   -1    0    0  501  502 -0.00000000000E+00 -0.00000000000E+00 -0.12506797062E+04  0.12506797062E+04  0.00000000000E+00 0.  1.
         25    1    1    2    0    0 -0.33534271420E+02  0.30223648366E+01 -0.17810363504E+03  0.22018080494E+03  0.12500000000E+03 0.  0.
         25    1    1    2    0    0  0.33534271420E+02 -0.30223648366E+01 -0.10475531580E+04  0.10555218145E+04  0.12500000000E+03 0.  0.
</event>
<event>
 4    0  0.2188063E-002  0.3016883E+03  0.7546771E-02  0.1084400E+00
         21   -1    0    0  502  501  0.00000000000E+00  0.00000000000E+00  0.84817909324E+02  0.84817909324E+02  0.00000000000E+00 0.  1.
         21   -1    0    0  501  502 -0.00000000000E+00 -0.00000000000E+00 -0.10730732680E+04  0.10730732680E+04  0.00000000000E+00 0.  1.
         25    1    1    2    0    0 -0.18856193385E+03  0.14560496208E+03 -0.23216630672E+03  0.35536263430E+03  0.12500000000E+03 0.  0.
         25    1    1    2    0    0  0.18856193385E+03 -0.14560496208E+03 -0.75608905191E+03  0.80252854298E+03  0.12500000000E+03 0.  0.
</event>
<event>
 4    0  0.2188063E-002  0.1806836E+03  0.7546771E-02  0.1167143E+00
         21   -1    0    0  502  501  0.00000000000E+00  0.00000000000E+00  0.14007414896E+02  0.14007414896E+02  0.00000000000E+00 0. -1.
         21   -1    0    0  501  502 -0.00000000000E+00 -0.00000000000E+00 -0.23306639231E+04  0.23306639231E+04  0.00000000000E+00 0. -1.
         25    1    1    2    0    0 -0.61419798471E+02 -0.47971646448E+02 -0.47943938740E+03  0.50155836819E+03  0.12500000000E+03 0.  0.
         25    1    1    2    0    0  0.61419798471E+02  0.47971646448E+02 -0.18372171208E+04  0.18431129698E+04  0.12500000000E+03 0.  0.
</event>
<event>
 4    0  0.2188063E-002  0.1793271E+03  0.7546771E-02  0.1168456E+00
         21   -1    0    0  502  501  0.00000000000E+00  0.00000000000E+00  0.52727025790E+02  0.52727025790E+02  0.00000000000E+00 0. -1.
         21   -1    0    0  501  502 -0.00000000000E+00 -0.00000000000E+00 -0.60989994282E+03  0.60989994282E+03  0.00000000000E+00 0. -1.
         25    1    1    2    0    0 -0.85580643924E+02  0.61319644012E+01 -0.45552190290E+03  0.48009046192E+03  0.12500000000E+03 0.  0.
         25    1    1    2    0    0  0.85580643924E+02 -0.61319644012E+01 -0.10165101413E+03  0.18253650669E+03  0.12500000000E+03 0.  0.
</event>
<event>
 4    0  0.2188063E-002  0.3185022E+03  0.7546771E-02  0.1076341E+00
         21   -1    0    0  502  501  0.00000000000E+00  0.00000000000E+00  0.10493188176E+03  0.10493188176E+03  0.00000000000E+00 0. -1.
         21   -1    0    0  501  502 -0.00000000000E+00 -0.00000000000E+00 -0.96675738795E+03  0.96675738795E+03  0.00000000000E+00 0. -1.
         25    1    1    2    0    0 -0.22113645483E+03 -0.17787524807E+03 -0.55313499724E+03  0.63413268383E+03  0.12500000000E+03 0.  0.
         25    1    1    2    0    0  0.22113645483E+03  0.17787524807E+03 -0.30869050895E+03  0.43755658588E+03  0.12500000000E+03 0.  0.
</event>
<event>
 4    0  0.2188063E-002  0.1637474E+03  0.7546771E-02  0.1184530E+00
         21   -1    0    0  502  501  0.00000000000E+00  0.00000000000E+00  0.12609850447E+03  0.12609850447E+03  0.00000000000E+00 0.  1.
         21   -1    0    0  501  502 -0.00000000000E+00 -0.00000000000E+00 -0.21263696331E+03  0.21263696331E+03  0.00000000000E+00 0.  1.
         25    1    1    2    0    0 -0.20368264929E+02  0.79734984705E+02 -0.11200053396E+03  0.18692686701E+03  0.12500000000E+03 0.  0.
         25    1    1    2    0    0  0.20368264929E+02 -0.79734984705E+02  0.25462075117E+02  0.15180860078E+03  0.12500000000E+03 0.  0.
</event>
<event>
 4    0  0.2188063E-002  0.2102546E+03  0.7546771E-02  0.1141365E+00
         21   -1    0    0  502  501  0.00000000000E+00  0.00000000000E+00  0.68224240393E+02  0.68224240393E+02  0.00000000000E+00 0.  1.
         21   -1    0    0  501  502 -0.00000000000E+00 -0.00000000000E+00 -0.64796603004E+03  0.64796603004E+03  0.00000000000E+00 0.  1.
         25    1    1    2    0    0 -0.75349135536E+02 -0.59339750917E+02 -0.52751697680E+02  0.16615185787E+03  0.12500000000E+03 0.  0.
         25    1    1    2    0    0  0.75349135536E+02  0.59339750917E+02 -0.52699009197E+03  0.55003841256E+03  0.12500000000E+03 0.  0.
</event>
<event>
 4    0  0.2188063E-002  0.2434660E+03  0.7546771E-02  0.1117505E+00
         21   -1    0    0  502  501  0.00000000000E+00  0.00000000000E+00  0.63503078928E+02  0.63503078928E+02  0.00000000000E+00 0.  1.
         21   -1    0    0  501  502 -0.00000000000E+00 -0.00000000000E+00 -0.93343020494E+03  0.93343020494E+03  0.00000000000E+00 0.  1.
         25    1    1    2    0    0 -0.60436516949E+02  0.16266715038E+03 -0.19674955262E+03  0.29060034558E+03  0.12500000000E+03 0.  0.
         25    1    1    2    0    0  0.60436516949E+02 -0.16266715038E+03 -0.67317757340E+03  0.70633293829E+03  0.12500000000E+03 0.  0.
</event>
<event>
 4    0  0.2188063E-002  0.1976378E+03  0.7546771E-02  0.1151747E+00
         21   -1    0    0  502  501  0.00000000000E+00  0.00000000000E+00  0.22810883349E+03  0.22810883349E+03  0.00000000000E+00 0. -1.
         21   -1    0    0  501  502 -0.00000000000E+00 -0.00000000000E+00 -0.17123706922E+03  0.17123706922E+03  0.00000000000E+00 0. -1.
         25    1    1    2    0    0  0.10471110406E+03  0.38368994946E+02 -0.77520648576E+02  0.18458343924E+03  0.12500000000E+03 0.  0.
         25    1    1    2    0    0 -0.10471110406E+03 -0.38368994946E+02  0.13439241284E+03  0.21476246347E+03  0.12500000000E+03 0.  0.
</event>
<event>
 4    0  0.2188063E-002  0.2002253E+03  0.7546771E-02  0.1149549E+00
         21   -1    0    0  502  501  0.00000000000E+00  0.00000000000E+00  0.24551401928E+03  0.24551401928E+03  0.00000000000E+00 0. -1.
         21   -1    0    0  501  502 -0.00000000000E+00 -0.00000000000E+00 -0.16329075864E+03  0.16329075864E+03  0.00000000000E+00 0. -1.
         25    1    1    2    0    0 -0.25316307466E+02  0.15337723205E+03  0.23439223590E+02  0.20084792242E+03  0.12500000000E+03 0.  0.
         25    1    1    2    0    0  0.25316307466E+02 -0.15337723205E+03  0.58784037050E+02  0.20795685550E+03  0.12500000000E+03 0.  0.
</event>
<event>
 4    0  0.2188063E-002  0.2300279E+03  0.7546771E-02  0.1126620E+00
         21   -1    0    0  502  501  0.00000000000E+00  0.00000000000E+00  0.16424024410E+03  0.16424024410E+03  0.00000000000E+00 0. -1.
         21   -1    0    0  501  502 -0.00000000000E+00 -0.00000000000E+00 -0.32216725253E+03  0.32216725253E+03  0.00000000000E+00 0. -1.
         25    1    1    2    0    0 -0.23893359286E+01 -0.85167492334E+02 -0.26217699338E+03  0.30268958775E+03  0.12500000000E+03 0.  0.
         25    1    1    2    0    0  0.23893359286E+01  0.85167492334E+02  0.10424998495E+03  0.18371790887E+03  0.12500000000E+03 0.  0.
</event>
<event>
 4    0  0.2188063E-002  0.1950406E+03  0.7546771E-02  0.1153992E+00
         21   -1    0    0  502  501  0.00000000000E+00  0.00000000000E+00  0.11855029291E+03  0.11855029291E+03  0.00000000000E+00 0.  1.
         21   -1    0    0  501  502 -0.00000000000E+00 -0.00000000000E+00 -0.32088366958E+03  0.32088366958E+03  0.00000000000E+00 0.  1.
         25    1    1    2    0    0  0.13831415704E+03  0.23891226765E+02 -0.15985666331E+03  0.24674024714E+03  0.12500000000E+03 0.  0.
         25    1    1    2    0    0 -0.13831415704E+03 -0.23891226765E+02 -0.42476713366E+02  0.19269371534E+03  0.12500000000E+03 0.  0.
</event>
<event>
 4    0  0.2188063E-002  0.2678493E+03  0.7546771E-02  0.1102517E+00
         21   -1    0    0  502  501  0.00000000000E+00  0.00000000000E+00  0.28704182823E+03  0.28704182823E+03  0.00000000000E+00 0. -1.
         21   -1    0    0  501  502 -0.00000000000E+00 -0.00000000000E+00 -0.24994000523E+03  0.24994000523E+03  0.00000000000E+00 0. -1.
         25    1    1    2    0    0  0.19667565852E+03  0.11684435346E+03 -0.43113267673E+02  0.26423033785E+03  0.12500000000E+03 0.  0.
         25    1    1    2    0    0 -0.19667565852E+03 -0.11684435346E+03  0.80215090675E+02  0.27275149562E+03  0.12500000000E+03 0.  0.
</event>
<event>
 4    0  0.2188063E-002  0.1953804E+03  0.7546771E-02  0.1153696E+00
         21   -1    0    0  502  501  0.00000000000E+00  0.00000000000E+00  0.45259909654E+03  0.45259909654E+03  0.00000000000E+00 0. -1.
         21   -1    0    0  501  502 -0.00000000000E+00 -0.00000000000E+00 -0.84342838334E+02  0.84342838334E+02  0.00000000000E+00 0. -1.
         25    1    1    2    0    0 -0.14640073664E+03  0.28949307070E+02  0.20700810561E+03  0.28416297059E+03  0.12500000000E+03 0.  0.
         25    1    1    2    0    0  0.14640073664E+03 -0.28949307070E+02  0.16124815260E+03  0.25277896428E+03  0.12500000000E+03 0.  0.
</event>
<event>
 4    0  0.2188063E-002  0.2308198E+03  0.7546771E-02  0.1126064E+00
         21   -1    0    0  502  501  0.00000000000E+00  0.00000000000E+00  0.17594228960E+03  0.17594228960E+03  0.00000000000E+00 0. -1.
         21   -1    0    0  501  502 -0.00000000000E+00 -0.00000000000E+00 -0.30281404493E+03  0.30281404493E+03  0.00000000000E+00 0. -1.
         25    1    1    2    0    0  0.87393282637E+01 -0.13987185834E+03  0.75750201450E+02  0.20249347060E+03  0.12500000000E+03 0.  0.
         25    1    1    2    0    0 -0.87393282637E+01  0.13987185834E+03 -0.20262195678E+03  0.27626286393E+03  0.12500000000E+03 0.  0.
</event>
<event>
 4    0  0.2188063E-002  0.2321023E+03  0.7546771E-02  0.1125169E+00
         21   -1    0    0  502  501  0.00000000000E+00  0.00000000000E+00  0.16588712255E+03  0.16588712255E+03  0.00000000000E+00 0. -1.
         21   -1    0    0  501  502 -0.00000000000E+00 -0.00000000000E+00 -0.32474787165E+03  0.32474787165E+03  0.00000000000E+00 0. -1.
         25    1    1    2    0    0 -0.19003307036E+03  0.46101894090E+02 -0.76342108543E+02  0.24431755976E+03  0.12500000000E+03 0.  0.
         25    1    1    2    0    0  0.19003307036E+03 -0.46101894090E+02 -0.82518640558E+02  0.24631743444E+03  0.12500000000E+03 0.  0.
</event>
<event>
 4    0  0.2188063E-002  0.2914858E+03  0.7546771E-02  0.1089576E+00
         21   -1    0    0  502  501  0.00000000000E+00  0.00000000000E+00  0.42340578486E+02  0.42340578486E+02  0.00000000000E+00 0. -1.
         21   -1    0    0  501  502 -0.00000000000E+00 -0.00000000000E+00 -0.20066797402E+04  0.20066797402E+04  0.00000000000E+00 0. -1.
         25    1    1    2    0    0  0.24001798642E+03 -0.11094370366E+02 -0.13608420571E+04  0.13875329990E+04  0.12500000000E+03 0.  0.
         25    1    1    2    0    0 -0.24001798642E+03  0.11094370366E+02 -0.60349710458E+03  0.66148731968E+03  0.12500000000E+03 0.  0.
</event>
<event>
 4    0  0.2188063E-002  0.2632676E+03  0.7546771E-02  0.1105196E+00
         21   -1    0    0  502  501  0.00000000000E+00  0.00000000000E+00  0.11750667835E+04  0.11750667835E+04  0.00000000000E+00 0. -1.
         21   -1    0    0  501  502 -0.00000000000E+00 -0.00000000000E+00 -0.58983715999E+02  0.58983715999E+02  0.00000000000E+00 0. -1.
         25    1    1    2    0    0 -0.21739133803E+02 -0.65387009757E+00  0.17399855570E+02  0.12806550066E+03  0.12500000000E+03 0.  0.
         25    1    1    2    0    0  0.21739133803E+02  0.65387009757E+00  0.10986832119E+04  0.11059849988E+04  0.12500000000E+03 0.  0.
</event>
<event>
 4    0  0.2188063E-002  0.2231801E+03  0.7546771E-02  0.1131534E+00
         21   -1    0    0  502  501  0.00000000000E+00  0.00000000000E+00  0.37156308234E+03  0.37156308234E+03  0.00000000000E+00 0. -1.
         21   -1    0    0  501  502 -0.00000000000E+00 -0.00000000000E+00 -0.13405360071E+03  0.13405360071E+03  0.00000000000E+00 0. -1.
         25    1    1    2    0    0  0.18408009229E+03  0.16822254776E+02  0.11423784054E+03  0.25068656296E+03  0.12500000000E+03 0.  0.
         25    1    1    2    0    0 -0.18408009229E+03 -0.16822254776E+02  0.12327164108E+03  0.25493012009E+03  0.12500000000E+03 0.  0.
</event>
<event>
 4    0  0.2188063E-002  0.3038148E+03  0.7546771E-02  0.1083349E+00
         21   -1    0    0  502  501  0.00000000000E+00  0.00000000000E+00  0.21573880906E+03  0.21573880906E+03  0.00000000000E+00 0. -1.
         21   -1    0    0  501  502 -0.00000000000E+00 -0.00000000000E+00 -0.42784807941E+03  0.42784807941E+03  0.00000000000E+00 0. -1.
         25    1    1    2    0    0  0.18743884918E+03 -0.17518817665E+03  0.42941315943E+01  0.28542540004E+03  0.12500000000E+03 0.  0.
         25    1    1    2    0    0 -0.18743884918E+03  0.17518817665E+03 -0.21640340195E+03  0.35816148843E+03  0.12500000000E+03 0.  0.
</event>
<event>
 4    0  0.2188063E-002  0.2135144E+03  0.7546771E-02  0.1138813E+00
         21   -1    0    0  502  501  0.00000000000E+00  0.00000000000E+00  0.15265584282E+03  0.15265584282E+03  0.00000000000E+00 0.  1.
         21   -1    0    0  501  502 -0.00000000000E+00 -0.00000000000E+00 -0.29863504975E+03  0.29863504975E+03  0.00000000000E+00 0.  1.
         25    1    1    2    0    0 -0.74418087197E+02 -0.60527242330E+02 -0.22526573267E+03  0.27490225369E+03  0.12500000000E+03 0.  0.
         25    1    1    2    0    0  0.74418087197E+02  0.60527242330E+02  0.79286525741E+02  0.17638863889E+03  0.12500000000E+03 0.  0.
</event>
<event>
 4    0  0.2188063E-002  0.1975769E+03  0.7546771E-02  0.1151800E+00
         21   -1    0    0  502  501  0.00000000000E+00  0.00000000000E+00  0.27013714463E+03  0.27013714463E+03  0.00000000000E+00 0.  1.
         21   -1    0    0  501  502 -0.00000000000E+00 -0.00000000000E+00 -0.14450668696E+03  0.14450668696E+03  0.00000000000E+00 0.  1.
         25    1    1    2    0    0  0.37051145299E+02 -0.56981271485E+01 -0.92847009855E+02  0.16015874394E+03  0.12500000000E+03 0.  0.
         25    1    1    2    0    0 -0.37051145299E+02  0.56981271485E+01  0.21847746752E+03  0.25448508765E+03  0.12500000000E+03 0.  0.
</event>
<event>
 4    0  0.2188063E-002  0.1887583E+03  0.7546771E-02  0.1159586E+00
         21   -1    0    0  502  501  0.00000000000E+00  0.00000000000E+00  0.37436537584E+03  0.37436537584E+03  0.00000000000E+00 0.  1.
         21   -1    0    0  501  502 -0.00000000000E+00 -0.00000000000E+00 -0.95173621315E+02  0.95173621315E+02  0.00000000000E+00 0.  1.
         25    1    1    2    0    0 -0.13459919896E+01  0.25662182816E+02  0.31258253161E+03  0.33762878786E+03  0.12500000000E+03 0.  0.
         25    1    1    2    0    0  0.13459919896E+01 -0.25662182816E+02 -0.33390777090E+02  0.13191020929E+03  0.12500000000E+03 0.  0.
</event>
<event>
 4    0  0.2188063E-002  0.2158490E+03  0.7546771E-02  0.1137016E+00
         21   -1    0    0  502  501  0.00000000000E+00  0.00000000000E+00  0.31111942615E+03  0.31111942615E+03  0.00000000000E+00 0.  1.
         21   -1    0    0  501  502 -0.00000000000E+00 -0.00000000000E+00 -0.14975208559E+03  0.14975208559E+03  0.00000000000E+00 0.  1.
         25    1    1    2    0    0 -0.10845169998E+03  0.11830860885E+03  0.36470559527E+01  0.20346252524E+03  0.12500000000E+03 0.  0.
         25    1    1    2    0    0  0.10845169998E+03 -0.11830860885E+03  0.15772028460E+03  0.25740898650E+03  0.12500000000E+03 0.  0.
</event>
<event>
 4    0  0.2188063E-002  0.1936195E+03  0.7546771E-02  0.1155237E+00
         21   -1    0    0  502  501  0.00000000000E+00  0.00000000000E+00  0.40600808643E+02  0.40600808643E+02  0.00000000000E+00 0.  1.
         21   -1    0    0  501  502 -0.00000000000E+00 -0.00000000000E+00 -0.92334387885E+03  0.92334387885E+03  0.00000000000E+00 0.  1.
         25    1    1    2    0    0  0.25530037944E+02 -0.37273174207E+01 -0.80379705173E+03  0.81386754212E+03  0.12500000000E+03 0.  0.
         25    1    1    2    0    0 -0.25530037944E+02  0.37273174207E+01 -0.78946018475E+02  0.15007714538E+03  0.12500000000E+03 0.  0.
</event>
<event>
 4    0  0.2188063E-002  0.2108083E+03  0.7546771E-02  0.1140928E+00
         21   -1    0    0  502  501  0.00000000000E+00  0.00000000000E+00  0.16088321123E+03  0.16088321123E+03  0.00000000000E+00 0.  1.
         21   -1    0    0  501  502 -0.00000000000E+00 -0.00000000000E+00 -0.27622601102E+03  0.27622601102E+03  0.00000000000E+00 0.  1.
         25    1    1    2    0    0  0.69634654954E+02  0.11573929618E+03  0.48919782061E+02  0.19042771575E+03  0.12500000000E+03 0.  0.
         25    1    1    2    0    0 -0.69634654954E+02 -0.11573929618E+03 -0.16426258186E+03  0.24668150650E+03  0.12500000000E+03 0.  0.
</event>
<event>
 4    0  0.2188063E-002  0.3602122E+03  0.7546771E-02  0.1058500E+00
         21   -1    0    0  502  501  0.00000000000E+00  0.00000000000E+00  0.20149237963E+04  0.20149237963E+04  0.00000000000E+00 0.  1.
         21   -1    0    0  501  502 -0.00000000000E+00 -0.00000000000E+00 -0.64395885917E+02  0.64395885917E+02  0.00000000000E+00 0. -1.
         25    1    1    2    0    0  0.33078011194E+03  0.33011819457E+02  0.11489798284E+04  0.12026158609E+04  0.12500000000E+03 0.  0.
         25    1    1    2    0    0 -0.33078011194E+03 -0.33011819457E+02  0.80154808194E+03  0.87670382133E+03  0.12500000000E+03 0.  0.
</event>
<event>
 4    0  0.2188063E-002  0.1903723E+03  0.7546771E-02  0.1158126E+00
         21   -1    0    0  502  501  0.00000000000E+00  0.00000000000E+00  0.52496364672E+02  0.52496364672E+02  0.00000000000E+00 0.  1.
         21   -1    0    0  501  502 -0.00000000000E+00 -0.00000000000E+00 -0.69036433145E+03  0.69036433145E+03  0.00000000000E+00 0.  1.
         25    1    1    2    0    0  0.14029562637E+03  0.26109765256E+02 -0.28795949845E+03  0.34483366333E+03  0.12500000000E+03 0.  0.
         25    1    1    2    0    0 -0.14029562637E+03 -0.26109765256E+02 -0.34990846833E+03  0.39802703279E+03  0.12500000000E+03 0.  0.
</event>
<event>
 4    0  0.2188063E-002  0.1899050E+03  0.7546771E-02  0.1158547E+00
         21   -1    0    0  502  501  0.00000000000E+00  0.00000000000E+00  0.67729368615E+03  0.67729368615E+03  0.00000000000E+00 0.  1.
         21   -1    0    0  501  502 -0.00000000000E+00 -0.00000000000E+00 -0.53247084414E+02  0.53247084414E+02  0.00000000000E+00 0.  1.
         25    1    1    2    0    0  0.49153082306E+02  0.14379034953E+02  0.56875810225E+03  0.58457981578E+03  0.12500000000E+03 0.  0.
         25    1    1    2    0    0 -0.49153082306E+02 -0.14379034953E+02  0.55288499495E+02  0.14596095479E+03  0.12500000000E+03 0.  0.
</event>
<event>
 4    0  0.2188063E-002  0.5916998E+03  0.7546771E-02  0.9922777E-01
         21   -1    0    0  502  501  0.00000000000E+00  0.00000000000E+00  0.16247714151E+04  0.16247714151E+04  0.00000000000E+00 0. -1.
         21   -1    0    0  501  502 -0.00000000000E+00 -0.00000000000E+00 -0.21548180263E+03  0.21548180263E+03  0.00000000000E+00 0. -1.
         25    1    1    2    0    0 -0.61400517045E+02 -0.59262074147E+02  0.15941610883E+04  0.16013296327E+04  0.12500000000E+03 0.  0.
         25    1    1    2    0    0  0.61400517045E+02  0.59262074147E+02 -0.18487147584E+03  0.23892358507E+03  0.12500000000E+03 0.  0.
</event>
<event>
 4    0  0.2188063E-002  0.1599047E+03  0.7546771E-02  0.1188804E+00
         21   -1    0    0  502  501  0.00000000000E+00  0.00000000000E+00  0.51442369352E+02  0.51442369352E+02  0.00000000000E+00 0. -1.
         21   -1    0    0  501  502 -0.00000000000E+00 -0.00000000000E+00 -0.49705182374E+03  0.49705182374E+03  0.00000000000E+00 0. -1.
         25    1    1    2    0    0  0.98540190631E+02  0.69837881439E+01 -0.19944070982E+03  0.25526562479E+03  0.12500000000E+03 0.  0.
         25    1    1    2    0    0 -0.98540190631E+02 -0.69837881439E+01 -0.24616874457E+03  0.29322856830E+03  0.12500000000E+03 0.  0.
</event>
<event>
 4    0  0.2188063E-002  0.2866634E+03  0.7546771E-02  0.1092104E+00
         21   -1    0    0  502  501  0.00000000000E+00  0.00000000000E+00  0.85696234831E+03  0.85696234831E+03  0.00000000000E+00 0.  1.
         21   -1    0    0  501  502 -0.00000000000E+00 -0.00000000000E+00 -0.95892056591E+02  0.95892056591E+02  0.00000000000E+00 0.  1.
         25    1    1    2    0    0  0.21983424515E+03  0.43072555638E+02  0.16790278723E+03  0.30659205200E+03  0.12500000000E+03 0.  0.
         25    1    1    2    0    0 -0.21983424515E+03 -0.43072555638E+02  0.59316750449E+03  0.64626235290E+03  0.12500000000E+03 0.  0.
</event>
<event>
 4    0  0.2188063E-002  0.3210940E+03  0.7546771E-02  0.1075147E+00
         21   -1    0    0  502  501  0.00000000000E+00  0.00000000000E+00  0.56405306114E+03  0.56405306114E+03  0.00000000000E+00 0.  1.
         21   -1    0    0  501  502 -0.00000000000E+00 -0.00000000000E+00 -0.18278663755E+03  0.18278663755E+03  0.00000000000E+00 0.  1.
         25    1    1    2    0    0  0.67154366586E+02 -0.20739796787E+03 -0.41821558144E+02  0.25475020854E+03  0.12500000000E+03 0.  0.
         25    1    1    2    0    0 -0.67154366586E+02  0.20739796787E+03  0.42308798173E+03  0.49208949015E+03  0.12500000000E+03 0.  0.
</event>
<event>
 4    0  0.2188063E-002  0.2021559E+03  0.7546771E-02  0.1147933E+00
         21   -1    0    0  502  501  0.00000000000E+00  0.00000000000E+00  0.10656641940E+03  0.10656641940E+03  0.00000000000E+00 0. -1.
         21   -1    0    0  501  502 -0.00000000000E+00 -0.00000000000E+00 -0.38348867202E+03  0.38348867202E+03  0.00000000000E+00 0. -1.
         25    1    1    2    0    0 -0.20742177501E+02 -0.15688062619E+03 -0.15561294668E+03  0.25471976362E+03  0.12500000000E+03 0.  0.
         25    1    1    2    0    0  0.20742177501E+02  0.15688062619E+03 -0.12130930594E+03  0.23533532780E+03  0.12500000000E+03 0.  0.
</event>
<event>
 4    0  0.2188063E-002  0.2061319E+03  0.7546771E-02  0.1144666E+00
         21   -1    0    0  502  501  0.00000000000E+00  0.00000000000E+00  0.56310978835E+03  0.56310978835E+03  0.00000000000E+00 0. -1.
         21   -1    0    0  501  502 -0.00000000000E+00 -0.00000000000E+00 -0.75456605065E+02  0.75456605065E+02  0.00000000000E+00 0. -1.
         25    1    1    2    0    0 -0.93775500215E+02  0.16954736091E+02  0.45038656695E+03  0.47702658962E+03  0.12500000000E+03 0.  0.
         25    1    1    2    0    0  0.93775500215E+02 -0.16954736091E+02  0.37266616334E+02  0.16153980379E+03  0.12500000000E+03 0.  0.
</event>
<event>
 4    0  0.2188063E-002  0.2621560E+03  0.7546771E-02  0.1105855E+00
         21   -1    0    0  502  501  0.00000000000E+00  0.00000000000E+00  0.39392336097E+03  0.39392336097E+03  0.00000000000E+00 0. -1.
         21   -1    0    0  501  502 -0.00000000000E+00 -0.00000000000E+00 -0.17446477239E+03  0.17446477239E+03  0.00000000000E+00 0. -1.
         25    1    1    2    0    0  0.12724524086E+03  0.50827715301E+02  0.31057682349E+03  0.36174268653E+03  0.12500000000E+03 0.  0.
         25    1    1    2    0    0 -0.12724524086E+03 -0.50827715301E+02 -0.91118234916E+02  0.20664544684E+03  0.12500000000E+03 0.  0.
</event>
<event>
 4    0  0.2188063E-002  0.2390164E+03  0.7546771E-02  0.1120450E+00
         21   -1    0    0  502  501  0.00000000000E+00  0.00000000000E+00  0.45779794129E+03  0.45779794129E+03  0.00000000000E+00 0.  1.
         21   -1    0    0  501  502 -0.00000000000E+00 -0.00000000000E+00 -0.12479052822E+03  0.12479052822E+03  0.00000000000E+00 0.  1.
         25    1    1    2    0    0  0.35983692681E+02 -0.77982393479E+02  0.39164652425E+03  0.41998580903E+03  0.12500000000E+03 0.  0.
         25    1    1    2    0    0 -0.35983692681E+02  0.77982393479E+02 -0.58639111181E+02  0.16260266047E+03  0.12500000000E+03 0.  0.
</event>
<event>
 4    0  0.2188063E-002  0.3017910E+03  0.7546771E-02  0.1084349E+00
         21   -1    0    0  502  501  0.00000000000E+00  0.00000000000E+00  0.55615590927E+03  0.55615590927E+03  0.00000000000E+00 0. -1.
         21   -1    0    0  501  502 -0.00000000000E+00 -0.00000000000E+00 -0.16376311169E+03  0.16376311169E+03  0.00000000000E+00 0. -1.
         25    1    1    2    0    0 -0.96183322164E+02 -0.11449014904E+03  0.47102910006E+03  0.50975743133E+03  0.12500000000E+03 0.  0.
         25    1    1    2    0    0  0.96183322164E+02  0.11449014904E+03 -0.78636302475E+02  0.21016158963E+03  0.12500000000E+03 0.  0.
</event>
<event>
 4    0  0.2188063E-002  0.2429387E+03  0.7546771E-02  0.1117851E+00
         21   -1    0    0  502  501  0.00000000000E+00  0.00000000000E+00  0.36760300842E+03  0.36760300842E+03  0.00000000000E+00 0.  1.
         21   -1    0    0  501  502 -0.00000000000E+00 -0.00000000000E+00 -0.16055144771E+03  0.16055144771E+03  0.00000000000E+00 0.  1.
         25    1    1    2    0    0  0.18868410672E+03 -0.11649261905E+01  0.75779888461E+01  0.22646296628E+03  0.12500000000E+03 0.  0.
         25    1    1    2    0    0 -0.18868410672E+03  0.11649261905E+01  0.19947357186E+03  0.30169148985E+03  0.12500000000E+03 0.  0.
</event>
<event>
 4    0  0.2188063E-002  0.3365219E+03  0.7546771E-02  0.1068287E+00
         21   -1    0    0  502  501  0.00000000000E+00  0.00000000000E+00  0.13906802984E+03  0.13906802984E+03  0.00000000000E+00 0.  1.
         21   -1    0    0  501  502 -0.00000000000E+00 -0.00000000000E+00 -0.81432806953E+03  0.81432806953E+03  0.00000000000E+00 0.  1.
         25    1    1    2    0    0  0.20812697766E+03 -0.44165005346E+02 -0.13508772572E+02  0.24713331112E+03  0.12500000000E+03 0.  0.
         25    1    1    2    0    0 -0.20812697766E+03  0.44165005346E+02 -0.66175126712E+03  0.70626278825E+03  0.12500000000E+03 0.  0.
</event>
<event>
 4    0  0.2188063E-002  0.1804015E+03  0.7546771E-02  0.1167415E+00
         21   -1    0    0  502  501  0.00000000000E+00  0.00000000000E+00  0.46420005841E+03  0.46420005841E+03  0.00000000000E+00 0.  1.
         21   -1    0    0  501  502 -0.00000000000E+00 -0.00000000000E+00 -0.70109249064E+02  0.70109249064E+02  0.00000000000E+00 0.  1.
         25    1    1    2    0    0  0.65904077196E+02  0.10385240150E+03  0.13437302242E+03  0.22092935034E+03  0.12500000000E+03 0.  0.
         25    1    1    2    0    0 -0.65904077196E+02 -0.10385240150E+03  0.25971778693E+03  0.31337995714E+03  0.12500000000E+03 0.  0.
</event>
<event>
 4    0  0.2188063E-002  0.3510502E+03  0.7546771E-02  0.1062185E+00
         21   -1    0    0  502  501  0.00000000000E+00  0.00000000000E+00  0.13575401104E+04  0.13575401104E+04  0.00000000000E+00 0.  1.
         21   -1    0    0  501  502 -0.00000000000E+00 -0.00000000000E+00 -0.90779083961E+02  0.90779083961E+02  0.00000000000E+00 0.  1.
         25    1    1    2    0    0  0.30737114151E+03  0.10410194363E+03  0.53451452471E+03  0.63768723558E+03  0.12500000000E+03 0.  0.
         25    1    1    2    0    0 -0.30737114151E+03 -0.10410194363E+03  0.73224650173E+03  0.81063195878E+03  0.12500000000E+03 0.  0.
</event>
<event>
 4    0  0.2188063E-002  0.1918768E+03  0.7546771E-02  0.1156779E+00
         21   -1    0    0  502  501  0.00000000000E+00  0.00000000000E+00  0.12132816106E+04  0.12132816106E+04  0.00000000000E+00 0.  1.
         21   -1    0    0  501  502 -0.00000000000E+00 -0.00000000000E+00 -0.30344743975E+02  0.30344743975E+02  0.00000000000E+00 0.  1.
         25    1    1    2    0    0 -0.16527804471E+02 -0.10339559006E+03  0.91920936599E+03  0.93356021493E+03  0.12500000000E+03 0.  0.
         25    1    1    2    0    0  0.16527804471E+02  0.10339559006E+03  0.26372750060E+03  0.31006613961E+03  0.12500000000E+03 0.  0.
</event>
<event>
 4    0  0.2188063E-002  0.2347323E+03  0.7546771E-02  0.1123353E+00
         21   -1    0    0  502  501  0.00000000000E+00  0.00000000000E+00  0.70842203922E+02  0.70842203922E+02  0.00000000000E+00 0. -1.
         21   -1    0    0  501  502 -0.00000000000E+00 -0.00000000000E+00 -0.77777455895E+03  0.77777455895E+03  0.00000000000E+00 0. -1.
         25    1    1    2    0    0 -0.89383103811E+02  0.17693074959E+03 -0.32918506849E+03  0.40408122787E+03  0.12500000000E+03 0.  0.
         25    1    1    2    0    0  0.89383103811E+02 -0.17693074959E+03 -0.37774728653E+03  0.44453553500E+03  0.12500000000E+03 0.  0.
</event>
<event>
 4    0  0.2188063E-002  0.1977247E+03  0.7546771E-02  0.1151673E+00
         21   -1    0    0  502  501  0.00000000000E+00  0.00000000000E+00  0.32606037855E+02  0.32606037855E+02  0.00000000000E+00 0. -1.
         21   -1    0    0  501  502 -0.00000000000E+00 -0.00000000000E+00 -0.11990127694E+04  0.11990127694E+04  0.00000000000E+00 0. -1.
         25    1    1    2    0    0  0.14917932642E+03  0.30016920152E+02 -0.52796469284E+03  0.56349552244E+03  0.12500000000E+03 0.  0.
         25    1    1    2    0    0 -0.14917932642E+03 -0.30016920152E+02 -0.63844203873E+03  0.66812328484E+03  0.12500000000E+03 0.  0.
</event>
<event>
 4    0  0.2188063E-002  0.2357844E+03  0.7546771E-02  0.1122633E+00
         21   -1    0    0  502  501  0.00000000000E+00  0.00000000000E+00  0.78848066177E+02  0.78848066177E+02  0.00000000000E+00 0. -1.
         21   -1    0    0  501  502 -0.00000000000E+00 -0.00000000000E+00 -0.70508116952E+03  0.70508116952E+03  0.00000000000E+00 0. -1.
         25    1    1    2    0    0 -0.18105480685E+03 -0.84282020975E+02 -0.29779150418E+03  0.37972237504E+03  0.12500000000E+03 0.  0.
         25    1    1    2    0    0  0.18105480685E+03  0.84282020975E+02 -0.32844159916E+03  0.40420686066E+03  0.12500000000E+03 0.  0.
</event>
<event>
 4    0  0.2188063E-002  0.1851891E+03  0.7546771E-02  0.1162873E+00
         21   -1    0    0  502  501  0.00000000000E+00  0.00000000000E+00  0.49250210037E+03  0.49250210037E+03  0.00000000000E+00 0.  1.
         21   -1    0    0  501  502 -0.00000000000E+00 -0.00000000000E+00 -0.69634211055E+02  0.69634211055E+02  0.00000000000E+00 0.  1.
         25    1    1    2    0    0  0.11676589001E+03 -0.67980126403E+02  0.24233113628E+03  0.30431061478E+03  0.12500000000E+03 0.  0.
         25    1    1    2    0    0 -0.11676589001E+03  0.67980126403E+02  0.18053675304E+03  0.25782569665E+03  0.12500000000E+03 0.  0.
</event>
<event>
 4    0  0.2188063E-002  0.2437420E+03  0.7546771E-02  0.1117325E+00
         21   -1    0    0  502  501  0.00000000000E+00  0.00000000000E+00  0.21792646619E+03  0.21792646619E+03  0.00000000000E+00 0.  1.
         21   -1    0    0  501  502 -0.00000000000E+00 -0.00000000000E+00 -0.27261566219E+03  0.27261566219E+03  0.00000000000E+00 0.  1.
         25    1    1    2    0    0 -0.18229965689E+03 -0.21820492920E+02 -0.12835292626E+03  0.25653220557E+03  0.12500000000E+03 0.  0.
         25    1    1    2    0    0  0.18229965689E+03  0.21820492920E+02  0.73663730261E+02  0.23400992280E+03  0.12500000000E+03 0.  0.
</event>
<event>
 4    0  0.2188063E-002  0.1631333E+03  0.7546771E-02  0.1185204E+00
         21   -1    0    0  502  501  0.00000000000E+00  0.00000000000E+00  0.34765135384E+02  0.34765135384E+02  0.00000000000E+00 0. -1.
         21   -1    0    0  501  502 -0.00000000000E+00 -0.00000000000E+00 -0.76549334914E+03  0.76549334914E+03  0.00000000000E+00 0. -1.
         25    1    1    2    0    0  0.19225300370E+02  0.49538422420E+02 -0.14374656793E+03  0.19776689122E+03  0.12500000000E+03 0.  0.
         25    1    1    2    0    0 -0.19225300370E+02 -0.49538422420E+02 -0.58698164582E+03  0.60249159330E+03  0.12500000000E+03 0.  0.
</event>
<event>
 4    0  0.2188063E-002  0.2192564E+03  0.7546771E-02  0.1134439E+00
         21   -1    0    0  502  501  0.00000000000E+00  0.00000000000E+00  0.18356838261E+03  0.18356838261E+03  0.00000000000E+00 0.  1.
         21   -1    0    0  501  502 -0.00000000000E+00 -0.00000000000E+00 -0.26188252758E+03  0.26188252758E+03  0.00000000000E+00 0.  1.
         25    1    1    2    0    0 -0.16102882483E+03 -0.24765839537E+02 -0.11721507058E+03  0.23644873018E+03  0.12500000000E+03 0.  0.
         25    1    1    2    0    0  0.16102882483E+03  0.24765839537E+02  0.38900925621E+02  0.20900218001E+03  0.12500000000E+03 0.  0.
</event>
<event>
 4    0  0.2188063E-002  0.1924101E+03  0.7546771E-02  0.1156305E+00
         21   -1    0    0  502  501  0.00000000000E+00  0.00000000000E+00  0.40559278200E+02  0.40559278200E+02  0.00000000000E+00 0.  1.
         21   -1    0    0  501  502 -0.00000000000E+00 -0.00000000000E+00 -0.91277886343E+03  0.91277886343E+03  0.00000000000E+00 0.  1.
         25    1    1    2    0    0 -0.10934305987E+03  0.88334270733E+02 -0.33585156917E+03  0.38494171590E+03  0.12500000000E+03 0.  0.
         25    1    1    2    0    0  0.10934305987E+03 -0.88334270733E+02 -0.53636801607E+03  0.56839642573E+03  0.12500000000E+03 0.  0.
</event>
<event>
 4    0  0.2188063E-002  0.2566780E+03  0.7546771E-02  0.1109156E+00
         21   -1    0    0  502  501  0.00000000000E+00  0.00000000000E+00  0.17150157102E+03  0.17150157102E+03  0.00000000000E+00 0. -1.
         21   -1    0    0  501  502 -0.00000000000E+00 -0.00000000000E+00 -0.38415735866E+03  0.38415735866E+03  0.00000000000E+00 0.  1.
         25    1    1    2    0    0  0.55626339470E+02 -0.21303552571E+03 -0.15199672363E+03  0.29530734642E+03  0.12500000000E+03 0.  0.
         25    1    1    2    0    0 -0.55626339470E+02  0.21303552571E+03 -0.60659064014E+02  0.26035158326E+03  0.12500000000E+03 0.  0.
</event>
<event>
 4    0  0.2188063E-002  0.2426941E+03  0.7546771E-02  0.1118011E+00
         21   -1    0    0  502  501  0.00000000000E+00  0.00000000000E+00  0.37921970048E+02  0.37921970048E+02  0.00000000000E+00 0. -1.
         21   -1    0    0  501  502 -0.00000000000E+00 -0.00000000000E+00 -0.15532001226E+04  0.15532001226E+04  0.00000000000E+00 0. -1.
         25    1    1    2    0    0 -0.65163373142E+02  0.13660225047E+03 -0.12254807181E+04  0.12411021031E+04  0.12500000000E+03 0.  0.
         25    1    1    2    0    0  0.65163373142E+02 -0.13660225047E+03 -0.28979743450E+03  0.35001998954E+03  0.12500000000E+03 0.  0.
</event>
<event>
 4    0  0.2188063E-002  0.2196451E+03  0.7546771E-02  0.1134148E+00
         21   -1    0    0  502  501  0.00000000000E+00  0.00000000000E+00  0.28444673625E+03  0.28444673625E+03  0.00000000000E+00 0.  1.
         21   -1    0    0  501  502 -0.00000000000E+00 -0.00000000000E+00 -0.16960626689E+03  0.16960626689E+03  0.00000000000E+00 0.  1.
         25    1    1    2    0    0 -0.11165557496E+03  0.10947641068E+03  0.15082814897E+03  0.25065151593E+03  0.12500000000E+03 0.  0.
         25    1    1    2    0    0  0.11165557496E+03 -0.10947641068E+03 -0.35987679613E+02  0.20340148721E+03  0.12500000000E+03 0.  0.
</event>
<event>
 4    0  0.2188063E-002  0.2365375E+03  0.7546771E-02  0.1122121E+00
         21   -1    0    0  502  501  0.00000000000E+00  0.00000000000E+00  0.25557751111E+02  0.25557751111E+02  0.00000000000E+00 0.  1.
         21   -1    0    0  501  502 -0.00000000000E+00 -0.00000000000E+00 -0.21891594129E+04  0.21891594129E+04  0.00000000000E+00 0. -1.
         25    1    1    2    0    0 -0.18064627049E+03  0.23934346094E+02 -0.68679846622E+03  0.72147284160E+03  0.12500000000E+03 0.  0.
         25    1    1    2    0    0  0.18064627049E+03 -0.23934346094E+02 -0.14768031956E+04  0.14932443224E+04  0.12500000000E+03 0.  0.
</event>
<event>
 4    0  0.2188063E-002  0.2652975E+03  0.7546771E-02  0.1104002E+00
         21   -1    0    0  502  501  0.00000000000E+00  0.00000000000E+00  0.28099895828E+03  0.28099895828E+03  0.00000000000E+00 0. -1.
         21   -1    0    0  501  502 -0.00000000000E+00 -0.00000000000E+00 -0.25047340030E+03  0.25047340030E+03  0.00000000000E+00 0. -1.
         25    1    1    2    0    0 -0.17129789355E+02  0.19330941434E+03 -0.11570434967E+03  0.25821397307E+03  0.12500000000E+03 0.  0.
         25    1    1    2    0    0  0.17129789355E+02 -0.19330941434E+03  0.14622990766E+03  0.27325838550E+03  0.12500000000E+03 0.  0.
</event>
<event>
 4    0  0.2188063E-002  0.4626701E+03  0.7546771E-02  0.1024010E+00
         21   -1    0    0  502  501  0.00000000000E+00  0.00000000000E+00  0.26252393220E+04  0.26252393220E+04  0.00000000000E+00 0.  1.
         21   -1    0    0  501  502 -0.00000000000E+00 -0.00000000000E+00 -0.81540603610E+02  0.81540603610E+02  0.00000000000E+00 0. -1.
         25    1    1    2    0    0  0.15100192341E+03 -0.39010567141E+03  0.82386237131E+03  0.93239381305E+03  0.12500000000E+03 0.  0.
         25    1    1    2    0    0 -0.15100192341E+03  0.39010567141E+03  0.17198363470E+04  0.17743861125E+04  0.12500000000E+03 0.  0.
</event>
<event>
 4    0  0.2188063E-002  0.3036790E+03  0.7546771E-02  0.1083416E+00
         21   -1    0    0  502  501  0.00000000000E+00  0.00000000000E+00  0.27573445265E+03  0.27573445265E+03  0.00000000000E+00 0. -1.
         21   -1    0    0  501  502 -0.00000000000E+00 -0.00000000000E+00 -0.33445559012E+03  0.33445559012E+03  0.00000000000E+00 0. -1.
         25    1    1    2    0    0  0.26355800746E+01 -0.27520731076E+03 -0.71260362248E-01  0.30227638885E+03  0.12500000000E+03 0.  0.
         25    1    1    2    0    0 -0.26355800746E+01  0.27520731076E+03 -0.58649877111E+02  0.30791365391E+03  0.12500000000E+03 0.  0.
</event>
<event>
 4    0  0.2188063E-002  0.2325648E+03  0.7546771E-02  0.1124847E+00
         21   -1    0    0  502  501  0.00000000000E+00  0.00000000000E+00  0.23755599169E+03  0.23755599169E+03  0.00000000000E+00 0. -1.
         21   -1    0    0  501  502 -0.00000000000E+00 -0.00000000000E+00 -0.22767848477E+03  0.22767848477E+03  0.00000000000E+00 0. -1.
         25    1    1    2    0    0  0.85295433209E+02 -0.12963666247E+03  0.12488415010E+03  0.23516382828E+03  0.12500000000E+03 0.  0.
         25    1    1    2    0    0 -0.85295433209E+02  0.12963666247E+03 -0.11500664318E+03  0.23007064819E+03  0.12500000000E+03 0.  0.
</event>
<event>
 4    0  0.2188063E-002  0.2092394E+03  0.7546771E-02  0.1142170E+00
         21   -1    0    0  502  501  0.00000000000E+00  0.00000000000E+00  0.10396127164E+03  0.10396127164E+03  0.00000000000E+00 0.  1.
         21   -1    0    0  501  502 -0.00000000000E+00 -0.00000000000E+00 -0.42112916215E+03  0.42112916215E+03  0.00000000000E+00 0.  1.
         25    1    1    2    0    0  0.38536338879E+02 -0.43912422795E+02 -0.35595562886E+03  0.38176270117E+03  0.12500000000E+03 0.  0.
         25    1    1    2    0    0 -0.38536338879E+02  0.43912422795E+02  0.38787738360E+02  0.14332773262E+03  0.12500000000E+03 0.  0.
</event>
<event>
 4    0  0.2188063E-002  0.2105165E+03  0.7546771E-02  0.1141158E+00
         21   -1    0    0  502  501  0.00000000000E+00  0.00000000000E+00  0.42393912408E+02  0.42393912408E+02  0.00000000000E+00 0. -1.
         21   -1    0    0  501  502 -0.00000000000E+00 -0.00000000000E+00 -0.10453666848E+04  0.10453666848E+04  0.00000000000E+00 0. -1.
         25    1    1    2    0    0 -0.15602938163E+03  0.65915626968E+02 -0.49770180414E+03  0.54039071389E+03  0.12500000000E+03 0.  0.
         25    1    1    2    0    0  0.15602938163E+03 -0.65915626968E+02 -0.50527096826E+03  0.54736988333E+03  0.12500000000E+03 0.  0.
</event>
<event>
 4    0  0.2188063E-002  0.2332546E+03  0.7546771E-02  0.1124370E+00
         21   -1    0    0  502  501  0.00000000000E+00  0.00000000000E+00  0.21667221398E+03  0.21667221398E+03  0.00000000000E+00 0.  1.
         21   -1    0    0  501  502 -0.00000000000E+00 -0.00000000000E+00 -0.25110612776E+03  0.25110612776E+03  0.00000000000E+00 0.  1.
         25    1    1    2    0    0  0.11757917620E+03  0.49575126834E+01  0.14111535912E+03  0.22223407522E+03  0.12500000000E+03 0.  0.
         25    1    1    2    0    0 -0.11757917620E+03 -0.49575126834E+01 -0.17554927290E+03  0.24554426653E+03  0.12500000000E+03 0.  0.
</event>
<event>
 4    0  0.2188063E-002  0.3581052E+03  0.7546771E-02  0.1059337E+00
         21   -1    0    0  502  501  0.00000000000E+00  0.00000000000E+00  0.90133545624E+02  0.90133545624E+02  0.00000000000E+00 0.  1.
         21   -1    0    0  501  502 -0.00000000000E+00 -0.00000000000E+00 -0.14227702899E+04  0.14227702899E+04  0.00000000000E+00 0.  1.
         25    1    1    2    0    0 -0.25195091478E+03 -0.12592994270E+02 -0.19883678681E+03  0.34467218448E+03  0.12500000000E+03 0.  0.
         25    1    1    2    0    0  0.25195091478E+03  0.12592994270E+02 -0.11337999574E+04  0.11682316510E+04  0.12500000000E+03 0.  0.
</event>
<event>
 4    0  0.2188063E-002  0.2068143E+03  0.7546771E-02  0.1144114E+00
         21   -1    0    0  502  501  0.00000000000E+00  0.00000000000E+00  0.15923986371E+03  0.15923986371E+03  0.00000000000E+00 0. -1.
         21   -1    0    0  501  502 -0.00000000000E+00 -0.00000000000E+00 -0.26860212008E+03  0.26860212008E+03  0.00000000000E+00 0. -1.
         25    1    1    2    0    0 -0.28765731965E+02 -0.15707302046E+03 -0.12693602830E+02  0.20318840677E+03  0.12500000000E+03 0.  0.
         25    1    1    2    0    0  0.28765731965E+02  0.15707302046E+03 -0.96668653534E+02  0.22465357702E+03  0.12500000000E+03 0.  0.
</event>
<event>
 4    0  0.2188063E-002  0.2970837E+03  0.7546771E-02  0.1086708E+00
         21   -1    0    0  502  501  0.00000000000E+00  0.00000000000E+00  0.15701027428E+03  0.15701027428E+03  0.00000000000E+00 0. -1.
         21   -1    0    0  501  502 -0.00000000000E+00 -0.00000000000E+00 -0.56212055331E+03  0.56212055331E+03  0.00000000000E+00 0. -1.
         25    1    1    2    0    0  0.14473286782E+03  0.44418842055E+02  0.67302312263E+02  0.20754574867E+03  0.12500000000E+03 0.  0.
         25    1    1    2    0    0 -0.14473286782E+03 -0.44418842055E+02 -0.47241259129E+03  0.51158507891E+03  0.12500000000E+03 0.  0.
</event>
<event>
 4    0  0.2188063E-002  0.2859420E+03  0.7546771E-02  0.1092487E+00
         21   -1    0    0  502  501  0.00000000000E+00  0.00000000000E+00  0.94737805415E+02  0.94737805415E+02  0.00000000000E+00 0.  1.
         21   -1    0    0  501  502 -0.00000000000E+00 -0.00000000000E+00 -0.86304339548E+03  0.86304339548E+03  0.00000000000E+00 0.  1.
         25    1    1    2    0    0 -0.12863678935E+03  0.72343494480E+02 -0.31425880824E+02  0.19594282522E+03  0.12500000000E+03 0.  0.
         25    1    1    2    0    0  0.12863678935E+03 -0.72343494480E+02 -0.73687970924E+03  0.76183837568E+03  0.12500000000E+03 0.  0.
</event>
<event>
 4    0  0.2188063E-002  0.1748407E+03  0.7546771E-02  0.1172892E+00
         21   -1    0    0  502  501  0.00000000000E+00  0.00000000000E+00  0.21878942472E+02  0.21878942472E+02  0.00000000000E+00 0. -1.
         21   -1    0    0  501  502 -0.00000000000E+00 -0.00000000000E+00 -0.13972004515E+04  0.13972004515E+04  0.00000000000E+00 0. -1.
         25    1    1    2    0    0 -0.10296483735E+03  0.59938085392E+02 -0.79879461968E+03  0.81724670464E+03  0.12500000000E+03 0.  0.
         25    1    1    2    0    0  0.10296483735E+03 -0.59938085392E+02 -0.57652688934E+03  0.60183268933E+03  0.12500000000E+03 0.  0.
</event>
<event>
 4    0  0.2188063E-002  0.1598651E+03  0.7546771E-02  0.1188849E+00
         21   -1    0    0  502  501  0.00000000000E+00  0.00000000000E+00  0.65335306503E+03  0.65335306503E+03  0.00000000000E+00 0. -1.
         21   -1    0    0  501  502 -0.00000000000E+00 -0.00000000000E+00 -0.39116444674E+02  0.39116444674E+02  0.00000000000E+00 0. -1.
         25    1    1    2    0    0 -0.77525206795E+02 -0.70172852698E+01  0.44189347200E+03  0.46578346963E+03  0.12500000000E+03 0.  0.
         25    1    1    2    0    0  0.77525206795E+02  0.70172852698E+01  0.17234314836E+03  0.22668604008E+03  0.12500000000E+03 0.  0.
</event>
<event>
 4    0  0.2188063E-002  0.2501776E+03  0.7546771E-02  0.1113193E+00
         21   -1    0    0  502  501  0.00000000000E+00  0.00000000000E+00  0.30070511832E+03  0.30070511832E+03  0.00000000000E+00 0.  1.
         21   -1    0    0  501  502 -0.00000000000E+00 -0.00000000000E+00 -0.20814016052E+03  0.20814016052E+03  0.00000000000E+00 0.  1.
         25    1    1    2    0    0  0.13084465345E+03  0.40842290715E+02 -0.12442101567E+03  0.22336966040E+03  0.12500000000E+03 0.  0.
         25    1    1    2    0    0 -0.13084465345E+03 -0.40842290715E+02  0.21698597346E+03  0.28547561844E+03  0.12500000000E+03 0.  0.
</event>
<event>
 4    0  0.2188063E-002  0.1659068E+03  0.7546771E-02  0.1182185E+00
         21   -1    0    0  502  501  0.00000000000E+00  0.00000000000E+00  0.32436496690E+02  0.32436496690E+02  0.00000000000E+00 0. -1.
         21   -1    0    0  501  502 -0.00000000000E+00 -0.00000000000E+00 -0.84858273697E+03  0.84858273697E+03  0.00000000000E+00 0. -1.
         25    1    1    2    0    0 -0.84692812302E+01 -0.10749408973E+03 -0.36417505541E+03  0.39984394335E+03  0.12500000000E+03 0.  0.
         25    1    1    2    0    0  0.84692812302E+01  0.10749408973E+03 -0.45197118487E+03  0.48117529031E+03  0.12500000000E+03 0.  0.
</event>
<event>
 4    0  0.2188063E-002  0.2133973E+03  0.7546771E-02  0.1138904E+00
         21   -1    0    0  502  501  0.00000000000E+00  0.00000000000E+00  0.78330068832E+02  0.78330068832E+02  0.00000000000E+00 0. -1.
         21   -1    0    0  501  502 -0.00000000000E+00 -0.00000000000E+00 -0.58136544264E+03  0.58136544264E+03  0.00000000000E+00 0. -1.
         25    1    1    2    0    0 -0.18939166062E+02  0.12648889791E+03 -0.43147878245E+03  0.46707287762E+03  0.12500000000E+03 0.  0.
         25    1    1    2    0    0  0.18939166062E+02 -0.12648889791E+03 -0.71556591362E+02  0.19262263385E+03  0.12500000000E+03 0.  0.
</event>
<event>
 4    0  0.2188063E-002  0.1688854E+03  0.7546771E-02  0.1179015E+00
         21   -1    0    0  502  501  0.00000000000E+00  0.00000000000E+00  0.21479058409E+02  0.21479058409E+02  0.00000000000E+00 0.  1.
         21   -1    0    0  501  502 -0.00000000000E+00 -0.00000000000E+00 -0.13279116421E+04  0.13279116421E+04  0.00000000000E+00 0.  1.
         25    1    1    2    0    0 -0.61197527580E+02 -0.94607891261E+02 -0.70992560446E+03  0.72959931082E+03  0.12500000000E+03 0.  0.
         25    1    1    2    0    0  0.61197527580E+02  0.94607891261E+02 -0.59650697925E+03  0.61979138971E+03  0.12500000000E+03 0.  0.
</event>
<event>
 4    0  0.2188063E-002  0.1922131E+03  0.7546771E-02  0.1156480E+00
         21   -1    0    0  502  501  0.00000000000E+00  0.00000000000E+00  0.25096999600E+02  0.25096999600E+02  0.00000000000E+00 0.  1.
         21   -1    0    0  501  502 -0.00000000000E+00 -0.00000000000E+00 -0.14721233893E+04  0.14721233893E+04  0.00000000000E+00 0.  1.
         25    1    1    2    0    0 -0.91701707577E+02  0.11358924497E+03 -0.71172549348E+03  0.73721767329E+03  0.12500000000E+03 0.  0.
         25    1    1    2    0    0  0.91701707577E+02 -0.11358924497E+03 -0.73530089618E+03  0.76000271557E+03  0.12500000000E+03 0.  0.
</event>
<event>
 4    0  0.2188063E-002  0.2442810E+03  0.7546771E-02  0.1116973E+00
         21   -1    0    0  502  501  0.00000000000E+00  0.00000000000E+00  0.21250980995E+03  0.21250980995E+03  0.00000000000E+00 0. -1.
         21   -1    0    0  501  502 -0.00000000000E+00 -0.00000000000E+00 -0.28080216564E+03  0.28080216564E+03  0.00000000000E+00 0. -1.
         25    1    1    2    0    0  0.31860179064E+02 -0.15385770264E+03  0.10635025243E+03  0.22720616159E+03  0.12500000000E+03 0.  0.
         25    1    1    2    0    0 -0.31860179064E+02  0.15385770264E+03 -0.17464260812E+03  0.26610581400E+03  0.12500000000E+03 0.  0.
</event>
<event>
 4    0  0.2188063E-002  0.2032575E+03  0.7546771E-02  0.1147019E+00
         21   -1    0    0  502  501  0.00000000000E+00  0.00000000000E+00  0.22048478834E+03  0.22048478834E+03  0.00000000000E+00 0.  1.
         21   -1    0    0  501  502 -0.00000000000E+00 -0.00000000000E+00 -0.18737623981E+03  0.18737623981E+03  0.00000000000E+00 0. -1.
         25    1    1    2    0    0  0.77115904290E+02 -0.12836828402E+03 -0.40760453946E+02  0.19927793065E+03  0.12500000000E+03 0.  0.
         25    1    1    2    0    0 -0.77115904290E+02  0.12836828402E+03  0.73869002477E+02  0.20858309750E+03  0.12500000000E+03 0.  0.
</event>
<event>
 4    0  0.2188063E-002  0.1474573E+03  0.7546771E-02  0.1203633E+00
         21   -1    0    0  502  501  0.00000000000E+00  0.00000000000E+00  0.12600986725E+03  0.12600986725E+03  0.00000000000E+00 0.  1.
         21   -1    0    0  501  502 -0.00000000000E+00 -0.00000000000E+00 -0.17255508623E+03  0.17255508623E+03  0.00000000000E+00 0.  1.
         25    1    1    2    0    0  0.11868460617E+02 -0.43103181649E+02  0.41708324726E+02  0.13915217920E+03  0.12500000000E+03 0.  0.
         25    1    1    2    0    0 -0.11868460617E+02  0.43103181649E+02 -0.88253543708E+02  0.15941277428E+03  0.12500000000E+03 0.  0.
</event>
<event>
 4    0  0.2188063E-002  0.2139324E+03  0.7546771E-02  0.1138489E+00
         21   -1    0    0  502  501  0.00000000000E+00  0.00000000000E+00  0.55121973307E+03  0.55121973307E+03  0.00000000000E+00 0.  1.
         21   -1    0    0  501  502 -0.00000000000E+00 -0.00000000000E+00 -0.83028715258E+02  0.83028715258E+02  0.00000000000E+00 0.  1.
         25    1    1    2    0    0 -0.14426106547E+02 -0.10986275769E+03  0.43222256828E+03  0.46337812487E+03  0.12500000000E+03 0.  0.
         25    1    1    2    0    0  0.14426106547E+02  0.10986275769E+03  0.35968449532E+02  0.17087032346E+03  0.12500000000E+03 0.  0.
</event>
<event>
 4    0  0.2188063E-002  0.2284374E+03  0.7546771E-02  0.1127744E+00
         21   -1    0    0  502  501  0.00000000000E+00  0.00000000000E+00  0.10666713592E+03  0.10666713592E+03  0.00000000000E+00 0.  1.
         21   -1    0    0  501  502 -0.00000000000E+00 -0.00000000000E+00 -0.48921946673E+03  0.48921946673E+03  0.00000000000E+00 0.  1.
         25    1    1    2    0    0 -0.98430240447E+01  0.71619436121E+02  0.39591625930E+02  0.14972884023E+03  0.12500000000E+03 0.  0.
         25    1    1    2    0    0  0.98430240447E+01 -0.71619436121E+02 -0.42214395675E+03  0.44615776242E+03  0.12500000000E+03 0.  0.
</event>
<event>
 4    0  0.2188063E-002  0.2430720E+03  0.7546771E-02  0.1117763E+00
         21   -1    0    0  502  501  0.00000000000E+00  0.00000000000E+00  0.11767193570E+02  0.11767193570E+02  0.00000000000E+00 0. -1.
         21   -1    0    0  501  502 -0.00000000000E+00 -0.00000000000E+00 -0.50210771167E+04  0.50210771167E+04  0.00000000000E+00 0. -1.
         25    1    1    2    0    0 -0.63713463617E+02 -0.54912748538E+02 -0.44793718817E+04  0.44819049823E+04  0.12500000000E+03 0.  0.
         25    1    1    2    0    0  0.63713463617E+02  0.54912748538E+02 -0.52993804141E+03  0.55093932800E+03  0.12500000000E+03 0.  0.
</event>
<event>
 4    0  0.2188063E-002  0.2036874E+03  0.7546771E-02  0.1146665E+00
         21   -1    0    0  502  501  0.00000000000E+00  0.00000000000E+00  0.60446692765E+02  0.60446692765E+02  0.00000000000E+00 0.  1.
         21   -1    0    0  501  502 -0.00000000000E+00 -0.00000000000E+00 -0.68636623440E+03  0.68636623440E+03  0.00000000000E+00 0.  1.
         25    1    1    2    0    0  0.14126094187E+03  0.86460614086E+00 -0.45387048279E+03  0.49150667990E+03  0.12500000000E+03 0.  0.
         25    1    1    2    0    0 -0.14126094187E+03 -0.86460614086E+00 -0.17204905885E+03  0.25530624726E+03  0.12500000000E+03 0.  0.
</event>
<event>
 4    0  0.2188063E-002  0.3495754E+03  0.7546771E-02  0.1062789E+00
         21   -1    0    0  502  501  0.00000000000E+00  0.00000000000E+00  0.83498067741E+03  0.83498067741E+03  0.00000000000E+00 0. -1.
         21   -1    0    0  501  502 -0.00000000000E+00 -0.00000000000E+00 -0.14635426792E+03  0.14635426792E+03  0.00000000000E+00 0. -1.
         25    1    1    2    0    0 -0.20094842318E+03 -0.11151003873E+03  0.66976676689E+03  0.71904609000E+03  0.12500000000E+03 0.  0.
         25    1    1    2    0    0  0.20094842318E+03  0.11151003873E+03  0.18859642603E+02  0.26228885534E+03  0.12500000000E+03 0.  0.
</event>
<event>
 4    0  0.2188063E-002  0.1412414E+03  0.7546771E-02  0.1211668E+00
         21   -1    0    0  502  501  0.00000000000E+00  0.00000000000E+00  0.48920783094E+03  0.48920783094E+03  0.00000000000E+00 0. -1.
         21   -1    0    0  501  502 -0.00000000000E+00 -0.00000000000E+00 -0.40778465388E+02  0.40778465388E+02  0.00000000000E+00 0. -1.
         25    1    1    2    0    0 -0.25712941009E+02  0.60493779333E+02  0.22772062837E+03  0.26795958139E+03  0.12500000000E+03 0.  0.
         25    1    1    2    0    0  0.25712941009E+02 -0.60493779333E+02  0.22070873718E+03  0.26202671494E+03  0.12500000000E+03 0.  0.
</event>
<event>
 4    0  0.2188063E-002  0.2305828E+03  0.7546771E-02  0.1126230E+00
         21   -1    0    0  502  501  0.00000000000E+00  0.00000000000E+00  0.17745051588E+03  0.17745051588E+03  0.00000000000E+00 0. -1.
         21   -1    0    0  501  502 -0.00000000000E+00 -0.00000000000E+00 -0.29962390368E+03  0.29962390368E+03  0.00000000000E+00 0. -1.
         25    1    1    2    0    0 -0.15166276711E+03 -0.11835747725E+03 -0.84977282148E+02  0.24465532046E+03  0.12500000000E+03 0.  0.
         25    1    1    2    0    0  0.15166276711E+03  0.11835747725E+03 -0.37196105651E+02  0.23241909910E+03  0.12500000000E+03 0.  0.
</event>
<event>
 4    0  0.2188063E-002  0.2121078E+03  0.7546771E-02  0.1139908E+00
         21   -1    0    0  502  501  0.00000000000E+00  0.00000000000E+00  0.11343593043E+03  0.11343593043E+03  0.00000000000E+00 0.  1.
         21   -1    0    0  501  502 -0.00000000000E+00 -0.00000000000E+00 -0.39660896499E+03  0.39660896499E+03  0.00000000000E+00 0.  1.
         25    1    1    2    0    0 -0.13069535882E+03  0.10198983507E+03 -0.19373892512E+03  0.28397706664E+03  0.12500000000E+03 0.  0.
         25    1    1    2    0    0  0.13069535882E+03 -0.10198983507E+03 -0.89434109449E+02  0.22606782878E+03  0.12500000000E+03 0.  0.
</event>
<event>
 4    0  0.2188063E-002  0.2768957E+03  0.7546771E-02  0.1097397E+00
         21   -1    0    0  502  501  0.00000000000E+00  0.00000000000E+00  0.15563823643E+03  0.15563823643E+03  0.00000000000E+00 0. -1.
         21   -1    0    0  501  502 -0.00000000000E+00 -0.00000000000E+00 -0.49262463940E+03  0.49262463940E+03  0.00000000000E+00 0. -1.
         25    1    1    2    0    0  0.14946566846E+03  0.95408026693E+02  0.32914862820E+02  0.21943351112E+03  0.12500000000E+03 0.  0.
         25    1    1    2    0    0 -0.14946566846E+03 -0.95408026693E+02 -0.36990126580E+03  0.42882936472E+03  0.12500000000E+03 0.  0.
</event>
<event>
 4    0  0.2188063E-002  0.1995251E+03  0.7546771E-02  0.1150140E+00
         21   -1    0    0  502  501  0.00000000000E+00  0.00000000000E+00  0.97142877654E+02  0.97142877654E+02  0.00000000000E+00 0.  1.
         21   -1    0    0  501  502 -0.00000000000E+00 -0.00000000000E+00 -0.40981147259E+03  0.40981147259E+03  0.00000000000E+00 0.  1.
         25    1    1    2    0    0 -0.60170197945E+02  0.12688242612E+03 -0.71438871555E+02  0.20111716771E+03  0.12500000000E+03 0.  0.
         25    1    1    2    0    0  0.60170197945E+02 -0.12688242612E+03 -0.24122972338E+03  0.30583718253E+03  0.12500000000E+03 0.  0.
</event>
<event>
 4    0  0.2188063E-002  0.2266221E+03  0.7546771E-02  0.1129040E+00
         21   -1    0    0  502  501  0.00000000000E+00  0.00000000000E+00  0.11177787912E+03  0.11177787912E+03  0.00000000000E+00 0. -1.
         21   -1    0    0  501  502 -0.00000000000E+00 -0.00000000000E+00 -0.45946120132E+03  0.45946120132E+03  0.00000000000E+00 0. -1.
         25    1    1    2    0    0  0.11085549112E+03 -0.11963093931E+03 -0.29428168164E+03  0.35892507533E+03  0.12500000000E+03 0.  0.
         25    1    1    2    0    0 -0.11085549112E+03  0.11963093931E+03 -0.53401640552E+02  0.21231400511E+03  0.12500000000E+03 0.  0.
</event>
<event>
 4    0  0.2188063E-002  0.3783006E+03  0.7546771E-02  0.1051564E+00
         21   -1    0    0  502  501  0.00000000000E+00  0.00000000000E+00  0.48090697692E+03  0.48090697692E+03  0.00000000000E+00 0. -1.
         21   -1    0    0  501  502 -0.00000000000E+00 -0.00000000000E+00 -0.29758627036E+03  0.29758627036E+03  0.00000000000E+00 0. -1.
         25    1    1    2    0    0  0.13348816862E+03 -0.32747325830E+03  0.14236594024E+03  0.40118684799E+03  0.12500000000E+03 0.  0.
         25    1    1    2    0    0 -0.13348816862E+03  0.32747325830E+03  0.40954766324E+02  0.37730639929E+03  0.12500000000E+03 0.  0.
</event>
<event>
 4    0  0.2188063E-002  0.1851807E+03  0.7546771E-02  0.1162881E+00
         21   -1    0    0  502  501  0.00000000000E+00  0.00000000000E+00  0.41569074347E+03  0.41569074347E+03  0.00000000000E+00 0. -1.
         21   -1    0    0  501  502 -0.00000000000E+00 -0.00000000000E+00 -0.82493757034E+02  0.82493757034E+02  0.00000000000E+00 0. -1.
         25    1    1    2    0    0 -0.10211390203E+02 -0.13419517558E+03  0.13493006007E+03  0.22791169068E+03  0.12500000000E+03 0.  0.
         25    1    1    2    0    0  0.10211390203E+02  0.13419517558E+03  0.19826692636E+03  0.27027280982E+03  0.12500000000E+03 0.  0.
</event>
<event>
 4    0  0.2188063E-002  0.2342630E+03  0.7546771E-02  0.1123675E+00
         21   -1    0    0  502  501  0.00000000000E+00  0.00000000000E+00  0.13716954455E+03  0.13716954455E+03  0.00000000000E+00 0.  1.
         21   -1    0    0  501  502 -0.00000000000E+00 -0.00000000000E+00 -0.40008257582E+03  0.40008257582E+03  0.00000000000E+00 0.  1.
         25    1    1    2    0    0 -0.88905943555E+02  0.98983995363E+02  0.36884031284E+02  0.18624588560E+03  0.12500000000E+03 0.  0.
         25    1    1    2    0    0  0.88905943555E+02 -0.98983995363E+02 -0.29979706255E+03  0.35100623477E+03  0.12500000000E+03 0.  0.
</event>
<event>
 4    0  0.2188063E-002  0.3047684E+03  0.7546771E-02  0.1082881E+00
         21   -1    0    0  502  501  0.00000000000E+00  0.00000000000E+00  0.11472319653E+04  0.11472319653E+04  0.00000000000E+00 0.  1.
         21   -1    0    0  501  502 -0.00000000000E+00 -0.00000000000E+00 -0.80963374176E+02  0.80963374176E+02  0.00000000000E+00 0.  1.
         25    1    1    2    0    0  0.17771618870E+03  0.20857318098E+03  0.62706183144E+03  0.69564168651E+03  0.12500000000E+03 0.  0.
         25    1    1    2    0    0 -0.17771618870E+03 -0.20857318098E+03  0.43920675972E+03  0.53255365301E+03  0.12500000000E+03 0.  0.
</event>
<event>
 4    0  0.2188063E-002  0.2074817E+03  0.7546771E-02  0.1143576E+00
         21   -1    0    0  502  501  0.00000000000E+00  0.00000000000E+00  0.12218759850E+03  0.12218759850E+03  0.00000000000E+00 0. -1.
         21   -1    0    0  501  502 -0.00000000000E+00 -0.00000000000E+00 -0.35231609808E+03  0.35231609808E+03  0.00000000000E+00 0. -1.
         25    1    1    2    0    0 -0.24439795293E+02 -0.15511812341E+02 -0.30151071605E+03  0.32767610808E+03  0.12500000000E+03 0.  0.
         25    1    1    2    0    0  0.24439795293E+02  0.15511812341E+02  0.71382216465E+02  0.14682758850E+03  0.12500000000E+03 0.  0.
</event>
<event>
 4    0  0.2188063E-002  0.3179293E+03  0.7546771E-02  0.1076606E+00
         21   -1    0    0  502  501  0.00000000000E+00  0.00000000000E+00  0.32145087858E+03  0.32145087858E+03  0.00000000000E+00 0. -1.
         21   -1    0    0  501  502 -0.00000000000E+00 -0.00000000000E+00 -0.31444620606E+03  0.31444620606E+03  0.00000000000E+00 0.  1.
         25    1    1    2    0    0 -0.22480454310E+03 -0.82546872535E+02  0.17115182432E+03  0.31979527159E+03  0.12500000000E+03 0.  0.
         25    1    1    2    0    0  0.22480454310E+03  0.82546872535E+02 -0.16414715181E+03  0.31610181305E+03  0.12500000000E+03 0.  0.
</event>
<event>
 4    0  0.2188063E-002  0.2325261E+03  0.7546771E-02  0.1124874E+00
         21   -1    0    0  502  501  0.00000000000E+00  0.00000000000E+00  0.10719686348E+03  0.10719686348E+03  0.00000000000E+00 0.  1.
         21   -1    0    0  501  502 -0.00000000000E+00 -0.00000000000E+00 -0.50438400029E+03  0.50438400029E+03  0.00000000000E+00 0.  1.
         25    1    1    2    0    0  0.32730188969E+02 -0.52792538263E+02 -0.44315980647E+03  0.46462235357E+03  0.12500000000E+03 0.  0.
         25    1    1    2    0    0 -0.32730188969E+02  0.52792538263E+02  0.45972669650E+02  0.14695851020E+03  0.12500000000E+03 0.  0.
</event>
<event>
 4    0  0.2188063E-002  0.2335293E+03  0.7546771E-02  0.1124180E+00
         21   -1    0    0  502  501  0.00000000000E+00  0.00000000000E+00  0.32782007252E+03  0.32782007252E+03  0.00000000000E+00 0.  1.
         21   -1    0    0  501  502 -0.00000000000E+00 -0.00000000000E+00 -0.16635938800E+03  0.16635938800E+03  0.00000000000E+00 0.  1.
         25    1    1    2    0    0 -0.12222056223E+02 -0.12785158157E+03 -0.77681586011E+02  0.19533262496E+03  0.12500000000E+03 0.  0.
         25    1    1    2    0    0  0.12222056223E+02  0.12785158157E+03  0.23914227053E+03  0.29884683556E+03  0.12500000000E+03 0.  0.
</event>
<event>
 4    0  0.2188063E-002  0.1672627E+03  0.7546771E-02  0.1180733E+00
         21   -1    0    0  502  501  0.00000000000E+00  0.00000000000E+00  0.86012467924E+03  0.86012467924E+03  0.00000000000E+00 0.  1.
         21   -1    0    0  501  502 -0.00000000000E+00 -0.00000000000E+00 -0.32526441969E+02  0.32526441969E+02  0.00000000000E+00 0.  1.
         25    1    1    2    0    0 -0.37149802054E+02  0.81005623312E+02  0.59099803950E+03  0.61061092481E+03  0.12500000000E+03 0.  0.
         25    1    1    2    0    0  0.37149802054E+02 -0.81005623312E+02  0.23660019777E+03  0.28204019640E+03  0.12500000000E+03 0.  0.
</event>
<event>
 4    0  0.2188063E-002  0.1913279E+03  0.7546771E-02  0.1157269E+00
         21   -1    0    0  502  501  0.00000000000E+00  0.00000000000E+00  0.38929051054E+03  0.38929051054E+03  0.00000000000E+00 0. -1.
         21   -1    0    0  501  502 -0.00000000000E+00 -0.00000000000E+00 -0.94033510587E+02  0.94033510587E+02  0.00000000000E+00 0. -1.
         25    1    1    2    0    0 -0.97570025872E+02  0.69851998853E+02  0.45154482536E+02  0.17906183006E+03  0.12500000000E+03 0.  0.
         25    1    1    2    0    0  0.97570025872E+02 -0.69851998853E+02  0.25010251741E+03  0.30426219106E+03  0.12500000000E+03 0.  0.
</event>
<event>
 4    0  0.2188063E-002  0.1771091E+03  0.7546771E-02  0.1170631E+00
         21   -1    0    0  502  501  0.00000000000E+00  0.00000000000E+00  0.97519995683E+02  0.97519995683E+02  0.00000000000E+00 0. -1.
         21   -1    0    0  501  502 -0.00000000000E+00 -0.00000000000E+00 -0.32165320531E+03  0.32165320531E+03  0.00000000000E+00 0.  1.
         25    1    1    2    0    0  0.27927892275E+01 -0.71239655787E+02 -0.23424540526E+03  0.27491598374E+03  0.12500000000E+03 0.  0.
         25    1    1    2    0    0 -0.27927892275E+01  0.71239655787E+02  0.10112195639E+02  0.14425721725E+03  0.12500000000E+03 0.  0.
</event>
<event>
 4    0  0.2188063E-002  0.3150336E+03  0.7546771E-02  0.1077958E+00
         21   -1    0    0  502  501  0.00000000000E+00  0.00000000000E+00  0.74237997046E+03  0.74237997046E+03  0.00000000000E+00 0.  1.
         21   -1    0    0  501  502 -0.00000000000E+00 -0.00000000000E+00 -0.13368651029E+03  0.13368651029E+03  0.00000000000E+00 0.  1.
         25    1    1    2    0    0  0.19998020374E+03 -0.17926069983E+03  0.45341977008E+03  0.54160960875E+03  0.12500000000E+03 0.  0.
         25    1    1    2    0    0 -0.19998020374E+03  0.17926069983E+03  0.15527369010E+03  0.33445687200E+03  0.12500000000E+03 0.  0.
</event>
<event>
 4    0  0.2188063E-002  0.3236953E+03  0.7546771E-02  0.1073961E+00
         21   -1    0    0  502  501  0.00000000000E+00  0.00000000000E+00  0.33335565458E+03  0.33335565458E+03  0.00000000000E+00 0. -1.
         21   -1    0    0  501  502 -0.00000000000E+00 -0.00000000000E+00 -0.31431485873E+03  0.31431485873E+03  0.00000000000E+00 0.  1.
         25    1    1    2    0    0  0.18831055759E+03 -0.11960096390E+03 -0.18903048078E+03  0.31799808070E+03  0.12500000000E+03 0.  0.
         25    1    1    2    0    0 -0.18831055759E+03  0.11960096390E+03  0.20807127662E+03  0.32967243261E+03  0.12500000000E+03 0.  0.
</event>
<event>
 4    0  0.2188063E-002  0.1372422E+03  0.7546771E-02  0.1217089E+00
         21   -1    0    0  502  501  0.00000000000E+00  0.00000000000E+00  0.58544131072E+02  0.58544131072E+02  0.00000000000E+00 0.  1.
         21   -1    0    0  501  502 -0.00000000000E+00 -0.00000000000E+00 -0.32173016087E+03  0.32173016087E+03  0.00000000000E+00 0.  1.
         25    1    1    2    0    0  0.31795381984E+02  0.42464438667E+02 -0.10401535733E+03  0.17105078026E+03  0.12500000000E+03 0.  0.
         25    1    1    2    0    0 -0.31795381984E+02 -0.42464438667E+02 -0.15917067247E+03  0.20922351168E+03  0.12500000000E+03 0.  0.
</event>
<event>
 4    0  0.2188063E-002  0.3479856E+03  0.7546771E-02  0.1063445E+00
         21   -1    0    0  502  501  0.00000000000E+00  0.00000000000E+00  0.65972081134E+03  0.65972081134E+03  0.00000000000E+00 0.  1.
         21   -1    0    0  501  502 -0.00000000000E+00 -0.00000000000E+00 -0.18355335865E+03  0.18355335865E+03  0.00000000000E+00 0.  1.
         25    1    1    2    0    0  0.22291100716E+02 -0.30193124217E+03  0.95697450359E+02  0.34123653112E+03  0.12500000000E+03 0.  0.
         25    1    1    2    0    0 -0.22291100716E+02  0.30193124217E+03  0.38047000233E+03  0.50203763887E+03  0.12500000000E+03 0.  0.
</event>
<event>
 4    0  0.2188063E-002  0.2679096E+03  0.7546771E-02  0.1102482E+00
         21   -1    0    0  502  501  0.00000000000E+00  0.00000000000E+00  0.27418987680E+03  0.27418987680E+03  0.00000000000E+00 0. -1.
         21   -1    0    0  501  502 -0.00000000000E+00 -0.00000000000E+00 -0.26177319248E+03  0.26177319248E+03  0.00000000000E+00 0. -1.
         25    1    1    2    0    0  0.14768688646E+03  0.64165341131E+02 -0.16768294907E+03  0.26395298605E+03  0.12500000000E+03 0.  0.
         25    1    1    2    0    0 -0.14768688646E+03 -0.64165341131E+02  0.18009963339E+03  0.27201008323E+03  0.12500000000E+03 0.  0.
</event>
<event>
 4    0  0.2188063E-002  0.2632160E+03  0.7546771E-02  0.1105226E+00
         21   -1    0    0  502  501  0.00000000000E+00  0.00000000000E+00  0.13353221526E+03  0.13353221526E+03  0.00000000000E+00 0. -1.
         21   -1    0    0  501  502 -0.00000000000E+00 -0.00000000000E+00 -0.51884589157E+03  0.51884589157E+03  0.00000000000E+00 0. -1.
         25    1    1    2    0    0 -0.18950817531E+02 -0.62884016523E+02  0.82623261524E+02  0.16360053901E+03  0.12500000000E+03 0.  0.
         25    1    1    2    0    0  0.18950817531E+02  0.62884016523E+02 -0.46793693783E+03  0.48877756782E+03  0.12500000000E+03 0.  0.
</event>
<event>
 4    0  0.2188063E-002  0.2231233E+03  0.7546771E-02  0.1131576E+00
         21   -1    0    0  502  501  0.00000000000E+00  0.00000000000E+00  0.25048874310E+03  0.25048874310E+03  0.00000000000E+00 0.  1.
         21   -1    0    0  501  502 -0.00000000000E+00 -0.00000000000E+00 -0.19874748603E+03  0.19874748603E+03  0.00000000000E+00 0.  1.
         25    1    1    2    0    0  0.15726066202E+03 -0.28491427190E+02 -0.67575438827E+02  0.21385536508E+03  0.12500000000E+03 0.  0.
         25    1    1    2    0    0 -0.15726066202E+03  0.28491427190E+02  0.11931669589E+03  0.23538086405E+03  0.12500000000E+03 0.  0.
</event>
<event>
 4    0  0.2188063E-002  0.1627245E+03  0.7546771E-02  0.1185655E+00
         21   -1    0    0  502  501  0.00000000000E+00  0.00000000000E+00  0.19266527292E+02  0.19266527292E+02  0.00000000000E+00 0. -1.
         21   -1    0    0  501  502 -0.00000000000E+00 -0.00000000000E+00 -0.13743657318E+04  0.13743657318E+04  0.00000000000E+00 0. -1.
         25    1    1    2    0    0  0.25067898298E+02  0.92156218255E+02 -0.49928074884E+03  0.52347629769E+03  0.12500000000E+03 0.  0.
         25    1    1    2    0    0 -0.25067898298E+02 -0.92156218255E+02 -0.85581845562E+03  0.87015596135E+03  0.12500000000E+03 0.  0.
</event>
<event>
 4    0  0.2188063E-002  0.2351139E+03  0.7546771E-02  0.1123091E+00
         21   -1    0    0  502  501  0.00000000000E+00  0.00000000000E+00  0.17102506797E+04  0.17102506797E+04  0.00000000000E+00 0. -1.
         21   -1    0    0  501  502 -0.00000000000E+00 -0.00000000000E+00 -0.32321886301E+02  0.32321886301E+02  0.00000000000E+00 0. -1.
         25    1    1    2    0    0 -0.81310715646E+02 -0.11702158575E+03  0.32349703118E+03  0.37494107963E+03  0.12500000000E+03 0.  0.
         25    1    1    2    0    0  0.81310715646E+02  0.11702158575E+03  0.13544317622E+04  0.13676314864E+04  0.12500000000E+03 0.  0.
</event>
<event>
 4    0  0.2188063E-002  0.1499060E+03  0.7546771E-02  0.1200589E+00
         21   -1    0    0  502  501  0.00000000000E+00  0.00000000000E+00  0.99315961560E+03  0.99315961560E+03  0.00000000000E+00 0. -1.
         21   -1    0    0  501  502 -0.00000000000E+00 -0.00000000000E+00 -0.22626574421E+02  0.22626574421E+02  0.00000000000E+00 0. -1.
         25    1    1    2    0    0 -0.76946170729E+02  0.36570690810E+01  0.58762419356E+03  0.60569074634E+03  0.12500000000E+03 0.  0.
         25    1    1    2    0    0  0.76946170729E+02 -0.36570690810E+01  0.38290884762E+03  0.41009544368E+03  0.12500000000E+03 0.  0.
</event>
<event>
 4    0  0.2188063E-002  0.1870256E+03  0.7546771E-02  0.1161172E+00
         21   -1    0    0  502  501  0.00000000000E+00  0.00000000000E+00  0.10046199027E+03  0.10046199027E+03  0.00000000000E+00 0.  1.
         21   -1    0    0  501  502 -0.00000000000E+00 -0.00000000000E+00 -0.34817710843E+03  0.34817710843E+03  0.00000000000E+00 0.  1.
         25    1    1    2    0    0 -0.87601245755E+02  0.66893011155E+02 -0.22566522262E+03  0.28053243288E+03  0.12500000000E+03 0.  0.
         25    1    1    2    0    0  0.87601245755E+02 -0.66893011155E+02 -0.22049895543E+02  0.16810666582E+03  0.12500000000E+03 0.  0.
</event>
<event>
 4    0  0.2188063E-002  0.2064306E+03  0.7546771E-02  0.1144424E+00
         21   -1    0    0  502  501  0.00000000000E+00  0.00000000000E+00  0.17137160522E+03  0.17137160522E+03  0.00000000000E+00 0.  1.
         21   -1    0    0  501  502 -0.00000000000E+00 -0.00000000000E+00 -0.24866194101E+03  0.24866194101E+03  0.00000000000E+00 0.  1.
         25    1    1    2    0    0  0.50808632389E+02  0.10113077958E+03  0.82501802332E+02  0.18772452981E+03  0.12500000000E+03 0.  0.
         25    1    1    2    0    0 -0.50808632389E+02 -0.10113077958E+03 -0.15979213812E+03  0.23230901642E+03  0.12500000000E+03 0.  0.
</event>
<event>
 4    0  0.2188063E-002  0.3308097E+03  0.7546771E-02  0.1070779E+00
         21   -1    0    0  502  501  0.00000000000E+00  0.00000000000E+00  0.10947006196E+04  0.10947006196E+04  0.00000000000E+00 0.  1.
         21   -1    0    0  501  502 -0.00000000000E+00 -0.00000000000E+00 -0.99968031423E+02  0.99968031423E+02  0.00000000000E+00 0.  1.
         25    1    1    2    0    0 -0.18753847620E+03  0.17129189753E+03  0.18829284151E+03  0.33998645323E+03  0.12500000000E+03 0.  0.
         25    1    1    2    0    0  0.18753847620E+03 -0.17129189753E+03  0.80643974664E+03  0.85468219777E+03  0.12500000000E+03 0.  0.
</event>
<event>
 4    0  0.2188063E-002  0.2461919E+03  0.7546771E-02  0.1115735E+00
         21   -1    0    0  502  501  0.00000000000E+00  0.00000000000E+00  0.20385662572E+03  0.20385662572E+03  0.00000000000E+00 0.  1.
         21   -1    0    0  501  502 -0.00000000000E+00 -0.00000000000E+00 -0.29731905309E+03  0.29731905309E+03  0.00000000000E+00 0.  1.
         25    1    1    2    0    0 -0.84737184567E+01 -0.19595008953E+03  0.35439547622E+02  0.23526411334E+03  0.12500000000E+03 0.  0.
         25    1    1    2    0    0  0.84737184567E+01  0.19595008953E+03 -0.12890197499E+03  0.26591156547E+03  0.12500000000E+03 0.  0.
</event>
<event>
 4    0  0.2188063E-002  0.2270450E+03  0.7546771E-02  0.1128737E+00
         21   -1    0    0  502  501  0.00000000000E+00  0.00000000000E+00  0.46019393776E+03  0.46019393776E+03  0.00000000000E+00 0.  1.
         21   -1    0    0  501  502 -0.00000000000E+00 -0.00000000000E+00 -0.11201678792E+03  0.11201678792E+03  0.00000000000E+00 0.  1.
         25    1    1    2    0    0  0.16663199657E+03  0.86752534429E+02  0.14240392800E+03  0.26682597928E+03  0.12500000000E+03 0.  0.
         25    1    1    2    0    0 -0.16663199657E+03 -0.86752534429E+02  0.20577322185E+03  0.30538474641E+03  0.12500000000E+03 0.  0.
</event>
<event>
 4    0  0.2188063E-002  0.2172385E+03  0.7546771E-02  0.1135959E+00
         21   -1    0    0  502  501  0.00000000000E+00  0.00000000000E+00  0.21979768738E+03  0.21979768738E+03  0.00000000000E+00 0.  1.
         21   -1    0    0  501  502 -0.00000000000E+00 -0.00000000000E+00 -0.21470910694E+03  0.21470910694E+03  0.00000000000E+00 0.  1.
         25    1    1    2    0    0 -0.77909282084E+02 -0.13210480482E+03  0.92250104670E+02  0.21830395668E+03  0.12500000000E+03 0.  0.
         25    1    1    2    0    0  0.77909282084E+02  0.13210480482E+03 -0.87161524232E+02  0.21620283763E+03  0.12500000000E+03 0.  0.
</event>
<event>
 4    0  0.2188063E-002  0.2316936E+03  0.7546771E-02  0.1125453E+00
         21   -1    0    0  502  501  0.00000000000E+00  0.00000000000E+00  0.12051446565E+03  0.12051446565E+03  0.00000000000E+00 0. -1.
         21   -1    0    0  501  502 -0.00000000000E+00 -0.00000000000E+00 -0.44543968783E+03  0.44543968783E+03  0.00000000000E+00 0. -1.
         25    1    1    2    0    0 -0.15548556870E+03  0.62640656415E+02 -0.40589395424E+02  0.21300730722E+03  0.12500000000E+03 0.  0.
         25    1    1    2    0    0  0.15548556870E+03 -0.62640656415E+02 -0.28433582676E+03  0.35294684626E+03  0.12500000000E+03 0.  0.
</event>
<event>
 4    0  0.2188063E-002  0.2243943E+03  0.7546771E-02  0.1130649E+00
         21   -1    0    0  502  501  0.00000000000E+00  0.00000000000E+00  0.21650338560E+03  0.21650338560E+03  0.00000000000E+00 0. -1.
         21   -1    0    0  501  502 -0.00000000000E+00 -0.00000000000E+00 -0.23257283133E+03  0.23257283133E+03  0.00000000000E+00 0. -1.
         25    1    1    2    0    0 -0.16452989310E+03  0.62576806881E+02 -0.69244691811E+02  0.22672840543E+03  0.12500000000E+03 0.  0.
         25    1    1    2    0    0  0.16452989310E+03 -0.62576806881E+02  0.53175246074E+02  0.22234781150E+03  0.12500000000E+03 0.  0.
</event>
<event>
 4    0  0.2188063E-002  0.4013791E+03  0.7546771E-02  0.1043303E+00
         21   -1    0    0  502  501  0.00000000000E+00  0.00000000000E+00  0.62391236154E+03  0.62391236154E+03  0.00000000000E+00 0.  1.
         21   -1    0    0  501  502 -0.00000000000E+00 -0.00000000000E+00 -0.25821768178E+03  0.25821768178E+03  0.00000000000E+00 0.  1.
         25    1    1    2    0    0 -0.27808779313E+02  0.24579332158E+03  0.50188529173E+03  0.57332497870E+03  0.12500000000E+03 0.  0.
         25    1    1    2    0    0  0.27808779313E+02 -0.24579332158E+03 -0.13619061198E+03  0.30880506462E+03  0.12500000000E+03 0.  0.
</event>
<event>
 4    0  0.2188063E-002  0.2600672E+03  0.7546771E-02  0.1107103E+00
         21   -1    0    0  502  501  0.00000000000E+00  0.00000000000E+00  0.10676687280E+03  0.10676687280E+03  0.00000000000E+00 0.  1.
         21   -1    0    0  501  502 -0.00000000000E+00 -0.00000000000E+00 -0.63348273700E+03  0.63348273700E+03  0.00000000000E+00 0.  1.
         25    1    1    2    0    0 -0.14769457918E+03 -0.16757355600E+03 -0.19790075224E+03  0.32354952191E+03  0.12500000000E+03 0.  0.
         25    1    1    2    0    0  0.14769457918E+03  0.16757355600E+03 -0.32881511197E+03  0.41670008789E+03  0.12500000000E+03 0.  0.
</event>
<event>
 4    0  0.2188063E-002  0.1852147E+03  0.7546771E-02  0.1162850E+00
         21   -1    0    0  502  501  0.00000000000E+00  0.00000000000E+00  0.98471156702E+03  0.98471156702E+03  0.00000000000E+00 0. -1.
         21   -1    0    0  501  502 -0.00000000000E+00 -0.00000000000E+00 -0.34837107343E+02  0.34837107343E+02  0.00000000000E+00 0. -1.
         25    1    1    2    0    0 -0.60601635852E+02 -0.12163634735E+03  0.43490571352E+03  0.47247850630E+03  0.12500000000E+03 0.  0.
         25    1    1    2    0    0  0.60601635852E+02  0.12163634735E+03  0.51496874616E+03  0.54707016806E+03  0.12500000000E+03 0.  0.
</event>
<event>
 4    0  0.2188063E-002  0.2051926E+03  0.7546771E-02  0.1145430E+00
         21   -1    0    0  502  501  0.00000000000E+00  0.00000000000E+00  0.38763718719E+03  0.38763718719E+03  0.00000000000E+00 0. -1.
         21   -1    0    0  501  502 -0.00000000000E+00 -0.00000000000E+00 -0.10861706088E+03  0.10861706088E+03  0.00000000000E+00 0. -1.
         25    1    1    2    0    0  0.22992451842E+02 -0.60446241461E+02  0.32007438046E+03  0.34964983909E+03  0.12500000000E+03 0.  0.
         25    1    1    2    0    0 -0.22992451842E+02  0.60446241461E+02 -0.41054254155E+02  0.14660440898E+03  0.12500000000E+03 0.  0.
</event>
<event>
 4    0  0.2188063E-002  0.2665031E+03  0.7546771E-02  0.1103298E+00
         21   -1    0    0  502  501  0.00000000000E+00  0.00000000000E+00  0.11249252075E+03  0.11249252075E+03  0.00000000000E+00 0. -1.
         21   -1    0    0  501  502 -0.00000000000E+00 -0.00000000000E+00 -0.63136554438E+03  0.63136554438E+03  0.00000000000E+00 0. -1.
         25    1    1    2    0    0 -0.11378560230E+03 -0.17187572956E+03 -0.10086364574E+03  0.26131763189E+03  0.12500000000E+03 0.  0.
         25    1    1    2    0    0  0.11378560230E+03  0.17187572956E+03 -0.41800937789E+03  0.48254043323E+03  0.12500000000E+03 0.  0.
</event>
<event>
 4    0  0.2188063E-002  0.3305781E+03  0.7546771E-02  0.1070881E+00
         21   -1    0    0  502  501  0.00000000000E+00  0.00000000000E+00  0.45044278796E+03  0.45044278796E+03  0.00000000000E+00 0.  1.
         21   -1    0    0  501  502 -0.00000000000E+00 -0.00000000000E+00 -0.24260992216E+03  0.24260992216E+03  0.00000000000E+00 0.  1.
         25    1    1    2    0    0  0.17510903349E+03  0.15594482084E+03  0.31006339287E+03  0.40834577058E+03  0.12500000000E+03 0.  0.
         25    1    1    2    0    0 -0.17510903349E+03 -0.15594482084E+03 -0.10223052707E+03  0.28470693954E+03  0.12500000000E+03 0.  0.
</event>
<event>
 4    0  0.2188063E-002  0.2647839E+03  0.7546771E-02  0.1104303E+00
         21   -1    0    0  502  501  0.00000000000E+00  0.00000000000E+00  0.13693740323E+04  0.13693740323E+04  0.00000000000E+00 0. -1.
         21   -1    0    0  501  502 -0.00000000000E+00 -0.00000000000E+00 -0.51198941456E+02  0.51198941456E+02  0.00000000000E+00 0. -1.
         25    1    1    2    0    0 -0.85577763455E+02 -0.10330067256E+03  0.14665770281E+03  0.23479366334E+03  0.12500000000E+03 0.  0.
         25    1    1    2    0    0  0.85577763455E+02  0.10330067256E+03  0.11715173880E+04  0.11857793104E+04  0.12500000000E+03 0.  0.
</event>
<event>
 4    0  0.2188063E-002  0.2276321E+03  0.7546771E-02  0.1128318E+00
         21   -1    0    0  502  501  0.00000000000E+00  0.00000000000E+00  0.95766018974E+02  0.95766018974E+02  0.00000000000E+00 0. -1.
         21   -1    0    0  501  502 -0.00000000000E+00 -0.00000000000E+00 -0.54107255093E+03  0.54107255093E+03  0.00000000000E+00 0. -1.
         25    1    1    2    0    0  0.42947165156E+02  0.13857461547E+03 -0.39479490132E+03  0.43878855632E+03  0.12500000000E+03 0.  0.
         25    1    1    2    0    0 -0.42947165156E+02 -0.13857461547E+03 -0.50511630628E+02  0.19805001358E+03  0.12500000000E+03 0.  0.
</event>
<event>
 4    0  0.2188063E-002  0.2817895E+03  0.7546771E-02  0.1094716E+00
         21   -1    0    0  502  501  0.00000000000E+00  0.00000000000E+00  0.34407002381E+03  0.34407002381E+03  0.00000000000E+00 0.  1.
         21   -1    0    0  501  502 -0.00000000000E+00 -0.00000000000E+00 -0.23078240119E+03  0.23078240119E+03  0.00000000000E+00 0.  1.
         25    1    1    2    0    0 -0.24931983928E+03  0.11395605417E+02  0.96017318256E+02  0.29518564919E+03  0.12500000000E+03 0.  0.
         25    1    1    2    0    0  0.24931983928E+03 -0.11395605417E+02  0.17270304366E+02  0.27966677582E+03  0.12500000000E+03 0.  0.
</event>
<event>
 4    0  0.2188063E-002  0.3119551E+03  0.7546771E-02  0.1079413E+00
         21   -1    0    0  502  501  0.00000000000E+00  0.00000000000E+00  0.26615955916E+03  0.26615955916E+03  0.00000000000E+00 0.  1.
         21   -1    0    0  501  502 -0.00000000000E+00 -0.00000000000E+00 -0.36563026079E+03  0.36563026079E+03  0.00000000000E+00 0.  1.
         25    1    1    2    0    0  0.47981401209E+02 -0.59707839893E+02  0.22910341501E+03  0.27199377893E+03  0.12500000000E+03 0.  0.
         25    1    1    2    0    0 -0.47981401209E+02  0.59707839893E+02 -0.32857411665E+03  0.35979604102E+03  0.12500000000E+03 0.  0.
</event>
<event>
 4    0  0.2188063E-002  0.1886568E+03  0.7546771E-02  0.1159678E+00
         21   -1    0    0  502  501  0.00000000000E+00  0.00000000000E+00  0.14269376974E+04  0.14269376974E+04  0.00000000000E+00 0.  1.
         21   -1    0    0  501  502 -0.00000000000E+00 -0.00000000000E+00 -0.24942497482E+02  0.24942497482E+02  0.00000000000E+00 0.  1.
         25    1    1    2    0    0 -0.11003698508E+03 -0.13883988851E+02  0.10378954024E+04  0.10512624646E+04  0.12500000000E+03 0.  0.
         25    1    1    2    0    0  0.11003698508E+03  0.13883988851E+02  0.36409979749E+03  0.40061773021E+03  0.12500000000E+03 0.  0.
</event>
<event>
 4    0  0.2188063E-002  0.2628523E+03  0.7546771E-02  0.1105442E+00
         21   -1    0    0  502  501  0.00000000000E+00  0.00000000000E+00  0.17119719408E+04  0.17119719408E+04  0.00000000000E+00 0. -1.
         21   -1    0    0  501  502 -0.00000000000E+00 -0.00000000000E+00 -0.40357745157E+02  0.40357745157E+02  0.00000000000E+00 0. -1.
         25    1    1    2    0    0 -0.80512212104E+02  0.34585535961E+02  0.12254415224E+03  0.19575608508E+03  0.12500000000E+03 0.  0.
         25    1    1    2    0    0  0.80512212104E+02 -0.34585535961E+02  0.15490700434E+04  0.15565736008E+04  0.12500000000E+03 0.  0.
</event>
<event>
 4    0  0.2188063E-002  0.2277137E+03  0.7546771E-02  0.1128259E+00
         21   -1    0    0  502  501  0.00000000000E+00  0.00000000000E+00  0.57794650089E+02  0.57794650089E+02  0.00000000000E+00 0. -1.
         21   -1    0    0  501  502 -0.00000000000E+00 -0.00000000000E+00 -0.89720308141E+03  0.89720308141E+03  0.00000000000E+00 0. -1.
         25    1    1    2    0    0 -0.25653537761E+02  0.16757030586E+03 -0.60118983802E+03  0.63701815731E+03  0.12500000000E+03 0.  0.
         25    1    1    2    0    0  0.25653537761E+02 -0.16757030586E+03 -0.23821859329E+03  0.31797957418E+03  0.12500000000E+03 0.  0.
</event>
<event>
 4    0  0.2188063E-002  0.2160485E+03  0.7546771E-02  0.1136864E+00
         21   -1    0    0  502  501  0.00000000000E+00  0.00000000000E+00  0.54471946322E+03  0.54471946322E+03  0.00000000000E+00 0.  1.
         21   -1    0    0  501  502 -0.00000000000E+00 -0.00000000000E+00 -0.85689882769E+02  0.85689882769E+02  0.00000000000E+00 0.  1.
         25    1    1    2    0    0  0.11288480321E+03 -0.12696084218E+03  0.16124087200E+03  0.26549134270E+03  0.12500000000E+03 0.  0.
         25    1    1    2    0    0 -0.11288480321E+03  0.12696084218E+03  0.29778870845E+03  0.36491800329E+03  0.12500000000E+03 0.  0.
</event>
<event>
 4    0  0.2188063E-002  0.3165360E+03  0.7546771E-02  0.1077255E+00
         21   -1    0    0  502  501  0.00000000000E+00  0.00000000000E+00  0.56515542366E+03  0.56515542366E+03  0.00000000000E+00 0.  1.
         21   -1    0    0  501  502 -0.00000000000E+00 -0.00000000000E+00 -0.17728760798E+03  0.17728760798E+03  0.00000000000E+00 0.  1.
         25    1    1    2    0    0 -0.19034053349E+03  0.14765092054E+03  0.38498887492E+03  0.47103263883E+03  0.12500000000E+03 0.  0.
         25    1    1    2    0    0  0.19034053349E+03 -0.14765092054E+03  0.28789407554E+01  0.27141039282E+03  0.12500000000E+03 0.  0.
</event>
<event>
 4    0  0.2188063E-002  0.2080505E+03  0.7546771E-02  0.1143119E+00
         21   -1    0    0  502  501  0.00000000000E+00  0.00000000000E+00  0.13170099280E+02  0.13170099280E+02  0.00000000000E+00 0.  1.
         21   -1    0    0  501  502 -0.00000000000E+00 -0.00000000000E+00 -0.32866107994E+04  0.32866107994E+04  0.00000000000E+00 0.  1.
         25    1    1    2    0    0  0.96597419165E+02  0.95819199227E+02 -0.23951936026E+04  0.24023092587E+04  0.12500000000E+03 0.  0.
         25    1    1    2    0    0 -0.96597419165E+02 -0.95819199227E+02 -0.87824709755E+03  0.89747164005E+03  0.12500000000E+03 0.  0.
</event>
<event>
 4    0  0.2188063E-002  0.1521127E+03  0.7546771E-02  0.1197901E+00
         21   -1    0    0  502  501  0.00000000000E+00  0.00000000000E+00  0.12291599303E+04  0.12291599303E+04  0.00000000000E+00 0. -1.
         21   -1    0    0  501  502 -0.00000000000E+00 -0.00000000000E+00 -0.18824473065E+02  0.18824473065E+02  0.00000000000E+00 0. -1.
         25    1    1    2    0    0  0.51325571052E+02  0.69607333424E+02  0.58132114198E+03  0.60086501415E+03  0.12500000000E+03 0.  0.
         25    1    1    2    0    0 -0.51325571052E+02 -0.69607333424E+02  0.62901431528E+03  0.64711938925E+03  0.12500000000E+03 0.  0.
</event>
<event>
 4    0  0.2188063E-002  0.3003952E+03  0.7546771E-02  0.1085043E+00
         21   -1    0    0  502  501  0.00000000000E+00  0.00000000000E+00  0.14776458822E+04  0.14776458822E+04  0.00000000000E+00 0.  1.
         21   -1    0    0  501  502 -0.00000000000E+00 -0.00000000000E+00 -0.61068280951E+02  0.61068280951E+02  0.00000000000E+00 0.  1.
         25    1    1    2    0    0  0.15659932873E+03 -0.20721529991E+03  0.49171239850E+03  0.56997158974E+03  0.12500000000E+03 0.  0.
         25    1    1    2    0    0 -0.15659932873E+03  0.20721529991E+03  0.92486520275E+03  0.96874257341E+03  0.12500000000E+03 0.  0.
</event>
<event>
 4    0  0.2188063E-002  0.3681347E+03  0.7546771E-02  0.1055408E+00
         21   -1    0    0  502  501  0.00000000000E+00  0.00000000000E+00  0.17465374651E+03  0.17465374651E+03  0.00000000000E+00 0.  1.
         21   -1    0    0  501  502 -0.00000000000E+00 -0.00000000000E+00 -0.77595335365E+03  0.77595335365E+03  0.00000000000E+00 0. -1.
         25    1    1    2    0    0 -0.29389944248E+03  0.13355603176E+03 -0.13895591464E+03  0.37302525668E+03  0.12500000000E+03 0.  0.
         25    1    1    2    0    0  0.29389944248E+03 -0.13355603176E+03 -0.46234369251E+03  0.57758184347E+03  0.12500000000E+03 0.  0.
</event>
<event>
 4    0  0.2188063E-002  0.3014025E+03  0.7546771E-02  0.1084542E+00
         21   -1    0    0  502  501  0.00000000000E+00  0.00000000000E+00  0.27227952174E+03  0.27227952174E+03  0.00000000000E+00 0.  1.
         21   -1    0    0  501  502 -0.00000000000E+00 -0.00000000000E+00 -0.33364049210E+03  0.33364049210E+03  0.00000000000E+00 0.  1.
         25    1    1    2    0    0 -0.98597392065E+02 -0.20679018842E+03  0.12087946126E+03  0.28761166858E+03  0.12500000000E+03 0.  0.
         25    1    1    2    0    0  0.98597392065E+02  0.20679018842E+03 -0.18224043161E+03  0.31830834526E+03  0.12500000000E+03 0.  0.
</event>
<event>
 4    0  0.2188063E-002  0.3599398E+03  0.7546771E-02  0.1058608E+00
         21   -1    0    0  502  501  0.00000000000E+00  0.00000000000E+00  0.74101758971E+03  0.74101758971E+03  0.00000000000E+00 0. -1.
         21   -1    0    0  501  502 -0.00000000000E+00 -0.00000000000E+00 -0.17483617851E+03  0.17483617851E+03  0.00000000000E+00 0. -1.
         25    1    1    2    0    0  0.22212878475E+02 -0.33649290181E+03  0.26461929119E+03  0.44650784339E+03  0.12500000000E+03 0.  0.
         25    1    1    2    0    0 -0.22212878475E+02  0.33649290181E+03  0.30156212001E+03  0.46934592484E+03  0.12500000000E+03 0.  0.
</event>
<event>
 4    0  0.2188063E-002  0.2494743E+03  0.7546771E-02  0.1113637E+00
         21   -1    0    0  502  501  0.00000000000E+00  0.00000000000E+00  0.49755049759E+02  0.49755049759E+02  0.00000000000E+00 0. -1.
         21   -1    0    0  501  502 -0.00000000000E+00 -0.00000000000E+00 -0.12508766800E+04  0.12508766800E+04  0.00000000000E+00 0. -1.
         25    1    1    2    0    0 -0.20592523467E+03 -0.62550730035E+02 -0.64530544788E+03  0.69163712824E+03  0.12500000000E+03 0.  0.
         25    1    1    2    0    0  0.20592523467E+03  0.62550730035E+02 -0.55581618238E+03  0.60899460153E+03  0.12500000000E+03 0.  0.
</event>
<event>
 4    0  0.2188063E-002  0.2262630E+03  0.7546771E-02  0.1129298E+00
         21   -1    0    0  502  501  0.00000000000E+00  0.00000000000E+00  0.48908453172E+03  0.48908453172E+03  0.00000000000E+00 0. -1.
         21   -1    0    0  501  502 -0.00000000000E+00 -0.00000000000E+00 -0.10467508007E+03  0.10467508007E+03  0.00000000000E+00 0. -1.
         25    1    1    2    0    0  0.70405631827E+02 -0.14465122597E+03  0.63050908849E+02  0.21326356293E+03  0.12500000000E+03 0.  0.
         25    1    1    2    0    0 -0.70405631827E+02  0.14465122597E+03  0.32135854280E+03  0.38049604886E+03  0.12500000000E+03 0.  0.
</event>
<event>
 4    0  0.2188063E-002  0.1550132E+03  0.7546771E-02  0.1194445E+00
         21   -1    0    0  502  501  0.00000000000E+00  0.00000000000E+00  0.35488488828E+02  0.35488488828E+02  0.00000000000E+00 0.  1.
         21   -1    0    0  501  502 -0.00000000000E+00 -0.00000000000E+00 -0.67709517422E+03  0.67709517422E+03  0.00000000000E+00 0.  1.
         25    1    1    2    0    0  0.38649441276E+02 -0.38277218032E+01 -0.12993892285E+03  0.18443848415E+03  0.12500000000E+03 0.  0.
         25    1    1    2    0    0 -0.38649441276E+02  0.38277218032E+01 -0.51166776254E+03  0.52814517890E+03  0.12500000000E+03 0.  0.
</event>
<event>
 4    0  0.2188063E-002  0.2212470E+03  0.7546771E-02  0.1132957E+00
         21   -1    0    0  502  501  0.00000000000E+00  0.00000000000E+00  0.24074797576E+03  0.24074797576E+03  0.00000000000E+00 0. -1.
         21   -1    0    0  501  502 -0.00000000000E+00 -0.00000000000E+00 -0.20332564400E+03  0.20332564400E+03  0.00000000000E+00 0. -1.
         25    1    1    2    0    0  0.13846290678E+03 -0.77841844770E+02  0.10899847438E+03  0.22964537175E+03  0.12500000000E+03 0.  0.
         25    1    1    2    0    0 -0.13846290678E+03  0.77841844770E+02 -0.71576142626E+02  0.21442824801E+03  0.12500000000E+03 0.  0.
</event>
<event>
 4    0  0.2188063E-002  0.2699404E+03  0.7546771E-02  0.1101314E+00
         21   -1    0    0  502  501  0.00000000000E+00  0.00000000000E+00  0.33503310087E+02  0.33503310087E+02  0.00000000000E+00 0. -1.
         21   -1    0    0  501  502 -0.00000000000E+00 -0.00000000000E+00 -0.21749433228E+04  0.21749433228E+04  0.00000000000E+00 0. -1.
         25    1    1    2    0    0 -0.16420035914E+03  0.10498009478E+02 -0.17812505366E+04  0.17931955945E+04  0.12500000000E+03 0.  0.
         25    1    1    2    0    0  0.16420035914E+03 -0.10498009478E+02 -0.36018947611E+03  0.41525103834E+03  0.12500000000E+03 0.  0.
</event>
<event>
 4    0  0.2188063E-002  0.3251500E+03  0.7546771E-02  0.1073303E+00
         21   -1    0    0  502  501  0.00000000000E+00  0.00000000000E+00  0.35390520523E+03  0.35390520523E+03  0.00000000000E+00 0. -1.
         21   -1    0    0  501  502 -0.00000000000E+00 -0.00000000000E+00 -0.29873123152E+03  0.29873123152E+03  0.00000000000E+00 0. -1.
         25    1    1    2    0    0  0.27190668100E+03  0.12632526090E+03  0.41999050584E+02  0.32753661622E+03  0.12500000000E+03 0.  0.
         25    1    1    2    0    0 -0.27190668100E+03 -0.12632526090E+03  0.13174923133E+02  0.32509982054E+03  0.12500000000E+03 0.  0.
</event>
<event>
 4    0  0.2188063E-002  0.1798593E+03  0.7546771E-02  0.1167939E+00
         21   -1    0    0  502  501  0.00000000000E+00  0.00000000000E+00  0.30574647134E+02  0.30574647134E+02  0.00000000000E+00 0. -1.
         21   -1    0    0  501  502 -0.00000000000E+00 -0.00000000000E+00 -0.10580451565E+04  0.10580451565E+04  0.00000000000E+00 0. -1.
         25    1    1    2    0    0 -0.44420804490E+02  0.70951945655E+02 -0.21541766850E+03  0.26274923096E+03  0.12500000000E+03 0.  0.
         25    1    1    2    0    0  0.44420804490E+02 -0.70951945655E+02 -0.81205284082E+03  0.82587057263E+03  0.12500000000E+03 0.  0.
</event>
<event>
 4    0  0.2188063E-002  0.2228705E+03  0.7546771E-02  0.1131761E+00
         21   -1    0    0  502  501  0.00000000000E+00  0.00000000000E+00  0.64694101926E+03  0.64694101926E+03  0.00000000000E+00 0. -1.
         21   -1    0    0  501  502 -0.00000000000E+00 -0.00000000000E+00 -0.76778677942E+02  0.76778677942E+02  0.00000000000E+00 0. -1.
         25    1    1    2    0    0 -0.13994799694E+03 -0.46751150977E+02  0.10519350207E+03  0.22014037531E+03  0.12500000000E+03 0.  0.
         25    1    1    2    0    0  0.13994799694E+03  0.46751150977E+02  0.46496883925E+03  0.50357932189E+03  0.12500000000E+03 0.  0.
</event>
<event>
 4    0  0.2188063E-002  0.1945674E+03  0.7546771E-02  0.1154405E+00
         21   -1    0    0  502  501  0.00000000000E+00  0.00000000000E+00  0.42342671436E+02  0.42342671436E+02  0.00000000000E+00 0.  1.
         21   -1    0    0  501  502 -0.00000000000E+00 -0.00000000000E+00 -0.89405051477E+03  0.89405051477E+03  0.00000000000E+00 0.  1.
         25    1    1    2    0    0  0.33195777985E+02 -0.10893327416E+02 -0.77051061132E+02  0.15093869709E+03  0.12500000000E+03 0.  0.
         25    1    1    2    0    0 -0.33195777985E+02  0.10893327416E+02 -0.77465678220E+03  0.78545448912E+03  0.12500000000E+03 0.  0.
</event>
<event>
 4    0  0.2188063E-002  0.2544091E+03  0.7546771E-02  0.1110550E+00
         21   -1    0    0  502  501  0.00000000000E+00  0.00000000000E+00  0.12704746326E+03  0.12704746326E+03  0.00000000000E+00 0. -1.
         21   -1    0    0  501  502 -0.00000000000E+00 -0.00000000000E+00 -0.50944728482E+03  0.50944728482E+03  0.00000000000E+00 0. -1.
         25    1    1    2    0    0  0.87571575760E+02 -0.19219720525E+03 -0.10737432717E+03  0.26788578298E+03  0.12500000000E+03 0.  0.
         25    1    1    2    0    0 -0.87571575760E+02  0.19219720525E+03 -0.27502549439E+03  0.36860896510E+03  0.12500000000E+03 0.  0.
</event>
<event>
 4    0  0.2188063E-002  0.2399526E+03  0.7546771E-02  0.1119824E+00
         21   -1    0    0  502  501  0.00000000000E+00  0.00000000000E+00  0.20977331010E+03  0.20977331010E+03  0.00000000000E+00 0.  1.
         21   -1    0    0  501  502 -0.00000000000E+00 -0.00000000000E+00 -0.27447369212E+03  0.27447369212E+03  0.00000000000E+00 0.  1.
         25    1    1    2    0    0 -0.17052266370E+03  0.92776653900E+02  0.33561281158E+02  0.23331705025E+03  0.12500000000E+03 0.  0.
         25    1    1    2    0    0  0.17052266370E+03 -0.92776653900E+02 -0.98261663178E+02  0.25092995197E+03  0.12500000000E+03 0.  0.
</event>
<event>
 4    0  0.2188063E-002  0.2719224E+03  0.7546771E-02  0.1100184E+00
         21   -1    0    0  502  501  0.00000000000E+00  0.00000000000E+00  0.60272065960E+03  0.60272065960E+03  0.00000000000E+00 0.  1.
         21   -1    0    0  501  502 -0.00000000000E+00 -0.00000000000E+00 -0.12268005874E+03  0.12268005874E+03  0.00000000000E+00 0.  1.
         25    1    1    2    0    0  0.84116698607E+02  0.20004022984E+03  0.98702151445E+02  0.26918177360E+03  0.12500000000E+03 0.  0.
         25    1    1    2    0    0 -0.84116698607E+02 -0.20004022984E+03  0.38133844941E+03  0.45621894474E+03  0.12500000000E+03 0.  0.
</event>
<event>
 4    0  0.2188063E-002  0.2761044E+03  0.7546771E-02  0.1097836E+00
         21   -1    0    0  502  501  0.00000000000E+00  0.00000000000E+00  0.44139296805E+03  0.44139296805E+03  0.00000000000E+00 0.  1.
         21   -1    0    0  501  502 -0.00000000000E+00 -0.00000000000E+00 -0.17271148219E+03  0.17271148219E+03  0.00000000000E+00 0. -1.
         25    1    1    2    0    0 -0.18191747095E+03 -0.15074374636E+03  0.57365407470E+02  0.27337416352E+03  0.12500000000E+03 0.  0.
         25    1    1    2    0    0  0.18191747095E+03  0.15074374636E+03  0.21131607839E+03  0.34073028673E+03  0.12500000000E+03 0.  0.
</event>
<event>
 4    0  0.2188063E-002  0.1485387E+03  0.7546771E-02  0.1202280E+00
         21   -1    0    0  502  501  0.00000000000E+00  0.00000000000E+00  0.48981351500E+03  0.48981351500E+03  0.00000000000E+00 0.  1.
         21   -1    0    0  501  502 -0.00000000000E+00 -0.00000000000E+00 -0.45045191200E+02  0.45045191200E+02  0.00000000000E+00 0.  1.
         25    1    1    2    0    0 -0.13851844958E+02 -0.68957942892E+02  0.29191959026E+03  0.32525239226E+03  0.12500000000E+03 0.  0.
         25    1    1    2    0    0  0.13851844958E+02  0.68957942892E+02  0.15284873354E+03  0.20960631394E+03  0.12500000000E+03 0.  0.
</event>
<event>
 4    0  0.2188063E-002  0.2389866E+03  0.7546771E-02  0.1120470E+00
         21   -1    0    0  502  501  0.00000000000E+00  0.00000000000E+00  0.12049540365E+03  0.12049540365E+03  0.00000000000E+00 0.  1.
         21   -1    0    0  501  502 -0.00000000000E+00 -0.00000000000E+00 -0.47399798622E+03  0.47399798622E+03  0.00000000000E+00 0.  1.
         25    1    1    2    0    0 -0.16416168374E+03  0.70598945287E+02 -0.29833871103E+03  0.36954601335E+03  0.12500000000E+03 0.  0.
         25    1    1    2    0    0  0.16416168374E+03 -0.70598945287E+02 -0.55163871537E+02  0.22494737653E+03  0.12500000000E+03 0.  0.
</event>
<event>
 4    0  0.2188063E-002  0.2178035E+03  0.7546771E-02  0.1135531E+00
         21   -1    0    0  502  501  0.00000000000E+00  0.00000000000E+00  0.57798006493E+02  0.57798006493E+02  0.00000000000E+00 0. -1.
         21   -1    0    0  501  502 -0.00000000000E+00 -0.00000000000E+00 -0.82076124647E+03  0.82076124647E+03  0.00000000000E+00 0. -1.
         25    1    1    2    0    0  0.23524972816E+02 -0.16508150705E+03 -0.50916724076E+03  0.55016507284E+03  0.12500000000E+03 0.  0.
         25    1    1    2    0    0 -0.23524972816E+02  0.16508150705E+03 -0.25379599922E+03  0.32839418012E+03  0.12500000000E+03 0.  0.
</event>
<event>
 4    0  0.2188063E-002  0.1670554E+03  0.7546771E-02  0.1180954E+00
         21   -1    0    0  502  501  0.00000000000E+00  0.00000000000E+00  0.84490372484E+03  0.84490372484E+03  0.00000000000E+00 0. -1.
         21   -1    0    0  501  502 -0.00000000000E+00 -0.00000000000E+00 -0.33030397519E+02  0.33030397519E+02  0.00000000000E+00 0. -1.
         25    1    1    2    0    0  0.76391401182E+02 -0.76715606925E+02  0.46820617379E+03  0.49655105648E+03  0.12500000000E+03 0.  0.
         25    1    1    2    0    0 -0.76391401182E+02  0.76715606925E+02  0.34366715353E+03  0.38138306588E+03  0.12500000000E+03 0.  0.
</event>
<event>
 4    0  0.2188063E-002  0.2156351E+03  0.7546771E-02  0.1137180E+00
         21   -1    0    0  502  501  0.00000000000E+00  0.00000000000E+00  0.96990248822E+03  0.96990248822E+03  0.00000000000E+00 0.  1.
         21   -1    0    0  501  502 -0.00000000000E+00 -0.00000000000E+00 -0.47941413183E+02  0.47941413183E+02  0.00000000000E+00 0.  1.
         25    1    1    2    0    0 -0.64467255643E+02  0.14487825612E+03  0.63959808775E+03  0.67071338886E+03  0.12500000000E+03 0.  0.
         25    1    1    2    0    0  0.64467255643E+02 -0.14487825612E+03  0.28236298729E+03  0.34713051254E+03  0.12500000000E+03 0.  0.
</event>
<event>
 4    0  0.2188063E-002  0.2969469E+03  0.7546771E-02  0.1086777E+00
         21   -1    0    0  502  501  0.00000000000E+00  0.00000000000E+00  0.42381893851E+03  0.42381893851E+03  0.00000000000E+00 0. -1.
         21   -1    0    0  501  502 -0.00000000000E+00 -0.00000000000E+00 -0.20805461092E+03  0.20805461092E+03  0.00000000000E+00 0. -1.
         25    1    1    2    0    0  0.84362450197E+02 -0.24879195792E+03  0.44597036873E+02  0.29432695600E+03  0.12500000000E+03 0.  0.
         25    1    1    2    0    0 -0.84362450197E+02  0.24879195792E+03  0.17116729072E+03  0.33754659344E+03  0.12500000000E+03 0.  0.
</event>
<event>
 4    0  0.2188063E-002  0.1840730E+03  0.7546771E-02  0.1163918E+00
         21   -1    0    0  502  501  0.00000000000E+00  0.00000000000E+00  0.16912349122E+03  0.16912349122E+03  0.00000000000E+00 0. -1.
         21   -1    0    0  501  502 -0.00000000000E+00 -0.00000000000E+00 -0.20034388012E+03  0.20034388012E+03  0.00000000000E+00 0. -1.
         25    1    1    2    0    0 -0.63058411100E+02 -0.59895542388E+02  0.88172878827E+02  0.17596390473E+03  0.12500000000E+03 0.  0.
         25    1    1    2    0    0  0.63058411100E+02  0.59895542388E+02 -0.11939326772E+03  0.19350346660E+03  0.12500000000E+03 0.  0.
</event>
<event>
 4    0  0.2188063E-002  0.3064423E+03  0.7546771E-02  0.1082064E+00
         21   -1    0    0  502  501  0.00000000000E+00  0.00000000000E+00  0.59563840786E+03  0.59563840786E+03  0.00000000000E+00 0.  1.
         21   -1    0    0  501  502 -0.00000000000E+00 -0.00000000000E+00 -0.15765758403E+03  0.15765758403E+03  0.00000000000E+00 0.  1.
         25    1    1    2    0    0  0.23142699375E+03  0.81024756343E+01  0.41199343902E+03  0.48886367972E+03  0.12500000000E+03 0.  0.
         25    1    1    2    0    0 -0.23142699375E+03 -0.81024756343E+01  0.25987384811E+02  0.26443231217E+03  0.12500000000E+03 0.  0.
</event>
<event>
 4    0  0.2188063E-002  0.2644613E+03  0.7546771E-02  0.1104492E+00
         21   -1    0    0  502  501  0.00000000000E+00  0.00000000000E+00  0.17911812629E+02  0.17911812629E+02  0.00000000000E+00 0.  1.
         21   -1    0    0  501  502 -0.00000000000E+00 -0.00000000000E+00 -0.39046743588E+04  0.39046743588E+04  0.00000000000E+00 0.  1.
         25    1    1    2    0    0  0.12089910123E+03 -0.13071979316E+03 -0.82822489920E+03  0.85632104999E+03  0.12500000000E+03 0.  0.
         25    1    1    2    0    0 -0.12089910123E+03  0.13071979316E+03 -0.30585376470E+04  0.30662651214E+04  0.12500000000E+03 0.  0.
</event>
<event>
 4    0  0.2188063E-002  0.5441365E+03  0.7546771E-02  0.1002860E+00
         21   -1    0    0  502  501  0.00000000000E+00  0.00000000000E+00  0.16895626537E+04  0.16895626537E+04  0.00000000000E+00 0. -1.
         21   -1    0    0  501  502 -0.00000000000E+00 -0.00000000000E+00 -0.17524331714E+03  0.17524331714E+03  0.00000000000E+00 0. -1.
         25    1    1    2    0    0  0.36364377251E+02  0.13727311344E+03 -0.11707345492E+03  0.22248026756E+03  0.12500000000E+03 0.  0.
         25    1    1    2    0    0 -0.36364377251E+02 -0.13727311344E+03  0.16313927915E+04  0.16423257033E+04  0.12500000000E+03 0.  0.
</event>
<event>
 4    0  0.2188063E-002  0.3670798E+03  0.7546771E-02  0.1055815E+00
         21   -1    0    0  502  501  0.00000000000E+00  0.00000000000E+00  0.53841694950E+03  0.53841694950E+03  0.00000000000E+00 0.  1.
         21   -1    0    0  501  502 -0.00000000000E+00 -0.00000000000E+00 -0.25026622753E+03  0.25026622753E+03  0.00000000000E+00 0.  1.
         25    1    1    2    0    0 -0.20663808837E+02 -0.18499294679E+03  0.45630315298E+03  0.50841611971E+03  0.12500000000E+03 0.  0.
         25    1    1    2    0    0  0.20663808837E+02  0.18499294679E+03 -0.16815243102E+03  0.28026705731E+03  0.12500000000E+03 0.  0.
</event>
<event>
 4    0  0.2188063E-002  0.1788239E+03  0.7546771E-02  0.1168946E+00
         21   -1    0    0  502  501  0.00000000000E+00  0.00000000000E+00  0.93092878764E+03  0.93092878764E+03  0.00000000000E+00 0. -1.
         21   -1    0    0  501  502 -0.00000000000E+00 -0.00000000000E+00 -0.34350639769E+02  0.34350639769E+02  0.00000000000E+00 0. -1.
         25    1    1    2    0    0  0.51408571459E+02  0.20451122478E+02  0.13712381540E+03  0.19362084180E+03  0.12500000000E+03 0.  0.
         25    1    1    2    0    0 -0.51408571459E+02 -0.20451122478E+02  0.75945433247E+03  0.77165858561E+03  0.12500000000E+03 0.  0.
</event>
<event>
 4    0  0.2188063E-002  0.1837123E+03  0.7546771E-02  0.1164258E+00
         21   -1    0    0  502  501  0.00000000000E+00  0.00000000000E+00  0.11856921583E+03  0.11856921583E+03  0.00000000000E+00 0.  1.
         21   -1    0    0  501  502 -0.00000000000E+00 -0.00000000000E+00 -0.28464561056E+03  0.28464561056E+03  0.00000000000E+00 0.  1.
         25    1    1    2    0    0  0.11335764971E+03 -0.67938621208E+02 -0.54853941607E+02  0.18999886291E+03  0.12500000000E+03 0.  0.
         25    1    1    2    0    0 -0.11335764971E+03  0.67938621208E+02 -0.11122245312E+03  0.21321596347E+03  0.12500000000E+03 0.  0.
</event>
<event>
 4    0  0.2188063E-002  0.3138866E+03  0.7546771E-02  0.1078498E+00
         21   -1    0    0  502  501  0.00000000000E+00  0.00000000000E+00  0.48535002432E+03  0.48535002432E+03  0.00000000000E+00 0.  1.
         21   -1    0    0  501  502 -0.00000000000E+00 -0.00000000000E+00 -0.20299743018E+03  0.20299743018E+03  0.00000000000E+00 0.  1.
         25    1    1    2    0    0 -0.16247698496E+03  0.22855261728E+03  0.69570018471E+02  0.31480161527E+03  0.12500000000E+03 0.  0.
         25    1    1    2    0    0  0.16247698496E+03 -0.22855261728E+03  0.21278257567E+03  0.37354583924E+03  0.12500000000E+03 0.  0.
</event>
<event>
 4    0  0.2188063E-002  0.2099433E+03  0.7546771E-02  0.1141611E+00
         21   -1    0    0  502  501  0.00000000000E+00  0.00000000000E+00  0.20451948009E+03  0.20451948009E+03  0.00000000000E+00 0. -1.
         21   -1    0    0  501  502 -0.00000000000E+00 -0.00000000000E+00 -0.21551101564E+03  0.21551101564E+03  0.00000000000E+00 0. -1.
         25    1    1    2    0    0  0.15227247523E+03 -0.54278208517E+02 -0.53659641991E+02  0.21127562048E+03  0.12500000000E+03 0.  0.
         25    1    1    2    0    0 -0.15227247523E+03  0.54278208517E+02  0.42668106445E+02  0.20875487525E+03  0.12500000000E+03 0.  0.
</event>
<event>
 4    0  0.2188063E-002  0.3285343E+03  0.7546771E-02  0.1071787E+00
         21   -1    0    0  502  501  0.00000000000E+00  0.00000000000E+00  0.24338432473E+03  0.24338432473E+03  0.00000000000E+00 0. -1.
         21   -1    0    0  501  502 -0.00000000000E+00 -0.00000000000E+00 -0.44347460741E+03  0.44347460741E+03  0.00000000000E+00 0. -1.
         25    1    1    2    0    0 -0.17487336565E+03  0.21858415278E+03  0.23420077721E+02  0.30746256016E+03  0.12500000000E+03 0.  0.
         25    1    1    2    0    0  0.17487336565E+03 -0.21858415278E+03 -0.22351036040E+03  0.37939637197E+03  0.12500000000E+03 0.  0.
</event>
<event>
 4    0  0.2188063E-002  0.1964834E+03  0.7546771E-02  0.1152740E+00
         21   -1    0    0  502  501  0.00000000000E+00  0.00000000000E+00  0.80951025444E+02  0.80951025444E+02  0.00000000000E+00 0.  1.
         21   -1    0    0  501  502 -0.00000000000E+00 -0.00000000000E+00 -0.47690235411E+03  0.47690235411E+03  0.00000000000E+00 0.  1.
         25    1    1    2    0    0  0.14181089936E+03  0.15274849198E+01 -0.12195020511E+03  0.22496559051E+03  0.12500000000E+03 0.  0.
         25    1    1    2    0    0 -0.14181089936E+03 -0.15274849198E+01 -0.27400112356E+03  0.33288778905E+03  0.12500000000E+03 0.  0.
</event>
<event>
 4    0  0.2188063E-002  0.1715688E+03  0.7546771E-02  0.1176222E+00
         21   -1    0    0  502  501  0.00000000000E+00  0.00000000000E+00  0.29181740924E+03  0.29181740924E+03  0.00000000000E+00 0.  1.
         21   -1    0    0  501  502 -0.00000000000E+00 -0.00000000000E+00 -0.10087082670E+03  0.10087082670E+03  0.00000000000E+00 0.  1.
         25    1    1    2    0    0 -0.17939973514E+02  0.35166665662E+02 -0.31201087615E+02  0.13474807936E+03  0.12500000000E+03 0.  0.
         25    1    1    2    0    0  0.17939973514E+02 -0.35166665662E+02  0.22214767016E+03  0.25794015659E+03  0.12500000000E+03 0.  0.
</event>
<event>
 4    0  0.2188063E-002  0.2112590E+03  0.7546771E-02  0.1140573E+00
         21   -1    0    0  502  501  0.00000000000E+00  0.00000000000E+00  0.33645142721E+02  0.33645142721E+02  0.00000000000E+00 0. -1.
         21   -1    0    0  501  502 -0.00000000000E+00 -0.00000000000E+00 -0.13265025565E+04  0.13265025565E+04  0.00000000000E+00 0. -1.
         25    1    1    2    0    0 -0.48940430261E+02 -0.54207395010E+02 -0.15114262835E+03  0.20929094938E+03  0.12500000000E+03 0.  0.
         25    1    1    2    0    0  0.48940430261E+02  0.54207395010E+02 -0.11417147854E+04  0.11508567498E+04  0.12500000000E+03 0.  0.
</event>
<event>
 4    0  0.2188063E-002  0.1801597E+03  0.7546771E-02  0.1167649E+00
         21   -1    0    0  502  501  0.00000000000E+00  0.00000000000E+00  0.39011812857E+03  0.39011812857E+03  0.00000000000E+00 0. -1.
         21   -1    0    0  501  502 -0.00000000000E+00 -0.00000000000E+00 -0.83199225636E+02  0.83199225636E+02  0.00000000000E+00 0. -1.
         25    1    1    2    0    0  0.93884322781E+02 -0.92119664296E+01  0.36457152518E+02  0.16078945973E+03  0.12500000000E+03 0.  0.
         25    1    1    2    0    0 -0.93884322781E+02  0.92119664296E+01  0.27046175042E+03  0.31252789448E+03  0.12500000000E+03 0.  0.
</event>
<event>
 4    0  0.2188063E-002  0.1964851E+03  0.7546771E-02  0.1152739E+00
         21   -1    0    0  502  501  0.00000000000E+00  0.00000000000E+00  0.12728231381E+03  0.12728231381E+03  0.00000000000E+00 0.  1.
         21   -1    0    0  501  502 -0.00000000000E+00 -0.00000000000E+00 -0.30331308527E+03  0.30331308527E+03  0.00000000000E+00 0.  1.
         25    1    1    2    0    0 -0.86901404522E+02  0.10735698564E+03 -0.15647989736E+03  0.24328652809E+03  0.12500000000E+03 0.  0.
         25    1    1    2    0    0  0.86901404522E+02 -0.10735698564E+03 -0.19550874104E+02  0.18730887099E+03  0.12500000000E+03 0.  0.
</event>
<event>
 4    0  0.2188063E-002  0.4872242E+03  0.7546771E-02  0.1017168E+00
         21   -1    0    0  502  501  0.00000000000E+00  0.00000000000E+00  0.78915658577E+03  0.78915658577E+03  0.00000000000E+00 0.  1.
         21   -1    0    0  501  502 -0.00000000000E+00 -0.00000000000E+00 -0.30081152536E+03  0.30081152536E+03  0.00000000000E+00 0.  1.
         25    1    1    2    0    0 -0.38838432589E+02 -0.65183523240E+02  0.76403318702E+03  0.77790039620E+03  0.12500000000E+03 0.  0.
         25    1    1    2    0    0  0.38838432589E+02  0.65183523240E+02 -0.27568812660E+03  0.31206771492E+03  0.12500000000E+03 0.  0.
</event>
<event>
 4    0  0.2188063E-002  0.1800264E+03  0.7546771E-02  0.1167777E+00
         21   -1    0    0  502  501  0.00000000000E+00  0.00000000000E+00  0.34736994368E+02  0.34736994368E+02  0.00000000000E+00 0.  1.
         21   -1    0    0  501  502 -0.00000000000E+00 -0.00000000000E+00 -0.93299724069E+03  0.93299724069E+03  0.00000000000E+00 0.  1.
         25    1    1    2    0    0 -0.13135167714E+02  0.79784160018E+02 -0.17706237965E+03  0.23133121516E+03  0.12500000000E+03 0.  0.
         25    1    1    2    0    0  0.13135167714E+02 -0.79784160018E+02 -0.72119786667E+03  0.73640301989E+03  0.12500000000E+03 0.  0.
</event>
<event>
 4    0  0.2188063E-002  0.2085075E+03  0.7546771E-02  0.1142753E+00
         21   -1    0    0  502  501  0.00000000000E+00  0.00000000000E+00  0.79375462323E+02  0.79375462323E+02  0.00000000000E+00 0.  1.
         21   -1    0    0  501  502 -0.00000000000E+00 -0.00000000000E+00 -0.54771784440E+03  0.54771784440E+03  0.00000000000E+00 0.  1.
         25    1    1    2    0    0  0.10599856696E+03 -0.12889110458E+03 -0.23615712334E+03  0.31502983977E+03  0.12500000000E+03 0.  0.
         25    1    1    2    0    0 -0.10599856696E+03  0.12889110458E+03 -0.23218525873E+03  0.31206346696E+03  0.12500000000E+03 0.  0.
</event>
<event>
 4    0  0.2188063E-002  0.2290075E+03  0.7546771E-02  0.1127340E+00
         21   -1    0    0  502  501  0.00000000000E+00  0.00000000000E+00  0.10174971525E+03  0.10174971525E+03  0.00000000000E+00 0. -1.
         21   -1    0    0  501  502 -0.00000000000E+00 -0.00000000000E+00 -0.51542564267E+03  0.51542564267E+03  0.00000000000E+00 0. -1.
         25    1    1    2    0    0  0.88944897713E-01 -0.14761533567E+03 -0.37203250974E+03  0.41931310920E+03  0.12500000000E+03 0.  0.
         25    1    1    2    0    0 -0.88944897713E-01  0.14761533567E+03 -0.41643417671E+02  0.19786224873E+03  0.12500000000E+03 0.  0.
</event>
<event>
 4    0  0.2188063E-002  0.1915047E+03  0.7546771E-02  0.1157111E+00
         21   -1    0    0  502  501  0.00000000000E+00  0.00000000000E+00  0.60055110733E+02  0.60055110733E+02  0.00000000000E+00 0.  1.
         21   -1    0    0  501  502 -0.00000000000E+00 -0.00000000000E+00 -0.61067350271E+03  0.61067350271E+03  0.00000000000E+00 0.  1.
         25    1    1    2    0    0 -0.34719353981E+02  0.87835454115E+02 -0.82449263119E+02  0.17704062113E+03  0.12500000000E+03 0.  0.
         25    1    1    2    0    0  0.34719353981E+02 -0.87835454115E+02 -0.46816912885E+03  0.49368799231E+03  0.12500000000E+03 0.  0.
</event>
<event>
 4    0  0.2188063E-002  0.2018191E+03  0.7546771E-02  0.1148213E+00
         21   -1    0    0  502  501  0.00000000000E+00  0.00000000000E+00  0.23293138547E+02  0.23293138547E+02  0.00000000000E+00 0. -1.
         21   -1    0    0  501  502 -0.00000000000E+00 -0.00000000000E+00 -0.17486239420E+04  0.17486239420E+04  0.00000000000E+00 0. -1.
         25    1    1    2    0    0  0.14307696143E+03 -0.43336842937E+01 -0.56440831910E+03  0.59554307013E+03  0.12500000000E+03 0.  0.
         25    1    1    2    0    0 -0.14307696143E+03  0.43336842937E+01 -0.11609224844E+04  0.11763740104E+04  0.12500000000E+03 0.  0.
</event>
<event>
 4    0  0.2188063E-002  0.2515334E+03  0.7546771E-02  0.1112340E+00
         21   -1    0    0  502  501  0.00000000000E+00  0.00000000000E+00  0.10791670605E+03  0.10791670605E+03  0.00000000000E+00 0. -1.
         21   -1    0    0  501  502 -0.00000000000E+00 -0.00000000000E+00 -0.58627676416E+03  0.58627676416E+03  0.00000000000E+00 0. -1.
         25    1    1    2    0    0  0.17266609670E+03  0.76952770345E+02 -0.38976717037E+03  0.45086445515E+03  0.12500000000E+03 0.  0.
         25    1    1    2    0    0 -0.17266609670E+03 -0.76952770345E+02 -0.88592887730E+02  0.24332901506E+03  0.12500000000E+03 0.  0.
</event>
<event>
 4    0  0.2188063E-002  0.2531549E+03  0.7546771E-02  0.1111327E+00
         21   -1    0    0  502  501  0.00000000000E+00  0.00000000000E+00  0.28079489259E+03  0.28079489259E+03  0.00000000000E+00 0. -1.
         21   -1    0    0  501  502 -0.00000000000E+00 -0.00000000000E+00 -0.22823568486E+03  0.22823568486E+03  0.00000000000E+00 0. -1.
         25    1    1    2    0    0 -0.23651293361E+02  0.15587172498E+03  0.18075105750E+03  0.27046501273E+03  0.12500000000E+03 0.  0.
         25    1    1    2    0    0  0.23651293361E+02 -0.15587172498E+03 -0.12819184977E+03  0.23856556473E+03  0.12500000000E+03 0.  0.
</event>
<event>
 4    0  0.2188063E-002  0.1893740E+03  0.7546771E-02  0.1159027E+00
         21   -1    0    0  502  501  0.00000000000E+00  0.00000000000E+00  0.15282280439E+03  0.15282280439E+03  0.00000000000E+00 0.  1.
         21   -1    0    0  501  502 -0.00000000000E+00 -0.00000000000E+00 -0.23466734240E+03  0.23466734240E+03  0.00000000000E+00 0.  1.
         25    1    1    2    0    0 -0.43876653889E+02 -0.13477373016E+03 -0.53385496574E+02  0.19637751995E+03  0.12500000000E+03 0.  0.
         25    1    1    2    0    0  0.43876653889E+02  0.13477373016E+03 -0.28459041438E+02  0.19111262684E+03  0.12500000000E+03 0.  0.
</event>
<event>
 4    0  0.2188063E-002  0.1895635E+03  0.7546771E-02  0.1158856E+00
         21   -1    0    0  502  501  0.00000000000E+00  0.00000000000E+00  0.21114398281E+03  0.21114398281E+03  0.00000000000E+00 0.  1.
         21   -1    0    0  501  502 -0.00000000000E+00 -0.00000000000E+00 -0.17018870165E+03  0.17018870165E+03  0.00000000000E+00 0.  1.
         25    1    1    2    0    0 -0.13568722836E+03  0.40364428276E+02  0.39807173409E+01  0.18889456615E+03  0.12500000000E+03 0.  0.
         25    1    1    2    0    0  0.13568722836E+03 -0.40364428276E+02  0.36974563820E+02  0.19243811831E+03  0.12500000000E+03 0.  0.
</event>
<event>
 4    0  0.2188063E-002  0.2341607E+03  0.7546771E-02  0.1123745E+00
         21   -1    0    0  502  501  0.00000000000E+00  0.00000000000E+00  0.21828083008E+03  0.21828083008E+03  0.00000000000E+00 0. -1.
         21   -1    0    0  501  502 -0.00000000000E+00 -0.00000000000E+00 -0.25119584003E+03  0.25119584003E+03  0.00000000000E+00 0. -1.
         25    1    1    2    0    0 -0.25262573432E+02  0.17273885835E+03  0.77203831045E+02  0.22817173867E+03  0.12500000000E+03 0.  0.
         25    1    1    2    0    0  0.25262573432E+02 -0.17273885835E+03 -0.11011884100E+03  0.24130493145E+03  0.12500000000E+03 0.  0.
</event>
<event>
 4    0  0.2188063E-002  0.2761224E+03  0.7546771E-02  0.1097826E+00
         21   -1    0    0  502  501  0.00000000000E+00  0.00000000000E+00  0.58026137731E+03  0.58026137731E+03  0.00000000000E+00 0.  1.
         21   -1    0    0  501  502 -0.00000000000E+00 -0.00000000000E+00 -0.13139519166E+03  0.13139519166E+03  0.00000000000E+00 0.  1.
         25    1    1    2    0    0  0.21571689987E+03 -0.57653762181E+02  0.90754601595E+02  0.27151267907E+03  0.12500000000E+03 0.  0.
         25    1    1    2    0    0 -0.21571689987E+03  0.57653762181E+02  0.35811158406E+03  0.44014388990E+03  0.12500000000E+03 0.  0.
</event>
<event>
 4    0  0.2188063E-002  0.2494121E+03  0.7546771E-02  0.1113677E+00
         21   -1    0    0  502  501  0.00000000000E+00  0.00000000000E+00  0.25216376787E+02  0.25216376787E+02  0.00000000000E+00 0.  1.
         21   -1    0    0  501  502 -0.00000000000E+00 -0.00000000000E+00 -0.24669054867E+04  0.24669054867E+04  0.00000000000E+00 0.  1.
         25    1    1    2    0    0  0.87049198493E+01  0.18516874015E+02 -0.22942594133E+04  0.22977532300E+04  0.12500000000E+03 0.  0.
         25    1    1    2    0    0 -0.87049198493E+01 -0.18516874015E+02 -0.14742969656E+03  0.19436863348E+03  0.12500000000E+03 0.  0.
</event>
<event>
 4    0  0.2188063E-002  0.2802321E+03  0.7546771E-02  0.1095562E+00
         21   -1    0    0  502  501  0.00000000000E+00  0.00000000000E+00  0.75710468953E+03  0.75710468953E+03  0.00000000000E+00 0. -1.
         21   -1    0    0  501  502 -0.00000000000E+00 -0.00000000000E+00 -0.10372415281E+03  0.10372415281E+03  0.00000000000E+00 0. -1.
         25    1    1    2    0    0  0.18239144693E+03 -0.80393314480E+02  0.92870220565E+02  0.25294189608E+03  0.12500000000E+03 0.  0.
         25    1    1    2    0    0 -0.18239144693E+03  0.80393314480E+02  0.56051031615E+03  0.60788694626E+03  0.12500000000E+03 0.  0.
</event>
<event>
 4    0  0.2188063E-002  0.1656303E+03  0.7546771E-02  0.1182483E+00
         21   -1    0    0  502  501  0.00000000000E+00  0.00000000000E+00  0.77996265964E+02  0.77996265964E+02  0.00000000000E+00 0. -1.
         21   -1    0    0  501  502 -0.00000000000E+00 -0.00000000000E+00 -0.35172688220E+03  0.35172688220E+03  0.00000000000E+00 0. -1.
         25    1    1    2    0    0 -0.12250384986E+02  0.89242400400E+01  0.27227913223E+01  0.12594493870E+03  0.12500000000E+03 0.  0.
         25    1    1    2    0    0  0.12250384986E+02 -0.89242400400E+01 -0.27645340756E+03  0.30377820946E+03  0.12500000000E+03 0.  0.
</event>
<event>
 4    0  0.2188063E-002  0.4592203E+03  0.7546771E-02  0.1025008E+00
         21   -1    0    0  502  501  0.00000000000E+00  0.00000000000E+00  0.87107797928E+03  0.87107797928E+03  0.00000000000E+00 0. -1.
         21   -1    0    0  501  502 -0.00000000000E+00 -0.00000000000E+00 -0.24209464461E+03  0.24209464461E+03  0.00000000000E+00 0. -1.
         25    1    1    2    0    0 -0.79294997384E+02  0.27588631173E+03  0.72166221552E+03  0.78665259608E+03  0.12500000000E+03 0.  0.
         25    1    1    2    0    0  0.79294997384E+02 -0.27588631173E+03 -0.92678880844E+02  0.32652002782E+03  0.12500000000E+03 0.  0.
</event>
<event>
 4    0  0.2188063E-002  0.1789389E+03  0.7546771E-02  0.1168834E+00
         21   -1    0    0  502  501  0.00000000000E+00  0.00000000000E+00  0.38748346882E+02  0.38748346882E+02  0.00000000000E+00 0.  1.
         21   -1    0    0  501  502 -0.00000000000E+00 -0.00000000000E+00 -0.82633572905E+03  0.82633572905E+03  0.00000000000E+00 0.  1.
         25    1    1    2    0    0 -0.29927250306E+02  0.12389369349E+03 -0.42328584237E+03  0.45939219840E+03  0.12500000000E+03 0.  0.
         25    1    1    2    0    0  0.29927250306E+02 -0.12389369349E+03 -0.36430153979E+03  0.40569187753E+03  0.12500000000E+03 0.  0.
</event>
<event>
 4    0  0.2188063E-002  0.2274853E+03  0.7546771E-02  0.1128422E+00
         21   -1    0    0  502  501  0.00000000000E+00  0.00000000000E+00  0.35948387734E+03  0.35948387734E+03  0.00000000000E+00 0.  1.
         21   -1    0    0  501  502 -0.00000000000E+00 -0.00000000000E+00 -0.14395510945E+03  0.14395510945E+03  0.00000000000E+00 0.  1.
         25    1    1    2    0    0 -0.84002912383E+02 -0.73307826838E+02 -0.62562389700E+02  0.17880038974E+03  0.12500000000E+03 0.  0.
         25    1    1    2    0    0  0.84002912383E+02  0.73307826838E+02  0.27809115760E+03  0.32463859706E+03  0.12500000000E+03 0.  0.
</event>
<event>
 4    0  0.2188063E-002  0.2028453E+03  0.7546771E-02  0.1147360E+00
         21   -1    0    0  502  501  0.00000000000E+00  0.00000000000E+00  0.76362474357E+02  0.76362474357E+02  0.00000000000E+00 0.  1.
         21   -1    0    0  501  502 -0.00000000000E+00 -0.00000000000E+00 -0.53882786096E+03  0.53882786096E+03  0.00000000000E+00 0.  1.
         25    1    1    2    0    0  0.87233508818E+02 -0.13262245187E+03 -0.25847856482E+03  0.32807707672E+03  0.12500000000E+03 0.  0.
         25    1    1    2    0    0 -0.87233508818E+02  0.13262245187E+03 -0.20398682178E+03  0.28711325859E+03  0.12500000000E+03 0.  0.
</event>
<event>
 4    0  0.2188063E-002  0.1848786E+03  0.7546771E-02  0.1163163E+00
         21   -1    0    0  502  501  0.00000000000E+00  0.00000000000E+00  0.71146325539E+02  0.71146325539E+02  0.00000000000E+00 0.  1.
         21   -1    0    0  501  502 -0.00000000000E+00 -0.00000000000E+00 -0.48041984855E+03  0.48041984855E+03  0.00000000000E+00 0.  1.
         25    1    1    2    0    0  0.87683943639E+01 -0.77613163195E+02 -0.37110932147E+03  0.39930917386E+03  0.12500000000E+03 0.  0.
         25    1    1    2    0    0 -0.87683943639E+01  0.77613163195E+02 -0.38164201538E+02  0.15225700023E+03  0.12500000000E+03 0.  0.
</event>
<event>
 4    0  0.2188063E-002  0.2395640E+03  0.7546771E-02  0.1120084E+00
         21   -1    0    0  502  501  0.00000000000E+00  0.00000000000E+00  0.11367465616E+03  0.11367465616E+03  0.00000000000E+00 0.  1.
         21   -1    0    0  501  502 -0.00000000000E+00 -0.00000000000E+00 -0.50487008466E+03  0.50487008466E+03  0.00000000000E+00 0.  1.
         25    1    1    2    0    0  0.16735816797E+03 -0.11359313733E+03 -0.23331943209E+03  0.33312927614E+03  0.12500000000E+03 0.  0.
         25    1    1    2    0    0 -0.16735816797E+03  0.11359313733E+03 -0.15787599641E+03  0.28541546468E+03  0.12500000000E+03 0.  0.
</event>
<event>
 4    0  0.2188063E-002  0.1659359E+03  0.7546771E-02  0.1182154E+00
         21   -1    0    0  502  501  0.00000000000E+00  0.00000000000E+00  0.53687590740E+03  0.53687590740E+03  0.00000000000E+00 0. -1.
         21   -1    0    0  501  502 -0.00000000000E+00 -0.00000000000E+00 -0.51286923158E+02  0.51286923158E+02  0.00000000000E+00 0. -1.
         25    1    1    2    0    0 -0.95247784321E+02 -0.39297345547E+02  0.17905985290E+03  0.24146190736E+03  0.12500000000E+03 0.  0.
         25    1    1    2    0    0  0.95247784321E+02  0.39297345547E+02  0.30652913135E+03  0.34670092321E+03  0.12500000000E+03 0.  0.
</event>
<event>
 4    0  0.2188063E-002  0.2162235E+03  0.7546771E-02  0.1136730E+00
         21   -1    0    0  502  501  0.00000000000E+00  0.00000000000E+00  0.53745257700E+02  0.53745257700E+02  0.00000000000E+00 0.  1.
         21   -1    0    0  501  502 -0.00000000000E+00 -0.00000000000E+00 -0.86989285693E+03  0.86989285693E+03  0.00000000000E+00 0.  1.
         25    1    1    2    0    0 -0.11707280274E+03 -0.13162623989E+03 -0.38713519402E+03  0.44331723023E+03  0.12500000000E+03 0.  0.
         25    1    1    2    0    0  0.11707280274E+03  0.13162623989E+03 -0.42901240521E+03  0.48032088440E+03  0.12500000000E+03 0.  0.
</event>
<event>
 4    0  0.2188063E-002  0.2136717E+03  0.7546771E-02  0.1138691E+00
         21   -1    0    0  502  501  0.00000000000E+00  0.00000000000E+00  0.21681772672E+02  0.21681772672E+02  0.00000000000E+00 0. -1.
         21   -1    0    0  501  502 -0.00000000000E+00 -0.00000000000E+00 -0.21057133242E+04  0.21057133242E+04  0.00000000000E+00 0. -1.
         25    1    1    2    0    0 -0.14526313046E+03 -0.33035460557E+02 -0.14827435462E+04  0.14954417884E+04  0.12500000000E+03 0.  0.
         25    1    1    2    0    0  0.14526313046E+03  0.33035460557E+02 -0.60128800533E+03  0.63195330846E+03  0.12500000000E+03 0.  0.
</event>
<event>
 4    0  0.2188063E-002  0.5232616E+03  0.7546771E-02  0.1007880E+00
         21   -1    0    0  502  501  0.00000000000E+00  0.00000000000E+00  0.23266074567E+03  0.23266074567E+03  0.00000000000E+00 0. -1.
         21   -1    0    0  501  502 -0.00000000000E+00 -0.00000000000E+00 -0.11768324530E+04  0.11768324530E+04  0.00000000000E+00 0.  1.
         25    1    1    2    0    0 -0.36915929574E+03 -0.15820763234E+03 -0.52899064671E+02  0.42394758120E+03  0.12500000000E+03 0.  0.
         25    1    1    2    0    0  0.36915929574E+03  0.15820763234E+03 -0.89127264271E+03  0.98554561751E+03  0.12500000000E+03 0.  0.
</event>
<event>
 4    0  0.2188063E-002  0.2456054E+03  0.7546771E-02  0.1116114E+00
         21   -1    0    0  502  501  0.00000000000E+00  0.00000000000E+00  0.58460050289E+02  0.58460050289E+02  0.00000000000E+00 0. -1.
         21   -1    0    0  501  502 -0.00000000000E+00 -0.00000000000E+00 -0.10318500131E+04  0.10318500131E+04  0.00000000000E+00 0. -1.
         25    1    1    2    0    0  0.99341588916E+02  0.22090057351E+01 -0.72487860534E+02  0.17536567771E+03  0.12500000000E+03 0.  0.
         25    1    1    2    0    0 -0.99341588916E+02 -0.22090057351E+01 -0.90090210231E+03  0.91494438571E+03  0.12500000000E+03 0.  0.
</event>
<event>
 4    0  0.2188063E-002  0.2149088E+03  0.7546771E-02  0.1137737E+00
         21   -1    0    0  502  501  0.00000000000E+00  0.00000000000E+00  0.45700782605E+03  0.45700782605E+03  0.00000000000E+00 0.  1.
         21   -1    0    0  501  502 -0.00000000000E+00 -0.00000000000E+00 -0.10106127571E+03  0.10106127571E+03  0.00000000000E+00 0.  1.
         25    1    1    2    0    0 -0.83340481227E+02 -0.97035604940E+02  0.23256832848E+02  0.18035361020E+03  0.12500000000E+03 0.  0.
         25    1    1    2    0    0  0.83340481227E+02  0.97035604940E+02  0.33268971750E+03  0.37771549156E+03  0.12500000000E+03 0.  0.
</event>
<event>
 4    0  0.2188063E-002  0.2173613E+03  0.7546771E-02  0.1135866E+00
         21   -1    0    0  502  501  0.00000000000E+00  0.00000000000E+00  0.48070096590E+03  0.48070096590E+03  0.00000000000E+00 0.  1.
         21   -1    0    0  501  502 -0.00000000000E+00 -0.00000000000E+00 -0.98285489019E+02  0.98285489019E+02  0.00000000000E+00 0.  1.
         25    1    1    2    0    0  0.14003764355E+03  0.52558812637E+02  0.63128375239E+02  0.20489793107E+03  0.12500000000E+03 0.  0.
         25    1    1    2    0    0 -0.14003764355E+03 -0.52558812637E+02  0.31928710164E+03  0.37408852384E+03  0.12500000000E+03 0.  0.
</event>
<event>
 4    0  0.2188063E-002  0.2107728E+03  0.7546771E-02  0.1140956E+00
         21   -1    0    0  502  501  0.00000000000E+00  0.00000000000E+00  0.12135121477E+03  0.12135121477E+03  0.00000000000E+00 0. -1.
         21   -1    0    0  501  502 -0.00000000000E+00 -0.00000000000E+00 -0.36608741774E+03  0.36608741774E+03  0.00000000000E+00 0. -1.
         25    1    1    2    0    0 -0.80793695538E+02  0.10609552982E+03 -0.10032930202E+01  0.18278372270E+03  0.12500000000E+03 0.  0.
         25    1    1    2    0    0  0.80793695538E+02 -0.10609552982E+03 -0.24373290994E+03  0.30465490982E+03  0.12500000000E+03 0.  0.
</event>
<event>
 4    0  0.2188063E-002  0.2437983E+03  0.7546771E-02  0.1117288E+00
         21   -1    0    0  502  501  0.00000000000E+00  0.00000000000E+00  0.47476683940E+03  0.47476683940E+03  0.00000000000E+00 0. -1.
         21   -1    0    0  501  502 -0.00000000000E+00 -0.00000000000E+00 -0.12519331189E+03  0.12519331189E+03  0.00000000000E+00 0. -1.
         25    1    1    2    0    0  0.16230188247E+03 -0.89217863321E+02  0.54789159671E+02  0.23006212249E+03  0.12500000000E+03 0.  0.
         25    1    1    2    0    0 -0.16230188247E+03  0.89217863321E+02  0.29478436783E+03  0.36989802880E+03  0.12500000000E+03 0.  0.
</event>
<event>
 4    0  0.2188063E-002  0.1882376E+03  0.7546771E-02  0.1160061E+00
         21   -1    0    0  502  501  0.00000000000E+00  0.00000000000E+00  0.25045152883E+03  0.25045152883E+03  0.00000000000E+00 0.  1.
         21   -1    0    0  501  502 -0.00000000000E+00 -0.00000000000E+00 -0.14147800446E+03  0.14147800446E+03  0.00000000000E+00 0.  1.
         25    1    1    2    0    0  0.18465358076E+02  0.63951203230E+02 -0.74610421659E+02  0.16007011234E+03  0.12500000000E+03 0.  0.
         25    1    1    2    0    0 -0.18465358076E+02 -0.63951203230E+02  0.18358394604E+03  0.23185942095E+03  0.12500000000E+03 0.  0.
</event>
<event>
 4    0  0.2188063E-002  0.2473729E+03  0.7546771E-02  0.1114976E+00
         21   -1    0    0  502  501  0.00000000000E+00  0.00000000000E+00  0.19683111354E+03  0.19683111354E+03  0.00000000000E+00 0. -1.
         21   -1    0    0  501  502 -0.00000000000E+00 -0.00000000000E+00 -0.31089267562E+03  0.31089267562E+03  0.00000000000E+00 0. -1.
         25    1    1    2    0    0 -0.61364462793E+02 -0.76908700584E+00  0.15278819960E+03  0.20672547672E+03  0.12500000000E+03 0.  0.
         25    1    1    2    0    0  0.61364462793E+02  0.76908700584E+00 -0.26684976168E+03  0.30099831245E+03  0.12500000000E+03 0.  0.
</event>
<event>
 4    0  0.2188063E-002  0.2140694E+03  0.7546771E-02  0.1138383E+00
         21   -1    0    0  502  501  0.00000000000E+00  0.00000000000E+00  0.28546809321E+03  0.28546809321E+03  0.00000000000E+00 0.  1.
         21   -1    0    0  501  502 -0.00000000000E+00 -0.00000000000E+00 -0.16052836739E+03  0.16052836739E+03  0.00000000000E+00 0.  1.
         25    1    1    2    0    0  0.84263341789E+02 -0.12807109824E+03  0.14772609080E+03  0.24688158068E+03  0.12500000000E+03 0.  0.
         25    1    1    2    0    0 -0.84263341789E+02  0.12807109824E+03 -0.22786364985E+02  0.19911487991E+03  0.12500000000E+03 0.  0.
</event>
<event>
 4    0  0.2188063E-002  0.3235882E+03  0.7546771E-02  0.1074010E+00
         21   -1    0    0  502  501  0.00000000000E+00  0.00000000000E+00  0.13458938393E+04  0.13458938393E+04  0.00000000000E+00 0. -1.
         21   -1    0    0  501  502 -0.00000000000E+00 -0.00000000000E+00 -0.77799095006E+02  0.77799095006E+02  0.00000000000E+00 0. -1.
         25    1    1    2    0    0  0.19526686260E+03 -0.18508637052E+03  0.34977894634E+03  0.45864629453E+03  0.12500000000E+03 0.  0.
         25    1    1    2    0    0 -0.19526686260E+03  0.18508637052E+03  0.91831579796E+03  0.96504663978E+03  0.12500000000E+03 0.  0.
</event>
<event>
 4    0  0.2188063E-002  0.2334530E+03  0.7546771E-02  0.1124233E+00
         21   -1    0    0  502  501  0.00000000000E+00  0.00000000000E+00  0.56713597180E+02  0.56713597180E+02  0.00000000000E+00 0.  1.
         21   -1    0    0  501  502 -0.00000000000E+00 -0.00000000000E+00 -0.96097401744E+03  0.96097401744E+03  0.00000000000E+00 0.  1.
         25    1    1    2    0    0  0.51477374030E+02  0.16401014244E+02 -0.86543748966E+03  0.87608559046E+03  0.12500000000E+03 0.  0.
         25    1    1    2    0    0 -0.51477374030E+02 -0.16401014244E+02 -0.38822930600E+02  0.14160202416E+03  0.12500000000E+03 0.  0.
</event>
<event>
 4    0  0.2188063E-002  0.1785128E+03  0.7546771E-02  0.1169250E+00
         21   -1    0    0  502  501  0.00000000000E+00  0.00000000000E+00  0.13382875455E+03  0.13382875455E+03  0.00000000000E+00 0.  1.
         21   -1    0    0  501  502 -0.00000000000E+00 -0.00000000000E+00 -0.23811635568E+03  0.23811635568E+03  0.00000000000E+00 0.  1.
         25    1    1    2    0    0  0.55151769434E+02 -0.42785156449E+02  0.58940003732E+02  0.15482639092E+03  0.12500000000E+03 0.  0.
         25    1    1    2    0    0 -0.55151769434E+02  0.42785156449E+02 -0.16322760486E+03  0.21711871931E+03  0.12500000000E+03 0.  0.
</event>
<event>
 4    0  0.2188063E-002  0.2285085E+03  0.7546771E-02  0.1127694E+00
         21   -1    0    0  502  501  0.00000000000E+00  0.00000000000E+00  0.19772409385E+03  0.19772409385E+03  0.00000000000E+00 0. -1.
         21   -1    0    0  501  502 -0.00000000000E+00 -0.00000000000E+00 -0.26408574738E+03  0.26408574738E+03  0.00000000000E+00 0. -1.
         25    1    1    2    0    0 -0.18654750109E+03 -0.14509624853E+02  0.69930791303E+01  0.22513196693E+03  0.12500000000E+03 0.  0.
         25    1    1    2    0    0  0.18654750109E+03  0.14509624853E+02 -0.73354732665E+02  0.23667787430E+03  0.12500000000E+03 0.  0.
</event>
<event>
 4    0  0.2188063E-002  0.2566485E+03  0.7546771E-02  0.1109174E+00
         21   -1    0    0  502  501  0.00000000000E+00  0.00000000000E+00  0.12518851226E+03  0.12518851226E+03  0.00000000000E+00 0. -1.
         21   -1    0    0  501  502 -0.00000000000E+00 -0.00000000000E+00 -0.52615416698E+03  0.52615416698E+03  0.00000000000E+00 0. -1.
         25    1    1    2    0    0 -0.12377683365E+03  0.16012852799E+03 -0.78231835719E+02  0.25041379783E+03  0.12500000000E+03 0.  0.
         25    1    1    2    0    0  0.12377683365E+03 -0.16012852799E+03 -0.32273381899E+03  0.40092888141E+03  0.12500000000E+03 0.  0.
</event>
<event>
 4    0  0.2188063E-002  0.2269573E+03  0.7546771E-02  0.1128800E+00
         21   -1    0    0  502  501  0.00000000000E+00  0.00000000000E+00  0.45930649719E+03  0.45930649719E+03  0.00000000000E+00 0.  1.
         21   -1    0    0  501  502 -0.00000000000E+00 -0.00000000000E+00 -0.11214645985E+03  0.11214645985E+03  0.00000000000E+00 0.  1.
         25    1    1    2    0    0  0.32164831351E+02 -0.18023776284E+03  0.23479590485E+03  0.32291538282E+03  0.12500000000E+03 0.  0.
         25    1    1    2    0    0 -0.32164831351E+02  0.18023776284E+03  0.11236413250E+03  0.24853757422E+03  0.12500000000E+03 0.  0.
</event>
<event>
 4    0  0.2188063E-002  0.2424614E+03  0.7546771E-02  0.1118164E+00
         21   -1    0    0  502  501  0.00000000000E+00  0.00000000000E+00  0.60924291655E+03  0.60924291655E+03  0.00000000000E+00 0. -1.
         21   -1    0    0  501  502 -0.00000000000E+00 -0.00000000000E+00 -0.96492769077E+02  0.96492769077E+02  0.00000000000E+00 0. -1.
         25    1    1    2    0    0  0.45973641616E+02  0.11026500046E+03  0.90047149306E+01  0.17314164993E+03  0.12500000000E+03 0.  0.
         25    1    1    2    0    0 -0.45973641616E+02 -0.11026500046E+03  0.50374543254E+03  0.53259403569E+03  0.12500000000E+03 0.  0.
</event>
<event>
 4    0  0.2188063E-002  0.2866468E+03  0.7546771E-02  0.1092113E+00
         21   -1    0    0  502  501  0.00000000000E+00  0.00000000000E+00  0.13830190919E+03  0.13830190919E+03  0.00000000000E+00 0. -1.
         21   -1    0    0  501  502 -0.00000000000E+00 -0.00000000000E+00 -0.59410866768E+03  0.59410866768E+03  0.00000000000E+00 0. -1.
         25    1    1    2    0    0  0.22081527497E+03 -0.12644166332E+03 -0.28202206846E+03  0.39988539231E+03  0.12500000000E+03 0.  0.
         25    1    1    2    0    0 -0.22081527497E+03  0.12644166332E+03 -0.17378469003E+03  0.33252518457E+03  0.12500000000E+03 0.  0.
</event>
<event>
 4    0  0.2188063E-002  0.1506056E+03  0.7546771E-02  0.1199731E+00
         21   -1    0    0  502  501  0.00000000000E+00  0.00000000000E+00  0.64173006546E+02  0.64173006546E+02  0.00000000000E+00 0. -1.
         21   -1    0    0  501  502 -0.00000000000E+00 -0.00000000000E+00 -0.35345135390E+03  0.35345135390E+03  0.00000000000E+00 0. -1.
         25    1    1    2    0    0  0.52022984665E+02 -0.57019008984E+02 -0.98665624998E+02  0.17696740908E+03  0.12500000000E+03 0.  0.
         25    1    1    2    0    0 -0.52022984665E+02  0.57019008984E+02 -0.19061272236E+03  0.24065695137E+03  0.12500000000E+03 0.  0.
</event>
<event>
 4    0  0.2188063E-002  0.2673628E+03  0.7546771E-02  0.1102798E+00
         21   -1    0    0  502  501  0.00000000000E+00  0.00000000000E+00  0.26252917351E+03  0.26252917351E+03  0.00000000000E+00 0. -1.
         21   -1    0    0  501  502 -0.00000000000E+00 -0.00000000000E+00 -0.27228544101E+03  0.27228544101E+03  0.00000000000E+00 0. -1.
         25    1    1    2    0    0  0.11076919058E+02 -0.18405805194E+03 -0.15274660062E+03  0.27010477341E+03  0.12500000000E+03 0.  0.
         25    1    1    2    0    0 -0.11076919058E+02  0.18405805194E+03  0.14299033312E+03  0.26470984112E+03  0.12500000000E+03 0.  0.
</event>
<event>
 4    0  0.2188063E-002  0.1686260E+03  0.7546771E-02  0.1179288E+00
         21   -1    0    0  502  501  0.00000000000E+00  0.00000000000E+00  0.39162829287E+03  0.39162829287E+03  0.00000000000E+00 0.  1.
         21   -1    0    0  501  502 -0.00000000000E+00 -0.00000000000E+00 -0.72606452897E+02  0.72606452897E+02  0.00000000000E+00 0.  1.
         25    1    1    2    0    0 -0.90805031310E+02  0.41650158311E+02  0.86290172735E+02  0.18180011911E+03  0.12500000000E+03 0.  0.
         25    1    1    2    0    0  0.90805031310E+02 -0.41650158311E+02  0.23273166724E+03  0.28243462666E+03  0.12500000000E+03 0.  0.
</event>
<event>
 4    0  0.2188063E-002  0.2712831E+03  0.7546771E-02  0.1100548E+00
         21   -1    0    0  502  501  0.00000000000E+00  0.00000000000E+00  0.20896106606E+03  0.20896106606E+03  0.00000000000E+00 0. -1.
         21   -1    0    0  501  502 -0.00000000000E+00 -0.00000000000E+00 -0.35219241493E+03  0.35219241493E+03  0.00000000000E+00 0. -1.
         25    1    1    2    0    0  0.55986738352E+02 -0.11106392648E+03 -0.28483294536E+03  0.33499927970E+03  0.12500000000E+03 0.  0.
         25    1    1    2    0    0 -0.55986738352E+02  0.11106392648E+03  0.14160159649E+03  0.22615420130E+03  0.12500000000E+03 0.  0.
</event>
<event>
 4    0  0.2188063E-002  0.1495720E+03  0.7546771E-02  0.1201000E+00
         21   -1    0    0  502  501  0.00000000000E+00  0.00000000000E+00  0.32831115031E+02  0.32831115031E+02  0.00000000000E+00 0. -1.
         21   -1    0    0  501  502 -0.00000000000E+00 -0.00000000000E+00 -0.68142044101E+03  0.68142044101E+03  0.00000000000E+00 0. -1.
         25    1    1    2    0    0  0.55231207225E+02 -0.52623506669E+02 -0.39699355844E+03  0.42314135363E+03  0.12500000000E+03 0.  0.
         25    1    1    2    0    0 -0.55231207225E+02  0.52623506669E+02 -0.25159576753E+03  0.29111020241E+03  0.12500000000E+03 0.  0.
</event>
<event>
 4    0  0.2188063E-002  0.2743894E+03  0.7546771E-02  0.1098793E+00
         21   -1    0    0  502  501  0.00000000000E+00  0.00000000000E+00  0.12116217178E+03  0.12116217178E+03  0.00000000000E+00 0.  1.
         21   -1    0    0  501  502 -0.00000000000E+00 -0.00000000000E+00 -0.62139501391E+03  0.62139501391E+03  0.00000000000E+00 0.  1.
         25    1    1    2    0    0 -0.47810387195E+02  0.22716910922E+03 -0.35292532469E+03  0.44053708370E+03  0.12500000000E+03 0.  0.
         25    1    1    2    0    0  0.47810387195E+02 -0.22716910922E+03 -0.14730751745E+03  0.30202010199E+03  0.12500000000E+03 0.  0.
</event>
<event>
 4    0  0.2188063E-002  0.2412544E+03  0.7546771E-02  0.1118960E+00
         21   -1    0    0  502  501  0.00000000000E+00  0.00000000000E+00  0.20377622470E+03  0.20377622470E+03  0.00000000000E+00 0.  1.
         21   -1    0    0  501  502 -0.00000000000E+00 -0.00000000000E+00 -0.28562538075E+03  0.28562538075E+03  0.00000000000E+00 0.  1.
         25    1    1    2    0    0 -0.15961360594E+02  0.16889277876E+03  0.78223222667E+02  0.22477412732E+03  0.12500000000E+03 0.  0.
         25    1    1    2    0    0  0.15961360594E+02 -0.16889277876E+03 -0.16007237872E+03  0.26462747812E+03  0.12500000000E+03 0.  0.
</event>
<event>
 4    0  0.2188063E-002  0.2186365E+03  0.7546771E-02  0.1134904E+00
         21   -1    0    0  502  501  0.00000000000E+00  0.00000000000E+00  0.13926827341E+03  0.13926827341E+03  0.00000000000E+00 0.  1.
         21   -1    0    0  501  502 -0.00000000000E+00 -0.00000000000E+00 -0.34323610367E+03  0.34323610367E+03  0.00000000000E+00 0.  1.
         25    1    1    2    0    0 -0.16361306013E+03  0.60757179904E+02 -0.56271246260E+02  0.22192818998E+03  0.12500000000E+03 0.  0.
         25    1    1    2    0    0  0.16361306013E+03 -0.60757179904E+02 -0.14769658400E+03  0.26057618709E+03  0.12500000000E+03 0.  0.
</event>
<event>
 4    0  0.2188063E-002  0.2747121E+03  0.7546771E-02  0.1098613E+00
         21   -1    0    0  502  501  0.00000000000E+00  0.00000000000E+00  0.32530486418E+03  0.32530486418E+03  0.00000000000E+00 0. -1.
         21   -1    0    0  501  502 -0.00000000000E+00 -0.00000000000E+00 -0.23198771705E+03  0.23198771705E+03  0.00000000000E+00 0. -1.
         25    1    1    2    0    0  0.19093438536E+03 -0.13912921954E+02 -0.10781233082E+03  0.25278055223E+03  0.12500000000E+03 0.  0.
         25    1    1    2    0    0 -0.19093438536E+03  0.13912921954E+02  0.20112947794E+03  0.30451202900E+03  0.12500000000E+03 0.  0.
</event>
<event>
 4    0  0.2188063E-002  0.1511375E+03  0.7546771E-02  0.1199082E+00
         21   -1    0    0  502  501  0.00000000000E+00  0.00000000000E+00  0.12388126561E+04  0.12388126561E+04  0.00000000000E+00 0.  1.
         21   -1    0    0  501  502 -0.00000000000E+00 -0.00000000000E+00 -0.18439061459E+02  0.18439061459E+02  0.00000000000E+00 0.  1.
         25    1    1    2    0    0 -0.29735797380E+01 -0.20587220147E+00  0.25704653573E+03  0.28584402406E+03  0.12500000000E+03 0.  0.
         25    1    1    2    0    0  0.29735797380E+01  0.20587220147E+00  0.96332705894E+03  0.97140769352E+03  0.12500000000E+03 0.  0.
</event>
<event>
 4    0  0.2188063E-002  0.2150267E+03  0.7546771E-02  0.1137646E+00
         21   -1    0    0  502  501  0.00000000000E+00  0.00000000000E+00  0.23973931068E+03  0.23973931068E+03  0.00000000000E+00 0. -1.
         21   -1    0    0  501  502 -0.00000000000E+00 -0.00000000000E+00 -0.19286140744E+03  0.19286140744E+03  0.00000000000E+00 0. -1.
         25    1    1    2    0    0 -0.86613756057E+02  0.15130680094E+03  0.86628249855E+01  0.21469917393E+03  0.12500000000E+03 0.  0.
         25    1    1    2    0    0  0.86613756057E+02 -0.15130680094E+03  0.38215078255E+02  0.21790154418E+03  0.12500000000E+03 0.  0.
</event>
<event>
 4    0  0.2188063E-002  0.1800929E+03  0.7546771E-02  0.1167713E+00
         21   -1    0    0  502  501  0.00000000000E+00  0.00000000000E+00  0.44495011812E+02  0.44495011812E+02  0.00000000000E+00 0. -1.
         21   -1    0    0  501  502 -0.00000000000E+00 -0.00000000000E+00 -0.72892316153E+03  0.72892316153E+03  0.00000000000E+00 0. -1.
         25    1    1    2    0    0  0.54409146178E+02 -0.11667027165E+03 -0.30921740961E+03  0.35750904027E+03  0.12500000000E+03 0.  0.
         25    1    1    2    0    0 -0.54409146178E+02  0.11667027165E+03 -0.37521074011E+03  0.41590913306E+03  0.12500000000E+03 0.  0.
</event>
<event>
 4    0  0.2188063E-002  0.1956357E+03  0.7546771E-02  0.1153474E+00
         21   -1    0    0  502  501  0.00000000000E+00  0.00000000000E+00  0.45952237959E+03  0.45952237959E+03  0.00000000000E+00 0. -1.
         21   -1    0    0  501  502 -0.00000000000E+00 -0.00000000000E+00 -0.83289362332E+02  0.83289362332E+02  0.00000000000E+00 0. -1.
         25    1    1    2    0    0  0.13049943417E+03 -0.50280808179E+02  0.26523435128E+03  0.32485769668E+03  0.12500000000E+03 0.  0.
         25    1    1    2    0    0 -0.13049943417E+03  0.50280808179E+02  0.11099866598E+03  0.21795404525E+03  0.12500000000E+03 0.  0.
</event>
<event>
 4    0  0.2188063E-002  0.1816881E+03  0.7546771E-02  0.1166179E+00
         21   -1    0    0  502  501  0.00000000000E+00  0.00000000000E+00  0.65083017410E+03  0.65083017410E+03  0.00000000000E+00 0.  1.
         21   -1    0    0  501  502 -0.00000000000E+00 -0.00000000000E+00 -0.50720720569E+02  0.50720720569E+02  0.00000000000E+00 0.  1.
         25    1    1    2    0    0 -0.25699317294E+02  0.91397162294E+02  0.47670280995E+03  0.50188092731E+03  0.12500000000E+03 0.  0.
         25    1    1    2    0    0  0.25699317294E+02 -0.91397162294E+02  0.12340664358E+03  0.19966996736E+03  0.12500000000E+03 0.  0.
</event>
<event>
 4    0  0.2188063E-002  0.1549149E+03  0.7546771E-02  0.1194560E+00
         21   -1    0    0  502  501  0.00000000000E+00  0.00000000000E+00  0.60691140700E+02  0.60691140700E+02  0.00000000000E+00 0.  1.
         21   -1    0    0  501  502 -0.00000000000E+00 -0.00000000000E+00 -0.39542248148E+03  0.39542248148E+03  0.00000000000E+00 0.  1.
         25    1    1    2    0    0 -0.50315417037E+02 -0.60702259485E+02 -0.98990480682E+02  0.17787782539E+03  0.12500000000E+03 0.  0.
         25    1    1    2    0    0  0.50315417037E+02  0.60702259485E+02 -0.23574086009E+03  0.27823579679E+03  0.12500000000E+03 0.  0.
</event>
<event>
 4    0  0.2188063E-002  0.3853627E+03  0.7546771E-02  0.1048969E+00
         21   -1    0    0  502  501  0.00000000000E+00  0.00000000000E+00  0.28500384781E+03  0.28500384781E+03  0.00000000000E+00 0.  1.
         21   -1    0    0  501  502 -0.00000000000E+00 -0.00000000000E+00 -0.52106115323E+03  0.52106115323E+03  0.00000000000E+00 0.  1.
         25    1    1    2    0    0  0.30040172256E+03  0.17197149981E+03 -0.23756752168E+03  0.43803963179E+03  0.12500000000E+03 0.  0.
         25    1    1    2    0    0 -0.30040172256E+03 -0.17197149981E+03  0.15102162663E+01  0.36802536925E+03  0.12500000000E+03 0.  0.
</event>
<event>
 4    0  0.2188063E-002  0.2712271E+03  0.7546771E-02  0.1100579E+00
         21   -1    0    0  502  501  0.00000000000E+00  0.00000000000E+00  0.16821382882E+03  0.16821382882E+03  0.00000000000E+00 0. -1.
         21   -1    0    0  501  502 -0.00000000000E+00 -0.00000000000E+00 -0.43732508268E+03  0.43732508268E+03  0.00000000000E+00 0. -1.
         25    1    1    2    0    0  0.95137141945E+02 -0.14139245683E+03  0.55202142232E+02  0.21843804415E+03  0.12500000000E+03 0.  0.
         25    1    1    2    0    0 -0.95137141945E+02  0.14139245683E+03 -0.32431339609E+03  0.38710086736E+03  0.12500000000E+03 0.  0.
</event>
<event>
 4    0  0.2188063E-002  0.2098562E+03  0.7546771E-02  0.1141680E+00
         21   -1    0    0  502  501  0.00000000000E+00  0.00000000000E+00  0.22572850954E+02  0.22572850954E+02  0.00000000000E+00 0. -1.
         21   -1    0    0  501  502 -0.00000000000E+00 -0.00000000000E+00 -0.19509987555E+04  0.19509987555E+04  0.00000000000E+00 0. -1.
         25    1    1    2    0    0  0.15255736937E+03  0.34850662394E+02 -0.12588532010E+04  0.12746861187E+04  0.12500000000E+03 0.  0.
         25    1    1    2    0    0 -0.15255736937E+03 -0.34850662394E+02 -0.66957270359E+03  0.69888548777E+03  0.12500000000E+03 0.  0.
</event>
<event>
 4    0  0.2188063E-002  0.1915128E+03  0.7546771E-02  0.1157104E+00
         21   -1    0    0  502  501  0.00000000000E+00  0.00000000000E+00  0.15043074819E+04  0.15043074819E+04  0.00000000000E+00 0. -1.
         21   -1    0    0  501  502 -0.00000000000E+00 -0.00000000000E+00 -0.24381409700E+02  0.24381409700E+02  0.00000000000E+00 0. -1.
         25    1    1    2    0    0 -0.10825851878E+03 -0.64222085734E+02  0.10279790426E+04  0.10431731856E+04  0.12500000000E+03 0.  0.
         25    1    1    2    0    0  0.10825851878E+03  0.64222085734E+02  0.45194702961E+03  0.48551570599E+03  0.12500000000E+03 0.  0.
</event>
<event>
 4    0  0.2188063E-002  0.2166491E+03  0.7546771E-02  0.1136406E+00
         21   -1    0    0  502  501  0.00000000000E+00  0.00000000000E+00  0.13863005583E+04  0.13863005583E+04  0.00000000000E+00 0.  1.
         21   -1    0    0  501  502 -0.00000000000E+00 -0.00000000000E+00 -0.33857623131E+02  0.33857623131E+02  0.00000000000E+00 0.  1.
         25    1    1    2    0    0  0.16262574266E+02 -0.17030697705E+03  0.82436195933E+03  0.85115602433E+03  0.12500000000E+03 0.  0.
         25    1    1    2    0    0 -0.16262574266E+02  0.17030697705E+03  0.52808097587E+03  0.56900215714E+03  0.12500000000E+03 0.  0.
</event>
<event>
 4    0  0.2188063E-002  0.2431217E+03  0.7546771E-02  0.1117731E+00
         21   -1    0    0  502  501  0.00000000000E+00  0.00000000000E+00  0.11497514427E+04  0.11497514427E+04  0.00000000000E+00 0.  1.
         21   -1    0    0  501  502 -0.00000000000E+00 -0.00000000000E+00 -0.51409504661E+02  0.51409504661E+02  0.00000000000E+00 0.  1.
         25    1    1    2    0    0  0.15289480503E+03 -0.86283626861E+02  0.82713558920E+03  0.85475140749E+03  0.12500000000E+03 0.  0.
         25    1    1    2    0    0 -0.15289480503E+03  0.86283626861E+02  0.27120634885E+03  0.34640953989E+03  0.12500000000E+03 0.  0.
</event>
<event>
 4    0  0.2188063E-002  0.1800137E+03  0.7546771E-02  0.1167790E+00
         21   -1    0    0  502  501  0.00000000000E+00  0.00000000000E+00  0.13528659505E+03  0.13528659505E+03  0.00000000000E+00 0. -1.
         21   -1    0    0  501  502 -0.00000000000E+00 -0.00000000000E+00 -0.23952803859E+03  0.23952803859E+03  0.00000000000E+00 0. -1.
         25    1    1    2    0    0  0.51030919086E+02 -0.11387100136E+03 -0.88322109597E+02  0.19747545340E+03  0.12500000000E+03 0.  0.
         25    1    1    2    0    0 -0.51030919086E+02  0.11387100136E+03 -0.15919333934E+02  0.17733918024E+03  0.12500000000E+03 0.  0.
</event>
<event>
 4    0  0.2188063E-002  0.2394144E+03  0.7546771E-02  0.1120184E+00
         21   -1    0    0  502  501  0.00000000000E+00  0.00000000000E+00  0.30051090452E+03  0.30051090452E+03  0.00000000000E+00 0. -1.
         21   -1    0    0  501  502 -0.00000000000E+00 -0.00000000000E+00 -0.19073928487E+03  0.19073928487E+03  0.00000000000E+00 0. -1.
         25    1    1    2    0    0 -0.11736733368E+03  0.13300981327E+03  0.15864056248E+03  0.26880946692E+03  0.12500000000E+03 0.  0.
         25    1    1    2    0    0  0.11736733368E+03 -0.13300981327E+03 -0.48868942835E+02  0.22244072247E+03  0.12500000000E+03 0.  0.
</event>
<event>
 4    0  0.2188063E-002  0.2136746E+03  0.7546771E-02  0.1138689E+00
         21   -1    0    0  502  501  0.00000000000E+00  0.00000000000E+00  0.43579859174E+02  0.43579859174E+02  0.00000000000E+00 0.  1.
         21   -1    0    0  501  502 -0.00000000000E+00 -0.00000000000E+00 -0.10476594023E+04  0.10476594023E+04  0.00000000000E+00 0.  1.
         25    1    1    2    0    0  0.94685594487E+02 -0.76353593934E+02 -0.18684334783E+03  0.25559864972E+03  0.12500000000E+03 0.  0.
         25    1    1    2    0    0 -0.94685594487E+02  0.76353593934E+02 -0.81723619527E+03  0.83564061173E+03  0.12500000000E+03 0.  0.
</event>
<event>
 4    0  0.2188063E-002  0.2412743E+03  0.7546771E-02  0.1118947E+00
         21   -1    0    0  502  501  0.00000000000E+00  0.00000000000E+00  0.12528114345E+04  0.12528114345E+04  0.00000000000E+00 0.  1.
         21   -1    0    0  501  502 -0.00000000000E+00 -0.00000000000E+00 -0.46466114365E+02  0.46466114365E+02  0.00000000000E+00 0.  1.
         25    1    1    2    0    0  0.44296253294E+02 -0.17626068916E+02  0.11437982814E+04  0.11515955648E+04  0.12500000000E+03 0.  0.
         25    1    1    2    0    0 -0.44296253294E+02  0.17626068916E+02  0.62547038747E+02  0.14768198406E+03  0.12500000000E+03 0.  0.
</event>
<event>
 4    0  0.2188063E-002  0.3254678E+03  0.7546771E-02  0.1073160E+00
         21   -1    0    0  502  501  0.00000000000E+00  0.00000000000E+00  0.27980114997E+03  0.27980114997E+03  0.00000000000E+00 0. -1.
         21   -1    0    0  501  502 -0.00000000000E+00 -0.00000000000E+00 -0.37858776652E+03  0.37858776652E+03  0.00000000000E+00 0. -1.
         25    1    1    2    0    0 -0.23877553475E+03 -0.18188044199E+03 -0.34734563414E+02  0.32699501689E+03  0.12500000000E+03 0.  0.
         25    1    1    2    0    0  0.23877553475E+03  0.18188044199E+03 -0.64052053135E+02  0.33139389959E+03  0.12500000000E+03 0.  0.
</event>
<event>
 4    0  0.2188063E-002  0.1992507E+03  0.7546771E-02  0.1150373E+00
         21   -1    0    0  502  501  0.00000000000E+00  0.00000000000E+00  0.13751691531E+03  0.13751691531E+03  0.00000000000E+00 0. -1.
         21   -1    0    0  501  502 -0.00000000000E+00 -0.00000000000E+00 -0.28869792555E+03  0.28869792555E+03  0.00000000000E+00 0.  1.
         25    1    1    2    0    0 -0.10809190456E+03  0.11013621098E+03 -0.92902699637E+02  0.21924816168E+03  0.12500000000E+03 0.  0.
         25    1    1    2    0    0  0.10809190456E+03 -0.11013621098E+03 -0.58278310604E+02  0.20696667917E+03  0.12500000000E+03 0.  0.
</event>
<event>
 4    0  0.2188063E-002  0.1867938E+03  0.7546771E-02  0.1161385E+00
         21   -1    0    0  502  501  0.00000000000E+00  0.00000000000E+00  0.38325812605E+02  0.38325812605E+02  0.00000000000E+00 0.  1.
         21   -1    0    0  501  502 -0.00000000000E+00 -0.00000000000E+00 -0.91040297713E+03  0.91040297713E+03  0.00000000000E+00 0.  1.
         25    1    1    2    0    0 -0.91700608391E+02  0.43764752813E+01 -0.70042536483E+03  0.71739030298E+03  0.12500000000E+03 0.  0.
         25    1    1    2    0    0  0.91700608391E+02 -0.43764752813E+01 -0.17165179970E+03  0.23133848676E+03  0.12500000000E+03 0.  0.
</event>
<event>
 4    0  0.2188063E-002  0.2231862E+03  0.7546771E-02  0.1131530E+00
         21   -1    0    0  502  501  0.00000000000E+00  0.00000000000E+00  0.56000349713E+03  0.56000349713E+03  0.00000000000E+00 0. -1.
         21   -1    0    0  501  502 -0.00000000000E+00 -0.00000000000E+00 -0.88949586300E+02  0.88949586300E+02  0.00000000000E+00 0. -1.
         25    1    1    2    0    0 -0.98258987983E+01  0.70570810349E+01 -0.32708012448E+02  0.12977351332E+03  0.12500000000E+03 0.  0.
         25    1    1    2    0    0  0.98258987983E+01 -0.70570810349E+01  0.50376192328E+03  0.51917957012E+03  0.12500000000E+03 0.  0.
</event>
<event>
 4    0  0.2188063E-002  0.1795184E+03  0.7546771E-02  0.1168270E+00
         21   -1    0    0  502  501  0.00000000000E+00  0.00000000000E+00  0.10610741049E+03  0.10610741049E+03  0.00000000000E+00 0.  1.
         21   -1    0    0  501  502 -0.00000000000E+00 -0.00000000000E+00 -0.30371909769E+03  0.30371909769E+03  0.00000000000E+00 0.  1.
         25    1    1    2    0    0 -0.24549574126E+02  0.12059307849E+03 -0.55243360243E+02  0.18390813201E+03  0.12500000000E+03 0.  0.
         25    1    1    2    0    0  0.24549574126E+02 -0.12059307849E+03 -0.14236832695E+03  0.22591837616E+03  0.12500000000E+03 0.  0.
</event>
<event>
 4    0  0.2188063E-002  0.1918519E+03  0.7546771E-02  0.1156802E+00
         21   -1    0    0  502  501  0.00000000000E+00  0.00000000000E+00  0.14198740114E+04  0.14198740114E+04  0.00000000000E+00 0.  1.
         21   -1    0    0  501  502 -0.00000000000E+00 -0.00000000000E+00 -0.25922842420E+02  0.25922842420E+02  0.00000000000E+00 0.  1.
         25    1    1    2    0    0  0.34574981274E+02 -0.14526854163E+01  0.12296466755E+04  0.12364681501E+04  0.12500000000E+03 0.  0.
         25    1    1    2    0    0 -0.34574981274E+02  0.14526854163E+01  0.16430449346E+03  0.20932870371E+03  0.12500000000E+03 0.  0.
</event>
<event>
 4    0  0.2188063E-002  0.2136725E+03  0.7546771E-02  0.1138690E+00
         21   -1    0    0  502  501  0.00000000000E+00  0.00000000000E+00  0.15578102032E+03  0.15578102032E+03  0.00000000000E+00 0.  1.
         21   -1    0    0  501  502 -0.00000000000E+00 -0.00000000000E+00 -0.29307777743E+03  0.29307777743E+03  0.00000000000E+00 0.  1.
         25    1    1    2    0    0  0.16274201203E+03 -0.51994843337E+01 -0.13095555579E+03  0.24348789438E+03  0.12500000000E+03 0.  0.
         25    1    1    2    0    0 -0.16274201203E+03  0.51994843337E+01 -0.63412013162E+01  0.20537090337E+03  0.12500000000E+03 0.  0.
</event>
<event>
 4    0  0.2188063E-002  0.2125875E+03  0.7546771E-02  0.1139533E+00
         21   -1    0    0  502  501  0.00000000000E+00  0.00000000000E+00  0.49296337673E+02  0.49296337673E+02  0.00000000000E+00 0.  1.
         21   -1    0    0  501  502 -0.00000000000E+00 -0.00000000000E+00 -0.91677049113E+03  0.91677049113E+03  0.00000000000E+00 0.  1.
         25    1    1    2    0    0  0.62919042094E+02 -0.96458612513E+02 -0.14359901733E+03  0.22250561243E+03  0.12500000000E+03 0.  0.
         25    1    1    2    0    0 -0.62919042094E+02  0.96458612513E+02 -0.72387513613E+03  0.74356121638E+03  0.12500000000E+03 0.  0.
</event>
<event>
 4    0  0.2188063E-002  0.1888527E+03  0.7546771E-02  0.1159500E+00
         21   -1    0    0  502  501  0.00000000000E+00  0.00000000000E+00  0.18484526909E+03  0.18484526909E+03  0.00000000000E+00 0. -1.
         21   -1    0    0  501  502 -0.00000000000E+00 -0.00000000000E+00 -0.19294691116E+03  0.19294691116E+03  0.00000000000E+00 0. -1.
         25    1    1    2    0    0 -0.45368197113E+02  0.13387036562E+03  0.37468436978E+01  0.18872887150E+03  0.12500000000E+03 0.  0.
         25    1    1    2    0    0  0.45368197113E+02 -0.13387036562E+03 -0.11848485766E+02  0.18906330875E+03  0.12500000000E+03 0.  0.
</event>
<event>
 4    0  0.2188063E-002  0.2206776E+03  0.7546771E-02  0.1133379E+00
         21   -1    0    0  502  501  0.00000000000E+00  0.00000000000E+00  0.11888013589E+03  0.11888013589E+03  0.00000000000E+00 0. -1.
         21   -1    0    0  501  502 -0.00000000000E+00 -0.00000000000E+00 -0.40964469705E+03  0.40964469705E+03  0.00000000000E+00 0. -1.
         25    1    1    2    0    0  0.14104046176E+03  0.61289153538E+02 -0.29126596349E+02  0.20030509432E+03  0.12500000000E+03 0.  0.
         25    1    1    2    0    0 -0.14104046176E+03 -0.61289153538E+02 -0.26163796480E+03  0.32821973862E+03  0.12500000000E+03 0.  0.
</event>
<event>
 4    0  0.2188063E-002  0.1880490E+03  0.7546771E-02  0.1160233E+00
         21   -1    0    0  502  501  0.00000000000E+00  0.00000000000E+00  0.18818063502E+04  0.18818063502E+04  0.00000000000E+00 0. -1.
         21   -1    0    0  501  502 -0.00000000000E+00 -0.00000000000E+00 -0.18791747881E+02  0.18791747881E+02  0.00000000000E+00 0. -1.
         25    1    1    2    0    0  0.12344201092E+03  0.66334471015E+02  0.88116546046E+03  0.90095269621E+03  0.12500000000E+03 0.  0.
         25    1    1    2    0    0 -0.12344201092E+03 -0.66334471015E+02  0.98184914182E+03  0.99964540183E+03  0.12500000000E+03 0.  0.
</event>
<event>
 4    0  0.2188063E-002  0.2515654E+03  0.7546771E-02  0.1112319E+00
         21   -1    0    0  502  501  0.00000000000E+00  0.00000000000E+00  0.39246473238E+03  0.39246473238E+03  0.00000000000E+00 0. -1.
         21   -1    0    0  501  502 -0.00000000000E+00 -0.00000000000E+00 -0.16125058936E+03  0.16125058936E+03  0.00000000000E+00 0. -1.
         25    1    1    2    0    0 -0.14352140139E+03 -0.15125081026E+03  0.18680243334E+03  0.30658660989E+03  0.12500000000E+03 0.  0.
         25    1    1    2    0    0  0.14352140139E+03  0.15125081026E+03  0.44411709682E+02  0.24712871185E+03  0.12500000000E+03 0.  0.
</event>
<event>
 4    0  0.2188063E-002  0.2763227E+03  0.7546771E-02  0.1097715E+00
         21   -1    0    0  502  501  0.00000000000E+00  0.00000000000E+00  0.82266332059E+02  0.82266332059E+02  0.00000000000E+00 0. -1.
         21   -1    0    0  501  502 -0.00000000000E+00 -0.00000000000E+00 -0.92813469686E+03  0.92813469686E+03  0.00000000000E+00 0. -1.
         25    1    1    2    0    0  0.22517281399E+03 -0.94164334457E+02 -0.36067747181E+03  0.45308162258E+03  0.12500000000E+03 0.  0.
         25    1    1    2    0    0 -0.22517281399E+03  0.94164334457E+02 -0.48519089298E+03  0.55731940634E+03  0.12500000000E+03 0.  0.
</event>
<event>
 4    0  0.2188063E-002  0.1902817E+03  0.7546771E-02  0.1158207E+00
         21   -1    0    0  502  501  0.00000000000E+00  0.00000000000E+00  0.44212174042E+03  0.44212174042E+03  0.00000000000E+00 0.  1.
         21   -1    0    0  501  502 -0.00000000000E+00 -0.00000000000E+00 -0.81894059780E+02  0.81894059780E+02  0.00000000000E+00 0.  1.
         25    1    1    2    0    0 -0.13152923006E+03 -0.56547731640E+02  0.16745192075E+03  0.25330363218E+03  0.12500000000E+03 0.  0.
         25    1    1    2    0    0  0.13152923006E+03  0.56547731640E+02  0.19277575989E+03  0.27071216802E+03  0.12500000000E+03 0.  0.
</event>
<event>
 4    0  0.2188063E-002  0.2186053E+03  0.7546771E-02  0.1134927E+00
         21   -1    0    0  502  501  0.00000000000E+00  0.00000000000E+00  0.50014676898E+02  0.50014676898E+02  0.00000000000E+00 0.  1.
         21   -1    0    0  501  502 -0.00000000000E+00 -0.00000000000E+00 -0.95548472103E+03  0.95548472103E+03  0.00000000000E+00 0.  1.
         25    1    1    2    0    0 -0.17528436473E+03 -0.36758997771E+02 -0.43123126150E+03  0.48338518113E+03  0.12500000000E+03 0.  0.
         25    1    1    2    0    0  0.17528436473E+03  0.36758997771E+02 -0.47423878263E+03  0.52211421680E+03  0.12500000000E+03 0.  0.
</event>
<event>
 4    0  0.2188063E-002  0.1699617E+03  0.7546771E-02  0.1177888E+00
         21   -1    0    0  502  501  0.00000000000E+00  0.00000000000E+00  0.32196665677E+02  0.32196665677E+02  0.00000000000E+00 0.  1.
         21   -1    0    0  501  502 -0.00000000000E+00 -0.00000000000E+00 -0.89720425500E+03  0.89720425500E+03  0.00000000000E+00 0.  1.
         25    1    1    2    0    0  0.32538904176E+02  0.39214631190E+02 -0.15013875211E+03  0.20189901553E+03  0.12500000000E+03 0.  0.
         25    1    1    2    0    0 -0.32538904176E+02 -0.39214631190E+02 -0.71486883721E+03  0.72750190515E+03  0.12500000000E+03 0.  0.
</event>
<event>
 4    0  0.2188063E-002  0.1814622E+03  0.7546771E-02  0.1166395E+00
         21   -1    0    0  502  501  0.00000000000E+00  0.00000000000E+00  0.17041787008E+04  0.17041787008E+04  0.00000000000E+00 0. -1.
         21   -1    0    0  501  502 -0.00000000000E+00 -0.00000000000E+00 -0.19322227400E+02  0.19322227400E+02  0.00000000000E+00 0. -1.
         25    1    1    2    0    0 -0.54084127683E+02 -0.77878540408E+02  0.40943224129E+03  0.43846313429E+03  0.12500000000E+03 0.  0.
         25    1    1    2    0    0  0.54084127683E+02  0.77878540408E+02  0.12754242321E+04  0.12850377939E+04  0.12500000000E+03 0.  0.
</event>
<event>
 4    0  0.2188063E-002  0.4378140E+03  0.7546771E-02  0.1031420E+00
         21   -1    0    0  502  501  0.00000000000E+00  0.00000000000E+00  0.22505361252E+03  0.22505361252E+03  0.00000000000E+00 0.  1.
         21   -1    0    0  501  502 -0.00000000000E+00 -0.00000000000E+00 -0.85171307233E+03  0.85171307233E+03  0.00000000000E+00 0.  1.
         25    1    1    2    0    0 -0.22529060055E+03 -0.35339179619E+03 -0.33836530995E+03  0.55295361405E+03  0.12500000000E+03 0.  0.
         25    1    1    2    0    0  0.22529060055E+03  0.35339179619E+03 -0.28829414986E+03  0.52381307081E+03  0.12500000000E+03 0.  0.
</event>
<event>
 4    0  0.2188063E-002  0.2240094E+03  0.7546771E-02  0.1130929E+00
         21   -1    0    0  502  501  0.00000000000E+00  0.00000000000E+00  0.31673918536E+02  0.31673918536E+02  0.00000000000E+00 0.  1.
         21   -1    0    0  501  502 -0.00000000000E+00 -0.00000000000E+00 -0.15842759616E+04  0.15842759616E+04  0.00000000000E+00 0.  1.
         25    1    1    2    0    0  0.24583071892E+02 -0.14496472071E+03 -0.36606502634E+03  0.41382085639E+03  0.12500000000E+03 0.  0.
         25    1    1    2    0    0 -0.24583071892E+02  0.14496472071E+03 -0.11865370167E+04  0.12021290237E+04  0.12500000000E+03 0.  0.
</event>
<event>
 4    0  0.2188063E-002  0.1913153E+03  0.7546771E-02  0.1157280E+00
         21   -1    0    0  502  501  0.00000000000E+00  0.00000000000E+00  0.28558198286E+02  0.28558198286E+02  0.00000000000E+00 0.  1.
         21   -1    0    0  501  502 -0.00000000000E+00 -0.00000000000E+00 -0.12816480551E+04  0.12816480551E+04  0.00000000000E+00 0.  1.
         25    1    1    2    0    0  0.13919279117E+03 -0.37585295109E+02 -0.57943604642E+03  0.61004788289E+03  0.12500000000E+03 0.  0.
         25    1    1    2    0    0 -0.13919279117E+03  0.37585295109E+02 -0.67365381038E+03  0.70015837048E+03  0.12500000000E+03 0.  0.
</event>
<event>
 4    0  0.2188063E-002  0.2861587E+03  0.7546771E-02  0.1092372E+00
         21   -1    0    0  502  501  0.00000000000E+00  0.00000000000E+00  0.79251233893E+03  0.79251233893E+03  0.00000000000E+00 0.  1.
         21   -1    0    0  501  502 -0.00000000000E+00 -0.00000000000E+00 -0.10332556864E+03  0.10332556864E+03  0.00000000000E+00 0.  1.
         25    1    1    2    0    0 -0.72686632536E+02 -0.50039462413E+02  0.72310198993E+03  0.73911351103E+03  0.12500000000E+03 0.  0.
         25    1    1    2    0    0  0.72686632536E+02  0.50039462413E+02 -0.33915219638E+02  0.15672439654E+03  0.12500000000E+03 0.  0.
</event>
<event>
 4    0  0.2188063E-002  0.2549901E+03  0.7546771E-02  0.1110191E+00
         21   -1    0    0  502  501  0.00000000000E+00  0.00000000000E+00  0.13718741883E+03  0.13718741883E+03  0.00000000000E+00 0. -1.
         21   -1    0    0  501  502 -0.00000000000E+00 -0.00000000000E+00 -0.47394984297E+03  0.47394984297E+03  0.00000000000E+00 0. -1.
         25    1    1    2    0    0 -0.77583778787E+02 -0.89157774608E+02 -0.39393503691E+03  0.42985830783E+03  0.12500000000E+03 0.  0.
         25    1    1    2    0    0  0.77583778787E+02  0.89157774608E+02  0.57172612773E+02  0.18127895398E+03  0.12500000000E+03 0.  0.
</event>
<event>
 4    0  0.2188063E-002  0.2724486E+03  0.7546771E-02  0.1099886E+00
         21   -1    0    0  502  501  0.00000000000E+00  0.00000000000E+00  0.55208525961E+03  0.55208525961E+03  0.00000000000E+00 0.  1.
         21   -1    0    0  501  502 -0.00000000000E+00 -0.00000000000E+00 -0.13445065861E+03  0.13445065861E+03  0.00000000000E+00 0.  1.
         25    1    1    2    0    0  0.11156189187E+03  0.12656768273E+03 -0.99107317628E+01  0.21021098124E+03  0.12500000000E+03 0.  0.
         25    1    1    2    0    0 -0.11156189187E+03 -0.12656768273E+03  0.42754533276E+03  0.47632493699E+03  0.12500000000E+03 0.  0.
</event>
<event>
 4    0  0.2188063E-002  0.2543945E+03  0.7546771E-02  0.1110559E+00
         21   -1    0    0  502  501  0.00000000000E+00  0.00000000000E+00  0.11683985060E+03  0.11683985060E+03  0.00000000000E+00 0. -1.
         21   -1    0    0  501  502 -0.00000000000E+00 -0.00000000000E+00 -0.55389108528E+03  0.55389108528E+03  0.00000000000E+00 0. -1.
         25    1    1    2    0    0  0.21205450605E+03 -0.31521649850E+02 -0.29228885396E+03  0.38342991810E+03  0.12500000000E+03 0.  0.
         25    1    1    2    0    0 -0.21205450605E+03  0.31521649850E+02 -0.14476238072E+03  0.28730101778E+03  0.12500000000E+03 0.  0.
</event>
<event>
 4    0  0.2188063E-002  0.2809559E+03  0.7546771E-02  0.1095168E+00
         21   -1    0    0  502  501  0.00000000000E+00  0.00000000000E+00  0.93708369863E+02  0.93708369863E+02  0.00000000000E+00 0.  1.
         21   -1    0    0  501  502 -0.00000000000E+00 -0.00000000000E+00 -0.84236064789E+03  0.84236064789E+03  0.00000000000E+00 0.  1.
         25    1    1    2    0    0  0.19070923625E+02 -0.77097860267E+02  0.23405618134E+02  0.14993532988E+03  0.12500000000E+03 0.  0.
         25    1    1    2    0    0 -0.19070923625E+02  0.77097860267E+02 -0.77205789616E+03  0.78613368788E+03  0.12500000000E+03 0.  0.
</event>
<event>
 4    0  0.2188063E-002  0.2008837E+03  0.7546771E-02  0.1148996E+00
         21   -1    0    0  502  501  0.00000000000E+00  0.00000000000E+00  0.85469144049E+02  0.85469144049E+02  0.00000000000E+00 0. -1.
         21   -1    0    0  501  502 -0.00000000000E+00 -0.00000000000E+00 -0.47214994899E+03  0.47214994899E+03  0.00000000000E+00 0. -1.
         25    1    1    2    0    0 -0.82443238734E+02  0.79096270991E+02 -0.43367527802E+02  0.17481089830E+03  0.12500000000E+03 0.  0.
         25    1    1    2    0    0  0.82443238734E+02 -0.79096270991E+02 -0.34331327714E+03  0.38280819474E+03  0.12500000000E+03 0.  0.
</event>
<event>
 4    0  0.2188063E-002  0.2049880E+03  0.7546771E-02  0.1145598E+00
         21   -1    0    0  502  501  0.00000000000E+00  0.00000000000E+00  0.14922392737E+03  0.14922392737E+03  0.00000000000E+00 0. -1.
         21   -1    0    0  501  502 -0.00000000000E+00 -0.00000000000E+00 -0.28159076664E+03  0.28159076664E+03  0.00000000000E+00 0. -1.
         25    1    1    2    0    0  0.93283292829E+02  0.76532493144E+02  0.48140237656E+02  0.18028166216E+03  0.12500000000E+03 0.  0.
         25    1    1    2    0    0 -0.93283292829E+02 -0.76532493144E+02 -0.18050707693E+03  0.25053303185E+03  0.12500000000E+03 0.  0.
</event>
<event>
 4    0  0.2188063E-002  0.1858659E+03  0.7546771E-02  0.1162244E+00
         21   -1    0    0  502  501  0.00000000000E+00  0.00000000000E+00  0.42380033427E+03  0.42380033427E+03  0.00000000000E+00 0.  1.
         21   -1    0    0  501  502 -0.00000000000E+00 -0.00000000000E+00 -0.81515070690E+02  0.81515070690E+02  0.00000000000E+00 0.  1.
         25    1    1    2    0    0 -0.72427707670E+02  0.11336569645E+03  0.21015305173E+03  0.27908217270E+03  0.12500000000E+03 0.  0.
         25    1    1    2    0    0  0.72427707670E+02 -0.11336569645E+03  0.13213221186E+03  0.22623323226E+03  0.12500000000E+03 0.  0.
</event>
<event>
 4    0  0.2188063E-002  0.4842448E+03  0.7546771E-02  0.1017975E+00
         21   -1    0    0  502  501  0.00000000000E+00  0.00000000000E+00  0.39321941993E+03  0.39321941993E+03  0.00000000000E+00 0.  1.
         21   -1    0    0  501  502 -0.00000000000E+00 -0.00000000000E+00 -0.59634149530E+03  0.59634149530E+03  0.00000000000E+00 0.  1.
         25    1    1    2    0    0 -0.37167163401E+03  0.23127443118E+03  0.67076483895E+02  0.46016510161E+03  0.12500000000E+03 0.  0.
         25    1    1    2    0    0  0.37167163401E+03 -0.23127443118E+03 -0.27019855927E+03  0.52939581362E+03  0.12500000000E+03 0.  0.
</event>
<event>
 4    0  0.2188063E-002  0.2535677E+03  0.7546771E-02  0.1111071E+00
         21   -1    0    0  502  501  0.00000000000E+00  0.00000000000E+00  0.14213810006E+03  0.14213810006E+03  0.00000000000E+00 0.  1.
         21   -1    0    0  501  502 -0.00000000000E+00 -0.00000000000E+00 -0.45235271956E+03  0.45235271956E+03  0.00000000000E+00 0.  1.
         25    1    1    2    0    0  0.12089079499E+03  0.18173645108E+03 -0.11750677799E+03  0.27762486351E+03  0.12500000000E+03 0.  0.
         25    1    1    2    0    0 -0.12089079499E+03 -0.18173645108E+03 -0.19270784151E+03  0.31686595611E+03  0.12500000000E+03 0.  0.
</event>
<event>
 4    0  0.2188063E-002  0.1847707E+03  0.7546771E-02  0.1163264E+00
         21   -1    0    0  502  501  0.00000000000E+00  0.00000000000E+00  0.21523200885E+03  0.21523200885E+03  0.00000000000E+00 0. -1.
         21   -1    0    0  501  502 -0.00000000000E+00 -0.00000000000E+00 -0.15862053283E+03  0.15862053283E+03  0.00000000000E+00 0. -1.
         25    1    1    2    0    0 -0.27934621209E+02 -0.35909259549E+02  0.15804140938E+03  0.20657179154E+03  0.12500000000E+03 0.  0.
         25    1    1    2    0    0  0.27934621209E+02  0.35909259549E+02 -0.10142993336E+03  0.16728075013E+03  0.12500000000E+03 0.  0.
</event>
<event>
 4    0  0.2188063E-002  0.2073699E+03  0.7546771E-02  0.1143666E+00
         21   -1    0    0  502  501  0.00000000000E+00  0.00000000000E+00  0.21295219807E+03  0.21295219807E+03  0.00000000000E+00 0. -1.
         21   -1    0    0  501  502 -0.00000000000E+00 -0.00000000000E+00 -0.20193385933E+03  0.20193385933E+03  0.00000000000E+00 0. -1.
         25    1    1    2    0    0 -0.67548279311E-01 -0.16206733845E+03 -0.27840746709E+02  0.20655733812E+03  0.12500000000E+03 0.  0.
         25    1    1    2    0    0  0.67548279311E-01  0.16206733845E+03  0.38859085447E+02  0.20832871928E+03  0.12500000000E+03 0.  0.
</event>
<event>
 4    0  0.2188063E-002  0.1484703E+03  0.7546771E-02  0.1202365E+00
         21   -1    0    0  502  501  0.00000000000E+00  0.00000000000E+00  0.52352776732E+02  0.52352776732E+02  0.00000000000E+00 0.  1.
         21   -1    0    0  501  502 -0.00000000000E+00 -0.00000000000E+00 -0.42105586721E+03  0.42105586721E+03  0.00000000000E+00 0.  1.
         25    1    1    2    0    0  0.48158560609E+02  0.36228538140E+02 -0.10019056501E+03  0.17115753928E+03  0.12500000000E+03 0.  0.
         25    1    1    2    0    0 -0.48158560609E+02 -0.36228538140E+02 -0.26851252547E+03  0.30225110466E+03  0.12500000000E+03 0.  0.
</event>
<event>
 4    0  0.2188063E-002  0.2527558E+03  0.7546771E-02  0.1111576E+00
         21   -1    0    0  502  501  0.00000000000E+00  0.00000000000E+00  0.14888516441E+04  0.14888516441E+04  0.00000000000E+00 0.  1.
         21   -1    0    0  501  502 -0.00000000000E+00 -0.00000000000E+00 -0.42909224982E+02  0.42909224982E+02  0.00000000000E+00 0.  1.
         25    1    1    2    0    0  0.13246719286E+03  0.90171739192E+02  0.11783164952E+04  0.11957145406E+04  0.12500000000E+03 0.  0.
         25    1    1    2    0    0 -0.13246719286E+03 -0.90171739192E+02  0.26762592391E+03  0.33604632847E+03  0.12500000000E+03 0.  0.
</event>
<event>
 4    0  0.2188063E-002  0.2396121E+03  0.7546771E-02  0.1120051E+00
         21   -1    0    0  502  501  0.00000000000E+00  0.00000000000E+00  0.77201844652E+02  0.77201844652E+02  0.00000000000E+00 0.  1.
         21   -1    0    0  501  502 -0.00000000000E+00 -0.00000000000E+00 -0.74368665637E+03  0.74368665637E+03  0.00000000000E+00 0.  1.
         25    1    1    2    0    0  0.28020291815E+02 -0.49142620509E+02 -0.66973557230E+03  0.68364528135E+03  0.12500000000E+03 0.  0.
         25    1    1    2    0    0 -0.28020291815E+02  0.49142620509E+02  0.32507605768E+01  0.13724321968E+03  0.12500000000E+03 0.  0.
</event>
<event>
 4    0  0.2188063E-002  0.1876018E+03  0.7546771E-02  0.1160642E+00
         21   -1    0    0  502  501  0.00000000000E+00  0.00000000000E+00  0.89173809432E+02  0.89173809432E+02  0.00000000000E+00 0. -1.
         21   -1    0    0  501  502 -0.00000000000E+00 -0.00000000000E+00 -0.39467219210E+03  0.39467219210E+03  0.00000000000E+00 0. -1.
         25    1    1    2    0    0  0.63520108004E+02  0.74188324792E+02 -0.23595715072E+02  0.16037602510E+03  0.12500000000E+03 0.  0.
         25    1    1    2    0    0 -0.63520108004E+02 -0.74188324792E+02 -0.28190266759E+03  0.32346997643E+03  0.12500000000E+03 0.  0.
</event>
<event>
 4    0  0.2188063E-002  0.2477439E+03  0.7546771E-02  0.1114739E+00
         21   -1    0    0  502  501  0.00000000000E+00  0.00000000000E+00  0.36287710804E+03  0.36287710804E+03  0.00000000000E+00 0.  1.
         21   -1    0    0  501  502 -0.00000000000E+00 -0.00000000000E+00 -0.16914002617E+03  0.16914002617E+03  0.00000000000E+00 0.  1.
         25    1    1    2    0    0  0.94318232898E+02  0.13535796248E+03  0.24304625391E+03  0.31924001723E+03  0.12500000000E+03 0.  0.
         25    1    1    2    0    0 -0.94318232898E+02 -0.13535796248E+03 -0.49309172043E+02  0.21277711698E+03  0.12500000000E+03 0.  0.
</event>
<event>
 4    0  0.2188063E-002  0.1983117E+03  0.7546771E-02  0.1151171E+00
         21   -1    0    0  502  501  0.00000000000E+00  0.00000000000E+00  0.24667086091E+03  0.24667086091E+03  0.00000000000E+00 0. -1.
         21   -1    0    0  501  502 -0.00000000000E+00 -0.00000000000E+00 -0.15943323813E+03  0.15943323813E+03  0.00000000000E+00 0. -1.
         25    1    1    2    0    0 -0.32108939541E+02  0.13380080821E+03  0.11432669628E+03  0.21824122837E+03  0.12500000000E+03 0.  0.
         25    1    1    2    0    0  0.32108939541E+02 -0.13380080821E+03 -0.27089073494E+02  0.18786287068E+03  0.12500000000E+03 0.  0.
</event>
<event>
 4    0  0.2188063E-002  0.2122753E+03  0.7546771E-02  0.1139777E+00
         21   -1    0    0  502  501  0.00000000000E+00  0.00000000000E+00  0.71582247807E+02  0.71582247807E+02  0.00000000000E+00 0. -1.
         21   -1    0    0  501  502 -0.00000000000E+00 -0.00000000000E+00 -0.62949695604E+03  0.62949695604E+03  0.00000000000E+00 0. -1.
         25    1    1    2    0    0 -0.24596472720E+02  0.11290479978E+03 -0.69533788528E+02  0.18388155979E+03  0.12500000000E+03 0.  0.
         25    1    1    2    0    0  0.24596472720E+02 -0.11290479978E+03 -0.48838091970E+03  0.51719764405E+03  0.12500000000E+03 0.  0.
</event>
<event>
 4    0  0.2188063E-002  0.2289229E+03  0.7546771E-02  0.1127400E+00
         21   -1    0    0  502  501  0.00000000000E+00  0.00000000000E+00  0.26961548827E+02  0.26961548827E+02  0.00000000000E+00 0. -1.
         21   -1    0    0  501  502 -0.00000000000E+00 -0.00000000000E+00 -0.19437195090E+04  0.19437195090E+04  0.00000000000E+00 0. -1.
         25    1    1    2    0    0 -0.10992856065E+03 -0.15164663576E+03 -0.78092612330E+03  0.81274325629E+03  0.12500000000E+03 0.  0.
         25    1    1    2    0    0  0.10992856065E+03  0.15164663576E+03 -0.11358318369E+04  0.11579378015E+04  0.12500000000E+03 0.  0.
</event>
<event>
 4    0  0.2188063E-002  0.1876698E+03  0.7546771E-02  0.1160580E+00
         21   -1    0    0  502  501  0.00000000000E+00  0.00000000000E+00  0.54365435083E+03  0.54365435083E+03  0.00000000000E+00 0.  1.
         21   -1    0    0  501  502 -0.00000000000E+00 -0.00000000000E+00 -0.64783721196E+02  0.64783721196E+02  0.00000000000E+00 0.  1.
         25    1    1    2    0    0 -0.18687752910E+02  0.98312636960E+02  0.80769785277E+02  0.17934147571E+03  0.12500000000E+03 0.  0.
         25    1    1    2    0    0  0.18687752910E+02 -0.98312636960E+02  0.39810084435E+03  0.42909659632E+03  0.12500000000E+03 0.  0.
</event>
<event>
 4    0  0.2188063E-002  0.3336590E+03  0.7546771E-02  0.1069529E+00
         21   -1    0    0  502  501  0.00000000000E+00  0.00000000000E+00  0.50699332615E+03  0.50699332615E+03  0.00000000000E+00 0. -1.
         21   -1    0    0  501  502 -0.00000000000E+00 -0.00000000000E+00 -0.21958543480E+03  0.21958543480E+03  0.00000000000E+00 0. -1.
         25    1    1    2    0    0  0.13366938270E+03  0.23996136181E+03 -0.11252416022E+02  0.30199433091E+03  0.12500000000E+03 0.  0.
         25    1    1    2    0    0 -0.13366938270E+03 -0.23996136181E+03  0.29866030737E+03  0.42458443004E+03  0.12500000000E+03 0.  0.
</event>
<event>
 4    0  0.2188063E-002  0.1943643E+03  0.7546771E-02  0.1154583E+00
         21   -1    0    0  502  501  0.00000000000E+00  0.00000000000E+00  0.66150108403E+03  0.66150108403E+03  0.00000000000E+00 0. -1.
         21   -1    0    0  501  502 -0.00000000000E+00 -0.00000000000E+00 -0.57108713208E+02  0.57108713208E+02  0.00000000000E+00 0.  1.
         25    1    1    2    0    0 -0.14677092404E+03  0.24282618197E+02  0.31069298467E+03  0.36645119786E+03  0.12500000000E+03 0.  0.
         25    1    1    2    0    0  0.14677092404E+03 -0.24282618197E+02  0.29369938615E+03  0.35215859937E+03  0.12500000000E+03 0.  0.
</event>
<event>
 4    0  0.2188063E-002  0.2466553E+03  0.7546771E-02  0.1115437E+00
         21   -1    0    0  502  501  0.00000000000E+00  0.00000000000E+00  0.38321050821E+03  0.38321050821E+03  0.00000000000E+00 0. -1.
         21   -1    0    0  501  502 -0.00000000000E+00 -0.00000000000E+00 -0.15876091973E+03  0.15876091973E+03  0.00000000000E+00 0. -1.
         25    1    1    2    0    0 -0.43060981085E+02 -0.20604152246E+03  0.79146831509E+02  0.25728695655E+03  0.12500000000E+03 0.  0.
         25    1    1    2    0    0  0.43060981085E+02  0.20604152246E+03  0.14530275697E+03  0.28468447139E+03  0.12500000000E+03 0.  0.
</event>
<event>
 4    0  0.2188063E-002  0.2595956E+03  0.7546771E-02  0.1107386E+00
         21   -1    0    0  502  501  0.00000000000E+00  0.00000000000E+00  0.40106237532E+03  0.40106237532E+03  0.00000000000E+00 0. -1.
         21   -1    0    0  501  502 -0.00000000000E+00 -0.00000000000E+00 -0.16802837391E+03  0.16802837391E+03  0.00000000000E+00 0. -1.
         25    1    1    2    0    0  0.71257170656E+01  0.94254713512E+02  0.34336187118E+03  0.37743489696E+03  0.12500000000E+03 0.  0.
         25    1    1    2    0    0 -0.71257170656E+01 -0.94254713512E+02 -0.11032786977E+03  0.19165585227E+03  0.12500000000E+03 0.  0.
</event>
<event>
 4    0  0.2188063E-002  0.3258473E+03  0.7546771E-02  0.1072989E+00
         21   -1    0    0  502  501  0.00000000000E+00  0.00000000000E+00  0.13088831928E+04  0.13088831928E+04  0.00000000000E+00 0. -1.
         21   -1    0    0  501  502 -0.00000000000E+00 -0.00000000000E+00 -0.81119899681E+02  0.81119899681E+02  0.00000000000E+00 0. -1.
         25    1    1    2    0    0  0.15321985882E+03 -0.24104036035E+03  0.81594214491E+03  0.87347774116E+03  0.12500000000E+03 0.  0.
         25    1    1    2    0    0 -0.15321985882E+03  0.24104036035E+03  0.41182114821E+03  0.51652535133E+03  0.12500000000E+03 0.  0.
</event>
<event>
 4    0  0.2188063E-002  0.3068428E+03  0.7546771E-02  0.1081869E+00
         21   -1    0    0  502  501  0.00000000000E+00  0.00000000000E+00  0.21099357992E+04  0.21099357992E+04  0.00000000000E+00 0. -1.
         21   -1    0    0  501  502 -0.00000000000E+00 -0.00000000000E+00 -0.44623388629E+02  0.44623388629E+02  0.00000000000E+00 0. -1.
         25    1    1    2    0    0 -0.27734321359E+03 -0.14556234311E+02  0.90146382668E+03  0.95152150416E+03  0.12500000000E+03 0.  0.
         25    1    1    2    0    0  0.27734321359E+03  0.14556234311E+02  0.11638485839E+04  0.12030376836E+04  0.12500000000E+03 0.  0.
</event>
<event>
 4    0  0.2188063E-002  0.2658638E+03  0.7546771E-02  0.1103670E+00
         21   -1    0    0  502  501  0.00000000000E+00  0.00000000000E+00  0.32942473835E+03  0.32942473835E+03  0.00000000000E+00 0.  1.
         21   -1    0    0  501  502 -0.00000000000E+00 -0.00000000000E+00 -0.21456670686E+03  0.21456670686E+03  0.00000000000E+00 0.  1.
         25    1    1    2    0    0  0.11847620008E+03  0.18796667933E+03 -0.19746220486E+02  0.25570098894E+03  0.12500000000E+03 0.  0.
         25    1    1    2    0    0 -0.11847620008E+03 -0.18796667933E+03  0.13460425197E+03  0.28829045626E+03  0.12500000000E+03 0.  0.
</event>
<event>
 4    0  0.2188063E-002  0.2929550E+03  0.7546771E-02  0.1088816E+00
         21   -1    0    0  502  501  0.00000000000E+00  0.00000000000E+00  0.15843759437E+03  0.15843759437E+03  0.00000000000E+00 0.  1.
         21   -1    0    0  501  502 -0.00000000000E+00 -0.00000000000E+00 -0.54168111032E+03  0.54168111032E+03  0.00000000000E+00 0.  1.
         25    1    1    2    0    0  0.11974120471E+03 -0.37896832894E+02 -0.47038406965E+03  0.50265325924E+03  0.12500000000E+03 0.  0.
         25    1    1    2    0    0 -0.11974120471E+03  0.37896832894E+02  0.87140553698E+02  0.19746544545E+03  0.12500000000E+03 0.  0.
</event>
<event>
 4    0  0.2188063E-002  0.1744112E+03  0.7546771E-02  0.1173324E+00
         21   -1    0    0  502  501  0.00000000000E+00  0.00000000000E+00  0.39411807463E+02  0.39411807463E+02  0.00000000000E+00 0.  1.
         21   -1    0    0  501  502 -0.00000000000E+00 -0.00000000000E+00 -0.77183153663E+03  0.77183153663E+03  0.00000000000E+00 0.  1.
         25    1    1    2    0    0 -0.30737992901E+02  0.25725995960E+02 -0.63328287812E+03  0.64674481428E+03  0.12500000000E+03 0.  0.
         25    1    1    2    0    0  0.30737992901E+02 -0.25725995960E+02 -0.99136851049E+02  0.16449852982E+03  0.12500000000E+03 0.  0.
</event>
<event>
 4    0  0.2188063E-002  0.2267718E+03  0.7546771E-02  0.1128933E+00
         21   -1    0    0  502  501  0.00000000000E+00  0.00000000000E+00  0.19946076046E+03  0.19946076046E+03  0.00000000000E+00 0.  1.
         21   -1    0    0  501  502 -0.00000000000E+00 -0.00000000000E+00 -0.25782227993E+03  0.25782227993E+03  0.00000000000E+00 0.  1.
         25    1    1    2    0    0  0.47017280542E+02 -0.98134135553E+02  0.12688404366E+03  0.20872348638E+03  0.12500000000E+03 0.  0.
         25    1    1    2    0    0 -0.47017280542E+02  0.98134135553E+02 -0.18524556314E+03  0.24855955401E+03  0.12500000000E+03 0.  0.
</event>
<event>
 4    0  0.2188063E-002  0.1795722E+03  0.7546771E-02  0.1168218E+00
         21   -1    0    0  502  501  0.00000000000E+00  0.00000000000E+00  0.41421734060E+02  0.41421734060E+02  0.00000000000E+00 0. -1.
         21   -1    0    0  501  502 -0.00000000000E+00 -0.00000000000E+00 -0.77848416094E+03  0.77848416094E+03  0.00000000000E+00 0. -1.
         25    1    1    2    0    0 -0.64768909428E+02 -0.73147686256E+02 -0.56056411636E+03  0.58258280458E+03  0.12500000000E+03 0.  0.
         25    1    1    2    0    0  0.64768909428E+02  0.73147686256E+02 -0.17649831051E+03  0.23732309042E+03  0.12500000000E+03 0.  0.
</event>
<event>
 4    0  0.2188063E-002  0.2849918E+03  0.7546771E-02  0.1092993E+00
         21   -1    0    0  502  501  0.00000000000E+00  0.00000000000E+00  0.14370109785E+03  0.14370109785E+03  0.00000000000E+00 0. -1.
         21   -1    0    0  501  502 -0.00000000000E+00 -0.00000000000E+00 -0.56520329329E+03  0.56520329329E+03  0.00000000000E+00 0. -1.
         25    1    1    2    0    0 -0.33663376364E+02 -0.14711483749E+03  0.46611390829E+02  0.20142894547E+03  0.12500000000E+03 0.  0.
         25    1    1    2    0    0  0.33663376364E+02  0.14711483749E+03 -0.46811358627E+03  0.50747544568E+03  0.12500000000E+03 0.  0.
</event>
<event>
 4    0  0.2188063E-002  0.2022479E+03  0.7546771E-02  0.1147856E+00
         21   -1    0    0  502  501  0.00000000000E+00  0.00000000000E+00  0.36767406749E+02  0.36767406749E+02  0.00000000000E+00 0.  1.
         21   -1    0    0  501  502 -0.00000000000E+00 -0.00000000000E+00 -0.11125132403E+04  0.11125132403E+04  0.00000000000E+00 0.  1.
         25    1    1    2    0    0 -0.11839198677E+02 -0.15205012186E+03 -0.66556630379E+03  0.69416346124E+03  0.12500000000E+03 0.  0.
         25    1    1    2    0    0  0.11839198677E+02  0.15205012186E+03 -0.41017952979E+03  0.45511718583E+03  0.12500000000E+03 0.  0.
</event>
<event>
 4    0  0.2188063E-002  0.2302994E+03  0.7546771E-02  0.1126429E+00
         21   -1    0    0  502  501  0.00000000000E+00  0.00000000000E+00  0.85893996024E+02  0.85893996024E+02  0.00000000000E+00 0.  1.
         21   -1    0    0  501  502 -0.00000000000E+00 -0.00000000000E+00 -0.61747976491E+03  0.61747976491E+03  0.00000000000E+00 0.  1.
         25    1    1    2    0    0 -0.18672030869E+03  0.50429863827E+02 -0.26232413726E+03  0.34906532029E+03  0.12500000000E+03 0.  0.
         25    1    1    2    0    0  0.18672030869E+03 -0.50429863827E+02 -0.26926163163E+03  0.35430844064E+03  0.12500000000E+03 0.  0.
</event>
<event>
 4    0  0.2188063E-002  0.1903638E+03  0.7546771E-02  0.1158134E+00
         21   -1    0    0  502  501  0.00000000000E+00  0.00000000000E+00  0.73025681891E+02  0.73025681891E+02  0.00000000000E+00 0. -1.
         21   -1    0    0  501  502 -0.00000000000E+00 -0.00000000000E+00 -0.49624175913E+03  0.49624175913E+03  0.00000000000E+00 0. -1.
         25    1    1    2    0    0  0.10418005272E+03  0.96578958444E+02 -0.18051580792E+03  0.26151851848E+03  0.12500000000E+03 0.  0.
         25    1    1    2    0    0 -0.10418005272E+03 -0.96578958444E+02 -0.24270026932E+03  0.30774892254E+03  0.12500000000E+03 0.  0.
</event>
<event>
 4    0  0.2188063E-002  0.2021319E+03  0.7546771E-02  0.1147953E+00
         21   -1    0    0  502  501  0.00000000000E+00  0.00000000000E+00  0.80155641288E+03  0.80155641288E+03  0.00000000000E+00 0. -1.
         21   -1    0    0  501  502 -0.00000000000E+00 -0.00000000000E+00 -0.50972478378E+02  0.50972478378E+02  0.00000000000E+00 0. -1.
         25    1    1    2    0    0 -0.89941138330E+02  0.11975263359E+03  0.26365836498E+03  0.32797993085E+03  0.12500000000E+03 0.  0.
         25    1    1    2    0    0  0.89941138330E+02 -0.11975263359E+03  0.48692556952E+03  0.52454896041E+03  0.12500000000E+03 0.  0.
</event>
<event>
 4    0  0.2188063E-002  0.2611544E+03  0.7546771E-02  0.1106452E+00
         21   -1    0    0  502  501  0.00000000000E+00  0.00000000000E+00  0.14546920823E+03  0.14546920823E+03  0.00000000000E+00 0. -1.
         21   -1    0    0  501  502 -0.00000000000E+00 -0.00000000000E+00 -0.46883885081E+03  0.46883885081E+03  0.00000000000E+00 0. -1.
         25    1    1    2    0    0 -0.45173098638E+02 -0.63663946272E+02 -0.41525929649E+03  0.44063475830E+03  0.12500000000E+03 0.  0.
         25    1    1    2    0    0  0.45173098638E+02  0.63663946272E+02  0.91889653915E+02  0.17367330075E+03  0.12500000000E+03 0.  0.
</event>
<event>
 4    0  0.2188063E-002  0.3039191E+03  0.7546771E-02  0.1083298E+00
         21   -1    0    0  502  501  0.00000000000E+00  0.00000000000E+00  0.27302822617E+03  0.27302822617E+03  0.00000000000E+00 0.  1.
         21   -1    0    0  501  502 -0.00000000000E+00 -0.00000000000E+00 -0.33830500777E+03  0.33830500777E+03  0.00000000000E+00 0.  1.
         25    1    1    2    0    0 -0.19864947097E+03  0.15923959934E+03 -0.14245852120E+03  0.31739296239E+03  0.12500000000E+03 0.  0.
         25    1    1    2    0    0  0.19864947097E+03 -0.15923959934E+03  0.77181739601E+02  0.29394027155E+03  0.12500000000E+03 0.  0.
</event>
<event>
 4    0  0.2188063E-002  0.1902493E+03  0.7546771E-02  0.1158237E+00
         21   -1    0    0  502  501  0.00000000000E+00  0.00000000000E+00  0.54751135681E+02  0.54751135681E+02  0.00000000000E+00 0.  1.
         21   -1    0    0  501  502 -0.00000000000E+00 -0.00000000000E+00 -0.66107848637E+03  0.66107848637E+03  0.00000000000E+00 0.  1.
         25    1    1    2    0    0 -0.48812231597E+01 -0.66129244435E+02 -0.54241286226E+03  0.56056544350E+03  0.12500000000E+03 0.  0.
         25    1    1    2    0    0  0.48812231597E+01  0.66129244435E+02 -0.63914488435E+02  0.15526417855E+03  0.12500000000E+03 0.  0.
</event>
<event>
 4    0  0.2188063E-002  0.2099797E+03  0.7546771E-02  0.1141582E+00
         21   -1    0    0  502  501  0.00000000000E+00  0.00000000000E+00  0.14264620147E+03  0.14264620147E+03  0.00000000000E+00 0. -1.
         21   -1    0    0  501  502 -0.00000000000E+00 -0.00000000000E+00 -0.30909676381E+03  0.30909676381E+03  0.00000000000E+00 0. -1.
         25    1    1    2    0    0 -0.50813921954E+02 -0.13663481052E+03 -0.17459722487E+03  0.25953866194E+03  0.12500000000E+03 0.  0.
         25    1    1    2    0    0  0.50813921954E+02  0.13663481052E+03  0.81466625225E+01  0.19220430334E+03  0.12500000000E+03 0.  0.
</event>
<event>
 4    0  0.2188063E-002  0.1554002E+03  0.7546771E-02  0.1193990E+00
         21   -1    0    0  502  501  0.00000000000E+00  0.00000000000E+00  0.15034383867E+03  0.15034383867E+03  0.00000000000E+00 0. -1.
         21   -1    0    0  501  502 -0.00000000000E+00 -0.00000000000E+00 -0.16062664832E+03  0.16062664832E+03  0.00000000000E+00 0. -1.
         25    1    1    2    0    0  0.17606188364E+02 -0.88057226906E+02 -0.26604804705E+02  0.15619497019E+03  0.12500000000E+03 0.  0.
         25    1    1    2    0    0 -0.17606188364E+02  0.88057226906E+02  0.16321995050E+02  0.15477551680E+03  0.12500000000E+03 0.  0.
</event>
<event>
 4    0  0.2188063E-002  0.1626130E+03  0.7546771E-02  0.1185778E+00
         21   -1    0    0  502  501  0.00000000000E+00  0.00000000000E+00  0.15440174385E+03  0.15440174385E+03  0.00000000000E+00 0. -1.
         21   -1    0    0  501  502 -0.00000000000E+00 -0.00000000000E+00 -0.17126089586E+03  0.17126089586E+03  0.00000000000E+00 0.  1.
         25    1    1    2    0    0 -0.10140480448E+03 -0.13046027967E+02  0.10697059302E+02  0.16184115760E+03  0.12500000000E+03 0.  0.
         25    1    1    2    0    0  0.10140480448E+03  0.13046027967E+02 -0.27556211314E+02  0.16382148210E+03  0.12500000000E+03 0.  0.
</event>
<event>
 4    0  0.2188063E-002  0.3357276E+03  0.7546771E-02  0.1068630E+00
         21   -1    0    0  502  501  0.00000000000E+00  0.00000000000E+00  0.25294696228E+04  0.25294696228E+04  0.00000000000E+00 0.  1.
         21   -1    0    0  501  502 -0.00000000000E+00 -0.00000000000E+00 -0.44559949509E+02  0.44559949509E+02  0.00000000000E+00 0.  1.
         25    1    1    2    0    0 -0.19325086571E+03 -0.24277818220E+03  0.13509435287E+04  0.13917473048E+04  0.12500000000E+03 0.  0.
         25    1    1    2    0    0  0.19325086571E+03  0.24277818220E+03  0.11339661447E+04  0.11822822675E+04  0.12500000000E+03 0.  0.
</event>
<event>
 4    0  0.2188063E-002  0.2258487E+03  0.7546771E-02  0.1129596E+00
         21   -1    0    0  502  501  0.00000000000E+00  0.00000000000E+00  0.88099400082E+03  0.88099400082E+03  0.00000000000E+00 0.  1.
         21   -1    0    0  501  502 -0.00000000000E+00 -0.00000000000E+00 -0.57897804140E+02  0.57897804140E+02  0.00000000000E+00 0.  1.
         25    1    1    2    0    0  0.73591208106E+02  0.45247304030E+02  0.75886257727E+03  0.77392531656E+03  0.12500000000E+03 0.  0.
         25    1    1    2    0    0 -0.73591208106E+02 -0.45247304030E+02  0.64233619411E+02  0.16496648840E+03  0.12500000000E+03 0.  0.
</event>
<event>
 4    0  0.2188063E-002  0.2294198E+03  0.7546771E-02  0.1127049E+00
         21   -1    0    0  502  501  0.00000000000E+00  0.00000000000E+00  0.35356377089E+03  0.35356377089E+03  0.00000000000E+00 0. -1.
         21   -1    0    0  501  502 -0.00000000000E+00 -0.00000000000E+00 -0.14886547053E+03  0.14886547053E+03  0.00000000000E+00 0. -1.
         25    1    1    2    0    0  0.24910333721E+02 -0.15974850709E+03  0.21650426935E+03  0.29772337646E+03  0.12500000000E+03 0.  0.
         25    1    1    2    0    0 -0.24910333721E+02  0.15974850709E+03 -0.11805968983E+02  0.20470586496E+03  0.12500000000E+03 0.  0.
</event>
<event>
 4    0  0.2188063E-002  0.2148247E+03  0.7546771E-02  0.1137801E+00
         21   -1    0    0  502  501  0.00000000000E+00  0.00000000000E+00  0.23856354944E+02  0.23856354944E+02  0.00000000000E+00 0.  1.
         21   -1    0    0  501  502 -0.00000000000E+00 -0.00000000000E+00 -0.19344800575E+04  0.19344800575E+04  0.00000000000E+00 0.  1.
         25    1    1    2    0    0  0.17321813686E+03  0.58037565026E+01 -0.85478405914E+03  0.88108966302E+03  0.12500000000E+03 0.  0.
         25    1    1    2    0    0 -0.17321813686E+03 -0.58037565026E+01 -0.10558396434E+04  0.10772467494E+04  0.12500000000E+03 0.  0.
</event>
<event>
 4    0  0.2188063E-002  0.3940825E+03  0.7546771E-02  0.1045848E+00
         21   -1    0    0  502  501  0.00000000000E+00  0.00000000000E+00  0.46640037185E+03  0.46640037185E+03  0.00000000000E+00 0. -1.
         21   -1    0    0  501  502 -0.00000000000E+00 -0.00000000000E+00 -0.33297796875E+03  0.33297796875E+03  0.00000000000E+00 0. -1.
         25    1    1    2    0    0 -0.35267919130E+03  0.10258378720E+03  0.13675900425E+03  0.41138068819E+03  0.12500000000E+03 0.  0.
         25    1    1    2    0    0  0.35267919130E+03 -0.10258378720E+03 -0.33366011579E+01  0.38799765241E+03  0.12500000000E+03 0.  0.
</event>
<event>
 4    0  0.2188063E-002  0.3177475E+03  0.7546771E-02  0.1076691E+00
         21   -1    0    0  502  501  0.00000000000E+00  0.00000000000E+00  0.51518941284E+03  0.51518941284E+03  0.00000000000E+00 0. -1.
         21   -1    0    0  501  502 -0.00000000000E+00 -0.00000000000E+00 -0.19597349434E+03  0.19597349434E+03  0.00000000000E+00 0. -1.
         25    1    1    2    0    0 -0.32413759374E+02  0.53221885289E+02 -0.15977850358E+03  0.21222014767E+03  0.12500000000E+03 0.  0.
         25    1    1    2    0    0  0.32413759374E+02 -0.53221885289E+02  0.47899442209E+03  0.49894275951E+03  0.12500000000E+03 0.  0.
</event>
<event>
 4    0  0.2188063E-002  0.1620496E+03  0.7546771E-02  0.1186402E+00
         21   -1    0    0  502  501  0.00000000000E+00  0.00000000000E+00  0.21910741499E+03  0.21910741499E+03  0.00000000000E+00 0. -1.
         21   -1    0    0  501  502 -0.00000000000E+00 -0.00000000000E+00 -0.11985026725E+03  0.11985026725E+03  0.00000000000E+00 0. -1.
         25    1    1    2    0    0  0.49418692712E+02  0.89326894918E+02  0.64912982809E+02  0.17395458224E+03  0.12500000000E+03 0.  0.
         25    1    1    2    0    0 -0.49418692712E+02 -0.89326894918E+02  0.34344164937E+02  0.16500310000E+03  0.12500000000E+03 0.  0.
</event>
<event>
 4    0  0.2188063E-002  0.3547711E+03  0.7546771E-02  0.1060674E+00
         21   -1    0    0  502  501  0.00000000000E+00  0.00000000000E+00  0.36972194437E+03  0.36972194437E+03  0.00000000000E+00 0. -1.
         21   -1    0    0  501  502 -0.00000000000E+00 -0.00000000000E+00 -0.34042486458E+03  0.34042486458E+03  0.00000000000E+00 0. -1.
         25    1    1    2    0    0 -0.16192724405E+02 -0.30588153296E+03 -0.11356926855E+03  0.34978378363E+03  0.12500000000E+03 0.  0.
         25    1    1    2    0    0  0.16192724405E+02  0.30588153296E+03  0.14286634833E+03  0.36036302532E+03  0.12500000000E+03 0.  0.
</event>
<event>
 4    0  0.2188063E-002  0.1947900E+03  0.7546771E-02  0.1154211E+00
         21   -1    0    0  502  501  0.00000000000E+00  0.00000000000E+00  0.51430111109E+02  0.51430111109E+02  0.00000000000E+00 0. -1.
         21   -1    0    0  501  502 -0.00000000000E+00 -0.00000000000E+00 -0.73776102259E+03  0.73776102259E+03  0.00000000000E+00 0. -1.
         25    1    1    2    0    0 -0.38437058212E+02  0.13505865815E+03 -0.44645646021E+03  0.48442400792E+03  0.12500000000E+03 0.  0.
         25    1    1    2    0    0  0.38437058212E+02 -0.13505865815E+03 -0.23987445126E+03  0.30476712578E+03  0.12500000000E+03 0.  0.
</event>
<event>
 4    0  0.2188063E-002  0.2379023E+03  0.7546771E-02  0.1121198E+00
         21   -1    0    0  502  501  0.00000000000E+00  0.00000000000E+00  0.21985778502E+03  0.21985778502E+03  0.00000000000E+00 0. -1.
         21   -1    0    0  501  502 -0.00000000000E+00 -0.00000000000E+00 -0.25742773620E+03  0.25742773620E+03  0.00000000000E+00 0. -1.
         25    1    1    2    0    0  0.11203689981E+03 -0.14713748708E+03  0.63755920342E+02  0.23214548111E+03  0.12500000000E+03 0.  0.
         25    1    1    2    0    0 -0.11203689981E+03  0.14713748708E+03 -0.10132587152E+03  0.24514004011E+03  0.12500000000E+03 0.  0.
</event>
<event>
 4    0  0.2188063E-002  0.2554895E+03  0.7546771E-02  0.1109884E+00
         21   -1    0    0  502  501  0.00000000000E+00  0.00000000000E+00  0.15975697479E+04  0.15975697479E+04  0.00000000000E+00 0.  1.
         21   -1    0    0  501  502 -0.00000000000E+00 -0.00000000000E+00 -0.40858856478E+02  0.40858856478E+02  0.00000000000E+00 0.  1.
         25    1    1    2    0    0 -0.39590853923E+02  0.19472492812E+03  0.45508165013E+03  0.51206400150E+03  0.12500000000E+03 0.  0.
         25    1    1    2    0    0  0.39590853923E+02 -0.19472492812E+03  0.11016292413E+04  0.11263646029E+04  0.12500000000E+03 0.  0.
</event>
<event>
 4    0  0.2188063E-002  0.2054896E+03  0.7546771E-02  0.1145188E+00
         21   -1    0    0  502  501  0.00000000000E+00  0.00000000000E+00  0.95570829869E+02  0.95570829869E+02  0.00000000000E+00 0.  1.
         21   -1    0    0  501  502 -0.00000000000E+00 -0.00000000000E+00 -0.44182898314E+03  0.44182898314E+03  0.00000000000E+00 0.  1.
         25    1    1    2    0    0 -0.99322203649E+02 -0.81532567668E+02 -0.41790865554E+02  0.18407589786E+03  0.12500000000E+03 0.  0.
         25    1    1    2    0    0  0.99322203649E+02  0.81532567668E+02 -0.30446728771E+03  0.35332391515E+03  0.12500000000E+03 0.  0.
</event>
<event>
 4    0  0.2188063E-002  0.2895993E+03  0.7546771E-02  0.1090559E+00
         21   -1    0    0  502  501  0.00000000000E+00  0.00000000000E+00  0.70414731111E+03  0.70414731111E+03  0.00000000000E+00 0.  1.
         21   -1    0    0  501  502 -0.00000000000E+00 -0.00000000000E+00 -0.11910540895E+03  0.11910540895E+03  0.00000000000E+00 0.  1.
         25    1    1    2    0    0 -0.19083636371E+02  0.14803153294E+03 -0.12212695877E+02  0.19506837227E+03  0.12500000000E+03 0.  0.
         25    1    1    2    0    0  0.19083636371E+02 -0.14803153294E+03  0.59725459804E+03  0.62818434779E+03  0.12500000000E+03 0.  0.
</event>
<event>
 4    0  0.2188063E-002  0.2703945E+03  0.7546771E-02  0.1101054E+00
         21   -1    0    0  502  501  0.00000000000E+00  0.00000000000E+00  0.28397715597E+03  0.28397715597E+03  0.00000000000E+00 0. -1.
         21   -1    0    0  501  502 -0.00000000000E+00 -0.00000000000E+00 -0.25746142447E+03  0.25746142447E+03  0.00000000000E+00 0. -1.
         25    1    1    2    0    0  0.23813832316E+03  0.62069099453E+01  0.40489371358E+02  0.27205289170E+03  0.12500000000E+03 0.  0.
         25    1    1    2    0    0 -0.23813832316E+03 -0.62069099453E+01 -0.13973639860E+02  0.26938568874E+03  0.12500000000E+03 0.  0.
</event>
<event>
 4    0  0.2188063E-002  0.2421986E+03  0.7546771E-02  0.1118337E+00
         21   -1    0    0  502  501  0.00000000000E+00  0.00000000000E+00  0.12018422028E+04  0.12018422028E+04  0.00000000000E+00 0. -1.
         21   -1    0    0  501  502 -0.00000000000E+00 -0.00000000000E+00 -0.48808550771E+02  0.48808550771E+02  0.00000000000E+00 0. -1.
         25    1    1    2    0    0 -0.17979915416E+02 -0.47406356639E+02  0.57153050505E+02  0.14649952625E+03  0.12500000000E+03 0.  0.
         25    1    1    2    0    0  0.17979915416E+02  0.47406356639E+02  0.10958806015E+04  0.11041512273E+04  0.12500000000E+03 0.  0.
</event>
<event>
 4    0  0.2188063E-002  0.4199630E+03  0.7546771E-02  0.1037078E+00
         21   -1    0    0  502  501  0.00000000000E+00  0.00000000000E+00  0.21727457299E+03  0.21727457299E+03  0.00000000000E+00 0. -1.
         21   -1    0    0  501  502 -0.00000000000E+00 -0.00000000000E+00 -0.81173297442E+03  0.81173297442E+03  0.00000000000E+00 0. -1.
         25    1    1    2    0    0 -0.38384594171E+03  0.10490224008E+03 -0.35726928292E+03  0.54918897245E+03  0.12500000000E+03 0.  0.
         25    1    1    2    0    0  0.38384594171E+03 -0.10490224008E+03 -0.23718911851E+03  0.47981857496E+03  0.12500000000E+03 0.  0.
</event>
<event>
 4    0  0.2188063E-002  0.2051073E+03  0.7546771E-02  0.1145500E+00
         21   -1    0    0  502  501  0.00000000000E+00  0.00000000000E+00  0.70484099295E+02  0.70484099295E+02  0.00000000000E+00 0. -1.
         21   -1    0    0  501  502 -0.00000000000E+00 -0.00000000000E+00 -0.59685821423E+03  0.59685821423E+03  0.00000000000E+00 0. -1.
         25    1    1    2    0    0 -0.89092177578E+01  0.13414412087E+03 -0.41202034801E+03  0.45106516879E+03  0.12500000000E+03 0.  0.
         25    1    1    2    0    0  0.89092177578E+01 -0.13414412087E+03 -0.11435376692E+03  0.21627714473E+03  0.12500000000E+03 0.  0.
</event>
<event>
 4    0  0.2188063E-002  0.3081026E+03  0.7546771E-02  0.1081259E+00
         21   -1    0    0  502  501  0.00000000000E+00  0.00000000000E+00  0.16977431817E+03  0.16977431817E+03  0.00000000000E+00 0. -1.
         21   -1    0    0  501  502 -0.00000000000E+00 -0.00000000000E+00 -0.55913754599E+03  0.55913754599E+03  0.00000000000E+00 0. -1.
         25    1    1    2    0    0 -0.22116775535E+03  0.78739475514E+02 -0.10713850140E+02  0.26618577647E+03  0.12500000000E+03 0.  0.
         25    1    1    2    0    0  0.22116775535E+03 -0.78739475514E+02 -0.37864937768E+03  0.46272608769E+03  0.12500000000E+03 0.  0.
</event>
<event>
 4    0  0.2188063E-002  0.2092769E+03  0.7546771E-02  0.1142140E+00
         21   -1    0    0  502  501  0.00000000000E+00  0.00000000000E+00  0.23336209911E+02  0.23336209911E+02  0.00000000000E+00 0. -1.
         21   -1    0    0  501  502 -0.00000000000E+00 -0.00000000000E+00 -0.18767747352E+04  0.18767747352E+04  0.00000000000E+00 0. -1.
         25    1    1    2    0    0  0.10886077947E+03  0.68603197183E+02 -0.43746738939E+03  0.47282109170E+03  0.12500000000E+03 0.  0.
         25    1    1    2    0    0 -0.10886077947E+03 -0.68603197183E+02 -0.14159711359E+04  0.14272898535E+04  0.12500000000E+03 0.  0.
</event>
<event>
 4    0  0.2188063E-002  0.2732191E+03  0.7546771E-02  0.1099451E+00
         21   -1    0    0  502  501  0.00000000000E+00  0.00000000000E+00  0.29501437226E+03  0.29501437226E+03  0.00000000000E+00 0.  1.
         21   -1    0    0  501  502 -0.00000000000E+00 -0.00000000000E+00 -0.25303404426E+03  0.25303404426E+03  0.00000000000E+00 0. -1.
         25    1    1    2    0    0  0.23925766642E+03  0.35079515944E+02 -0.25069825394E+01  0.27222433458E+03  0.12500000000E+03 0.  0.
         25    1    1    2    0    0 -0.23925766642E+03 -0.35079515944E+02  0.44487310532E+02  0.27582408194E+03  0.12500000000E+03 0.  0.
</event>
<event>
 4    0  0.2188063E-002  0.1973262E+03  0.7546771E-02  0.1152015E+00
         21   -1    0    0  502  501  0.00000000000E+00  0.00000000000E+00  0.14003923831E+03  0.14003923831E+03  0.00000000000E+00 0. -1.
         21   -1    0    0  501  502 -0.00000000000E+00 -0.00000000000E+00 -0.27804799823E+03  0.27804799823E+03  0.00000000000E+00 0. -1.
         25    1    1    2    0    0  0.71737523766E+02 -0.13469817013E+03 -0.63950285111E+02  0.20737528377E+03  0.12500000000E+03 0.  0.
         25    1    1    2    0    0 -0.71737523766E+02  0.13469817013E+03 -0.74058474806E+02  0.21071195278E+03  0.12500000000E+03 0.  0.
</event>
<event>
 4    0  0.2188063E-002  0.2126951E+03  0.7546771E-02  0.1139449E+00
         21   -1    0    0  502  501  0.00000000000E+00  0.00000000000E+00  0.12542368969E+03  0.12542368969E+03  0.00000000000E+00 0. -1.
         21   -1    0    0  501  502 -0.00000000000E+00 -0.00000000000E+00 -0.36069116698E+03  0.36069116698E+03  0.00000000000E+00 0. -1.
         25    1    1    2    0    0  0.90787491537E+02 -0.18407778904E+02  0.48096589748E+02  0.16284807917E+03  0.12500000000E+03 0.  0.
         25    1    1    2    0    0 -0.90787491537E+02  0.18407778904E+02 -0.28336406704E+03  0.32326677750E+03  0.12500000000E+03 0.  0.
</event>
<event>
 4    0  0.2188063E-002  0.1744931E+03  0.7546771E-02  0.1173242E+00
         21   -1    0    0  502  501  0.00000000000E+00  0.00000000000E+00  0.50844744289E+02  0.50844744289E+02  0.00000000000E+00 0.  1.
         21   -1    0    0  501  502 -0.00000000000E+00 -0.00000000000E+00 -0.59883959410E+03  0.59883959410E+03  0.00000000000E+00 0.  1.
         25    1    1    2    0    0  0.23003987276E+02  0.85124709991E+02 -0.43027980034E+03  0.45666301171E+03  0.12500000000E+03 0.  0.
         25    1    1    2    0    0 -0.23003987276E+02 -0.85124709991E+02 -0.11771504947E+03  0.19302132668E+03  0.12500000000E+03 0.  0.
</event>
<event>
 4    0  0.2188063E-002  0.1664725E+03  0.7546771E-02  0.1181577E+00
         21   -1    0    0  502  501  0.00000000000E+00  0.00000000000E+00  0.72564154032E+02  0.72564154032E+02  0.00000000000E+00 0. -1.
         21   -1    0    0  501  502 -0.00000000000E+00 -0.00000000000E+00 -0.38191156842E+03  0.38191156842E+03  0.00000000000E+00 0. -1.
         25    1    1    2    0    0  0.50275132520E+02 -0.33521252184E+02 -0.28005356675E+03  0.31258001143E+03  0.12500000000E+03 0.  0.
         25    1    1    2    0    0 -0.50275132520E+02  0.33521252184E+02 -0.29293847647E+02  0.14189571103E+03  0.12500000000E+03 0.  0.
</event>
<event>
 4    0  0.2188063E-002  0.2107409E+03  0.7546771E-02  0.1140981E+00
         21   -1    0    0  502  501  0.00000000000E+00  0.00000000000E+00  0.21520012424E+03  0.21520012424E+03  0.00000000000E+00 0.  1.
         21   -1    0    0  501  502 -0.00000000000E+00 -0.00000000000E+00 -0.20637402680E+03  0.20637402680E+03  0.00000000000E+00 0.  1.
         25    1    1    2    0    0  0.98065512743E+02 -0.12979766815E+03 -0.43789183302E+02  0.20977791118E+03  0.12500000000E+03 0.  0.
         25    1    1    2    0    0 -0.98065512743E+02  0.12979766815E+03  0.52615280744E+02  0.21179623985E+03  0.12500000000E+03 0.  0.
</event>
<event>
 4    0  0.2188063E-002  0.3349250E+03  0.7546771E-02  0.1068978E+00
         21   -1    0    0  502  501  0.00000000000E+00  0.00000000000E+00  0.15524454483E+04  0.15524454483E+04  0.00000000000E+00 0. -1.
         21   -1    0    0  501  502 -0.00000000000E+00 -0.00000000000E+00 -0.72256807445E+02  0.72256807445E+02  0.00000000000E+00 0. -1.
         25    1    1    2    0    0  0.14915205747E+02  0.30869077962E+03  0.81821149782E+03  0.88351995787E+03  0.12500000000E+03 0.  0.
         25    1    1    2    0    0 -0.14915205747E+02 -0.30869077962E+03  0.66197714300E+03  0.74118229785E+03  0.12500000000E+03 0.  0.
</event>
<event>
 4    0  0.2188063E-002  0.2943457E+03  0.7546771E-02  0.1088102E+00
         21   -1    0    0  502  501  0.00000000000E+00  0.00000000000E+00  0.13711252353E+04  0.13711252353E+04  0.00000000000E+00 0.  1.
         21   -1    0    0  501  502 -0.00000000000E+00 -0.00000000000E+00 -0.63188545561E+02  0.63188545561E+02  0.00000000000E+00 0.  1.
         25    1    1    2    0    0  0.14646262346E+03  0.19813786830E+03  0.90129434805E+03  0.94269105053E+03  0.12500000000E+03 0.  0.
         25    1    1    2    0    0 -0.14646262346E+03 -0.19813786830E+03  0.40664234170E+03  0.49162273034E+03  0.12500000000E+03 0.  0.
</event>
<event>
 4    0  0.2188063E-002  0.2820118E+03  0.7546771E-02  0.1094595E+00
         21   -1    0    0  502  501  0.00000000000E+00  0.00000000000E+00  0.63931060206E+03  0.63931060206E+03  0.00000000000E+00 0.  1.
         21   -1    0    0  501  502 -0.00000000000E+00 -0.00000000000E+00 -0.12440067572E+03  0.12440067572E+03  0.00000000000E+00 0.  1.
         25    1    1    2    0    0  0.97642647308E+02  0.67095920879E+02 -0.44923153412E+02  0.17798606374E+03  0.12500000000E+03 0.  0.
         25    1    1    2    0    0 -0.97642647308E+02 -0.67095920879E+02  0.55983307976E+03  0.58572521404E+03  0.12500000000E+03 0.  0.
</event>
<event>
 4    0  0.2188063E-002  0.1397962E+03  0.7546771E-02  0.1213603E+00
         21   -1    0    0  502  501  0.00000000000E+00  0.00000000000E+00  0.13528086223E+02  0.13528086223E+02  0.00000000000E+00 0.  1.
         21   -1    0    0  501  502 -0.00000000000E+00 -0.00000000000E+00 -0.14446229586E+04  0.14446229586E+04  0.00000000000E+00 0.  1.
         25    1    1    2    0    0  0.41485494235E+02 -0.84529761486E+01 -0.95598708928E+03  0.96505378809E+03  0.12500000000E+03 0.  0.
         25    1    1    2    0    0 -0.41485494235E+02  0.84529761486E+01 -0.47510778312E+03  0.49309725675E+03  0.12500000000E+03 0.  0.
</event>
<event>
 4    0  0.2188063E-002  0.1772696E+03  0.7546771E-02  0.1170472E+00
         21   -1    0    0  502  501  0.00000000000E+00  0.00000000000E+00  0.50650998256E+03  0.50650998256E+03  0.00000000000E+00 0. -1.
         21   -1    0    0  501  502 -0.00000000000E+00 -0.00000000000E+00 -0.62041216724E+02  0.62041216724E+02  0.00000000000E+00 0. -1.
         25    1    1    2    0    0 -0.13231165473E+02  0.11052174916E+03  0.12859839402E+03  0.21107502866E+03  0.12500000000E+03 0.  0.
         25    1    1    2    0    0  0.13231165473E+02 -0.11052174916E+03  0.31587037182E+03  0.35747617063E+03  0.12500000000E+03 0.  0.
</event>
<event>
 4    0  0.2188063E-002  0.1632858E+03  0.7546771E-02  0.1185036E+00
         21   -1    0    0  502  501  0.00000000000E+00  0.00000000000E+00  0.20461295415E+03  0.20461295415E+03  0.00000000000E+00 0. -1.
         21   -1    0    0  501  502 -0.00000000000E+00 -0.00000000000E+00 -0.13030577955E+03  0.13030577955E+03  0.00000000000E+00 0. -1.
         25    1    1    2    0    0  0.13582366106E+02  0.10395260762E+03  0.44156381802E+02  0.16901305084E+03  0.12500000000E+03 0.  0.
         25    1    1    2    0    0 -0.13582366106E+02 -0.10395260762E+03  0.30150792797E+02  0.16590568286E+03  0.12500000000E+03 0.  0.
</event>
<event>
 4    0  0.2188063E-002  0.1978419E+03  0.7546771E-02  0.1151573E+00
         21   -1    0    0  502  501  0.00000000000E+00  0.00000000000E+00  0.38446762685E+03  0.38446762685E+03  0.00000000000E+00 0.  1.
         21   -1    0    0  501  502 -0.00000000000E+00 -0.00000000000E+00 -0.10180675831E+03  0.10180675831E+03  0.00000000000E+00 0.  1.
         25    1    1    2    0    0  0.12856143172E+03 -0.78635595725E+02  0.10646634688E+03  0.22287144649E+03  0.12500000000E+03 0.  0.
         25    1    1    2    0    0 -0.12856143172E+03  0.78635595725E+02  0.17619452165E+03  0.26340293867E+03  0.12500000000E+03 0.  0.
</event>
<event>
 4    0  0.2188063E-002  0.1924949E+03  0.7546771E-02  0.1156230E+00
         21   -1    0    0  502  501  0.00000000000E+00  0.00000000000E+00  0.18776455416E+04  0.18776455416E+04  0.00000000000E+00 0.  1.
         21   -1    0    0  501  502 -0.00000000000E+00 -0.00000000000E+00 -0.19734433382E+02  0.19734433382E+02  0.00000000000E+00 0.  1.
         25    1    1    2    0    0 -0.13000204860E+03 -0.52851291430E+02  0.72364329157E+03  0.74764858395E+03  0.12500000000E+03 0.  0.
         25    1    1    2    0    0  0.13000204860E+03  0.52851291430E+02  0.11342678166E+04  0.11497313910E+04  0.12500000000E+03 0.  0.
</event>
<event>
 4    0  0.2188063E-002  0.2141810E+03  0.7546771E-02  0.1138297E+00
         21   -1    0    0  502  501  0.00000000000E+00  0.00000000000E+00  0.26164324806E+03  0.26164324806E+03  0.00000000000E+00 0. -1.
         21   -1    0    0  501  502 -0.00000000000E+00 -0.00000000000E+00 -0.17532845133E+03  0.17532845133E+03  0.00000000000E+00 0. -1.
         25    1    1    2    0    0  0.33239316928E+02  0.16116991492E+03 -0.14258067463E+02  0.20714460204E+03  0.12500000000E+03 0.  0.
         25    1    1    2    0    0 -0.33239316928E+02 -0.16116991492E+03  0.10057286420E+03  0.22982709735E+03  0.12500000000E+03 0.  0.
</event>
<event>
 4    0  0.2188063E-002  0.2441898E+03  0.7546771E-02  0.1117033E+00
         21   -1    0    0  502  501  0.00000000000E+00  0.00000000000E+00  0.14577808227E+04  0.14577808227E+04  0.00000000000E+00 0.  1.
         21   -1    0    0  501  502 -0.00000000000E+00 -0.00000000000E+00 -0.40903727803E+02  0.40903727803E+02  0.00000000000E+00 0.  1.
         25    1    1    2    0    0  0.69054144760E+01 -0.13914722295E+03  0.11896850339E+04  0.12043193573E+04  0.12500000000E+03 0.  0.
         25    1    1    2    0    0 -0.69054144760E+01  0.13914722295E+03  0.22719206095E+03  0.29436519319E+03  0.12500000000E+03 0.  0.
</event>
<event>
 4    0  0.2188063E-002  0.1923729E+03  0.7546771E-02  0.1156338E+00
         21   -1    0    0  502  501  0.00000000000E+00  0.00000000000E+00  0.18363167263E+03  0.18363167263E+03  0.00000000000E+00 0.  1.
         21   -1    0    0  501  502 -0.00000000000E+00 -0.00000000000E+00 -0.20153023107E+03  0.20153023107E+03  0.00000000000E+00 0.  1.
         25    1    1    2    0    0  0.85400619062E+02 -0.11366196935E+03  0.25293333384E+02  0.19098969011E+03  0.12500000000E+03 0.  0.
         25    1    1    2    0    0 -0.85400619062E+02  0.11366196935E+03 -0.43191891827E+02  0.19417221360E+03  0.12500000000E+03 0.  0.
</event>
