<event>
 4    0  0.2222207E-002  0.2608602E+03  0.7546771E-02  0.1106627E+00
         21   -1    0    0  502  501  0.00000000000E+00  0.00000000000E+00  0.38631428773E+02  0.38631428773E+02  0.00000000000E+00 0.  1.
         21   -1    0    0  501  502 -0.00000000000E+00 -0.00000000000E+00 -0.17614686856E+04  0.17614686856E+04  0.00000000000E+00 0.  1.
         25    1    1    2    0    0 -0.17485708052E+03 -0.97176705675E+02 -0.47713430221E+03  0.53225976090E+03  0.12500000000E+03 0.  0.
         25    1    1    2    0    0  0.17485708052E+03  0.97176705675E+02 -0.12457029546E+04  0.12678403535E+04  0.12500000000E+03 0.  0.
</event>
<event>
 4    0  0.2222207E-002  0.2346326E+03  0.7546771E-02  0.1123421E+00
         21   -1    0    0  502  501  0.00000000000E+00  0.00000000000E+00  0.52347790947E+03  0.52347790947E+03  0.00000000000E+00 0.  1.
         21   -1    0    0  501  502 -0.00000000000E+00 -0.00000000000E+00 -0.10516674357E+03  0.10516674357E+03  0.00000000000E+00 0.  1.
         25    1    1    2    0    0  0.10004650098E+03  0.14335044874E+03  0.33531497863E+03  0.39827099870E+03  0.12500000000E+03 0.  0.
         25    1    1    2    0    0 -0.10004650098E+03 -0.14335044874E+03  0.82996187269E+02  0.23037365434E+03  0.12500000000E+03 0.  0.
</event>
<event>
 4    0  0.2222207E-002  0.2215805E+03  0.7546771E-02  0.1132710E+00
         21   -1    0    0  502  501  0.00000000000E+00  0.00000000000E+00  0.99951167062E+02  0.99951167062E+02  0.00000000000E+00 0.  1.
         21   -1    0    0  501  502 -0.00000000000E+00 -0.00000000000E+00 -0.49121915081E+03  0.49121915081E+03  0.00000000000E+00 0.  1.
         25    1    1    2    0    0  0.49914425130E+02  0.16127293835E+02 -0.42944850318E+03  0.45033604822E+03  0.12500000000E+03 0.  0.
         25    1    1    2    0    0 -0.49914425130E+02 -0.16127293835E+02  0.38180519438E+02  0.14083426965E+03  0.12500000000E+03 0.  0.
</event>
<event>
 4    0  0.2222207E-002  0.1864058E+03  0.7546771E-02  0.1161744E+00
         21   -1    0    0  502  501  0.00000000000E+00  0.00000000000E+00  0.66311964448E+02  0.66311964448E+02  0.00000000000E+00 0.  1.
         21   -1    0    0  501  502 -0.00000000000E+00 -0.00000000000E+00 -0.52399462456E+03  0.52399462456E+03  0.00000000000E+00 0.  1.
         25    1    1    2    0    0  0.14390172825E+02  0.13361853267E+03 -0.28042013228E+03  0.33514390929E+03  0.12500000000E+03 0.  0.
         25    1    1    2    0    0 -0.14390172825E+02 -0.13361853267E+03 -0.17726252783E+03  0.25516267971E+03  0.12500000000E+03 0.  0.
</event>
<event>
 4    0  0.2222207E-002  0.2083940E+03  0.7546771E-02  0.1142844E+00
         21   -1    0    0  502  501  0.00000000000E+00  0.00000000000E+00  0.98205027582E+02  0.98205027582E+02  0.00000000000E+00 0.  1.
         21   -1    0    0  501  502 -0.00000000000E+00 -0.00000000000E+00 -0.44221811694E+03  0.44221811694E+03  0.00000000000E+00 0.  1.
         25    1    1    2    0    0 -0.15098685292E+03  0.61832020615E+01 -0.80616261533E+02  0.21203594829E+03  0.12500000000E+03 0.  0.
         25    1    1    2    0    0  0.15098685292E+03 -0.61832020615E+01 -0.26339682783E+03  0.32838719624E+03  0.12500000000E+03 0.  0.
</event>
<event>
 4    0  0.2222207E-002  0.2292745E+03  0.7546771E-02  0.1127151E+00
         21   -1    0    0  502  501  0.00000000000E+00  0.00000000000E+00  0.47996708063E+03  0.47996708063E+03  0.00000000000E+00 0.  1.
         21   -1    0    0  501  502 -0.00000000000E+00 -0.00000000000E+00 -0.10952163599E+03  0.10952163599E+03  0.00000000000E+00 0.  1.
         25    1    1    2    0    0  0.15470814996E+03 -0.97935006891E+02  0.26035776835E+03  0.34196058951E+03  0.12500000000E+03 0.  0.
         25    1    1    2    0    0 -0.15470814996E+03  0.97935006891E+02  0.11008767629E+03  0.24752812711E+03  0.12500000000E+03 0.  0.
</event>
<event>
 4    0  0.2222207E-002  0.2203204E+03  0.7546771E-02  0.1133644E+00
         21   -1    0    0  502  501  0.00000000000E+00  0.00000000000E+00  0.69470864672E+02  0.69470864672E+02  0.00000000000E+00 0.  1.
         21   -1    0    0  501  502 -0.00000000000E+00 -0.00000000000E+00 -0.69872587780E+03  0.69872587780E+03  0.00000000000E+00 0.  1.
         25    1    1    2    0    0  0.36516246817E+02 -0.14126815497E+03 -0.50260340437E+03  0.53807556159E+03  0.12500000000E+03 0.  0.
         25    1    1    2    0    0 -0.36516246817E+02  0.14126815497E+03 -0.12665160876E+03  0.23012118089E+03  0.12500000000E+03 0.  0.
</event>
<event>
 4    0  0.2222207E-002  0.3149366E+03  0.7546771E-02  0.1078004E+00
         21   -1    0    0  502  501  0.00000000000E+00  0.00000000000E+00  0.11581150455E+04  0.11581150455E+04  0.00000000000E+00 0.  1.
         21   -1    0    0  501  502 -0.00000000000E+00 -0.00000000000E+00 -0.85643518462E+02  0.85643518462E+02  0.00000000000E+00 0.  1.
         25    1    1    2    0    0 -0.14676571509E+03 -0.76855427917E+02  0.68484276712E+02  0.21854525409E+03  0.12500000000E+03 0.  0.
         25    1    1    2    0    0  0.14676571509E+03  0.76855427917E+02  0.10039872503E+04  0.10252133099E+04  0.12500000000E+03 0.  0.
</event>
<event>
 4    0  0.2222207E-002  0.2460984E+03  0.7546771E-02  0.1115796E+00
         21   -1    0    0  502  501  0.00000000000E+00  0.00000000000E+00  0.25462958023E+03  0.25462958023E+03  0.00000000000E+00 0.  1.
         21   -1    0    0  501  502 -0.00000000000E+00 -0.00000000000E+00 -0.23785296872E+03  0.23785296872E+03  0.00000000000E+00 0.  1.
         25    1    1    2    0    0 -0.12316400026E+03  0.11453181514E+03 -0.12073117688E+03  0.24184276857E+03  0.12500000000E+03 0.  0.
         25    1    1    2    0    0  0.12316400026E+03 -0.11453181514E+03  0.13750778839E+03  0.25063978038E+03  0.12500000000E+03 0.  0.
</event>
<event>
 4    0  0.2222207E-002  0.1848522E+03  0.7546771E-02  0.1163188E+00
         21   -1    0    0  502  501  0.00000000000E+00  0.00000000000E+00  0.32378393790E+03  0.32378393790E+03  0.00000000000E+00 0. -1.
         21   -1    0    0  501  502 -0.00000000000E+00 -0.00000000000E+00 -0.10553433281E+03  0.10553433281E+03  0.00000000000E+00 0. -1.
         25    1    1    2    0    0 -0.18115324978E+02 -0.70223235816E+02  0.24297517344E+03  0.28270373672E+03  0.12500000000E+03 0.  0.
         25    1    1    2    0    0  0.18115324978E+02  0.70223235816E+02 -0.24725568347E+02  0.14661453399E+03  0.12500000000E+03 0.  0.
</event>
<event>
 4    0  0.2222207E-002  0.1958864E+03  0.7546771E-02  0.1153257E+00
         21   -1    0    0  502  501  0.00000000000E+00  0.00000000000E+00  0.51680125021E+02  0.51680125021E+02  0.00000000000E+00 0. -1.
         21   -1    0    0  501  502 -0.00000000000E+00 -0.00000000000E+00 -0.74248063207E+03  0.74248063207E+03  0.00000000000E+00 0. -1.
         25    1    1    2    0    0 -0.75763563299E+02 -0.73045633765E+02 -0.12641104246E+03  0.20659267604E+03  0.12500000000E+03 0.  0.
         25    1    1    2    0    0  0.75763563299E+02  0.73045633765E+02 -0.56438946458E+03  0.58756808105E+03  0.12500000000E+03 0.  0.
</event>
<event>
 4    0  0.2222207E-002  0.2021713E+03  0.7546771E-02  0.1147920E+00
         21   -1    0    0  502  501  0.00000000000E+00  0.00000000000E+00  0.11155345672E+03  0.11155345672E+03  0.00000000000E+00 0.  1.
         21   -1    0    0  501  502 -0.00000000000E+00 -0.00000000000E+00 -0.36640048196E+03  0.36640048196E+03  0.00000000000E+00 0.  1.
         25    1    1    2    0    0 -0.51988338420E+02 -0.13216635677E+03 -0.43194485372E+02  0.19406570217E+03  0.12500000000E+03 0.  0.
         25    1    1    2    0    0  0.51988338420E+02  0.13216635677E+03 -0.21165253987E+03  0.28388823651E+03  0.12500000000E+03 0.  0.
</event>
<event>
 4    0  0.2222207E-002  0.1481903E+03  0.7546771E-02  0.1202715E+00
         21   -1    0    0  502  501  0.00000000000E+00  0.00000000000E+00  0.16988440804E+03  0.16988440804E+03  0.00000000000E+00 0.  1.
         21   -1    0    0  501  502 -0.00000000000E+00 -0.00000000000E+00 -0.12926647946E+03  0.12926647946E+03  0.00000000000E+00 0.  1.
         25    1    1    2    0    0 -0.27297067385E+02  0.15152558299E+02 -0.53591722079E+02  0.13954140098E+03  0.12500000000E+03 0.  0.
         25    1    1    2    0    0  0.27297067385E+02 -0.15152558299E+02  0.94209650654E+02  0.15960948652E+03  0.12500000000E+03 0.  0.
</event>
<event>
 4    0  0.2222207E-002  0.2612072E+03  0.7546771E-02  0.1106420E+00
         21   -1    0    0  502  501  0.00000000000E+00  0.00000000000E+00  0.15263777826E+04  0.15263777826E+04  0.00000000000E+00 0.  1.
         21   -1    0    0  501  502 -0.00000000000E+00 -0.00000000000E+00 -0.44700082013E+02  0.44700082013E+02  0.00000000000E+00 0.  1.
         25    1    1    2    0    0  0.10919847212E+03 -0.11756859109E+03  0.24798791144E+03  0.32073304186E+03  0.12500000000E+03 0.  0.
         25    1    1    2    0    0 -0.10919847212E+03  0.11756859109E+03  0.12336897892E+04  0.12503448228E+04  0.12500000000E+03 0.  0.
</event>
<event>
 4    0  0.2222207E-002  0.2231998E+03  0.7546771E-02  0.1131520E+00
         21   -1    0    0  502  501  0.00000000000E+00  0.00000000000E+00  0.21020521884E+03  0.21020521884E+03  0.00000000000E+00 0.  1.
         21   -1    0    0  501  502 -0.00000000000E+00 -0.00000000000E+00 -0.23699774605E+03  0.23699774605E+03  0.00000000000E+00 0.  1.
         25    1    1    2    0    0  0.17528782841E+03 -0.38048518007E+02  0.31625130699E+02  0.22090419055E+03  0.12500000000E+03 0.  0.
         25    1    1    2    0    0 -0.17528782841E+03  0.38048518007E+02 -0.58417657911E+02  0.22629877434E+03  0.12500000000E+03 0.  0.
</event>
<event>
 4    0  0.2222207E-002  0.1833690E+03  0.7546771E-02  0.1164582E+00
         21   -1    0    0  502  501  0.00000000000E+00  0.00000000000E+00  0.70751362373E+03  0.70751362373E+03  0.00000000000E+00 0. -1.
         21   -1    0    0  501  502 -0.00000000000E+00 -0.00000000000E+00 -0.47524439142E+02  0.47524439142E+02  0.00000000000E+00 0. -1.
         25    1    1    2    0    0  0.82328931629E+02 -0.44059722482E+02  0.13166659170E+03  0.20415779069E+03  0.12500000000E+03 0.  0.
         25    1    1    2    0    0 -0.82328931629E+02  0.44059722482E+02  0.52832259288E+03  0.55088027218E+03  0.12500000000E+03 0.  0.
</event>
<event>
 4    0  0.2222207E-002  0.1515866E+03  0.7546771E-02  0.1198537E+00
         21   -1    0    0  502  501  0.00000000000E+00  0.00000000000E+00  0.24570286275E+02  0.24570286275E+02  0.00000000000E+00 0.  1.
         21   -1    0    0  501  502 -0.00000000000E+00 -0.00000000000E+00 -0.93521427200E+03  0.93521427200E+03  0.00000000000E+00 0.  1.
         25    1    1    2    0    0  0.13311762022E+02  0.44218785472E+02 -0.68407090615E+03  0.69692934264E+03  0.12500000000E+03 0.  0.
         25    1    1    2    0    0 -0.13311762022E+02 -0.44218785472E+02 -0.22657307958E+03  0.26285521563E+03  0.12500000000E+03 0.  0.
</event>
<event>
 4    0  0.2222207E-002  0.1944096E+03  0.7546771E-02  0.1154543E+00
         21   -1    0    0  502  501  0.00000000000E+00  0.00000000000E+00  0.37311845144E+02  0.37311845144E+02  0.00000000000E+00 0. -1.
         21   -1    0    0  501  502 -0.00000000000E+00 -0.00000000000E+00 -0.10129515375E+04  0.10129515375E+04  0.00000000000E+00 0. -1.
         25    1    1    2    0    0 -0.10133139771E+03  0.85989671341E+02 -0.30646315586E+03  0.35666082156E+03  0.12500000000E+03 0.  0.
         25    1    1    2    0    0  0.10133139771E+03 -0.85989671341E+02 -0.66917653653E+03  0.69360256111E+03  0.12500000000E+03 0.  0.
</event>
<event>
 4    0  0.2222207E-002  0.2156986E+03  0.7546771E-02  0.1137131E+00
         21   -1    0    0  502  501  0.00000000000E+00  0.00000000000E+00  0.17377476495E+04  0.17377476495E+04  0.00000000000E+00 0.  1.
         21   -1    0    0  501  502 -0.00000000000E+00 -0.00000000000E+00 -0.26773661636E+02  0.26773661636E+02  0.00000000000E+00 0.  1.
         25    1    1    2    0    0  0.49083178984E+02  0.15521756582E+03  0.11267792105E+04  0.11453200602E+04  0.12500000000E+03 0.  0.
         25    1    1    2    0    0 -0.49083178984E+02 -0.15521756582E+03  0.58419477738E+03  0.61920125090E+03  0.12500000000E+03 0.  0.
</event>
<event>
 4    0  0.2222207E-002  0.2075208E+03  0.7546771E-02  0.1143544E+00
         21   -1    0    0  502  501  0.00000000000E+00  0.00000000000E+00  0.11926918561E+03  0.11926918561E+03  0.00000000000E+00 0. -1.
         21   -1    0    0  501  502 -0.00000000000E+00 -0.00000000000E+00 -0.36107300109E+03  0.36107300109E+03  0.00000000000E+00 0. -1.
         25    1    1    2    0    0 -0.11608109215E+03  0.11191185664E+03 -0.16483186956E+03  0.26228539577E+03  0.12500000000E+03 0.  0.
         25    1    1    2    0    0  0.11608109215E+03 -0.11191185664E+03 -0.76971945915E+02  0.21805679093E+03  0.12500000000E+03 0.  0.
</event>
<event>
 4    0  0.2222207E-002  0.2177811E+03  0.7546771E-02  0.1135548E+00
         21   -1    0    0  502  501  0.00000000000E+00  0.00000000000E+00  0.11681467340E+03  0.11681467340E+03  0.00000000000E+00 0.  1.
         21   -1    0    0  501  502 -0.00000000000E+00 -0.00000000000E+00 -0.40601583119E+03  0.40601583119E+03  0.00000000000E+00 0.  1.
         25    1    1    2    0    0 -0.15246083061E+03  0.30676643035E+02 -0.39830271259E+02  0.20346206479E+03  0.12500000000E+03 0.  0.
         25    1    1    2    0    0  0.15246083061E+03 -0.30676643035E+02 -0.24937088653E+03  0.31936843981E+03  0.12500000000E+03 0.  0.
</event>
<event>
 4    0  0.2222207E-002  0.2018622E+03  0.7546771E-02  0.1148177E+00
         21   -1    0    0  502  501  0.00000000000E+00  0.00000000000E+00  0.18187327922E+04  0.18187327922E+04  0.00000000000E+00 0.  1.
         21   -1    0    0  501  502 -0.00000000000E+00 -0.00000000000E+00 -0.22404792621E+02  0.22404792621E+02  0.00000000000E+00 0.  1.
         25    1    1    2    0    0 -0.82923476183E+02  0.70674372543E+02  0.14231463350E+04  0.14327741136E+04  0.12500000000E+03 0.  0.
         25    1    1    2    0    0  0.82923476183E+02 -0.70674372543E+02  0.37318166463E+03  0.40836347125E+03  0.12500000000E+03 0.  0.
</event>
<event>
 4    0  0.2222207E-002  0.2912501E+03  0.7546771E-02  0.1089698E+00
         21   -1    0    0  502  501  0.00000000000E+00  0.00000000000E+00  0.15911309379E+03  0.15911309379E+03  0.00000000000E+00 0. -1.
         21   -1    0    0  501  502 -0.00000000000E+00 -0.00000000000E+00 -0.53312159437E+03  0.53312159437E+03  0.00000000000E+00 0. -1.
         25    1    1    2    0    0 -0.21789150287E+03  0.11391288549E+03 -0.75848775551E+02  0.28606098870E+03  0.12500000000E+03 0.  0.
         25    1    1    2    0    0  0.21789150287E+03 -0.11391288549E+03 -0.29815972503E+03  0.40617369946E+03  0.12500000000E+03 0.  0.
</event>
<event>
 4    0  0.2222207E-002  0.2107306E+03  0.7546771E-02  0.1140989E+00
         21   -1    0    0  502  501  0.00000000000E+00  0.00000000000E+00  0.99868009390E+02  0.99868009390E+02  0.00000000000E+00 0. -1.
         21   -1    0    0  501  502 -0.00000000000E+00 -0.00000000000E+00 -0.44466085926E+03  0.44466085926E+03  0.00000000000E+00 0. -1.
         25    1    1    2    0    0 -0.12047235220E+03  0.99528394016E+02 -0.25773614103E+03  0.32630109907E+03  0.12500000000E+03 0.  0.
         25    1    1    2    0    0  0.12047235220E+03 -0.99528394016E+02 -0.87056708837E+02  0.21822776958E+03  0.12500000000E+03 0.  0.
</event>
<event>
 4    0  0.2222207E-002  0.1784364E+03  0.7546771E-02  0.1169325E+00
         21   -1    0    0  502  501  0.00000000000E+00  0.00000000000E+00  0.48636514587E+02  0.48636514587E+02  0.00000000000E+00 0. -1.
         21   -1    0    0  501  502 -0.00000000000E+00 -0.00000000000E+00 -0.65464310030E+03  0.65464310030E+03  0.00000000000E+00 0. -1.
         25    1    1    2    0    0 -0.16541592786E+02 -0.46470120280E+02 -0.71657202334E+02  0.15229199262E+03  0.12500000000E+03 0.  0.
         25    1    1    2    0    0  0.16541592786E+02  0.46470120280E+02 -0.53434938338E+03  0.55098762226E+03  0.12500000000E+03 0.  0.
</event>
<event>
 4    0  0.2222207E-002  0.3347580E+03  0.7546771E-02  0.1069051E+00
         21   -1    0    0  502  501  0.00000000000E+00  0.00000000000E+00  0.11510972815E+03  0.11510972815E+03  0.00000000000E+00 0. -1.
         21   -1    0    0  501  502 -0.00000000000E+00 -0.00000000000E+00 -0.97353108278E+03  0.97353108278E+03  0.00000000000E+00 0. -1.
         25    1    1    2    0    0 -0.20021077696E+03  0.21902493382E+03 -0.28034735373E+03  0.42693783574E+03  0.12500000000E+03 0.  0.
         25    1    1    2    0    0  0.20021077696E+03 -0.21902493382E+03 -0.57807400091E+03  0.66170297519E+03  0.12500000000E+03 0.  0.
</event>
<event>
 4    0  0.2222207E-002  0.2023181E+03  0.7546771E-02  0.1147798E+00
         21   -1    0    0  502  501  0.00000000000E+00  0.00000000000E+00  0.11620433485E+03  0.11620433485E+03  0.00000000000E+00 0. -1.
         21   -1    0    0  501  502 -0.00000000000E+00 -0.00000000000E+00 -0.35224695270E+03  0.35224695270E+03  0.00000000000E+00 0. -1.
         25    1    1    2    0    0  0.11858989360E+03  0.74205200227E+02 -0.20571464941E+03  0.27841244869E+03  0.12500000000E+03 0.  0.
         25    1    1    2    0    0 -0.11858989360E+03 -0.74205200227E+02 -0.30327968444E+02  0.19003883886E+03  0.12500000000E+03 0.  0.
</event>
<event>
 4    0  0.2222207E-002  0.1781762E+03  0.7546771E-02  0.1169580E+00
         21   -1    0    0  502  501  0.00000000000E+00  0.00000000000E+00  0.18832032214E+03  0.18832032214E+03  0.00000000000E+00 0.  1.
         21   -1    0    0  501  502 -0.00000000000E+00 -0.00000000000E+00 -0.16857854391E+03  0.16857854391E+03  0.00000000000E+00 0.  1.
         25    1    1    2    0    0  0.80213029118E+02  0.97800540482E+02 -0.12226444031E+01  0.17783579679E+03  0.12500000000E+03 0.  0.
         25    1    1    2    0    0 -0.80213029118E+02 -0.97800540482E+02  0.20964422637E+02  0.17906306927E+03  0.12500000000E+03 0.  0.
</event>
<event>
 4    0  0.2222207E-002  0.1887944E+03  0.7546771E-02  0.1159553E+00
         21   -1    0    0  502  501  0.00000000000E+00  0.00000000000E+00  0.63793051062E+02  0.63793051062E+02  0.00000000000E+00 0. -1.
         21   -1    0    0  501  502 -0.00000000000E+00 -0.00000000000E+00 -0.55873366307E+03  0.55873366307E+03  0.00000000000E+00 0. -1.
         25    1    1    2    0    0 -0.88636947729E+02  0.10269884796E+03 -0.31372143997E+03  0.36393640073E+03  0.12500000000E+03 0.  0.
         25    1    1    2    0    0  0.88636947729E+02 -0.10269884796E+03 -0.18121917204E+03  0.25859031341E+03  0.12500000000E+03 0.  0.
</event>
<event>
 4    0  0.2222207E-002  0.2848880E+03  0.7546771E-02  0.1093049E+00
         21   -1    0    0  502  501  0.00000000000E+00  0.00000000000E+00  0.90445486548E+02  0.90445486548E+02  0.00000000000E+00 0.  1.
         21   -1    0    0  501  502 -0.00000000000E+00 -0.00000000000E+00 -0.89734907666E+03  0.89734907666E+03  0.00000000000E+00 0.  1.
         25    1    1    2    0    0  0.61417887028E+02  0.13726751204E+03 -0.44281289544E+02  0.20050027260E+03  0.12500000000E+03 0.  0.
         25    1    1    2    0    0 -0.61417887028E+02 -0.13726751204E+03 -0.76262230057E+03  0.78729429061E+03  0.12500000000E+03 0.  0.
</event>
<event>
 4    0  0.2222207E-002  0.2787511E+03  0.7546771E-02  0.1096373E+00
         21   -1    0    0  502  501  0.00000000000E+00  0.00000000000E+00  0.82141904210E+03  0.82141904210E+03  0.00000000000E+00 0.  1.
         21   -1    0    0  501  502 -0.00000000000E+00 -0.00000000000E+00 -0.94595070938E+02  0.94595070938E+02  0.00000000000E+00 0.  1.
         25    1    1    2    0    0 -0.82809647322E+02 -0.21654614988E+03  0.21347341356E+03  0.33903623850E+03  0.12500000000E+03 0.  0.
         25    1    1    2    0    0  0.82809647322E+02  0.21654614988E+03  0.51335055760E+03  0.57697787454E+03  0.12500000000E+03 0.  0.
</event>
<event>
 4    0  0.2222207E-002  0.2606211E+03  0.7546771E-02  0.1106771E+00
         21   -1    0    0  502  501  0.00000000000E+00  0.00000000000E+00  0.25357583653E+03  0.25357583653E+03  0.00000000000E+00 0. -1.
         21   -1    0    0  501  502 -0.00000000000E+00 -0.00000000000E+00 -0.26786216395E+03  0.26786216395E+03  0.00000000000E+00 0. -1.
         25    1    1    2    0    0  0.65639780131E+02 -0.20755865693E+03 -0.77235127142E+02  0.26263937570E+03  0.12500000000E+03 0.  0.
         25    1    1    2    0    0 -0.65639780131E+02  0.20755865693E+03  0.62948799720E+02  0.25879862478E+03  0.12500000000E+03 0.  0.
</event>
<event>
 4    0  0.2222207E-002  0.1667764E+03  0.7546771E-02  0.1181252E+00
         21   -1    0    0  502  501  0.00000000000E+00  0.00000000000E+00  0.24187183985E+03  0.24187183985E+03  0.00000000000E+00 0. -1.
         21   -1    0    0  501  502 -0.00000000000E+00 -0.00000000000E+00 -0.11499632198E+03  0.11499632198E+03  0.00000000000E+00 0. -1.
         25    1    1    2    0    0  0.24992900937E+02 -0.17650570729E+02  0.17693384721E+03  0.21878476645E+03  0.12500000000E+03 0.  0.
         25    1    1    2    0    0 -0.24992900937E+02  0.17650570729E+02 -0.50058329332E+02  0.13808339538E+03  0.12500000000E+03 0.  0.
</event>
<event>
 4    0  0.2222207E-002  0.2366529E+03  0.7546771E-02  0.1122043E+00
         21   -1    0    0  502  501  0.00000000000E+00  0.00000000000E+00  0.99628189070E+02  0.99628189070E+02  0.00000000000E+00 0.  1.
         21   -1    0    0  501  502 -0.00000000000E+00 -0.00000000000E+00 -0.56213614314E+03  0.56213614314E+03  0.00000000000E+00 0.  1.
         25    1    1    2    0    0  0.20806680711E+02 -0.16613250696E+03 -0.38661302468E+03  0.43946280694E+03  0.12500000000E+03 0.  0.
         25    1    1    2    0    0 -0.20806680711E+02  0.16613250696E+03 -0.75894929390E+02  0.22230152527E+03  0.12500000000E+03 0.  0.
</event>
<event>
 4    0  0.2222207E-002  0.1986601E+03  0.7546771E-02  0.1150874E+00
         21   -1    0    0  502  501  0.00000000000E+00  0.00000000000E+00  0.49173469206E+02  0.49173469206E+02  0.00000000000E+00 0.  1.
         21   -1    0    0  501  502 -0.00000000000E+00 -0.00000000000E+00 -0.80258396650E+03  0.80258396650E+03  0.00000000000E+00 0.  1.
         25    1    1    2    0    0 -0.10058189249E+03 -0.10261881329E+03 -0.25555934449E+03  0.31872075002E+03  0.12500000000E+03 0.  0.
         25    1    1    2    0    0  0.10058189249E+03  0.10261881329E+03 -0.49785115281E+03  0.53303668569E+03  0.12500000000E+03 0.  0.
</event>
<event>
 4    0  0.2222207E-002  0.2834891E+03  0.7546771E-02  0.1093798E+00
         21   -1    0    0  502  501  0.00000000000E+00  0.00000000000E+00  0.39288528959E+03  0.39288528959E+03  0.00000000000E+00 0. -1.
         21   -1    0    0  501  502 -0.00000000000E+00 -0.00000000000E+00 -0.20455350692E+03  0.20455350692E+03  0.00000000000E+00 0.  1.
         25    1    1    2    0    0  0.15024220611E+03 -0.19812127735E+03  0.37261814555E+02  0.28078141651E+03  0.12500000000E+03 0.  0.
         25    1    1    2    0    0 -0.15024220611E+03  0.19812127735E+03  0.15106996812E+03  0.31665737999E+03  0.12500000000E+03 0.  0.
</event>
<event>
 4    0  0.2222207E-002  0.1389688E+03  0.7546771E-02  0.1214723E+00
         21   -1    0    0  502  501  0.00000000000E+00  0.00000000000E+00  0.80925054348E+02  0.80925054348E+02  0.00000000000E+00 0. -1.
         21   -1    0    0  501  502 -0.00000000000E+00 -0.00000000000E+00 -0.23864457572E+03  0.23864457572E+03  0.00000000000E+00 0. -1.
         25    1    1    2    0    0  0.12596233170E+02  0.43170414023E+02 -0.31943634327E+02  0.13662995832E+03  0.12500000000E+03 0.  0.
         25    1    1    2    0    0 -0.12596233170E+02 -0.43170414023E+02 -0.12577588705E+03  0.18293967175E+03  0.12500000000E+03 0.  0.
</event>
<event>
 4    0  0.2222207E-002  0.3034734E+03  0.7546771E-02  0.1083517E+00
         21   -1    0    0  502  501  0.00000000000E+00  0.00000000000E+00  0.12213222345E+03  0.12213222345E+03  0.00000000000E+00 0. -1.
         21   -1    0    0  501  502 -0.00000000000E+00 -0.00000000000E+00 -0.75406908629E+03  0.75406908629E+03  0.00000000000E+00 0. -1.
         25    1    1    2    0    0 -0.24671254430E+03 -0.12015081224E+03 -0.36530220171E+03  0.47368132301E+03  0.12500000000E+03 0.  0.
         25    1    1    2    0    0  0.24671254430E+03  0.12015081224E+03 -0.26663466113E+03  0.40251998672E+03  0.12500000000E+03 0.  0.
</event>
<event>
 4    0  0.2222207E-002  0.2903805E+03  0.7546771E-02  0.1090151E+00
         21   -1    0    0  502  501  0.00000000000E+00  0.00000000000E+00  0.45076379108E+03  0.45076379108E+03  0.00000000000E+00 0.  1.
         21   -1    0    0  501  502 -0.00000000000E+00 -0.00000000000E+00 -0.18706215719E+03  0.18706215719E+03  0.00000000000E+00 0.  1.
         25    1    1    2    0    0  0.14376507665E+03 -0.12873024718E+03  0.32663615850E+03  0.39944468183E+03  0.12500000000E+03 0.  0.
         25    1    1    2    0    0 -0.14376507665E+03  0.12873024718E+03 -0.62934524613E+02  0.23838126644E+03  0.12500000000E+03 0.  0.
</event>
<event>
 4    0  0.2222207E-002  0.2188798E+03  0.7546771E-02  0.1134721E+00
         21   -1    0    0  502  501  0.00000000000E+00  0.00000000000E+00  0.15956992313E+03  0.15956992313E+03  0.00000000000E+00 0.  1.
         21   -1    0    0  501  502 -0.00000000000E+00 -0.00000000000E+00 -0.30023437087E+03  0.30023437087E+03  0.00000000000E+00 0.  1.
         25    1    1    2    0    0 -0.96264891386E+02  0.15120637348E+03 -0.83327778231E+02  0.23387777859E+03  0.12500000000E+03 0.  0.
         25    1    1    2    0    0  0.96264891386E+02 -0.15120637348E+03 -0.57336669507E+02  0.22592651541E+03  0.12500000000E+03 0.  0.
</event>
<event>
 4    0  0.2222207E-002  0.2074307E+03  0.7546771E-02  0.1143617E+00
         21   -1    0    0  502  501  0.00000000000E+00  0.00000000000E+00  0.84774392486E+02  0.84774392486E+02  0.00000000000E+00 0.  1.
         21   -1    0    0  501  502 -0.00000000000E+00 -0.00000000000E+00 -0.50755303661E+03  0.50755303661E+03  0.00000000000E+00 0.  1.
         25    1    1    2    0    0  0.66669982026E+02 -0.20888826048E+02 -0.42565629603E+03  0.44909855478E+03  0.12500000000E+03 0.  0.
         25    1    1    2    0    0 -0.66669982026E+02  0.20888826048E+02  0.28776519048E+01  0.14322887431E+03  0.12500000000E+03 0.  0.
</event>
<event>
 4    0  0.2222207E-002  0.2933348E+03  0.7546771E-02  0.1088621E+00
         21   -1    0    0  502  501  0.00000000000E+00  0.00000000000E+00  0.54169370059E+03  0.54169370059E+03  0.00000000000E+00 0. -1.
         21   -1    0    0  501  502 -0.00000000000E+00 -0.00000000000E+00 -0.15884491202E+03  0.15884491202E+03  0.00000000000E+00 0. -1.
         25    1    1    2    0    0 -0.34327067954E+02 -0.14878220377E+03  0.45058901295E+03  0.49190441179E+03  0.12500000000E+03 0.  0.
         25    1    1    2    0    0  0.34327067954E+02  0.14878220377E+03 -0.67740224371E+02  0.20863420082E+03  0.12500000000E+03 0.  0.
</event>
<event>
 4    0  0.2222207E-002  0.2903668E+03  0.7546771E-02  0.1090158E+00
         21   -1    0    0  502  501  0.00000000000E+00  0.00000000000E+00  0.23770480464E+03  0.23770480464E+03  0.00000000000E+00 0.  1.
         21   -1    0    0  501  502 -0.00000000000E+00 -0.00000000000E+00 -0.35469563547E+03  0.35469563547E+03  0.00000000000E+00 0.  1.
         25    1    1    2    0    0  0.24160653336E+03  0.87906940593E+02 -0.11037488407E+03  0.30644569209E+03  0.12500000000E+03 0.  0.
         25    1    1    2    0    0 -0.24160653336E+03 -0.87906940593E+02 -0.66159467601E+01  0.28595474803E+03  0.12500000000E+03 0.  0.
</event>
<event>
 4    0  0.2222207E-002  0.3544998E+03  0.7546771E-02  0.1060783E+00
         21   -1    0    0  502  501  0.00000000000E+00  0.00000000000E+00  0.48168916137E+03  0.48168916137E+03  0.00000000000E+00 0.  1.
         21   -1    0    0  501  502 -0.00000000000E+00 -0.00000000000E+00 -0.26089454542E+03  0.26089454542E+03  0.00000000000E+00 0.  1.
         25    1    1    2    0    0 -0.10500518698E+02  0.46817238871E+02 -0.23339324221E+03  0.26907158947E+03  0.12500000000E+03 0.  0.
         25    1    1    2    0    0  0.10500518698E+02 -0.46817238871E+02  0.45418785817E+03  0.47351211733E+03  0.12500000000E+03 0.  0.
</event>
<event>
 4    0  0.2222207E-002  0.2293719E+03  0.7546771E-02  0.1127083E+00
         21   -1    0    0  502  501  0.00000000000E+00  0.00000000000E+00  0.46747829256E+03  0.46747829256E+03  0.00000000000E+00 0.  1.
         21   -1    0    0  501  502 -0.00000000000E+00 -0.00000000000E+00 -0.11254310985E+03  0.11254310985E+03  0.00000000000E+00 0.  1.
         25    1    1    2    0    0  0.11728712273E+03 -0.79621196735E+02  0.34179012046E+03  0.39056534738E+03  0.12500000000E+03 0.  0.
         25    1    1    2    0    0 -0.11728712273E+03  0.79621196735E+02  0.13145062250E+02  0.18945605503E+03  0.12500000000E+03 0.  0.
</event>
<event>
 4    0  0.2222207E-002  0.2611245E+03  0.7546771E-02  0.1106469E+00
         21   -1    0    0  502  501  0.00000000000E+00  0.00000000000E+00  0.54734351182E+02  0.54734351182E+02  0.00000000000E+00 0. -1.
         21   -1    0    0  501  502 -0.00000000000E+00 -0.00000000000E+00 -0.12457626070E+04  0.12457626070E+04  0.00000000000E+00 0. -1.
         25    1    1    2    0    0 -0.99370867855E+02 -0.20357513021E+03 -0.50769827122E+03  0.56982447966E+03  0.12500000000E+03 0.  0.
         25    1    1    2    0    0  0.99370867855E+02  0.20357513021E+03 -0.68332998462E+03  0.73067247855E+03  0.12500000000E+03 0.  0.
</event>
<event>
 4    0  0.2222207E-002  0.2063553E+03  0.7546771E-02  0.1144485E+00
         21   -1    0    0  502  501  0.00000000000E+00  0.00000000000E+00  0.23198666420E+04  0.23198666420E+04  0.00000000000E+00 0. -1.
         21   -1    0    0  501  502 -0.00000000000E+00 -0.00000000000E+00 -0.18355588000E+02  0.18355588000E+02  0.00000000000E+00 0. -1.
         25    1    1    2    0    0  0.31403959032E+02  0.86294225297E+02  0.19218626527E+04  0.19281115003E+04  0.12500000000E+03 0.  0.
         25    1    1    2    0    0 -0.31403959032E+02 -0.86294225297E+02  0.37964840136E+03  0.41011072970E+03  0.12500000000E+03 0.  0.
</event>
<event>
 4    0  0.2222207E-002  0.1893146E+03  0.7546771E-02  0.1159081E+00
         21   -1    0    0  502  501  0.00000000000E+00  0.00000000000E+00  0.14308891585E+04  0.14308891585E+04  0.00000000000E+00 0. -1.
         21   -1    0    0  501  502 -0.00000000000E+00 -0.00000000000E+00 -0.25047377842E+02  0.25047377842E+02  0.00000000000E+00 0. -1.
         25    1    1    2    0    0  0.22216781514E+02 -0.12761494521E+03  0.92831686772E+03  0.94560899241E+03  0.12500000000E+03 0.  0.
         25    1    1    2    0    0 -0.22216781514E+02  0.12761494521E+03  0.47752491292E+03  0.51032754392E+03  0.12500000000E+03 0.  0.
</event>
<event>
 4    0  0.2222207E-002  0.2711867E+03  0.7546771E-02  0.1100602E+00
         21   -1    0    0  502  501  0.00000000000E+00  0.00000000000E+00  0.31415719783E+03  0.31415719783E+03  0.00000000000E+00 0. -1.
         21   -1    0    0  501  502 -0.00000000000E+00 -0.00000000000E+00 -0.23409363769E+03  0.23409363769E+03  0.00000000000E+00 0. -1.
         25    1    1    2    0    0 -0.20490564736E+02 -0.23120767101E+03  0.10428435473E+03  0.28350851313E+03  0.12500000000E+03 0.  0.
         25    1    1    2    0    0  0.20490564736E+02  0.23120767101E+03 -0.24220794581E+02  0.26474232239E+03  0.12500000000E+03 0.  0.
</event>
<event>
 4    0  0.2222207E-002  0.3526329E+03  0.7546771E-02  0.1061540E+00
         21   -1    0    0  502  501  0.00000000000E+00  0.00000000000E+00  0.32696581726E+03  0.32696581726E+03  0.00000000000E+00 0.  1.
         21   -1    0    0  501  502 -0.00000000000E+00 -0.00000000000E+00 -0.38031496781E+03  0.38031496781E+03  0.00000000000E+00 0.  1.
         25    1    1    2    0    0 -0.30988329438E+03  0.11044347284E+03 -0.49089660102E+02  0.35533112945E+03  0.12500000000E+03 0.  0.
         25    1    1    2    0    0  0.30988329438E+03 -0.11044347284E+03 -0.42594904553E+01  0.35194965562E+03  0.12500000000E+03 0.  0.
</event>
<event>
 4    0  0.2222207E-002  0.3443908E+03  0.7546771E-02  0.1064941E+00
         21   -1    0    0  502  501  0.00000000000E+00  0.00000000000E+00  0.11401312970E+03  0.11401312970E+03  0.00000000000E+00 0. -1.
         21   -1    0    0  501  502 -0.00000000000E+00 -0.00000000000E+00 -0.10402753429E+04  0.10402753429E+04  0.00000000000E+00 0. -1.
         25    1    1    2    0    0  0.30524138205E+03 -0.82729517455E+01 -0.62851634749E+03  0.70985811407E+03  0.12500000000E+03 0.  0.
         25    1    1    2    0    0 -0.30524138205E+03  0.82729517455E+01 -0.29774586572E+03  0.44443035855E+03  0.12500000000E+03 0.  0.
</event>
<event>
 4    0  0.2222207E-002  0.2430777E+03  0.7546771E-02  0.1117759E+00
         21   -1    0    0  502  501  0.00000000000E+00  0.00000000000E+00  0.11250548435E+03  0.11250548435E+03  0.00000000000E+00 0.  1.
         21   -1    0    0  501  502 -0.00000000000E+00 -0.00000000000E+00 -0.52518990736E+03  0.52518990736E+03  0.00000000000E+00 0.  1.
         25    1    1    2    0    0  0.50336190085E+01 -0.98498733143E+02  0.34578862977E+02  0.16293567908E+03  0.12500000000E+03 0.  0.
         25    1    1    2    0    0 -0.50336190085E+01  0.98498733143E+02 -0.44726328599E+03  0.47475971264E+03  0.12500000000E+03 0.  0.
</event>
<event>
 4    0  0.2222207E-002  0.1655663E+03  0.7546771E-02  0.1182552E+00
         21   -1    0    0  502  501  0.00000000000E+00  0.00000000000E+00  0.27916594664E+02  0.27916594664E+02  0.00000000000E+00 0.  1.
         21   -1    0    0  501  502 -0.00000000000E+00 -0.00000000000E+00 -0.98193225375E+03  0.98193225375E+03  0.00000000000E+00 0.  1.
         25    1    1    2    0    0  0.10567603419E+03 -0.10469012979E+02 -0.40812416712E+03  0.43984924715E+03  0.12500000000E+03 0.  0.
         25    1    1    2    0    0 -0.10567603419E+03  0.10469012979E+02 -0.54589149197E+03  0.56999960126E+03  0.12500000000E+03 0.  0.
</event>
<event>
 4    0  0.2222207E-002  0.1832848E+03  0.7546771E-02  0.1164661E+00
         21   -1    0    0  502  501  0.00000000000E+00  0.00000000000E+00  0.56738440049E+03  0.56738440049E+03  0.00000000000E+00 0. -1.
         21   -1    0    0  501  502 -0.00000000000E+00 -0.00000000000E+00 -0.59207357008E+02  0.59207357008E+02  0.00000000000E+00 0. -1.
         25    1    1    2    0    0 -0.13115763181E+03 -0.25283886738E+02  0.23484562945E+03  0.29768955135E+03  0.12500000000E+03 0.  0.
         25    1    1    2    0    0  0.13115763181E+03  0.25283886738E+02  0.27333141404E+03  0.32890220615E+03  0.12500000000E+03 0.  0.
</event>
<event>
 4    0  0.2222207E-002  0.2210073E+03  0.7546771E-02  0.1133134E+00
         21   -1    0    0  502  501  0.00000000000E+00  0.00000000000E+00  0.41064126418E+02  0.41064126418E+02  0.00000000000E+00 0. -1.
         21   -1    0    0  501  502 -0.00000000000E+00 -0.00000000000E+00 -0.11894622503E+04  0.11894622503E+04  0.00000000000E+00 0. -1.
         25    1    1    2    0    0 -0.86603838831E+01  0.17543861730E+03 -0.70959866495E+03  0.74162590030E+03  0.12500000000E+03 0.  0.
         25    1    1    2    0    0  0.86603838831E+01 -0.17543861730E+03 -0.43879945896E+03  0.48890047645E+03  0.12500000000E+03 0.  0.
</event>
<event>
 4    0  0.2222207E-002  0.2336242E+03  0.7546771E-02  0.1124115E+00
         21   -1    0    0  502  501  0.00000000000E+00  0.00000000000E+00  0.36620186970E+03  0.36620186970E+03  0.00000000000E+00 0.  1.
         21   -1    0    0  501  502 -0.00000000000E+00 -0.00000000000E+00 -0.14904425573E+03  0.14904425573E+03  0.00000000000E+00 0.  1.
         25    1    1    2    0    0 -0.76027351975E+02 -0.16778710256E+03  0.18672931171E+03  0.29056067505E+03  0.12500000000E+03 0.  0.
         25    1    1    2    0    0  0.76027351975E+02  0.16778710256E+03  0.30428302261E+02  0.22468545038E+03  0.12500000000E+03 0.  0.
</event>
<event>
 4    0  0.2222207E-002  0.2572160E+03  0.7546771E-02  0.1108828E+00
         21   -1    0    0  502  501  0.00000000000E+00  0.00000000000E+00  0.68721808841E+03  0.68721808841E+03  0.00000000000E+00 0.  1.
         21   -1    0    0  501  502 -0.00000000000E+00 -0.00000000000E+00 -0.96272334778E+02  0.96272334778E+02  0.00000000000E+00 0.  1.
         25    1    1    2    0    0 -0.10150253592E+03 -0.16361984558E+03  0.47217519126E+03  0.52502250419E+03  0.12500000000E+03 0.  0.
         25    1    1    2    0    0  0.10150253592E+03  0.16361984558E+03  0.11877056237E+03  0.25846791900E+03  0.12500000000E+03 0.  0.
</event>
<event>
 4    0  0.2222207E-002  0.3098079E+03  0.7546771E-02  0.1080438E+00
         21   -1    0    0  502  501  0.00000000000E+00  0.00000000000E+00  0.14655009060E+03  0.14655009060E+03  0.00000000000E+00 0.  1.
         21   -1    0    0  501  502 -0.00000000000E+00 -0.00000000000E+00 -0.65493600377E+03  0.65493600377E+03  0.00000000000E+00 0. -1.
         25    1    1    2    0    0 -0.25722522145E+02 -0.26621726815E+03 -0.37569204255E+03  0.47781041517E+03  0.12500000000E+03 0.  0.
         25    1    1    2    0    0  0.25722522145E+02  0.26621726815E+03 -0.13269387062E+03  0.32367567920E+03  0.12500000000E+03 0.  0.
</event>
<event>
 4    0  0.2222207E-002  0.2358612E+03  0.7546771E-02  0.1122581E+00
         21   -1    0    0  502  501  0.00000000000E+00  0.00000000000E+00  0.19629711762E+03  0.19629711762E+03  0.00000000000E+00 0. -1.
         21   -1    0    0  501  502 -0.00000000000E+00 -0.00000000000E+00 -0.28339943929E+03  0.28339943929E+03  0.00000000000E+00 0. -1.
         25    1    1    2    0    0 -0.15290190964E+03 -0.11403444930E+03 -0.10475701286E+03  0.25096191213E+03  0.12500000000E+03 0.  0.
         25    1    1    2    0    0  0.15290190964E+03  0.11403444930E+03  0.17654691190E+02  0.22873464477E+03  0.12500000000E+03 0.  0.
</event>
<event>
 4    0  0.2222207E-002  0.1868757E+03  0.7546771E-02  0.1161310E+00
         21   -1    0    0  502  501  0.00000000000E+00  0.00000000000E+00  0.25247788416E+03  0.25247788416E+03  0.00000000000E+00 0. -1.
         21   -1    0    0  501  502 -0.00000000000E+00 -0.00000000000E+00 -0.13831919531E+03  0.13831919531E+03  0.00000000000E+00 0. -1.
         25    1    1    2    0    0  0.13278180559E+03  0.29412165480E+02  0.86680442657E+02  0.20404554029E+03  0.12500000000E+03 0.  0.
         25    1    1    2    0    0 -0.13278180559E+03 -0.29412165480E+02  0.27478246191E+02  0.18675153918E+03  0.12500000000E+03 0.  0.
</event>
<event>
 4    0  0.2222207E-002  0.1485231E+03  0.7546771E-02  0.1202300E+00
         21   -1    0    0  502  501  0.00000000000E+00  0.00000000000E+00  0.45741535130E+02  0.45741535130E+02  0.00000000000E+00 0. -1.
         21   -1    0    0  501  502 -0.00000000000E+00 -0.00000000000E+00 -0.48225534070E+03  0.48225534070E+03  0.00000000000E+00 0. -1.
         25    1    1    2    0    0  0.63880671783E+02  0.35834816685E+02 -0.16013469828E+03  0.21594674322E+03  0.12500000000E+03 0.  0.
         25    1    1    2    0    0 -0.63880671783E+02 -0.35834816685E+02 -0.27637910729E+03  0.31205013261E+03  0.12500000000E+03 0.  0.
</event>
<event>
 4    0  0.2222207E-002  0.3544773E+03  0.7546771E-02  0.1060792E+00
         21   -1    0    0  502  501  0.00000000000E+00  0.00000000000E+00  0.69324162714E+03  0.69324162714E+03  0.00000000000E+00 0.  1.
         21   -1    0    0  501  502 -0.00000000000E+00 -0.00000000000E+00 -0.18125596724E+03  0.18125596724E+03  0.00000000000E+00 0.  1.
         25    1    1    2    0    0  0.12732385651E+03  0.28688931635E+03  0.12364345191E+03  0.35976318249E+03  0.12500000000E+03 0.  0.
         25    1    1    2    0    0 -0.12732385651E+03 -0.28688931635E+03  0.38834220799E+03  0.51473441189E+03  0.12500000000E+03 0.  0.
</event>
<event>
 4    0  0.2222207E-002  0.1766388E+03  0.7546771E-02  0.1171096E+00
         21   -1    0    0  502  501  0.00000000000E+00  0.00000000000E+00  0.25404419853E+03  0.25404419853E+03  0.00000000000E+00 0. -1.
         21   -1    0    0  501  502 -0.00000000000E+00 -0.00000000000E+00 -0.12281828421E+03  0.12281828421E+03  0.00000000000E+00 0. -1.
         25    1    1    2    0    0 -0.27995849165E+02 -0.11943723152E+03  0.90107885614E+02  0.19696053131E+03  0.12500000000E+03 0.  0.
         25    1    1    2    0    0  0.27995849165E+02  0.11943723152E+03  0.41118028710E+02  0.17990195143E+03  0.12500000000E+03 0.  0.
</event>
<event>
 4    0  0.2222207E-002  0.2464339E+03  0.7546771E-02  0.1115579E+00
         21   -1    0    0  502  501  0.00000000000E+00  0.00000000000E+00  0.14698943922E+03  0.14698943922E+03  0.00000000000E+00 0. -1.
         21   -1    0    0  501  502 -0.00000000000E+00 -0.00000000000E+00 -0.41315672158E+03  0.41315672158E+03  0.00000000000E+00 0. -1.
         25    1    1    2    0    0 -0.20534149934E+03  0.12793896699E+02 -0.19296196627E+03  0.30852574540E+03  0.12500000000E+03 0.  0.
         25    1    1    2    0    0  0.20534149934E+03 -0.12793896699E+02 -0.73205316089E+02  0.25162041541E+03  0.12500000000E+03 0.  0.
</event>
<event>
 4    0  0.2222207E-002  0.2919150E+03  0.7546771E-02  0.1089354E+00
         21   -1    0    0  502  501  0.00000000000E+00  0.00000000000E+00  0.38329157264E+03  0.38329157264E+03  0.00000000000E+00 0.  1.
         21   -1    0    0  501  502 -0.00000000000E+00 -0.00000000000E+00 -0.22232252299E+03  0.22232252299E+03  0.00000000000E+00 0.  1.
         25    1    1    2    0    0  0.64089996006E+02 -0.21384863784E+03  0.22626506706E+03  0.34155475120E+03  0.12500000000E+03 0.  0.
         25    1    1    2    0    0 -0.64089996006E+02  0.21384863784E+03 -0.65296017406E+02  0.26405934444E+03  0.12500000000E+03 0.  0.
</event>
<event>
 4    0  0.2222207E-002  0.1809448E+03  0.7546771E-02  0.1166892E+00
         21   -1    0    0  502  501  0.00000000000E+00  0.00000000000E+00  0.69763710188E+02  0.69763710188E+02  0.00000000000E+00 0.  1.
         21   -1    0    0  501  502 -0.00000000000E+00 -0.00000000000E+00 -0.46931306331E+03  0.46931306331E+03  0.00000000000E+00 0.  1.
         25    1    1    2    0    0 -0.12134529787E+03  0.15609869958E+02 -0.13074141171E+03  0.21837276866E+03  0.12500000000E+03 0.  0.
         25    1    1    2    0    0  0.12134529787E+03 -0.15609869958E+02 -0.26880794140E+03  0.32070400483E+03  0.12500000000E+03 0.  0.
</event>
<event>
 4    0  0.2222207E-002  0.1920195E+03  0.7546771E-02  0.1156652E+00
         21   -1    0    0  502  501  0.00000000000E+00  0.00000000000E+00  0.73191627838E+03  0.73191627838E+03  0.00000000000E+00 0. -1.
         21   -1    0    0  501  502 -0.00000000000E+00 -0.00000000000E+00 -0.50376672600E+02  0.50376672600E+02  0.00000000000E+00 0. -1.
         25    1    1    2    0    0  0.58396683328E+02  0.12378278020E+03  0.23863112945E+03  0.30216248152E+03  0.12500000000E+03 0.  0.
         25    1    1    2    0    0 -0.58396683328E+02 -0.12378278020E+03  0.44290847634E+03  0.48013046946E+03  0.12500000000E+03 0.  0.
</event>
<event>
 4    0  0.2222207E-002  0.1262049E+03  0.7546771E-02  0.1233198E+00
         21   -1    0    0  502  501  0.00000000000E+00  0.00000000000E+00  0.13119338823E+04  0.13119338823E+04  0.00000000000E+00 0.  1.
         21   -1    0    0  501  502 -0.00000000000E+00 -0.00000000000E+00 -0.12140611799E+02  0.12140611799E+02  0.00000000000E+00 0.  1.
         25    1    1    2    0    0 -0.26595839955E-01 -0.15673686022E+02  0.68950620078E+03  0.70092044203E+03  0.12500000000E+03 0.  0.
         25    1    1    2    0    0  0.26595839955E-01  0.15673686022E+02  0.61028706969E+03  0.62315405204E+03  0.12500000000E+03 0.  0.
</event>
<event>
 4    0  0.2222207E-002  0.2294917E+03  0.7546771E-02  0.1126998E+00
         21   -1    0    0  502  501  0.00000000000E+00  0.00000000000E+00  0.42605917201E+02  0.42605917201E+02  0.00000000000E+00 0. -1.
         21   -1    0    0  501  502 -0.00000000000E+00 -0.00000000000E+00 -0.12361301026E+04  0.12361301026E+04  0.00000000000E+00 0. -1.
         25    1    1    2    0    0 -0.18794992316E+03  0.19920731992E+02 -0.69796195683E+03  0.73382416311E+03  0.12500000000E+03 0.  0.
         25    1    1    2    0    0  0.18794992316E+03 -0.19920731992E+02 -0.49556222852E+03  0.54491185665E+03  0.12500000000E+03 0.  0.
</event>
<event>
 4    0  0.2222207E-002  0.3197870E+03  0.7546771E-02  0.1075747E+00
         21   -1    0    0  502  501  0.00000000000E+00  0.00000000000E+00  0.11536686734E+04  0.11536686734E+04  0.00000000000E+00 0.  1.
         21   -1    0    0  501  502 -0.00000000000E+00 -0.00000000000E+00 -0.88642216250E+02  0.88642216250E+02  0.00000000000E+00 0.  1.
         25    1    1    2    0    0 -0.13075111153E+03  0.26288492813E+03  0.57299775498E+03  0.65586261200E+03  0.12500000000E+03 0.  0.
         25    1    1    2    0    0  0.13075111153E+03 -0.26288492813E+03  0.49202870221E+03  0.58644827769E+03  0.12500000000E+03 0.  0.
</event>
<event>
 4    0  0.2222207E-002  0.1997947E+03  0.7546771E-02  0.1149912E+00
         21   -1    0    0  502  501  0.00000000000E+00  0.00000000000E+00  0.82589217684E+03  0.82589217684E+03  0.00000000000E+00 0. -1.
         21   -1    0    0  501  502 -0.00000000000E+00 -0.00000000000E+00 -0.48333103128E+02  0.48333103128E+02  0.00000000000E+00 0. -1.
         25    1    1    2    0    0 -0.13139470515E+03 -0.71559529892E+02  0.48433436877E+03  0.52210163343E+03  0.12500000000E+03 0.  0.
         25    1    1    2    0    0  0.13139470515E+03  0.71559529892E+02  0.29322470494E+03  0.35212364653E+03  0.12500000000E+03 0.  0.
</event>
<event>
 4    0  0.2222207E-002  0.1969567E+03  0.7546771E-02  0.1152332E+00
         21   -1    0    0  502  501  0.00000000000E+00  0.00000000000E+00  0.18460951764E+03  0.18460951764E+03  0.00000000000E+00 0.  1.
         21   -1    0    0  501  502 -0.00000000000E+00 -0.00000000000E+00 -0.21012960316E+03  0.21012960316E+03  0.00000000000E+00 0. -1.
         25    1    1    2    0    0  0.14725182726E+03 -0.36188614678E+02 -0.25986509000E+02  0.19822465819E+03  0.12500000000E+03 0.  0.
         25    1    1    2    0    0 -0.14725182726E+03  0.36188614678E+02  0.46642347867E+00  0.19651446261E+03  0.12500000000E+03 0.  0.
</event>
<event>
 4    0  0.2222207E-002  0.2234052E+03  0.7546771E-02  0.1131370E+00
         21   -1    0    0  502  501  0.00000000000E+00  0.00000000000E+00  0.14080088517E+03  0.14080088517E+03  0.00000000000E+00 0.  1.
         21   -1    0    0  501  502 -0.00000000000E+00 -0.00000000000E+00 -0.35447124896E+03  0.35447124896E+03  0.00000000000E+00 0.  1.
         25    1    1    2    0    0  0.30587523204E+02 -0.15283992223E+03  0.39512674348E+01  0.19984056375E+03  0.12500000000E+03 0.  0.
         25    1    1    2    0    0 -0.30587523204E+02  0.15283992223E+03 -0.21762163123E+03  0.29543157039E+03  0.12500000000E+03 0.  0.
</event>
<event>
 4    0  0.2222207E-002  0.2008615E+03  0.7546771E-02  0.1149014E+00
         21   -1    0    0  502  501  0.00000000000E+00  0.00000000000E+00  0.23213073441E+03  0.23213073441E+03  0.00000000000E+00 0.  1.
         21   -1    0    0  501  502 -0.00000000000E+00 -0.00000000000E+00 -0.17380444576E+03  0.17380444576E+03  0.00000000000E+00 0.  1.
         25    1    1    2    0    0  0.77605886676E+02 -0.14350586127E+02 -0.10824701053E+03  0.18322398385E+03  0.12500000000E+03 0.  0.
         25    1    1    2    0    0 -0.77605886676E+02  0.14350586127E+02  0.16657329917E+03  0.22271119632E+03  0.12500000000E+03 0.  0.
</event>
<event>
 4    0  0.2222207E-002  0.3097918E+03  0.7546771E-02  0.1080446E+00
         21   -1    0    0  502  501  0.00000000000E+00  0.00000000000E+00  0.11918470134E+03  0.11918470134E+03  0.00000000000E+00 0. -1.
         21   -1    0    0  501  502 -0.00000000000E+00 -0.00000000000E+00 -0.80522888691E+03  0.80522888691E+03  0.00000000000E+00 0.  1.
         25    1    1    2    0    0 -0.13775290214E+03 -0.21844870468E+03 -0.16870621419E+03  0.33284002964E+03  0.12500000000E+03 0.  0.
         25    1    1    2    0    0  0.13775290214E+03  0.21844870468E+03 -0.51733797138E+03  0.59157355862E+03  0.12500000000E+03 0.  0.
</event>
<event>
 4    0  0.2222207E-002  0.1428212E+03  0.7546771E-02  0.1209582E+00
         21   -1    0    0  502  501  0.00000000000E+00  0.00000000000E+00  0.12437077618E+04  0.12437077618E+04  0.00000000000E+00 0.  1.
         21   -1    0    0  501  502 -0.00000000000E+00 -0.00000000000E+00 -0.16400878471E+02  0.16400878471E+02  0.00000000000E+00 0.  1.
         25    1    1    2    0    0  0.38519810543E+02 -0.57221022054E+02  0.59663704731E+03  0.61348087777E+03  0.12500000000E+03 0.  0.
         25    1    1    2    0    0 -0.38519810543E+02  0.57221022054E+02  0.63066983597E+03  0.64662776245E+03  0.12500000000E+03 0.  0.
</event>
<event>
 4    0  0.2222207E-002  0.1980338E+03  0.7546771E-02  0.1151409E+00
         21   -1    0    0  502  501  0.00000000000E+00  0.00000000000E+00  0.31144802041E+02  0.31144802041E+02  0.00000000000E+00 0. -1.
         21   -1    0    0  501  502 -0.00000000000E+00 -0.00000000000E+00 -0.12591952225E+04  0.12591952225E+04  0.00000000000E+00 0. -1.
         25    1    1    2    0    0  0.10138745546E+03 -0.59904505941E+02 -0.29275777553E+03  0.33941137443E+03  0.12500000000E+03 0.  0.
         25    1    1    2    0    0 -0.10138745546E+03  0.59904505941E+02 -0.93529264494E+03  0.95092865013E+03  0.12500000000E+03 0.  0.
</event>
<event>
 4    0  0.2222207E-002  0.2186176E+03  0.7546771E-02  0.1134918E+00
         21   -1    0    0  502  501  0.00000000000E+00  0.00000000000E+00  0.54099941196E+02  0.54099941196E+02  0.00000000000E+00 0.  1.
         21   -1    0    0  501  502 -0.00000000000E+00 -0.00000000000E+00 -0.88343274188E+03  0.88343274188E+03  0.00000000000E+00 0.  1.
         25    1    1    2    0    0  0.81852320998E+02  0.10089771403E+03 -0.67979332518E+03  0.70329518419E+03  0.12500000000E+03 0.  0.
         25    1    1    2    0    0 -0.81852320998E+02 -0.10089771403E+03 -0.14953947551E+03  0.23423749889E+03  0.12500000000E+03 0.  0.
</event>
<event>
 4    0  0.2222207E-002  0.2621790E+03  0.7546771E-02  0.1105841E+00
         21   -1    0    0  502  501  0.00000000000E+00  0.00000000000E+00  0.17635145285E+03  0.17635145285E+03  0.00000000000E+00 0. -1.
         21   -1    0    0  501  502 -0.00000000000E+00 -0.00000000000E+00 -0.38977757817E+03  0.38977757817E+03  0.00000000000E+00 0. -1.
         25    1    1    2    0    0 -0.15232357632E+03 -0.17281085039E+03 -0.99328600220E+02  0.28028063212E+03  0.12500000000E+03 0.  0.
         25    1    1    2    0    0  0.15232357632E+03  0.17281085039E+03 -0.11409752510E+03  0.28584839890E+03  0.12500000000E+03 0.  0.
</event>
<event>
 4    0  0.2222207E-002  0.2592543E+03  0.7546771E-02  0.1107592E+00
         21   -1    0    0  502  501  0.00000000000E+00  0.00000000000E+00  0.19032463209E+04  0.19032463209E+04  0.00000000000E+00 0. -1.
         21   -1    0    0  501  502 -0.00000000000E+00 -0.00000000000E+00 -0.35314809648E+02  0.35314809648E+02  0.00000000000E+00 0. -1.
         25    1    1    2    0    0 -0.86815690618E+02  0.20734164487E+03  0.81222676452E+03  0.85197701778E+03  0.12500000000E+03 0.  0.
         25    1    1    2    0    0  0.86815690618E+02 -0.20734164487E+03  0.10557047468E+04  0.10865841128E+04  0.12500000000E+03 0.  0.
</event>
<event>
 4    0  0.2222207E-002  0.2735347E+03  0.7546771E-02  0.1099273E+00
         21   -1    0    0  502  501  0.00000000000E+00  0.00000000000E+00  0.20726089197E+03  0.20726089197E+03  0.00000000000E+00 0.  1.
         21   -1    0    0  501  502 -0.00000000000E+00 -0.00000000000E+00 -0.36100032669E+03  0.36100032669E+03  0.00000000000E+00 0.  1.
         25    1    1    2    0    0 -0.67935818205E+02  0.71399396135E+02  0.15419519172E+03  0.22161747745E+03  0.12500000000E+03 0.  0.
         25    1    1    2    0    0  0.67935818205E+02 -0.71399396135E+02 -0.30793462644E+03  0.34664374121E+03  0.12500000000E+03 0.  0.
</event>
<event>
 4    0  0.2222207E-002  0.2268757E+03  0.7546771E-02  0.1128858E+00
         21   -1    0    0  502  501  0.00000000000E+00  0.00000000000E+00  0.13699407193E+03  0.13699407193E+03  0.00000000000E+00 0.  1.
         21   -1    0    0  501  502 -0.00000000000E+00 -0.00000000000E+00 -0.37572856856E+03  0.37572856856E+03  0.00000000000E+00 0.  1.
         25    1    1    2    0    0  0.50772186176E+02 -0.15648988934E+03 -0.22525085631E+03  0.30566296574E+03  0.12500000000E+03 0.  0.
         25    1    1    2    0    0 -0.50772186176E+02  0.15648988934E+03 -0.13483640327E+02  0.20705967476E+03  0.12500000000E+03 0.  0.
</event>
<event>
 4    0  0.2222207E-002  0.3007954E+03  0.7546771E-02  0.1084844E+00
         21   -1    0    0  502  501  0.00000000000E+00  0.00000000000E+00  0.13954839044E+04  0.13954839044E+04  0.00000000000E+00 0. -1.
         21   -1    0    0  501  502 -0.00000000000E+00 -0.00000000000E+00 -0.64836186939E+02  0.64836186939E+02  0.00000000000E+00 0. -1.
         25    1    1    2    0    0  0.37977152507E+02 -0.25614058406E+03  0.87974439385E+03  0.92554063197E+03  0.12500000000E+03 0.  0.
         25    1    1    2    0    0 -0.37977152507E+02  0.25614058406E+03  0.45090332356E+03  0.53477945932E+03  0.12500000000E+03 0.  0.
</event>
<event>
 4    0  0.2222207E-002  0.2096226E+03  0.7546771E-02  0.1141865E+00
         21   -1    0    0  502  501  0.00000000000E+00  0.00000000000E+00  0.40445182333E+03  0.40445182333E+03  0.00000000000E+00 0. -1.
         21   -1    0    0  501  502 -0.00000000000E+00 -0.00000000000E+00 -0.10864494216E+03  0.10864494216E+03  0.00000000000E+00 0. -1.
         25    1    1    2    0    0  0.42686070447E+01  0.16762848546E+03  0.16517306551E+03  0.26650454351E+03  0.12500000000E+03 0.  0.
         25    1    1    2    0    0 -0.42686070447E+01 -0.16762848546E+03  0.13063381566E+03  0.24659222197E+03  0.12500000000E+03 0.  0.
</event>
<event>
 4    0  0.2222207E-002  0.2187648E+03  0.7546771E-02  0.1134807E+00
         21   -1    0    0  502  501  0.00000000000E+00  0.00000000000E+00  0.12291755910E+04  0.12291755910E+04  0.00000000000E+00 0. -1.
         21   -1    0    0  501  502 -0.00000000000E+00 -0.00000000000E+00 -0.38935053213E+02  0.38935053213E+02  0.00000000000E+00 0. -1.
         25    1    1    2    0    0 -0.83989627449E+02  0.25719830781E+02  0.10489424080E+04  0.10600098785E+04  0.12500000000E+03 0.  0.
         25    1    1    2    0    0  0.83989627449E+02 -0.25719830781E+02  0.14129812983E+03  0.20810076575E+03  0.12500000000E+03 0.  0.
</event>
<event>
 4    0  0.2222207E-002  0.2625634E+03  0.7546771E-02  0.1105613E+00
         21   -1    0    0  502  501  0.00000000000E+00  0.00000000000E+00  0.32688212518E+03  0.32688212518E+03  0.00000000000E+00 0. -1.
         21   -1    0    0  501  502 -0.00000000000E+00 -0.00000000000E+00 -0.21090038187E+03  0.21090038187E+03  0.00000000000E+00 0. -1.
         25    1    1    2    0    0 -0.14545374985E+02  0.22986723667E+03  0.74632123221E+02  0.27248021625E+03  0.12500000000E+03 0.  0.
         25    1    1    2    0    0  0.14545374985E+02 -0.22986723667E+03  0.41349620086E+02  0.26530229081E+03  0.12500000000E+03 0.  0.
</event>
<event>
 4    0  0.2222207E-002  0.1886897E+03  0.7546771E-02  0.1159648E+00
         21   -1    0    0  502  501  0.00000000000E+00  0.00000000000E+00  0.22934347304E+03  0.22934347304E+03  0.00000000000E+00 0. -1.
         21   -1    0    0  501  502 -0.00000000000E+00 -0.00000000000E+00 -0.15524231690E+03  0.15524231690E+03  0.00000000000E+00 0. -1.
         25    1    1    2    0    0 -0.88098210431E+02 -0.32984716172E+02  0.14456168181E+03  0.21300790133E+03  0.12500000000E+03 0.  0.
         25    1    1    2    0    0  0.88098210431E+02  0.32984716172E+02 -0.70460525663E+02  0.17157788861E+03  0.12500000000E+03 0.  0.
</event>
<event>
 4    0  0.2222207E-002  0.2878884E+03  0.7546771E-02  0.1091457E+00
         21   -1    0    0  502  501  0.00000000000E+00  0.00000000000E+00  0.19956340654E+03  0.19956340654E+03  0.00000000000E+00 0. -1.
         21   -1    0    0  501  502 -0.00000000000E+00 -0.00000000000E+00 -0.41530528606E+03  0.41530528606E+03  0.00000000000E+00 0. -1.
         25    1    1    2    0    0  0.22056104173E+03  0.71230098395E+01 -0.25334315871E+03  0.35847687019E+03  0.12500000000E+03 0.  0.
         25    1    1    2    0    0 -0.22056104173E+03 -0.71230098395E+01  0.37601279193E+02  0.25639182240E+03  0.12500000000E+03 0.  0.
</event>
<event>
 4    0  0.2222207E-002  0.2752678E+03  0.7546771E-02  0.1098302E+00
         21   -1    0    0  502  501  0.00000000000E+00  0.00000000000E+00  0.41043339931E+03  0.41043339931E+03  0.00000000000E+00 0.  1.
         21   -1    0    0  501  502 -0.00000000000E+00 -0.00000000000E+00 -0.18461543972E+03  0.18461543972E+03  0.00000000000E+00 0.  1.
         25    1    1    2    0    0  0.17092061853E+02 -0.12085415997E+03  0.34282754286E+03  0.38477732613E+03  0.12500000000E+03 0.  0.
         25    1    1    2    0    0 -0.17092061853E+02  0.12085415997E+03 -0.11700958327E+03  0.21027151290E+03  0.12500000000E+03 0.  0.
</event>
<event>
 4    0  0.2222207E-002  0.2004878E+03  0.7546771E-02  0.1149328E+00
         21   -1    0    0  502  501  0.00000000000E+00  0.00000000000E+00  0.12794875374E+03  0.12794875374E+03  0.00000000000E+00 0.  1.
         21   -1    0    0  501  502 -0.00000000000E+00 -0.00000000000E+00 -0.31415200080E+03  0.31415200080E+03  0.00000000000E+00 0.  1.
         25    1    1    2    0    0 -0.10087526997E+03 -0.11891408033E+03 -0.11067283492E+03  0.22845099033E+03  0.12500000000E+03 0.  0.
         25    1    1    2    0    0  0.10087526997E+03  0.11891408033E+03 -0.75530412132E+02  0.21364976421E+03  0.12500000000E+03 0.  0.
</event>
<event>
 4    0  0.2222207E-002  0.2231438E+03  0.7546771E-02  0.1131561E+00
         21   -1    0    0  502  501  0.00000000000E+00  0.00000000000E+00  0.10299590742E+04  0.10299590742E+04  0.00000000000E+00 0.  1.
         21   -1    0    0  501  502 -0.00000000000E+00 -0.00000000000E+00 -0.48344805976E+02  0.48344805976E+02  0.00000000000E+00 0.  1.
         25    1    1    2    0    0  0.15713916812E+03  0.92950511702E+02  0.56065288633E+03  0.60273474658E+03  0.12500000000E+03 0.  0.
         25    1    1    2    0    0 -0.15713916812E+03 -0.92950511702E+02  0.42096138187E+03  0.47556913358E+03  0.12500000000E+03 0.  0.
</event>
<event>
 4    0  0.2222207E-002  0.2051388E+03  0.7546771E-02  0.1145474E+00
         21   -1    0    0  502  501  0.00000000000E+00  0.00000000000E+00  0.25641196080E+02  0.25641196080E+02  0.00000000000E+00 0. -1.
         21   -1    0    0  501  502 -0.00000000000E+00 -0.00000000000E+00 -0.16411841078E+04  0.16411841078E+04  0.00000000000E+00 0. -1.
         25    1    1    2    0    0 -0.12293078613E+03 -0.83782311286E+02 -0.10749668284E+04  0.10923873562E+04  0.12500000000E+03 0.  0.
         25    1    1    2    0    0  0.12293078613E+03  0.83782311286E+02 -0.54057608338E+03  0.57443794772E+03  0.12500000000E+03 0.  0.
</event>
<event>
 4    0  0.2222207E-002  0.2394574E+03  0.7546771E-02  0.1120155E+00
         21   -1    0    0  502  501  0.00000000000E+00  0.00000000000E+00  0.24403602373E+03  0.24403602373E+03  0.00000000000E+00 0. -1.
         21   -1    0    0  501  502 -0.00000000000E+00 -0.00000000000E+00 -0.23496471631E+03  0.23496471631E+03  0.00000000000E+00 0. -1.
         25    1    1    2    0    0  0.11274722325E+03 -0.15773023548E+03 -0.59694955617E+02  0.23828397189E+03  0.12500000000E+03 0.  0.
         25    1    1    2    0    0 -0.11274722325E+03  0.15773023548E+03  0.68766263032E+02  0.24071676815E+03  0.12500000000E+03 0.  0.
</event>
<event>
 4    0  0.2222207E-002  0.3719469E+03  0.7546771E-02  0.1053951E+00
         21   -1    0    0  502  501  0.00000000000E+00  0.00000000000E+00  0.39239096290E+03  0.39239096290E+03  0.00000000000E+00 0. -1.
         21   -1    0    0  501  502 -0.00000000000E+00 -0.00000000000E+00 -0.35256804582E+03  0.35256804582E+03  0.00000000000E+00 0. -1.
         25    1    1    2    0    0 -0.17071297692E+03  0.40504912956E+02  0.32355502515E+03  0.38871123313E+03  0.12500000000E+03 0.  0.
         25    1    1    2    0    0  0.17071297692E+03 -0.40504912956E+02 -0.28373210806E+03  0.35624777559E+03  0.12500000000E+03 0.  0.
</event>
<event>
 4    0  0.2222207E-002  0.1811217E+03  0.7546771E-02  0.1166722E+00
         21   -1    0    0  502  501  0.00000000000E+00  0.00000000000E+00  0.10783653364E+03  0.10783653364E+03  0.00000000000E+00 0.  1.
         21   -1    0    0  501  502 -0.00000000000E+00 -0.00000000000E+00 -0.30421106060E+03  0.30421106060E+03  0.00000000000E+00 0.  1.
         25    1    1    2    0    0 -0.10976121316E+03  0.23223230284E+02 -0.21095898231E+02  0.16928342879E+03  0.12500000000E+03 0.  0.
         25    1    1    2    0    0  0.10976121316E+03 -0.23223230284E+02 -0.17527862873E+03  0.24276416545E+03  0.12500000000E+03 0.  0.
</event>
<event>
 4    0  0.2222207E-002  0.1874531E+03  0.7546771E-02  0.1160779E+00
         21   -1    0    0  502  501  0.00000000000E+00  0.00000000000E+00  0.50959731091E+03  0.50959731091E+03  0.00000000000E+00 0. -1.
         21   -1    0    0  501  502 -0.00000000000E+00 -0.00000000000E+00 -0.68953801630E+02  0.68953801630E+02  0.00000000000E+00 0. -1.
         25    1    1    2    0    0  0.80812537031E+02  0.50335921119E+02  0.62574183361E+02  0.16912983037E+03  0.12500000000E+03 0.  0.
         25    1    1    2    0    0 -0.80812537031E+02 -0.50335921119E+02  0.37806932592E+03  0.40942128217E+03  0.12500000000E+03 0.  0.
</event>
<event>
 4    0  0.2222207E-002  0.2385187E+03  0.7546771E-02  0.1120784E+00
         21   -1    0    0  502  501  0.00000000000E+00  0.00000000000E+00  0.78406415518E+03  0.78406415518E+03  0.00000000000E+00 0.  1.
         21   -1    0    0  501  502 -0.00000000000E+00 -0.00000000000E+00 -0.72559318029E+02  0.72559318029E+02  0.00000000000E+00 0.  1.
         25    1    1    2    0    0  0.10684166143E+03 -0.16253353176E+02  0.46874450641E+02  0.17176008334E+03  0.12500000000E+03 0.  0.
         25    1    1    2    0    0 -0.10684166143E+03  0.16253353176E+02  0.66463038651E+03  0.68486338987E+03  0.12500000000E+03 0.  0.
</event>
<event>
 4    0  0.2222207E-002  0.4488052E+03  0.7546771E-02  0.1028079E+00
         21   -1    0    0  502  501  0.00000000000E+00  0.00000000000E+00  0.11919954287E+03  0.11919954287E+03  0.00000000000E+00 0. -1.
         21   -1    0    0  501  502 -0.00000000000E+00 -0.00000000000E+00 -0.16898228490E+04  0.16898228490E+04  0.00000000000E+00 0. -1.
         25    1    1    2    0    0  0.20572851149E+03  0.26064164269E+03 -0.23138447623E+03  0.42358241487E+03  0.12500000000E+03 0.  0.
         25    1    1    2    0    0 -0.20572851149E+03 -0.26064164269E+03 -0.13392388299E+04  0.13854399770E+04  0.12500000000E+03 0.  0.
</event>
<event>
 4    0  0.2222207E-002  0.1943759E+03  0.7546771E-02  0.1154573E+00
         21   -1    0    0  502  501  0.00000000000E+00  0.00000000000E+00  0.32496591090E+03  0.32496591090E+03  0.00000000000E+00 0. -1.
         21   -1    0    0  501  502 -0.00000000000E+00 -0.00000000000E+00 -0.11626446365E+03  0.11626446365E+03  0.00000000000E+00 0. -1.
         25    1    1    2    0    0  0.64028436614E+02  0.11619775304E+03  0.27745631338E+02  0.18438106889E+03  0.12500000000E+03 0.  0.
         25    1    1    2    0    0 -0.64028436614E+02 -0.11619775304E+03  0.18095581591E+03  0.25684930566E+03  0.12500000000E+03 0.  0.
</event>
<event>
 4    0  0.2222207E-002  0.1864090E+03  0.7546771E-02  0.1161741E+00
         21   -1    0    0  502  501  0.00000000000E+00  0.00000000000E+00  0.64906935862E+03  0.64906935862E+03  0.00000000000E+00 0. -1.
         21   -1    0    0  501  502 -0.00000000000E+00 -0.00000000000E+00 -0.53535572758E+02  0.53535572758E+02  0.00000000000E+00 0. -1.
         25    1    1    2    0    0 -0.11067425574E+03  0.77814102974E+02  0.24381805370E+03  0.30557498068E+03  0.12500000000E+03 0.  0.
         25    1    1    2    0    0  0.11067425574E+03 -0.77814102974E+02  0.35171573216E+03  0.39702995070E+03  0.12500000000E+03 0.  0.
</event>
<event>
 4    0  0.2222207E-002  0.1866770E+03  0.7546771E-02  0.1161493E+00
         21   -1    0    0  502  501  0.00000000000E+00  0.00000000000E+00  0.75191025906E+03  0.75191025906E+03  0.00000000000E+00 0. -1.
         21   -1    0    0  501  502 -0.00000000000E+00 -0.00000000000E+00 -0.46346380390E+02  0.46346380390E+02  0.00000000000E+00 0. -1.
         25    1    1    2    0    0  0.77507758903E+02 -0.49231424836E+02  0.13066827744E+03  0.20280627360E+03  0.12500000000E+03 0.  0.
         25    1    1    2    0    0 -0.77507758903E+02  0.49231424836E+02  0.57489560122E+03  0.59545036585E+03  0.12500000000E+03 0.  0.
</event>
<event>
 4    0  0.2222207E-002  0.2056069E+03  0.7546771E-02  0.1145093E+00
         21   -1    0    0  502  501  0.00000000000E+00  0.00000000000E+00  0.10205733641E+03  0.10205733641E+03  0.00000000000E+00 0. -1.
         21   -1    0    0  501  502 -0.00000000000E+00 -0.00000000000E+00 -0.41421995347E+03  0.41421995347E+03  0.00000000000E+00 0. -1.
         25    1    1    2    0    0  0.41109102908E+02 -0.65178714822E+02  0.24600961649E+02  0.14889066634E+03  0.12500000000E+03 0.  0.
         25    1    1    2    0    0 -0.41109102908E+02  0.65178714822E+02 -0.33676357872E+03  0.36738662354E+03  0.12500000000E+03 0.  0.
</event>
<event>
 4    0  0.2222207E-002  0.2441450E+03  0.7546771E-02  0.1117062E+00
         21   -1    0    0  502  501  0.00000000000E+00  0.00000000000E+00  0.36954834133E+03  0.36954834133E+03  0.00000000000E+00 0.  1.
         21   -1    0    0  501  502 -0.00000000000E+00 -0.00000000000E+00 -0.16129635042E+03  0.16129635042E+03  0.00000000000E+00 0.  1.
         25    1    1    2    0    0  0.70962015050E+02 -0.13065005076E+03  0.26492414249E+03  0.32850394917E+03  0.12500000000E+03 0.  0.
         25    1    1    2    0    0 -0.70962015050E+02  0.13065005076E+03 -0.56672151583E+02  0.20234074258E+03  0.12500000000E+03 0.  0.
</event>
<event>
 4    0  0.2222207E-002  0.2614532E+03  0.7546771E-02  0.1106273E+00
         21   -1    0    0  502  501  0.00000000000E+00  0.00000000000E+00  0.10433396662E+04  0.10433396662E+04  0.00000000000E+00 0.  1.
         21   -1    0    0  501  502 -0.00000000000E+00 -0.00000000000E+00 -0.65518252504E+02  0.65518252504E+02  0.00000000000E+00 0.  1.
         25    1    1    2    0    0  0.12447130594E+03 -0.18772754832E+02  0.89618795350E+03  0.91357723829E+03  0.12500000000E+03 0.  0.
         25    1    1    2    0    0 -0.12447130594E+03  0.18772754832E+02  0.81633460230E+02  0.19528068045E+03  0.12500000000E+03 0.  0.
</event>
<event>
 4    0  0.2222207E-002  0.2193508E+03  0.7546771E-02  0.1134368E+00
         21   -1    0    0  502  501  0.00000000000E+00  0.00000000000E+00  0.28072378993E+03  0.28072378993E+03  0.00000000000E+00 0.  1.
         21   -1    0    0  501  502 -0.00000000000E+00 -0.00000000000E+00 -0.17139539968E+03  0.17139539968E+03  0.00000000000E+00 0. -1.
         25    1    1    2    0    0  0.62840866884E+02  0.15620785578E+03 -0.11645731119E+02  0.21002497902E+03  0.12500000000E+03 0.  0.
         25    1    1    2    0    0 -0.62840866884E+02 -0.15620785578E+03  0.12097412137E+03  0.24209421059E+03  0.12500000000E+03 0.  0.
</event>
<event>
 4    0  0.2222207E-002  0.2044669E+03  0.7546771E-02  0.1146024E+00
         21   -1    0    0  502  501  0.00000000000E+00  0.00000000000E+00  0.10280971631E+03  0.10280971631E+03  0.00000000000E+00 0. -1.
         21   -1    0    0  501  502 -0.00000000000E+00 -0.00000000000E+00 -0.40664157036E+03  0.40664157036E+03  0.00000000000E+00 0. -1.
         25    1    1    2    0    0 -0.73360515305E+02 -0.82197833503E+02 -0.29955003043E+03  0.34277320456E+03  0.12500000000E+03 0.  0.
         25    1    1    2    0    0  0.73360515305E+02  0.82197833503E+02 -0.42818236245E+01  0.16667808210E+03  0.12500000000E+03 0.  0.
</event>
<event>
 4    0  0.2222207E-002  0.1582546E+03  0.7546771E-02  0.1190682E+00
         21   -1    0    0  502  501  0.00000000000E+00  0.00000000000E+00  0.27120686014E+02  0.27120686014E+02  0.00000000000E+00 0. -1.
         21   -1    0    0  501  502 -0.00000000000E+00 -0.00000000000E+00 -0.92344700565E+03  0.92344700565E+03  0.00000000000E+00 0. -1.
         25    1    1    2    0    0  0.56127813428E+02  0.38268159030E+02 -0.23998682772E+03  0.27898648876E+03  0.12500000000E+03 0.  0.
         25    1    1    2    0    0 -0.56127813428E+02 -0.38268159030E+02 -0.65633949192E+03  0.67158120290E+03  0.12500000000E+03 0.  0.
</event>
<event>
 4    0  0.2222207E-002  0.2554416E+03  0.7546771E-02  0.1109913E+00
         21   -1    0    0  502  501  0.00000000000E+00  0.00000000000E+00  0.45017618156E+03  0.45017618156E+03  0.00000000000E+00 0. -1.
         21   -1    0    0  501  502 -0.00000000000E+00 -0.00000000000E+00 -0.14494413379E+03  0.14494413379E+03  0.00000000000E+00 0. -1.
         25    1    1    2    0    0  0.12871445711E+03  0.11313339846E+03  0.31841821599E+03  0.38259866387E+03  0.12500000000E+03 0.  0.
         25    1    1    2    0    0 -0.12871445711E+03 -0.11313339846E+03 -0.13186168229E+02  0.21252165148E+03  0.12500000000E+03 0.  0.
</event>
<event>
 4    0  0.2222207E-002  0.2176500E+03  0.7546771E-02  0.1135647E+00
         21   -1    0    0  502  501  0.00000000000E+00  0.00000000000E+00  0.36350782273E+03  0.36350782273E+03  0.00000000000E+00 0.  1.
         21   -1    0    0  501  502 -0.00000000000E+00 -0.00000000000E+00 -0.13031778266E+03  0.13031778266E+03  0.00000000000E+00 0.  1.
         25    1    1    2    0    0 -0.12016926380E+03  0.65908125472E+02 -0.12562858809E+02  0.18592299047E+03  0.12500000000E+03 0.  0.
         25    1    1    2    0    0  0.12016926380E+03 -0.65908125472E+02  0.24575289888E+03  0.30790261491E+03  0.12500000000E+03 0.  0.
</event>
<event>
 4    0  0.2222207E-002  0.2574826E+03  0.7546771E-02  0.1108665E+00
         21   -1    0    0  502  501  0.00000000000E+00  0.00000000000E+00  0.10461619735E+04  0.10461619735E+04  0.00000000000E+00 0. -1.
         21   -1    0    0  501  502 -0.00000000000E+00 -0.00000000000E+00 -0.63371919914E+02  0.63371919914E+02  0.00000000000E+00 0. -1.
         25    1    1    2    0    0  0.79537216978E+02  0.18615683003E+03  0.70350640865E+03  0.74264850452E+03  0.12500000000E+03 0.  0.
         25    1    1    2    0    0 -0.79537216978E+02 -0.18615683003E+03  0.27928364490E+03  0.36688538886E+03  0.12500000000E+03 0.  0.
</event>
<event>
 4    0  0.2222207E-002  0.2201653E+03  0.7546771E-02  0.1133760E+00
         21   -1    0    0  502  501  0.00000000000E+00  0.00000000000E+00  0.82977106170E+02  0.82977106170E+02  0.00000000000E+00 0. -1.
         21   -1    0    0  501  502 -0.00000000000E+00 -0.00000000000E+00 -0.58417001607E+03  0.58417001607E+03  0.00000000000E+00 0. -1.
         25    1    1    2    0    0  0.13420509203E+03 -0.92531105706E+02 -0.13058016337E+03  0.24341156775E+03  0.12500000000E+03 0.  0.
         25    1    1    2    0    0 -0.13420509203E+03  0.92531105706E+02 -0.37061274653E+03  0.42373555449E+03  0.12500000000E+03 0.  0.
</event>
<event>
 4    0  0.2222207E-002  0.2296557E+03  0.7546771E-02  0.1126882E+00
         21   -1    0    0  502  501  0.00000000000E+00  0.00000000000E+00  0.84731926313E+02  0.84731926313E+02  0.00000000000E+00 0. -1.
         21   -1    0    0  501  502 -0.00000000000E+00 -0.00000000000E+00 -0.62245414695E+03  0.62245414695E+03  0.00000000000E+00 0. -1.
         25    1    1    2    0    0 -0.17892142583E+03 -0.59295182926E+02 -0.20750695035E+03  0.30694124809E+03  0.12500000000E+03 0.  0.
         25    1    1    2    0    0  0.17892142583E+03  0.59295182926E+02 -0.33021527029E+03  0.40024482517E+03  0.12500000000E+03 0.  0.
</event>
<event>
 4    0  0.2222207E-002  0.2940835E+03  0.7546771E-02  0.1088236E+00
         21   -1    0    0  502  501  0.00000000000E+00  0.00000000000E+00  0.60401105766E+02  0.60401105766E+02  0.00000000000E+00 0.  1.
         21   -1    0    0  501  502 -0.00000000000E+00 -0.00000000000E+00 -0.14318465009E+04  0.14318465009E+04  0.00000000000E+00 0.  1.
         25    1    1    2    0    0  0.12938808361E+03  0.14045913484E+03 -0.21522583511E+03  0.31371516514E+03  0.12500000000E+03 0.  0.
         25    1    1    2    0    0 -0.12938808361E+03 -0.14045913484E+03 -0.11562195600E+04  0.11785324415E+04  0.12500000000E+03 0.  0.
</event>
<event>
 4    0  0.2222207E-002  0.1651759E+03  0.7546771E-02  0.1182974E+00
         21   -1    0    0  502  501  0.00000000000E+00  0.00000000000E+00  0.33612606556E+03  0.33612606556E+03  0.00000000000E+00 0. -1.
         21   -1    0    0  501  502 -0.00000000000E+00 -0.00000000000E+00 -0.81169194158E+02  0.81169194158E+02  0.00000000000E+00 0. -1.
         25    1    1    2    0    0 -0.46112620353E+02  0.97133284954E+02  0.13990864970E+03  0.21624217688E+03  0.12500000000E+03 0.  0.
         25    1    1    2    0    0  0.46112620353E+02 -0.97133284954E+02  0.11504822171E+03  0.20105308284E+03  0.12500000000E+03 0.  0.
</event>
<event>
 4    0  0.2222207E-002  0.2234608E+03  0.7546771E-02  0.1131329E+00
         21   -1    0    0  502  501  0.00000000000E+00  0.00000000000E+00  0.59784543661E+03  0.59784543661E+03  0.00000000000E+00 0.  1.
         21   -1    0    0  501  502 -0.00000000000E+00 -0.00000000000E+00 -0.83524514767E+02  0.83524514767E+02  0.00000000000E+00 0.  1.
         25    1    1    2    0    0  0.33497748654E+02  0.16777862531E+02  0.53372093151E+03  0.54944210666E+03  0.12500000000E+03 0.  0.
         25    1    1    2    0    0 -0.33497748654E+02 -0.16777862531E+02 -0.19400009671E+02  0.13192784472E+03  0.12500000000E+03 0.  0.
</event>
<event>
 4    0  0.2222207E-002  0.3247940E+03  0.7546771E-02  0.1073464E+00
         21   -1    0    0  502  501  0.00000000000E+00  0.00000000000E+00  0.38509006469E+03  0.38509006469E+03  0.00000000000E+00 0.  1.
         21   -1    0    0  501  502 -0.00000000000E+00 -0.00000000000E+00 -0.27393891006E+03  0.27393891006E+03  0.00000000000E+00 0.  1.
         25    1    1    2    0    0 -0.14802556931E+03  0.22274856485E+03  0.19296030466E+03  0.35268565535E+03  0.12500000000E+03 0.  0.
         25    1    1    2    0    0  0.14802556931E+03 -0.22274856485E+03 -0.81809150030E+02  0.30634331940E+03  0.12500000000E+03 0.  0.
</event>
<event>
 4    0  0.2222207E-002  0.1687710E+03  0.7546771E-02  0.1179136E+00
         21   -1    0    0  502  501  0.00000000000E+00  0.00000000000E+00  0.14735123585E+03  0.14735123585E+03  0.00000000000E+00 0. -1.
         21   -1    0    0  501  502 -0.00000000000E+00 -0.00000000000E+00 -0.19330444892E+03  0.19330444892E+03  0.00000000000E+00 0. -1.
         25    1    1    2    0    0 -0.10296075749E+03 -0.21488116474E+02  0.19793478530E+02  0.16455831345E+03  0.12500000000E+03 0.  0.
         25    1    1    2    0    0  0.10296075749E+03  0.21488116474E+02 -0.65746691592E+02  0.17609737132E+03  0.12500000000E+03 0.  0.
</event>
<event>
 4    0  0.2222207E-002  0.2842304E+03  0.7546771E-02  0.1093401E+00
         21   -1    0    0  502  501  0.00000000000E+00  0.00000000000E+00  0.29607979673E+03  0.29607979673E+03  0.00000000000E+00 0. -1.
         21   -1    0    0  501  502 -0.00000000000E+00 -0.00000000000E+00 -0.27285516052E+03  0.27285516052E+03  0.00000000000E+00 0.  1.
         25    1    1    2    0    0  0.21644142987E+03  0.65507126788E+02 -0.10690870193E+03  0.27962930242E+03  0.12500000000E+03 0.  0.
         25    1    1    2    0    0 -0.21644142987E+03 -0.65507126788E+02  0.13013333814E+03  0.28930565483E+03  0.12500000000E+03 0.  0.
</event>
<event>
 4    0  0.2222207E-002  0.2415826E+03  0.7546771E-02  0.1118743E+00
         21   -1    0    0  502  501  0.00000000000E+00  0.00000000000E+00  0.52043285137E+03  0.52043285137E+03  0.00000000000E+00 0.  1.
         21   -1    0    0  501  502 -0.00000000000E+00 -0.00000000000E+00 -0.11214159685E+03  0.11214159685E+03  0.00000000000E+00 0.  1.
         25    1    1    2    0    0  0.88491630721E+02  0.74811551677E+02  0.42828653590E+03  0.46095758352E+03  0.12500000000E+03 0.  0.
         25    1    1    2    0    0 -0.88491630721E+02 -0.74811551677E+02 -0.19995281375E+02  0.17161686470E+03  0.12500000000E+03 0.  0.
</event>
<event>
 4    0  0.2222207E-002  0.2607969E+03  0.7546771E-02  0.1106665E+00
         21   -1    0    0  502  501  0.00000000000E+00  0.00000000000E+00  0.45473406288E+03  0.45473406288E+03  0.00000000000E+00 0.  1.
         21   -1    0    0  501  502 -0.00000000000E+00 -0.00000000000E+00 -0.14957094247E+03  0.14957094247E+03  0.00000000000E+00 0.  1.
         25    1    1    2    0    0 -0.20072624700E+02  0.75218608730E+02  0.40195574077E+03  0.42808196282E+03  0.12500000000E+03 0.  0.
         25    1    1    2    0    0  0.20072624700E+02 -0.75218608730E+02 -0.96792620357E+02  0.17622304253E+03  0.12500000000E+03 0.  0.
</event>
<event>
 4    0  0.2222207E-002  0.1787399E+03  0.7546771E-02  0.1169028E+00
         21   -1    0    0  502  501  0.00000000000E+00  0.00000000000E+00  0.10518665106E+03  0.10518665106E+03  0.00000000000E+00 0.  1.
         21   -1    0    0  501  502 -0.00000000000E+00 -0.00000000000E+00 -0.30372635060E+03  0.30372635060E+03  0.00000000000E+00 0.  1.
         25    1    1    2    0    0 -0.88529428798E+02  0.71785235405E+02 -0.33237539117E+02  0.17239580561E+03  0.12500000000E+03 0.  0.
         25    1    1    2    0    0  0.88529428798E+02 -0.71785235405E+02 -0.16530216043E+03  0.23651719605E+03  0.12500000000E+03 0.  0.
</event>
<event>
 4    0  0.2222207E-002  0.1817085E+03  0.7546771E-02  0.1166160E+00
         21   -1    0    0  502  501  0.00000000000E+00  0.00000000000E+00  0.38036884308E+03  0.38036884308E+03  0.00000000000E+00 0. -1.
         21   -1    0    0  501  502 -0.00000000000E+00 -0.00000000000E+00 -0.86805117329E+02  0.86805117329E+02  0.00000000000E+00 0. -1.
         25    1    1    2    0    0 -0.63284142175E+02  0.55843506995E+02  0.27705350462E+03  0.31544734005E+03  0.12500000000E+03 0.  0.
         25    1    1    2    0    0  0.63284142175E+02 -0.55843506995E+02  0.16510221137E+02  0.15172662036E+03  0.12500000000E+03 0.  0.
</event>
<event>
 4    0  0.2222207E-002  0.2712361E+03  0.7546771E-02  0.1100574E+00
         21   -1    0    0  502  501  0.00000000000E+00  0.00000000000E+00  0.10325289131E+03  0.10325289131E+03  0.00000000000E+00 0.  1.
         21   -1    0    0  501  502 -0.00000000000E+00 -0.00000000000E+00 -0.71251316549E+03  0.71251316549E+03  0.00000000000E+00 0.  1.
         25    1    1    2    0    0  0.46237743775E+02 -0.19477112467E+03 -0.50565709318E+03  0.55802133995E+03  0.12500000000E+03 0.  0.
         25    1    1    2    0    0 -0.46237743775E+02  0.19477112467E+03 -0.10360318100E+03  0.25774471686E+03  0.12500000000E+03 0.  0.
</event>
<event>
 4    0  0.2222207E-002  0.2189923E+03  0.7546771E-02  0.1134637E+00
         21   -1    0    0  502  501  0.00000000000E+00  0.00000000000E+00  0.34455563063E+03  0.34455563063E+03  0.00000000000E+00 0. -1.
         21   -1    0    0  501  502 -0.00000000000E+00 -0.00000000000E+00 -0.13918693886E+03  0.13918693886E+03  0.00000000000E+00 0. -1.
         25    1    1    2    0    0  0.13855331068E+03 -0.73106763427E+02  0.51960035991E+01  0.20048345870E+03  0.12500000000E+03 0.  0.
         25    1    1    2    0    0 -0.13855331068E+03  0.73106763427E+02  0.20017268817E+03  0.28325911080E+03  0.12500000000E+03 0.  0.
</event>
<event>
 4    0  0.2222207E-002  0.1431700E+03  0.7546771E-02  0.1209126E+00
         21   -1    0    0  502  501  0.00000000000E+00  0.00000000000E+00  0.41509195737E+03  0.41509195737E+03  0.00000000000E+00 0. -1.
         21   -1    0    0  501  502 -0.00000000000E+00 -0.00000000000E+00 -0.49380992356E+02  0.49380992356E+02  0.00000000000E+00 0. -1.
         25    1    1    2    0    0 -0.22644875672E+02 -0.66028818151E+02  0.18324462852E+03  0.23254287583E+03  0.12500000000E+03 0.  0.
         25    1    1    2    0    0  0.22644875672E+02  0.66028818151E+02  0.18246633650E+03  0.23193007389E+03  0.12500000000E+03 0.  0.
</event>
<event>
 4    0  0.2222207E-002  0.1953145E+03  0.7546771E-02  0.1153753E+00
         21   -1    0    0  502  501  0.00000000000E+00  0.00000000000E+00  0.11025263276E+04  0.11025263276E+04  0.00000000000E+00 0.  1.
         21   -1    0    0  501  502 -0.00000000000E+00 -0.00000000000E+00 -0.34600322299E+02  0.34600322299E+02  0.00000000000E+00 0.  1.
         25    1    1    2    0    0 -0.11528592130E+03 -0.68720724253E+02  0.33848273345E+03  0.38497914545E+03  0.12500000000E+03 0.  0.
         25    1    1    2    0    0  0.11528592130E+03  0.68720724253E+02  0.72944327188E+03  0.75214750447E+03  0.12500000000E+03 0.  0.
</event>
<event>
 4    0  0.2222207E-002  0.1822930E+03  0.7546771E-02  0.1165602E+00
         21   -1    0    0  502  501  0.00000000000E+00  0.00000000000E+00  0.16089444026E+02  0.16089444026E+02  0.00000000000E+00 0.  1.
         21   -1    0    0  501  502 -0.00000000000E+00 -0.00000000000E+00 -0.20653756907E+04  0.20653756907E+04  0.00000000000E+00 0.  1.
         25    1    1    2    0    0  0.53833506966E+02  0.57399185285E+02 -0.16345585866E+04  0.16412189025E+04  0.12500000000E+03 0.  0.
         25    1    1    2    0    0 -0.53833506966E+02 -0.57399185285E+02 -0.41472766004E+03  0.44024623217E+03  0.12500000000E+03 0.  0.
</event>
<event>
 4    0  0.2222207E-002  0.2355642E+03  0.7546771E-02  0.1122784E+00
         21   -1    0    0  502  501  0.00000000000E+00  0.00000000000E+00  0.49594485055E+03  0.49594485055E+03  0.00000000000E+00 0. -1.
         21   -1    0    0  501  502 -0.00000000000E+00 -0.00000000000E+00 -0.11188842554E+03  0.11188842554E+03  0.00000000000E+00 0. -1.
         25    1    1    2    0    0  0.19874592289E+03 -0.16258083916E+02  0.20500840741E+03  0.31211810948E+03  0.12500000000E+03 0.  0.
         25    1    1    2    0    0 -0.19874592289E+03  0.16258083916E+02  0.17904801760E+03  0.29571516661E+03  0.12500000000E+03 0.  0.
</event>
<event>
 4    0  0.2222207E-002  0.2581671E+03  0.7546771E-02  0.1108249E+00
         21   -1    0    0  502  501  0.00000000000E+00  0.00000000000E+00  0.15385263254E+03  0.15385263254E+03  0.00000000000E+00 0.  1.
         21   -1    0    0  501  502 -0.00000000000E+00 -0.00000000000E+00 -0.43320845219E+03  0.43320845219E+03  0.00000000000E+00 0.  1.
         25    1    1    2    0    0 -0.20063363527E+03 -0.92408157315E+02 -0.19339504692E+03  0.31909209848E+03  0.12500000000E+03 0.  0.
         25    1    1    2    0    0  0.20063363527E+03  0.92408157315E+02 -0.85960772732E+02  0.26796898624E+03  0.12500000000E+03 0.  0.
</event>
<event>
 4    0  0.2222207E-002  0.1994281E+03  0.7546771E-02  0.1150222E+00
         21   -1    0    0  502  501  0.00000000000E+00  0.00000000000E+00  0.90005958794E+03  0.90005958794E+03  0.00000000000E+00 0. -1.
         21   -1    0    0  501  502 -0.00000000000E+00 -0.00000000000E+00 -0.44187699433E+02  0.44187699433E+02  0.00000000000E+00 0. -1.
         25    1    1    2    0    0 -0.48796183476E+02  0.11767286690E+03  0.63860143080E+03  0.66307221216E+03  0.12500000000E+03 0.  0.
         25    1    1    2    0    0  0.48796183476E+02 -0.11767286690E+03  0.21727045771E+03  0.28117507521E+03  0.12500000000E+03 0.  0.
</event>
<event>
 4    0  0.2222207E-002  0.1957142E+03  0.7546771E-02  0.1153406E+00
         21   -1    0    0  502  501  0.00000000000E+00  0.00000000000E+00  0.16285862233E+03  0.16285862233E+03  0.00000000000E+00 0. -1.
         21   -1    0    0  501  502 -0.00000000000E+00 -0.00000000000E+00 -0.23519813518E+03  0.23519813518E+03  0.00000000000E+00 0. -1.
         25    1    1    2    0    0 -0.10819732246E+03  0.10388154940E+03 -0.49851480504E+02  0.20151478110E+03  0.12500000000E+03 0.  0.
         25    1    1    2    0    0  0.10819732246E+03 -0.10388154940E+03 -0.22488032351E+02  0.19654197641E+03  0.12500000000E+03 0.  0.
</event>
<event>
 4    0  0.2222207E-002  0.2006224E+03  0.7546771E-02  0.1149215E+00
         21   -1    0    0  502  501  0.00000000000E+00  0.00000000000E+00  0.68502323853E+03  0.68502323853E+03  0.00000000000E+00 0. -1.
         21   -1    0    0  501  502 -0.00000000000E+00 -0.00000000000E+00 -0.58756189487E+02  0.58756189487E+02  0.00000000000E+00 0. -1.
         25    1    1    2    0    0 -0.99724940475E+02  0.67749399721E+02  0.49932742172E+03  0.52866616971E+03  0.12500000000E+03 0.  0.
         25    1    1    2    0    0  0.99724940475E+02 -0.67749399721E+02  0.12693962733E+03  0.21511325831E+03  0.12500000000E+03 0.  0.
</event>
<event>
 4    0  0.2222207E-002  0.2538980E+03  0.7546771E-02  0.1110866E+00
         21   -1    0    0  502  501  0.00000000000E+00  0.00000000000E+00  0.18989236859E+03  0.18989236859E+03  0.00000000000E+00 0.  1.
         21   -1    0    0  501  502 -0.00000000000E+00 -0.00000000000E+00 -0.33947759326E+03  0.33947759326E+03  0.00000000000E+00 0.  1.
         25    1    1    2    0    0 -0.51094043093E+02  0.99287798335E+01 -0.29869659479E+03  0.32795401758E+03  0.12500000000E+03 0.  0.
         25    1    1    2    0    0  0.51094043093E+02 -0.99287798335E+01  0.14911137011E+03  0.20141594427E+03  0.12500000000E+03 0.  0.
</event>
<event>
 4    0  0.2222207E-002  0.1798275E+03  0.7546771E-02  0.1167970E+00
         21   -1    0    0  502  501  0.00000000000E+00  0.00000000000E+00  0.30071983034E+02  0.30071983034E+02  0.00000000000E+00 0.  1.
         21   -1    0    0  501  502 -0.00000000000E+00 -0.00000000000E+00 -0.10753502613E+04  0.10753502613E+04  0.00000000000E+00 0.  1.
         25    1    1    2    0    0 -0.31935732498E+02 -0.12328698633E+03 -0.59090704748E+03  0.61726470074E+03  0.12500000000E+03 0.  0.
         25    1    1    2    0    0  0.31935732498E+02  0.12328698633E+03 -0.45437123076E+03  0.48815754358E+03  0.12500000000E+03 0.  0.
</event>
<event>
 4    0  0.2222207E-002  0.2449080E+03  0.7546771E-02  0.1116566E+00
         21   -1    0    0  502  501  0.00000000000E+00  0.00000000000E+00  0.61398352350E+03  0.61398352350E+03  0.00000000000E+00 0.  1.
         21   -1    0    0  501  502 -0.00000000000E+00 -0.00000000000E+00 -0.97689762109E+02  0.97689762109E+02  0.00000000000E+00 0.  1.
         25    1    1    2    0    0 -0.18268662177E+03  0.10069004487E+03  0.21598613083E+03  0.32525051210E+03  0.12500000000E+03 0.  0.
         25    1    1    2    0    0  0.18268662177E+03 -0.10069004487E+03  0.30030763056E+03  0.38642277350E+03  0.12500000000E+03 0.  0.
</event>
<event>
 4    0  0.2222207E-002  0.1749887E+03  0.7546771E-02  0.1172743E+00
         21   -1    0    0  502  501  0.00000000000E+00  0.00000000000E+00  0.59846116948E+03  0.59846116948E+03  0.00000000000E+00 0. -1.
         21   -1    0    0  501  502 -0.00000000000E+00 -0.00000000000E+00 -0.51166327116E+02  0.51166327116E+02  0.00000000000E+00 0. -1.
         25    1    1    2    0    0  0.16713352608E+02 -0.10366541036E+03  0.15668917658E+03  0.22627936609E+03  0.12500000000E+03 0.  0.
         25    1    1    2    0    0 -0.16713352608E+02  0.10366541036E+03  0.39060566578E+03  0.42334813051E+03  0.12500000000E+03 0.  0.
</event>
<event>
 4    0  0.2222207E-002  0.1586871E+03  0.7546771E-02  0.1190187E+00
         21   -1    0    0  502  501  0.00000000000E+00  0.00000000000E+00  0.65658770696E+03  0.65658770696E+03  0.00000000000E+00 0.  1.
         21   -1    0    0  501  502 -0.00000000000E+00 -0.00000000000E+00 -0.38352197778E+02  0.38352197778E+02  0.00000000000E+00 0.  1.
         25    1    1    2    0    0  0.79700050288E+02 -0.18238790534E+02  0.42646019724E+03  0.45186065477E+03  0.12500000000E+03 0.  0.
         25    1    1    2    0    0 -0.79700050288E+02  0.18238790534E+02  0.19177531194E+03  0.24307924997E+03  0.12500000000E+03 0.  0.
</event>
<event>
 4    0  0.2222207E-002  0.2180845E+03  0.7546771E-02  0.1135319E+00
         21   -1    0    0  502  501  0.00000000000E+00  0.00000000000E+00  0.79796099169E+03  0.79796099169E+03  0.00000000000E+00 0. -1.
         21   -1    0    0  501  502 -0.00000000000E+00 -0.00000000000E+00 -0.59602967017E+02  0.59602967017E+02  0.00000000000E+00 0. -1.
         25    1    1    2    0    0  0.98510787323E+02 -0.13645359034E+03  0.25101677119E+03  0.32704491580E+03  0.12500000000E+03 0.  0.
         25    1    1    2    0    0 -0.98510787323E+02  0.13645359034E+03  0.48734125349E+03  0.53051904291E+03  0.12500000000E+03 0.  0.
</event>
<event>
 4    0  0.2222207E-002  0.2737791E+03  0.7546771E-02  0.1099136E+00
         21   -1    0    0  502  501  0.00000000000E+00  0.00000000000E+00  0.66176439666E+03  0.66176439666E+03  0.00000000000E+00 0. -1.
         21   -1    0    0  501  502 -0.00000000000E+00 -0.00000000000E+00 -0.11326537681E+03  0.11326537681E+03  0.00000000000E+00 0. -1.
         25    1    1    2    0    0 -0.13371812911E+02  0.39772440636E+02 -0.65363043529E+02  0.14716650391E+03  0.12500000000E+03 0.  0.
         25    1    1    2    0    0  0.13371812911E+02 -0.39772440636E+02  0.61386206337E+03  0.62786326956E+03  0.12500000000E+03 0.  0.
</event>
<event>
 4    0  0.2222207E-002  0.3764454E+03  0.7546771E-02  0.1052255E+00
         21   -1    0    0  502  501  0.00000000000E+00  0.00000000000E+00  0.11463738269E+03  0.11463738269E+03  0.00000000000E+00 0. -1.
         21   -1    0    0  501  502 -0.00000000000E+00 -0.00000000000E+00 -0.12361683653E+04  0.12361683653E+04  0.00000000000E+00 0. -1.
         25    1    1    2    0    0 -0.19753989475E+02  0.91615731008E+01 -0.11966473602E+04  0.12033553337E+04  0.12500000000E+03 0.  0.
         25    1    1    2    0    0  0.19753989475E+02 -0.91615731008E+01  0.75116377510E+02  0.14745041435E+03  0.12500000000E+03 0.  0.
</event>
<event>
 4    0  0.2222207E-002  0.2159899E+03  0.7546771E-02  0.1136909E+00
         21   -1    0    0  502  501  0.00000000000E+00  0.00000000000E+00  0.12100251894E+03  0.12100251894E+03  0.00000000000E+00 0.  1.
         21   -1    0    0  501  502 -0.00000000000E+00 -0.00000000000E+00 -0.38554278237E+03  0.38554278237E+03  0.00000000000E+00 0.  1.
         25    1    1    2    0    0  0.59725129009E+02  0.37427512643E+02 -0.32156179693E+03  0.35212909420E+03  0.12500000000E+03 0.  0.
         25    1    1    2    0    0 -0.59725129009E+02 -0.37427512643E+02  0.57021533499E+02  0.15441620712E+03  0.12500000000E+03 0.  0.
</event>
<event>
 4    0  0.2222207E-002  0.1581010E+03  0.7546771E-02  0.1190858E+00
         21   -1    0    0  502  501  0.00000000000E+00  0.00000000000E+00  0.30003865820E+03  0.30003865820E+03  0.00000000000E+00 0.  1.
         21   -1    0    0  501  502 -0.00000000000E+00 -0.00000000000E+00 -0.83309013674E+02  0.83309013674E+02  0.00000000000E+00 0.  1.
         25    1    1    2    0    0  0.34029566889E+02  0.22216488769E+01 -0.14715828506E+01  0.12957666728E+03  0.12500000000E+03 0.  0.
         25    1    1    2    0    0 -0.34029566889E+02 -0.22216488769E+01  0.21820122738E+03  0.25377100460E+03  0.12500000000E+03 0.  0.
</event>
<event>
 4    0  0.2222207E-002  0.2684282E+03  0.7546771E-02  0.1102183E+00
         21   -1    0    0  502  501  0.00000000000E+00  0.00000000000E+00  0.75663009819E+03  0.75663009819E+03  0.00000000000E+00 0. -1.
         21   -1    0    0  501  502 -0.00000000000E+00 -0.00000000000E+00 -0.95229736297E+02  0.95229736297E+02  0.00000000000E+00 0. -1.
         25    1    1    2    0    0 -0.19336952439E+03  0.88484516390E+02  0.16271826676E+03  0.29550552777E+03  0.12500000000E+03 0.  0.
         25    1    1    2    0    0  0.19336952439E+03 -0.88484516390E+02  0.49868209513E+03  0.55635430672E+03  0.12500000000E+03 0.  0.
</event>
<event>
 4    0  0.2222207E-002  0.1689229E+03  0.7546771E-02  0.1178976E+00
         21   -1    0    0  502  501  0.00000000000E+00  0.00000000000E+00  0.94388100458E+03  0.94388100458E+03  0.00000000000E+00 0. -1.
         21   -1    0    0  501  502 -0.00000000000E+00 -0.00000000000E+00 -0.30231525787E+02  0.30231525787E+02  0.00000000000E+00 0. -1.
         25    1    1    2    0    0 -0.10272146860E+03 -0.11367787607E+01  0.59680524448E+03  0.61834819658E+03  0.12500000000E+03 0.  0.
         25    1    1    2    0    0  0.10272146860E+03  0.11367787607E+01  0.31684423432E+03  0.35576433379E+03  0.12500000000E+03 0.  0.
</event>
<event>
 4    0  0.2222207E-002  0.2554302E+03  0.7546771E-02  0.1109920E+00
         21   -1    0    0  502  501  0.00000000000E+00  0.00000000000E+00  0.92746175744E+03  0.92746175744E+03  0.00000000000E+00 0.  1.
         21   -1    0    0  501  502 -0.00000000000E+00 -0.00000000000E+00 -0.70347487779E+02  0.70347487779E+02  0.00000000000E+00 0.  1.
         25    1    1    2    0    0 -0.91229647591E+01 -0.12415657116E+03  0.67763037833E+02  0.18898389334E+03  0.12500000000E+03 0.  0.
         25    1    1    2    0    0  0.91229647591E+01  0.12415657116E+03  0.78935123183E+03  0.80882535188E+03  0.12500000000E+03 0.  0.
</event>
<event>
 4    0  0.2222207E-002  0.2575538E+03  0.7546771E-02  0.1108622E+00
         21   -1    0    0  502  501  0.00000000000E+00  0.00000000000E+00  0.18911428372E+03  0.18911428372E+03  0.00000000000E+00 0.  1.
         21   -1    0    0  501  502 -0.00000000000E+00 -0.00000000000E+00 -0.35076134521E+03  0.35076134521E+03  0.00000000000E+00 0.  1.
         25    1    1    2    0    0 -0.15832647588E+02  0.22330499553E+03 -0.55297021068E+02  0.26229478511E+03  0.12500000000E+03 0.  0.
         25    1    1    2    0    0  0.15832647588E+02 -0.22330499553E+03 -0.10635004041E+03  0.27758084382E+03  0.12500000000E+03 0.  0.
</event>
<event>
 4    0  0.2222207E-002  0.2435844E+03  0.7546771E-02  0.1117428E+00
         21   -1    0    0  502  501  0.00000000000E+00  0.00000000000E+00  0.41990111629E+03  0.41990111629E+03  0.00000000000E+00 0.  1.
         21   -1    0    0  501  502 -0.00000000000E+00 -0.00000000000E+00 -0.14130314040E+03  0.14130314040E+03  0.00000000000E+00 0.  1.
         25    1    1    2    0    0  0.14007440225E+03  0.14396034567E+03  0.72495326590E+02  0.24743886450E+03  0.12500000000E+03 0.  0.
         25    1    1    2    0    0 -0.14007440225E+03 -0.14396034567E+03  0.20610264930E+03  0.31376539219E+03  0.12500000000E+03 0.  0.
</event>
<event>
 4    0  0.2222207E-002  0.2152341E+03  0.7546771E-02  0.1137487E+00
         21   -1    0    0  502  501  0.00000000000E+00  0.00000000000E+00  0.21834042933E+03  0.21834042933E+03  0.00000000000E+00 0. -1.
         21   -1    0    0  501  502 -0.00000000000E+00 -0.00000000000E+00 -0.21217200603E+03  0.21217200603E+03  0.00000000000E+00 0. -1.
         25    1    1    2    0    0  0.65297917763E+02 -0.15509423232E+03 -0.45733584050E+02  0.21455675164E+03  0.12500000000E+03 0.  0.
         25    1    1    2    0    0 -0.65297917763E+02  0.15509423232E+03  0.51902007350E+02  0.21595568372E+03  0.12500000000E+03 0.  0.
</event>
<event>
 4    0  0.2222207E-002  0.6099016E+03  0.7546771E-02  0.9885074E-01
         21   -1    0    0  502  501  0.00000000000E+00  0.00000000000E+00  0.54584590876E+03  0.54584590876E+03  0.00000000000E+00 0. -1.
         21   -1    0    0  501  502 -0.00000000000E+00 -0.00000000000E+00 -0.68147435638E+03  0.68147435638E+03  0.00000000000E+00 0.  1.
         25    1    1    2    0    0 -0.26067360840E+03 -0.51797773711E+03 -0.21047416709E+03  0.62942516733E+03  0.12500000000E+03 0.  0.
         25    1    1    2    0    0  0.26067360840E+03  0.51797773711E+03  0.74845719471E+02  0.59789509781E+03  0.12500000000E+03 0.  0.
</event>
<event>
 4    0  0.2222207E-002  0.2158555E+03  0.7546771E-02  0.1137011E+00
         21   -1    0    0  502  501  0.00000000000E+00  0.00000000000E+00  0.76849810384E+02  0.76849810384E+02  0.00000000000E+00 0. -1.
         21   -1    0    0  501  502 -0.00000000000E+00 -0.00000000000E+00 -0.60629445545E+03  0.60629445545E+03  0.00000000000E+00 0. -1.
         25    1    1    2    0    0  0.54776062146E+02 -0.15718889949E+03 -0.35507017428E+03  0.41159275475E+03  0.12500000000E+03 0.  0.
         25    1    1    2    0    0 -0.54776062146E+02  0.15718889949E+03 -0.17437447079E+03  0.27155151108E+03  0.12500000000E+03 0.  0.
</event>
<event>
 4    0  0.2222207E-002  0.2611851E+03  0.7546771E-02  0.1106433E+00
         21   -1    0    0  502  501  0.00000000000E+00  0.00000000000E+00  0.10295070621E+04  0.10295070621E+04  0.00000000000E+00 0.  1.
         21   -1    0    0  501  502 -0.00000000000E+00 -0.00000000000E+00 -0.66262456793E+02  0.66262456793E+02  0.00000000000E+00 0.  1.
         25    1    1    2    0    0 -0.22658286512E+03  0.32558555240E+02  0.45249442322E+03  0.52227967348E+03  0.12500000000E+03 0.  0.
         25    1    1    2    0    0  0.22658286512E+03 -0.32558555240E+02  0.51075018208E+03  0.57348984541E+03  0.12500000000E+03 0.  0.
</event>
<event>
 4    0  0.2222207E-002  0.2120369E+03  0.7546771E-02  0.1139963E+00
         21   -1    0    0  502  501  0.00000000000E+00  0.00000000000E+00  0.27439231674E+02  0.27439231674E+02  0.00000000000E+00 0.  1.
         21   -1    0    0  501  502 -0.00000000000E+00 -0.00000000000E+00 -0.16385163875E+04  0.16385163875E+04  0.00000000000E+00 0.  1.
         25    1    1    2    0    0 -0.12288416362E+03 -0.74370084468E+01 -0.33775834738E+03  0.38060678920E+03  0.12500000000E+03 0.  0.
         25    1    1    2    0    0  0.12288416362E+03  0.74370084468E+01 -0.12733188084E+04  0.12853488299E+04  0.12500000000E+03 0.  0.
</event>
<event>
 4    0  0.2222207E-002  0.2031342E+03  0.7546771E-02  0.1147121E+00
         21   -1    0    0  502  501  0.00000000000E+00  0.00000000000E+00  0.17477839823E+03  0.17477839823E+03  0.00000000000E+00 0.  1.
         21   -1    0    0  501  502 -0.00000000000E+00 -0.00000000000E+00 -0.23609033498E+03  0.23609033498E+03  0.00000000000E+00 0.  1.
         25    1    1    2    0    0  0.15829338601E+03  0.17355227714E+02 -0.13718469784E+02  0.20290686631E+03  0.12500000000E+03 0.  0.
         25    1    1    2    0    0 -0.15829338601E+03 -0.17355227714E+02 -0.47593466975E+02  0.20796186690E+03  0.12500000000E+03 0.  0.
</event>
<event>
 4    0  0.2222207E-002  0.2019060E+03  0.7546771E-02  0.1148141E+00
         21   -1    0    0  502  501  0.00000000000E+00  0.00000000000E+00  0.15017876432E+03  0.15017876432E+03  0.00000000000E+00 0. -1.
         21   -1    0    0  501  502 -0.00000000000E+00 -0.00000000000E+00 -0.27144992191E+03  0.27144992191E+03  0.00000000000E+00 0. -1.
         25    1    1    2    0    0 -0.58072908546E+01  0.15025751032E+03 -0.11315364196E+03  0.22591987678E+03  0.12500000000E+03 0.  0.
         25    1    1    2    0    0  0.58072908546E+01 -0.15025751032E+03 -0.81175156261E+01  0.19570880945E+03  0.12500000000E+03 0.  0.
</event>
<event>
 4    0  0.2222207E-002  0.2040145E+03  0.7546771E-02  0.1146396E+00
         21   -1    0    0  502  501  0.00000000000E+00  0.00000000000E+00  0.10810621540E+02  0.10810621540E+02  0.00000000000E+00 0. -1.
         21   -1    0    0  501  502 -0.00000000000E+00 -0.00000000000E+00 -0.38500934915E+04  0.38500934915E+04  0.00000000000E+00 0. -1.
         25    1    1    2    0    0 -0.13173188274E+03  0.89583350460E+02 -0.16843283155E+04  0.16964567014E+04  0.12500000000E+03 0.  0.
         25    1    1    2    0    0  0.13173188274E+03 -0.89583350460E+02 -0.21549545545E+04  0.21644474116E+04  0.12500000000E+03 0.  0.
</event>
<event>
 4    0  0.2222207E-002  0.1528438E+03  0.7546771E-02  0.1197022E+00
         21   -1    0    0  502  501  0.00000000000E+00  0.00000000000E+00  0.75286310809E+02  0.75286310809E+02  0.00000000000E+00 0.  1.
         21   -1    0    0  501  502 -0.00000000000E+00 -0.00000000000E+00 -0.31029832146E+03  0.31029832146E+03  0.00000000000E+00 0.  1.
         25    1    1    2    0    0 -0.11860135508E+02 -0.27134278371E+02 -0.13038459639E+02  0.12911984087E+03  0.12500000000E+03 0.  0.
         25    1    1    2    0    0  0.11860135508E+02  0.27134278371E+02 -0.22197355101E+03  0.25646479139E+03  0.12500000000E+03 0.  0.
</event>
<event>
 4    0  0.2222207E-002  0.1675074E+03  0.7546771E-02  0.1180472E+00
         21   -1    0    0  502  501  0.00000000000E+00  0.00000000000E+00  0.20009835528E+03  0.20009835528E+03  0.00000000000E+00 0. -1.
         21   -1    0    0  501  502 -0.00000000000E+00 -0.00000000000E+00 -0.14022469141E+03  0.14022469141E+03  0.00000000000E+00 0. -1.
         25    1    1    2    0    0 -0.99507092291E+02  0.44084497962E+02  0.52908012471E+01  0.16582550152E+03  0.12500000000E+03 0.  0.
         25    1    1    2    0    0  0.99507092291E+02 -0.44084497962E+02  0.54582862623E+02  0.17449754517E+03  0.12500000000E+03 0.  0.
</event>
<event>
 4    0  0.2222207E-002  0.2250184E+03  0.7546771E-02  0.1130196E+00
         21   -1    0    0  502  501  0.00000000000E+00  0.00000000000E+00  0.32323389131E+03  0.32323389131E+03  0.00000000000E+00 0. -1.
         21   -1    0    0  501  502 -0.00000000000E+00 -0.00000000000E+00 -0.15664596079E+03  0.15664596079E+03  0.00000000000E+00 0. -1.
         25    1    1    2    0    0 -0.63221396130E+02  0.17578384215E+03  0.94547445875E+02  0.24384651650E+03  0.12500000000E+03 0.  0.
         25    1    1    2    0    0  0.63221396130E+02 -0.17578384215E+03  0.72040484646E+02  0.23603333560E+03  0.12500000000E+03 0.  0.
</event>
<event>
 4    0  0.2222207E-002  0.2163430E+03  0.7546771E-02  0.1136639E+00
         21   -1    0    0  502  501  0.00000000000E+00  0.00000000000E+00  0.11511719727E+03  0.11511719727E+03  0.00000000000E+00 0.  1.
         21   -1    0    0  501  502 -0.00000000000E+00 -0.00000000000E+00 -0.40657964381E+03  0.40657964381E+03  0.00000000000E+00 0.  1.
         25    1    1    2    0    0 -0.61762958438E+02 -0.15188891238E+03 -0.22474389692E+03  0.30499135060E+03  0.12500000000E+03 0.  0.
         25    1    1    2    0    0  0.61762958438E+02  0.15188891238E+03 -0.66718549622E+02  0.21670549047E+03  0.12500000000E+03 0.  0.
</event>
<event>
 4    0  0.2222207E-002  0.2687398E+03  0.7546771E-02  0.1102003E+00
         21   -1    0    0  502  501  0.00000000000E+00  0.00000000000E+00  0.38056012657E+03  0.38056012657E+03  0.00000000000E+00 0.  1.
         21   -1    0    0  501  502 -0.00000000000E+00 -0.00000000000E+00 -0.18977577102E+03  0.18977577102E+03  0.00000000000E+00 0.  1.
         25    1    1    2    0    0  0.35667571754E+01  0.11677802753E+03 -0.12451093278E+03  0.21160766019E+03  0.12500000000E+03 0.  0.
         25    1    1    2    0    0 -0.35667571754E+01 -0.11677802753E+03  0.31529528833E+03  0.35872823741E+03  0.12500000000E+03 0.  0.
</event>
<event>
 4    0  0.2222207E-002  0.2707811E+03  0.7546771E-02  0.1100833E+00
         21   -1    0    0  502  501  0.00000000000E+00  0.00000000000E+00  0.52562914004E+03  0.52562914004E+03  0.00000000000E+00 0. -1.
         21   -1    0    0  501  502 -0.00000000000E+00 -0.00000000000E+00 -0.13949455015E+03  0.13949455015E+03  0.00000000000E+00 0. -1.
         25    1    1    2    0    0  0.23291787477E+03  0.53209261424E+02  0.16259912072E+03  0.31487368253E+03  0.12500000000E+03 0.  0.
         25    1    1    2    0    0 -0.23291787477E+03 -0.53209261424E+02  0.22353546917E+03  0.35025000766E+03  0.12500000000E+03 0.  0.
</event>
<event>
 4    0  0.2222207E-002  0.2218164E+03  0.7546771E-02  0.1132536E+00
         21   -1    0    0  502  501  0.00000000000E+00  0.00000000000E+00  0.29377645353E+02  0.29377645353E+02  0.00000000000E+00 0. -1.
         21   -1    0    0  501  502 -0.00000000000E+00 -0.00000000000E+00 -0.16748282757E+04  0.16748282757E+04  0.00000000000E+00 0. -1.
         25    1    1    2    0    0  0.73016203120E+01 -0.16959884351E+03 -0.10877714770E+04  0.11080112218E+04  0.12500000000E+03 0.  0.
         25    1    1    2    0    0 -0.73016203120E+01  0.16959884351E+03 -0.55767915326E+03  0.59619469921E+03  0.12500000000E+03 0.  0.
</event>
<event>
 4    0  0.2222207E-002  0.1680370E+03  0.7546771E-02  0.1179911E+00
         21   -1    0    0  502  501  0.00000000000E+00  0.00000000000E+00  0.33561362773E+02  0.33561362773E+02  0.00000000000E+00 0.  1.
         21   -1    0    0  501  502 -0.00000000000E+00 -0.00000000000E+00 -0.84133767622E+03  0.84133767622E+03  0.00000000000E+00 0.  1.
         25    1    1    2    0    0 -0.10520651233E+03  0.38772681146E+02 -0.42029260317E+03  0.45259540798E+03  0.12500000000E+03 0.  0.
         25    1    1    2    0    0  0.10520651233E+03 -0.38772681146E+02 -0.38748371027E+03  0.42230363101E+03  0.12500000000E+03 0.  0.
</event>
<event>
 4    0  0.2222207E-002  0.1549605E+03  0.7546771E-02  0.1194507E+00
         21   -1    0    0  502  501  0.00000000000E+00  0.00000000000E+00  0.24311414572E+04  0.24311414572E+04  0.00000000000E+00 0. -1.
         21   -1    0    0  501  502 -0.00000000000E+00 -0.00000000000E+00 -0.98771494787E+01  0.98771494787E+01  0.00000000000E+00 0. -1.
         25    1    1    2    0    0  0.30176173778E+02  0.86175166365E+02  0.12668726453E+04  0.12762946604E+04  0.12500000000E+03 0.  0.
         25    1    1    2    0    0 -0.30176173778E+02 -0.86175166365E+02  0.11543916625E+04  0.11647239463E+04  0.12500000000E+03 0.  0.
</event>
<event>
 4    0  0.2222207E-002  0.2050321E+03  0.7546771E-02  0.1145562E+00
         21   -1    0    0  502  501  0.00000000000E+00  0.00000000000E+00  0.70328729502E+02  0.70328729502E+02  0.00000000000E+00 0.  1.
         21   -1    0    0  501  502 -0.00000000000E+00 -0.00000000000E+00 -0.59773832206E+03  0.59773832206E+03  0.00000000000E+00 0.  1.
         25    1    1    2    0    0 -0.44450127339E+02  0.15044988629E+03 -0.19454256899E+03  0.27943298527E+03  0.12500000000E+03 0.  0.
         25    1    1    2    0    0  0.44450127339E+02 -0.15044988629E+03 -0.33286702356E+03  0.38863406629E+03  0.12500000000E+03 0.  0.
</event>
<event>
 4    0  0.2222207E-002  0.2575263E+03  0.7546771E-02  0.1108639E+00
         21   -1    0    0  502  501  0.00000000000E+00  0.00000000000E+00  0.10063161332E+04  0.10063161332E+04  0.00000000000E+00 0. -1.
         21   -1    0    0  501  502 -0.00000000000E+00 -0.00000000000E+00 -0.65903550273E+02  0.65903550273E+02  0.00000000000E+00 0. -1.
         25    1    1    2    0    0  0.16362602420E+03  0.76884154972E+02  0.74958345498E+03  0.78114339596E+03  0.12500000000E+03 0.  0.
         25    1    1    2    0    0 -0.16362602420E+03 -0.76884154972E+02  0.19082912797E+03  0.29107628753E+03  0.12500000000E+03 0.  0.
</event>
<event>
 4    0  0.2222207E-002  0.2317427E+03  0.7546771E-02  0.1125419E+00
         21   -1    0    0  502  501  0.00000000000E+00  0.00000000000E+00  0.31414480451E+03  0.31414480451E+03  0.00000000000E+00 0. -1.
         21   -1    0    0  501  502 -0.00000000000E+00 -0.00000000000E+00 -0.17095510984E+03  0.17095510984E+03  0.00000000000E+00 0. -1.
         25    1    1    2    0    0  0.17606008194E+03 -0.21636246778E+02 -0.13526754364E+02  0.21742413093E+03  0.12500000000E+03 0.  0.
         25    1    1    2    0    0 -0.17606008194E+03  0.21636246778E+02  0.15671644904E+03  0.26767578342E+03  0.12500000000E+03 0.  0.
</event>
<event>
 4    0  0.2222207E-002  0.1679329E+03  0.7546771E-02  0.1180021E+00
         21   -1    0    0  502  501  0.00000000000E+00  0.00000000000E+00  0.72663466696E+02  0.72663466696E+02  0.00000000000E+00 0.  1.
         21   -1    0    0  501  502 -0.00000000000E+00 -0.00000000000E+00 -0.38811050525E+03  0.38811050525E+03  0.00000000000E+00 0.  1.
         25    1    1    2    0    0 -0.10719001998E+03  0.32268805563E+02 -0.14847173247E+03  0.22405318909E+03  0.12500000000E+03 0.  0.
         25    1    1    2    0    0  0.10719001998E+03 -0.32268805563E+02 -0.16697530609E+03  0.23672078286E+03  0.12500000000E+03 0.  0.
</event>
<event>
 4    0  0.2222207E-002  0.2482813E+03  0.7546771E-02  0.1114396E+00
         21   -1    0    0  502  501  0.00000000000E+00  0.00000000000E+00  0.35460860740E+03  0.35460860740E+03  0.00000000000E+00 0.  1.
         21   -1    0    0  501  502 -0.00000000000E+00 -0.00000000000E+00 -0.17383567881E+03  0.17383567881E+03  0.00000000000E+00 0.  1.
         25    1    1    2    0    0 -0.74645881316E+02 -0.17521121762E+02 -0.12282561302E+03  0.19128546343E+03  0.12500000000E+03 0.  0.
         25    1    1    2    0    0  0.74645881316E+02  0.17521121762E+02  0.30359854162E+03  0.33715882278E+03  0.12500000000E+03 0.  0.
</event>
<event>
 4    0  0.2222207E-002  0.2046068E+03  0.7546771E-02  0.1145909E+00
         21   -1    0    0  502  501  0.00000000000E+00  0.00000000000E+00  0.46665694092E+02  0.46665694092E+02  0.00000000000E+00 0. -1.
         21   -1    0    0  501  502 -0.00000000000E+00 -0.00000000000E+00 -0.89710316360E+03  0.89710316360E+03  0.00000000000E+00 0. -1.
         25    1    1    2    0    0  0.14942730291E+03 -0.55688212289E+02 -0.35961087703E+03  0.41276467718E+03  0.12500000000E+03 0.  0.
         25    1    1    2    0    0 -0.14942730291E+03  0.55688212289E+02 -0.49082659247E+03  0.53100418051E+03  0.12500000000E+03 0.  0.
</event>
<event>
 4    0  0.2222207E-002  0.1753497E+03  0.7546771E-02  0.1172381E+00
         21   -1    0    0  502  501  0.00000000000E+00  0.00000000000E+00  0.68033852780E+02  0.68033852780E+02  0.00000000000E+00 0. -1.
         21   -1    0    0  501  502 -0.00000000000E+00 -0.00000000000E+00 -0.45194452423E+03  0.45194452423E+03  0.00000000000E+00 0. -1.
         25    1    1    2    0    0  0.29098450212E+01 -0.11664147848E+03 -0.13436233555E+03  0.21746709846E+03  0.12500000000E+03 0.  0.
         25    1    1    2    0    0 -0.29098450212E+01  0.11664147848E+03 -0.24954833590E+03  0.30251127855E+03  0.12500000000E+03 0.  0.
</event>
<event>
 4    0  0.2222207E-002  0.2140903E+03  0.7546771E-02  0.1138367E+00
         21   -1    0    0  502  501  0.00000000000E+00  0.00000000000E+00  0.13809068080E+03  0.13809068080E+03  0.00000000000E+00 0.  1.
         21   -1    0    0  501  502 -0.00000000000E+00 -0.00000000000E+00 -0.33191719966E+03  0.33191719966E+03  0.00000000000E+00 0.  1.
         25    1    1    2    0    0 -0.11846210913E+03 -0.58304751861E+02  0.27163885303E+02  0.18383577469E+03  0.12500000000E+03 0.  0.
         25    1    1    2    0    0  0.11846210913E+03  0.58304751861E+02 -0.22099040416E+03  0.28617210577E+03  0.12500000000E+03 0.  0.
</event>
<event>
 4    0  0.2222207E-002  0.2200123E+03  0.7546771E-02  0.1133874E+00
         21   -1    0    0  502  501  0.00000000000E+00  0.00000000000E+00  0.31273068293E+03  0.31273068293E+03  0.00000000000E+00 0. -1.
         21   -1    0    0  501  502 -0.00000000000E+00 -0.00000000000E+00 -0.15478304020E+03  0.15478304020E+03  0.00000000000E+00 0. -1.
         25    1    1    2    0    0 -0.15317379429E+03 -0.20890462861E+02  0.17910458265E+03  0.26758563905E+03  0.12500000000E+03 0.  0.
         25    1    1    2    0    0  0.15317379429E+03  0.20890462861E+02 -0.21156939926E+02  0.19992808408E+03  0.12500000000E+03 0.  0.
</event>
<event>
 4    0  0.2222207E-002  0.1481761E+03  0.7546771E-02  0.1202732E+00
         21   -1    0    0  502  501  0.00000000000E+00  0.00000000000E+00  0.38956135504E+03  0.38956135504E+03  0.00000000000E+00 0.  1.
         21   -1    0    0  501  502 -0.00000000000E+00 -0.00000000000E+00 -0.56361237493E+02  0.56361237493E+02  0.00000000000E+00 0.  1.
         25    1    1    2    0    0 -0.60934686881E+01  0.41479455340E+02  0.26835954163E+03  0.29899752367E+03  0.12500000000E+03 0.  0.
         25    1    1    2    0    0  0.60934686881E+01 -0.41479455340E+02  0.64840575918E+02  0.14692506887E+03  0.12500000000E+03 0.  0.
</event>
<event>
 4    0  0.2222207E-002  0.2019698E+03  0.7546771E-02  0.1148088E+00
         21   -1    0    0  502  501  0.00000000000E+00  0.00000000000E+00  0.72281933713E+03  0.72281933713E+03  0.00000000000E+00 0. -1.
         21   -1    0    0  501  502 -0.00000000000E+00 -0.00000000000E+00 -0.56434268364E+02  0.56434268364E+02  0.00000000000E+00 0. -1.
         25    1    1    2    0    0  0.23817630530E+02 -0.12851800513E+03  0.15975676840E+03  0.24131179461E+03  0.12500000000E+03 0.  0.
         25    1    1    2    0    0 -0.23817630530E+02  0.12851800513E+03  0.50662830036E+03  0.53794181088E+03  0.12500000000E+03 0.  0.
</event>
<event>
 4    0  0.2222207E-002  0.1960165E+03  0.7546771E-02  0.1153144E+00
         21   -1    0    0  502  501  0.00000000000E+00  0.00000000000E+00  0.49194101846E+03  0.49194101846E+03  0.00000000000E+00 0.  1.
         21   -1    0    0  501  502 -0.00000000000E+00 -0.00000000000E+00 -0.78103787012E+02  0.78103787012E+02  0.00000000000E+00 0.  1.
         25    1    1    2    0    0  0.70155351737E+02  0.12392718751E+03  0.13395749921E+03  0.23205459008E+03  0.12500000000E+03 0.  0.
         25    1    1    2    0    0 -0.70155351737E+02 -0.12392718751E+03  0.27987973224E+03  0.33799021539E+03  0.12500000000E+03 0.  0.
</event>
<event>
 4    0  0.2222207E-002  0.2780313E+03  0.7546771E-02  0.1096769E+00
         21   -1    0    0  502  501  0.00000000000E+00  0.00000000000E+00  0.14256268221E+03  0.14256268221E+03  0.00000000000E+00 0.  1.
         21   -1    0    0  501  502 -0.00000000000E+00 -0.00000000000E+00 -0.54222730428E+03  0.54222730428E+03  0.00000000000E+00 0.  1.
         25    1    1    2    0    0 -0.10594960573E+03 -0.19442688563E+03 -0.61327102520E+02  0.26155906850E+03  0.12500000000E+03 0.  0.
         25    1    1    2    0    0  0.10594960573E+03  0.19442688563E+03 -0.33833751955E+03  0.42323091799E+03  0.12500000000E+03 0.  0.
</event>
<event>
 4    0  0.2222207E-002  0.2366234E+03  0.7546771E-02  0.1122063E+00
         21   -1    0    0  502  501  0.00000000000E+00  0.00000000000E+00  0.76312443153E+03  0.76312443153E+03  0.00000000000E+00 0. -1.
         21   -1    0    0  501  502 -0.00000000000E+00 -0.00000000000E+00 -0.73370267724E+02  0.73370267724E+02  0.00000000000E+00 0. -1.
         25    1    1    2    0    0  0.18649778731E+03 -0.78159011896E+01  0.47623859239E+03  0.52656501010E+03  0.12500000000E+03 0.  0.
         25    1    1    2    0    0 -0.18649778731E+03  0.78159011896E+01  0.21351557142E+03  0.30992968916E+03  0.12500000000E+03 0.  0.
</event>
<event>
 4    0  0.2222207E-002  0.3144366E+03  0.7546771E-02  0.1078239E+00
         21   -1    0    0  502  501  0.00000000000E+00  0.00000000000E+00  0.39353230097E+03  0.39353230097E+03  0.00000000000E+00 0. -1.
         21   -1    0    0  501  502 -0.00000000000E+00 -0.00000000000E+00 -0.25123826249E+03  0.25123826249E+03  0.00000000000E+00 0. -1.
         25    1    1    2    0    0  0.59329044391E+02 -0.18941452082E+03 -0.14354451250E+03  0.27500513318E+03  0.12500000000E+03 0.  0.
         25    1    1    2    0    0 -0.59329044391E+02  0.18941452082E+03  0.28583855098E+03  0.36976543028E+03  0.12500000000E+03 0.  0.
</event>
<event>
 4    0  0.2222207E-002  0.2136764E+03  0.7546771E-02  0.1138687E+00
         21   -1    0    0  502  501  0.00000000000E+00  0.00000000000E+00  0.27981507379E+03  0.27981507379E+03  0.00000000000E+00 0. -1.
         21   -1    0    0  501  502 -0.00000000000E+00 -0.00000000000E+00 -0.16317063408E+03  0.16317063408E+03  0.00000000000E+00 0. -1.
         25    1    1    2    0    0 -0.57479484521E+01  0.34315714945E+02  0.23430298053E+03  0.26783109208E+03  0.12500000000E+03 0.  0.
         25    1    1    2    0    0  0.57479484521E+01 -0.34315714945E+02 -0.11765854082E+03  0.17515461579E+03  0.12500000000E+03 0.  0.
</event>
<event>
 4    0  0.2222207E-002  0.2900549E+03  0.7546771E-02  0.1090320E+00
         21   -1    0    0  502  501  0.00000000000E+00  0.00000000000E+00  0.12472151347E+03  0.12472151347E+03  0.00000000000E+00 0.  1.
         21   -1    0    0  501  502 -0.00000000000E+00 -0.00000000000E+00 -0.67455768571E+03  0.67455768571E+03  0.00000000000E+00 0.  1.
         25    1    1    2    0    0  0.14108723319E+03 -0.21899388533E+03 -0.30985374009E+03  0.42367236095E+03  0.12500000000E+03 0.  0.
         25    1    1    2    0    0 -0.14108723319E+03  0.21899388533E+03 -0.23998243215E+03  0.37560683823E+03  0.12500000000E+03 0.  0.
</event>
<event>
 4    0  0.2222207E-002  0.2715035E+03  0.7546771E-02  0.1100422E+00
         21   -1    0    0  502  501  0.00000000000E+00  0.00000000000E+00  0.76867176747E+03  0.76867176747E+03  0.00000000000E+00 0.  1.
         21   -1    0    0  501  502 -0.00000000000E+00 -0.00000000000E+00 -0.95898082236E+02  0.95898082236E+02  0.00000000000E+00 0.  1.
         25    1    1    2    0    0 -0.22857653464E+03  0.37277810372E+02  0.44262632579E+03  0.51495624243E+03  0.12500000000E+03 0.  0.
         25    1    1    2    0    0  0.22857653464E+03 -0.37277810372E+02  0.23014735945E+03  0.34961360728E+03  0.12500000000E+03 0.  0.
</event>
<event>
 4    0  0.2222207E-002  0.2156407E+03  0.7546771E-02  0.1137175E+00
         21   -1    0    0  502  501  0.00000000000E+00  0.00000000000E+00  0.67328157272E+03  0.67328157272E+03  0.00000000000E+00 0. -1.
         21   -1    0    0  501  502 -0.00000000000E+00 -0.00000000000E+00 -0.69066080320E+02  0.69066080320E+02  0.00000000000E+00 0. -1.
         25    1    1    2    0    0 -0.56882071470E+02 -0.13438259227E+03  0.47059503236E+03  0.50830988151E+03  0.12500000000E+03 0.  0.
         25    1    1    2    0    0  0.56882071470E+02  0.13438259227E+03  0.13362046004E+03  0.23403777153E+03  0.12500000000E+03 0.  0.
</event>
<event>
 4    0  0.2222207E-002  0.1965290E+03  0.7546771E-02  0.1152701E+00
         21   -1    0    0  502  501  0.00000000000E+00  0.00000000000E+00  0.42301136637E+02  0.42301136637E+02  0.00000000000E+00 0. -1.
         21   -1    0    0  501  502 -0.00000000000E+00 -0.00000000000E+00 -0.91306432000E+03  0.91306432000E+03  0.00000000000E+00 0. -1.
         25    1    1    2    0    0 -0.76998385095E+02  0.22534252297E+01 -0.75289627119E+03  0.76707993351E+03  0.12500000000E+03 0.  0.
         25    1    1    2    0    0  0.76998385095E+02 -0.22534252297E+01 -0.11786691218E+03  0.18828552313E+03  0.12500000000E+03 0.  0.
</event>
<event>
 4    0  0.2222207E-002  0.2344847E+03  0.7546771E-02  0.1123522E+00
         21   -1    0    0  502  501  0.00000000000E+00  0.00000000000E+00  0.11602084231E+04  0.11602084231E+04  0.00000000000E+00 0.  1.
         21   -1    0    0  501  502 -0.00000000000E+00 -0.00000000000E+00 -0.47390705015E+02  0.47390705015E+02  0.00000000000E+00 0.  1.
         25    1    1    2    0    0  0.93706711833E+02 -0.14424964115E+03  0.81092037871E+03  0.83833511642E+03  0.12500000000E+03 0.  0.
         25    1    1    2    0    0 -0.93706711833E+02  0.14424964115E+03  0.30189733941E+03  0.36926401173E+03  0.12500000000E+03 0.  0.
</event>
<event>
 4    0  0.2222207E-002  0.2882958E+03  0.7546771E-02  0.1091242E+00
         21   -1    0    0  502  501  0.00000000000E+00  0.00000000000E+00  0.24667713143E+04  0.24667713143E+04  0.00000000000E+00 0.  1.
         21   -1    0    0  501  502 -0.00000000000E+00 -0.00000000000E+00 -0.33693620121E+02  0.33693620121E+02  0.00000000000E+00 0.  1.
         25    1    1    2    0    0  0.10121020147E+03  0.94103824082E+02  0.26257439691E+03  0.32197724842E+03  0.12500000000E+03 0.  0.
         25    1    1    2    0    0 -0.10121020147E+03 -0.94103824082E+02  0.21705032973E+04  0.21784876860E+04  0.12500000000E+03 0.  0.
</event>
<event>
 4    0  0.2222207E-002  0.1846666E+03  0.7546771E-02  0.1163362E+00
         21   -1    0    0  502  501  0.00000000000E+00  0.00000000000E+00  0.54697103352E+02  0.54697103352E+02  0.00000000000E+00 0.  1.
         21   -1    0    0  501  502 -0.00000000000E+00 -0.00000000000E+00 -0.62346572972E+03  0.62346572972E+03  0.00000000000E+00 0.  1.
         25    1    1    2    0    0 -0.58180194474E+02  0.10148387788E+03 -0.41150398576E+03  0.44569545970E+03  0.12500000000E+03 0.  0.
         25    1    1    2    0    0  0.58180194474E+02 -0.10148387788E+03 -0.15726464061E+03  0.23246737337E+03  0.12500000000E+03 0.  0.
</event>
<event>
 4    0  0.2222207E-002  0.2236407E+03  0.7546771E-02  0.1131198E+00
         21   -1    0    0  502  501  0.00000000000E+00  0.00000000000E+00  0.31827977851E+03  0.31827977851E+03  0.00000000000E+00 0.  1.
         21   -1    0    0  501  502 -0.00000000000E+00 -0.00000000000E+00 -0.15714210212E+03  0.15714210212E+03  0.00000000000E+00 0.  1.
         25    1    1    2    0    0 -0.12168605724E+03 -0.93211838161E+02  0.19151090225E+03  0.27531321977E+03  0.12500000000E+03 0.  0.
         25    1    1    2    0    0  0.12168605724E+03  0.93211838161E+02 -0.30373225869E+02  0.20010866086E+03  0.12500000000E+03 0.  0.
</event>
<event>
 4    0  0.2222207E-002  0.2346134E+03  0.7546771E-02  0.1123434E+00
         21   -1    0    0  502  501  0.00000000000E+00  0.00000000000E+00  0.13233991690E+04  0.13233991690E+04  0.00000000000E+00 0. -1.
         21   -1    0    0  501  502 -0.00000000000E+00 -0.00000000000E+00 -0.41592484624E+02  0.41592484624E+02  0.00000000000E+00 0. -1.
         25    1    1    2    0    0 -0.32666146515E+02 -0.19012307781E+03  0.77749111330E+03  0.81075970121E+03  0.12500000000E+03 0.  0.
         25    1    1    2    0    0  0.32666146515E+02  0.19012307781E+03  0.50431557104E+03  0.55423195238E+03  0.12500000000E+03 0.  0.
</event>
<event>
 4    0  0.2222207E-002  0.2736185E+03  0.7546771E-02  0.1099226E+00
         21   -1    0    0  502  501  0.00000000000E+00  0.00000000000E+00  0.12401301563E+03  0.12401301563E+03  0.00000000000E+00 0. -1.
         21   -1    0    0  501  502 -0.00000000000E+00 -0.00000000000E+00 -0.60370333672E+03  0.60370333672E+03  0.00000000000E+00 0. -1.
         25    1    1    2    0    0 -0.18523339261E+03 -0.13521852972E+03 -0.13143079295E+03  0.29239444908E+03  0.12500000000E+03 0.  0.
         25    1    1    2    0    0  0.18523339261E+03  0.13521852972E+03 -0.34825952814E+03  0.43532190326E+03  0.12500000000E+03 0.  0.
</event>
<event>
 4    0  0.2222207E-002  0.2072475E+03  0.7546771E-02  0.1143764E+00
         21   -1    0    0  502  501  0.00000000000E+00  0.00000000000E+00  0.16408974152E+03  0.16408974152E+03  0.00000000000E+00 0.  1.
         21   -1    0    0  501  502 -0.00000000000E+00 -0.00000000000E+00 -0.26175625016E+03  0.26175625016E+03  0.00000000000E+00 0.  1.
         25    1    1    2    0    0 -0.15382405636E+03 -0.60429441864E+02 -0.52531508415E+02  0.21377117939E+03  0.12500000000E+03 0.  0.
         25    1    1    2    0    0  0.15382405636E+03  0.60429441864E+02 -0.45135000224E+02  0.21207481228E+03  0.12500000000E+03 0.  0.
</event>
<event>
 4    0  0.2222207E-002  0.1555869E+03  0.7546771E-02  0.1193771E+00
         21   -1    0    0  502  501  0.00000000000E+00  0.00000000000E+00  0.54620407142E+02  0.54620407142E+02  0.00000000000E+00 0. -1.
         21   -1    0    0  501  502 -0.00000000000E+00 -0.00000000000E+00 -0.44319126228E+03  0.44319126228E+03  0.00000000000E+00 0. -1.
         25    1    1    2    0    0 -0.63444265545E+02 -0.19441894741E+02 -0.29770546749E+03  0.32963116885E+03  0.12500000000E+03 0.  0.
         25    1    1    2    0    0  0.63444265545E+02  0.19441894741E+02 -0.90865387648E+02  0.16818050058E+03  0.12500000000E+03 0.  0.
</event>
<event>
 4    0  0.2222207E-002  0.2007956E+03  0.7546771E-02  0.1149070E+00
         21   -1    0    0  502  501  0.00000000000E+00  0.00000000000E+00  0.22188502455E+03  0.22188502455E+03  0.00000000000E+00 0.  1.
         21   -1    0    0  501  502 -0.00000000000E+00 -0.00000000000E+00 -0.18171058921E+03  0.18171058921E+03  0.00000000000E+00 0.  1.
         25    1    1    2    0    0  0.12946542797E+03  0.89024036845E+02  0.17375160881E+02  0.20152784520E+03  0.12500000000E+03 0.  0.
         25    1    1    2    0    0 -0.12946542797E+03 -0.89024036845E+02  0.22799274452E+02  0.20206776856E+03  0.12500000000E+03 0.  0.
</event>
<event>
 4    0  0.2222207E-002  0.2276626E+03  0.7546771E-02  0.1128296E+00
         21   -1    0    0  502  501  0.00000000000E+00  0.00000000000E+00  0.52334514359E+03  0.52334514359E+03  0.00000000000E+00 0. -1.
         21   -1    0    0  501  502 -0.00000000000E+00 -0.00000000000E+00 -0.99036477074E+02  0.99036477074E+02  0.00000000000E+00 0. -1.
         25    1    1    2    0    0 -0.12133228537E+03  0.13989076401E+03  0.27195984424E+03  0.35196321712E+03  0.12500000000E+03 0.  0.
         25    1    1    2    0    0  0.12133228537E+03 -0.13989076401E+03  0.15234882227E+03  0.27041840354E+03  0.12500000000E+03 0.  0.
</event>
<event>
 4    0  0.2222207E-002  0.2339224E+03  0.7546771E-02  0.1123909E+00
         21   -1    0    0  502  501  0.00000000000E+00  0.00000000000E+00  0.23290209357E+03  0.23290209357E+03  0.00000000000E+00 0. -1.
         21   -1    0    0  501  502 -0.00000000000E+00 -0.00000000000E+00 -0.23494715289E+03  0.23494715289E+03  0.00000000000E+00 0. -1.
         25    1    1    2    0    0  0.11121118496E+03  0.32711631330E+02  0.15915610670E+03  0.23322445151E+03  0.12500000000E+03 0.  0.
         25    1    1    2    0    0 -0.11121118496E+03 -0.32711631330E+02 -0.16120116601E+03  0.23462479495E+03  0.12500000000E+03 0.  0.
</event>
<event>
 4    0  0.2222207E-002  0.2608111E+03  0.7546771E-02  0.1106657E+00
         21   -1    0    0  502  501  0.00000000000E+00  0.00000000000E+00  0.92635584105E+02  0.92635584105E+02  0.00000000000E+00 0. -1.
         21   -1    0    0  501  502 -0.00000000000E+00 -0.00000000000E+00 -0.73430143116E+03  0.73430143116E+03  0.00000000000E+00 0. -1.
         25    1    1    2    0    0  0.41512297165E+02  0.10169549910E+03 -0.63921034788E+03  0.66051503707E+03  0.12500000000E+03 0.  0.
         25    1    1    2    0    0 -0.41512297165E+02 -0.10169549910E+03 -0.24554991764E+01  0.16642197820E+03  0.12500000000E+03 0.  0.
</event>
<event>
 4    0  0.2222207E-002  0.1912933E+03  0.7546771E-02  0.1157300E+00
         21   -1    0    0  502  501  0.00000000000E+00  0.00000000000E+00  0.33415043087E+03  0.33415043087E+03  0.00000000000E+00 0.  1.
         21   -1    0    0  501  502 -0.00000000000E+00 -0.00000000000E+00 -0.10951091057E+03  0.10951091057E+03  0.00000000000E+00 0.  1.
         25    1    1    2    0    0  0.13439714961E+03 -0.35387758681E+02  0.15947051072E+03  0.24570456055E+03  0.12500000000E+03 0.  0.
         25    1    1    2    0    0 -0.13439714961E+03  0.35387758681E+02  0.65169009589E+02  0.19795678089E+03  0.12500000000E+03 0.  0.
</event>
<event>
 4    0  0.2222207E-002  0.2123381E+03  0.7546771E-02  0.1139728E+00
         21   -1    0    0  502  501  0.00000000000E+00  0.00000000000E+00  0.12876713622E+03  0.12876713622E+03  0.00000000000E+00 0.  1.
         21   -1    0    0  501  502 -0.00000000000E+00 -0.00000000000E+00 -0.35014736263E+03  0.35014736263E+03  0.00000000000E+00 0.  1.
         25    1    1    2    0    0 -0.74765232931E+02 -0.94143884525E+02 -0.24885066280E+03  0.30332254025E+03  0.12500000000E+03 0.  0.
         25    1    1    2    0    0  0.74765232931E+02  0.94143884525E+02  0.27470436386E+02  0.17559195860E+03  0.12500000000E+03 0.  0.
</event>
<event>
 4    0  0.2222207E-002  0.2005441E+03  0.7546771E-02  0.1149281E+00
         21   -1    0    0  502  501  0.00000000000E+00  0.00000000000E+00  0.13916347827E+04  0.13916347827E+04  0.00000000000E+00 0.  1.
         21   -1    0    0  501  502 -0.00000000000E+00 -0.00000000000E+00 -0.28899766570E+02  0.28899766570E+02  0.00000000000E+00 0.  1.
         25    1    1    2    0    0  0.74778478953E+02  0.10013387973E+03  0.10168828835E+04  0.10321310060E+04  0.12500000000E+03 0.  0.
         25    1    1    2    0    0 -0.74778478953E+02 -0.10013387973E+03  0.34585213265E+03  0.38840354329E+03  0.12500000000E+03 0.  0.
</event>
<event>
 4    0  0.2222207E-002  0.3068526E+03  0.7546771E-02  0.1081864E+00
         21   -1    0    0  502  501  0.00000000000E+00  0.00000000000E+00  0.40725248453E+03  0.40725248453E+03  0.00000000000E+00 0. -1.
         21   -1    0    0  501  502 -0.00000000000E+00 -0.00000000000E+00 -0.23120425771E+03  0.23120425771E+03  0.00000000000E+00 0. -1.
         25    1    1    2    0    0 -0.63951964006E+02 -0.26094756723E+03  0.17092502505E+03  0.34208748988E+03  0.12500000000E+03 0.  0.
         25    1    1    2    0    0  0.63951964006E+02  0.26094756723E+03  0.51232017609E+01  0.29636925236E+03  0.12500000000E+03 0.  0.
</event>
<event>
 4    0  0.2222207E-002  0.1888478E+03  0.7546771E-02  0.1159505E+00
         21   -1    0    0  502  501  0.00000000000E+00  0.00000000000E+00  0.31355545232E+03  0.31355545232E+03  0.00000000000E+00 0.  1.
         21   -1    0    0  501  502 -0.00000000000E+00 -0.00000000000E+00 -0.11373905548E+03  0.11373905548E+03  0.00000000000E+00 0.  1.
         25    1    1    2    0    0 -0.12679614427E+02  0.85398045255E+02  0.22682240843E+03  0.27299634379E+03  0.12500000000E+03 0.  0.
         25    1    1    2    0    0  0.12679614427E+02 -0.85398045255E+02 -0.27006011582E+02  0.15429816401E+03  0.12500000000E+03 0.  0.
</event>
<event>
 4    0  0.2222207E-002  0.1982542E+03  0.7546771E-02  0.1151220E+00
         21   -1    0    0  502  501  0.00000000000E+00  0.00000000000E+00  0.60861765647E+02  0.60861765647E+02  0.00000000000E+00 0.  1.
         21   -1    0    0  501  502 -0.00000000000E+00 -0.00000000000E+00 -0.64580322612E+03  0.64580322612E+03  0.00000000000E+00 0.  1.
         25    1    1    2    0    0 -0.14758122547E+03  0.31474946652E+02 -0.34619908462E+03  0.39780610424E+03  0.12500000000E+03 0.  0.
         25    1    1    2    0    0  0.14758122547E+03 -0.31474946652E+02 -0.23874237585E+03  0.30885888753E+03  0.12500000000E+03 0.  0.
</event>
<event>
 4    0  0.2222207E-002  0.2089204E+03  0.7546771E-02  0.1142424E+00
         21   -1    0    0  502  501  0.00000000000E+00  0.00000000000E+00  0.25048204095E+03  0.25048204095E+03  0.00000000000E+00 0. -1.
         21   -1    0    0  501  502 -0.00000000000E+00 -0.00000000000E+00 -0.17425495741E+03  0.17425495741E+03  0.00000000000E+00 0. -1.
         25    1    1    2    0    0  0.77707896803E+02  0.13527395178E+03  0.99821115711E+02  0.22344308984E+03  0.12500000000E+03 0.  0.
         25    1    1    2    0    0 -0.77707896803E+02 -0.13527395178E+03 -0.23594032167E+02  0.20129390852E+03  0.12500000000E+03 0.  0.
</event>
<event>
 4    0  0.2222207E-002  0.1902171E+03  0.7546771E-02  0.1158266E+00
         21   -1    0    0  502  501  0.00000000000E+00  0.00000000000E+00  0.18922295623E+03  0.18922295623E+03  0.00000000000E+00 0. -1.
         21   -1    0    0  501  502 -0.00000000000E+00 -0.00000000000E+00 -0.19121655408E+03  0.19121655408E+03  0.00000000000E+00 0. -1.
         25    1    1    2    0    0  0.38714951230E+02 -0.28021237366E+02 -0.13617825571E+03  0.19092813968E+03  0.12500000000E+03 0.  0.
         25    1    1    2    0    0 -0.38714951230E+02  0.28021237366E+02  0.13418465786E+03  0.18951137063E+03  0.12500000000E+03 0.  0.
</event>
<event>
 4    0  0.2222207E-002  0.4858330E+03  0.7546771E-02  0.1017544E+00
         21   -1    0    0  502  501  0.00000000000E+00  0.00000000000E+00  0.10848843731E+04  0.10848843731E+04  0.00000000000E+00 0.  1.
         21   -1    0    0  501  502 -0.00000000000E+00 -0.00000000000E+00 -0.21756578947E+03  0.21756578947E+03  0.00000000000E+00 0. -1.
         25    1    1    2    0    0  0.26089297218E+03 -0.37459072771E+03  0.28666742950E+03  0.55334127928E+03  0.12500000000E+03 0.  0.
         25    1    1    2    0    0 -0.26089297218E+03  0.37459072771E+03  0.58065115412E+03  0.74910888328E+03  0.12500000000E+03 0.  0.
</event>
<event>
 4    0  0.2222207E-002  0.2368349E+03  0.7546771E-02  0.1121919E+00
         21   -1    0    0  502  501  0.00000000000E+00  0.00000000000E+00  0.14530883000E+03  0.14530883000E+03  0.00000000000E+00 0. -1.
         21   -1    0    0  501  502 -0.00000000000E+00 -0.00000000000E+00 -0.38601073456E+03  0.38601073456E+03  0.00000000000E+00 0. -1.
         25    1    1    2    0    0 -0.31161355961E+02  0.10512205249E+03  0.68829455421E+02  0.17995602229E+03  0.12500000000E+03 0.  0.
         25    1    1    2    0    0  0.31161355961E+02 -0.10512205249E+03 -0.30953135998E+03  0.35136354227E+03  0.12500000000E+03 0.  0.
</event>
<event>
 4    0  0.2222207E-002  0.1615010E+03  0.7546771E-02  0.1187012E+00
         21   -1    0    0  502  501  0.00000000000E+00  0.00000000000E+00  0.75729339835E+03  0.75729339835E+03  0.00000000000E+00 0. -1.
         21   -1    0    0  501  502 -0.00000000000E+00 -0.00000000000E+00 -0.34441835845E+02  0.34441835845E+02  0.00000000000E+00 0. -1.
         25    1    1    2    0    0  0.75364813389E+02  0.34500269256E+02  0.21461168757E+03  0.26182685140E+03  0.12500000000E+03 0.  0.
         25    1    1    2    0    0 -0.75364813389E+02 -0.34500269256E+02  0.50823987494E+03  0.52990838279E+03  0.12500000000E+03 0.  0.
</event>
<event>
 4    0  0.2222207E-002  0.1762662E+03  0.7546771E-02  0.1171466E+00
         21   -1    0    0  502  501  0.00000000000E+00  0.00000000000E+00  0.77927723591E+03  0.77927723591E+03  0.00000000000E+00 0. -1.
         21   -1    0    0  501  502 -0.00000000000E+00 -0.00000000000E+00 -0.39869978795E+02  0.39869978795E+02  0.00000000000E+00 0. -1.
         25    1    1    2    0    0 -0.46570319418E+02 -0.97043085505E+02  0.22536635129E+03  0.27928685502E+03  0.12500000000E+03 0.  0.
         25    1    1    2    0    0  0.46570319418E+02  0.97043085505E+02  0.51404090582E+03  0.53986035968E+03  0.12500000000E+03 0.  0.
</event>
<event>
 4    0  0.2222207E-002  0.2309867E+03  0.7546771E-02  0.1125947E+00
         21   -1    0    0  502  501  0.00000000000E+00  0.00000000000E+00  0.17885332016E+04  0.17885332016E+04  0.00000000000E+00 0. -1.
         21   -1    0    0  501  502 -0.00000000000E+00 -0.00000000000E+00 -0.29831622501E+02  0.29831622501E+02  0.00000000000E+00 0. -1.
         25    1    1    2    0    0 -0.19208235337E+02  0.19053204490E+03  0.10074054332E+04  0.10330353930E+04  0.12500000000E+03 0.  0.
         25    1    1    2    0    0  0.19208235337E+02 -0.19053204490E+03  0.75129614587E+03  0.78532943103E+03  0.12500000000E+03 0.  0.
</event>
<event>
 4    0  0.2222207E-002  0.2559082E+03  0.7546771E-02  0.1109627E+00
         21   -1    0    0  502  501  0.00000000000E+00  0.00000000000E+00  0.27197760256E+03  0.27197760256E+03  0.00000000000E+00 0.  1.
         21   -1    0    0  501  502 -0.00000000000E+00 -0.00000000000E+00 -0.24078821443E+03  0.24078821443E+03  0.00000000000E+00 0.  1.
         25    1    1    2    0    0  0.14469768994E+03 -0.45428360211E+02 -0.14860822769E+03  0.24639513535E+03  0.12500000000E+03 0.  0.
         25    1    1    2    0    0 -0.14469768994E+03  0.45428360211E+02  0.17979761582E+03  0.26637068164E+03  0.12500000000E+03 0.  0.
</event>
<event>
 4    0  0.2222207E-002  0.1837623E+03  0.7546771E-02  0.1164211E+00
         21   -1    0    0  502  501  0.00000000000E+00  0.00000000000E+00  0.51888477303E+02  0.51888477303E+02  0.00000000000E+00 0. -1.
         21   -1    0    0  501  502 -0.00000000000E+00 -0.00000000000E+00 -0.65079166917E+03  0.65079166917E+03  0.00000000000E+00 0. -1.
         25    1    1    2    0    0 -0.12343848409E+03 -0.49661688168E+02 -0.33956772363E+03  0.38553155715E+03  0.12500000000E+03 0.  0.
         25    1    1    2    0    0  0.12343848409E+03  0.49661688168E+02 -0.25933546824E+03  0.31714858933E+03  0.12500000000E+03 0.  0.
</event>
<event>
 4    0  0.2222207E-002  0.2775027E+03  0.7546771E-02  0.1097061E+00
         21   -1    0    0  502  501  0.00000000000E+00  0.00000000000E+00  0.30088878201E+03  0.30088878201E+03  0.00000000000E+00 0. -1.
         21   -1    0    0  501  502 -0.00000000000E+00 -0.00000000000E+00 -0.25593427283E+03  0.25593427283E+03  0.00000000000E+00 0. -1.
         25    1    1    2    0    0  0.12169119915E+03  0.13599956060E+03  0.19059131154E+03  0.29198403461E+03  0.12500000000E+03 0.  0.
         25    1    1    2    0    0 -0.12169119915E+03 -0.13599956060E+03 -0.14563680236E+03  0.26483902023E+03  0.12500000000E+03 0.  0.
</event>
<event>
 4    0  0.2222207E-002  0.3124789E+03  0.7546771E-02  0.1079164E+00
         21   -1    0    0  502  501  0.00000000000E+00  0.00000000000E+00  0.38288439698E+03  0.38288439698E+03  0.00000000000E+00 0. -1.
         21   -1    0    0  501  502 -0.00000000000E+00 -0.00000000000E+00 -0.25501967482E+03  0.25501967482E+03  0.00000000000E+00 0. -1.
         25    1    1    2    0    0  0.12874160968E+03  0.15536101943E+03  0.27138284704E+03  0.36053446172E+03  0.12500000000E+03 0.  0.
         25    1    1    2    0    0 -0.12874160968E+03 -0.15536101943E+03 -0.14351812489E+03  0.27736961008E+03  0.12500000000E+03 0.  0.
</event>
<event>
 4    0  0.2222207E-002  0.2108198E+03  0.7546771E-02  0.1140918E+00
         21   -1    0    0  502  501  0.00000000000E+00  0.00000000000E+00  0.22351385037E+03  0.22351385037E+03  0.00000000000E+00 0.  1.
         21   -1    0    0  501  502 -0.00000000000E+00 -0.00000000000E+00 -0.19884663960E+03  0.19884663960E+03  0.00000000000E+00 0.  1.
         25    1    1    2    0    0 -0.21676020061E+02 -0.13669957131E+03  0.11080405428E+03  0.21693123585E+03  0.12500000000E+03 0.  0.
         25    1    1    2    0    0  0.21676020061E+02  0.13669957131E+03 -0.86136843505E+02  0.20542925413E+03  0.12500000000E+03 0.  0.
</event>
<event>
 4    0  0.2222207E-002  0.1856035E+03  0.7546771E-02  0.1162487E+00
         21   -1    0    0  502  501  0.00000000000E+00  0.00000000000E+00  0.40712991474E+02  0.40712991474E+02  0.00000000000E+00 0.  1.
         21   -1    0    0  501  502 -0.00000000000E+00 -0.00000000000E+00 -0.84613458901E+03  0.84613458901E+03  0.00000000000E+00 0.  1.
         25    1    1    2    0    0  0.97700373786E+02 -0.79562191358E+02 -0.27299028813E+03  0.32561357887E+03  0.12500000000E+03 0.  0.
         25    1    1    2    0    0 -0.97700373786E+02  0.79562191358E+02 -0.53243130940E+03  0.56123400161E+03  0.12500000000E+03 0.  0.
</event>
<event>
 4    0  0.2222207E-002  0.3017123E+03  0.7546771E-02  0.1084388E+00
         21   -1    0    0  502  501  0.00000000000E+00  0.00000000000E+00  0.38232381171E+03  0.38232381171E+03  0.00000000000E+00 0.  1.
         21   -1    0    0  501  502 -0.00000000000E+00 -0.00000000000E+00 -0.23809746961E+03  0.23809746961E+03  0.00000000000E+00 0.  1.
         25    1    1    2    0    0 -0.72853727587E+02 -0.19445427414E+02  0.34359507688E+03  0.37332072957E+03  0.12500000000E+03 0.  0.
         25    1    1    2    0    0  0.72853727587E+02  0.19445427414E+02 -0.19936873478E+03  0.24710055175E+03  0.12500000000E+03 0.  0.
</event>
<event>
 4    0  0.2222207E-002  0.1927634E+03  0.7546771E-02  0.1155992E+00
         21   -1    0    0  502  501  0.00000000000E+00  0.00000000000E+00  0.33338322658E+02  0.33338322658E+02  0.00000000000E+00 0.  1.
         21   -1    0    0  501  502 -0.00000000000E+00 -0.00000000000E+00 -0.11145649690E+04  0.11145649690E+04  0.00000000000E+00 0.  1.
         25    1    1    2    0    0  0.43894738121E+01  0.16844116672E+02 -0.10677988468E+03  0.16531768060E+03  0.12500000000E+03 0.  0.
         25    1    1    2    0    0 -0.43894738121E+01 -0.16844116672E+02 -0.97444676170E+03  0.98258561110E+03  0.12500000000E+03 0.  0.
</event>
<event>
 4    0  0.2222207E-002  0.2133501E+03  0.7546771E-02  0.1138940E+00
         21   -1    0    0  502  501  0.00000000000E+00  0.00000000000E+00  0.37396267722E+03  0.37396267722E+03  0.00000000000E+00 0.  1.
         21   -1    0    0  501  502 -0.00000000000E+00 -0.00000000000E+00 -0.12171877575E+03  0.12171877575E+03  0.00000000000E+00 0.  1.
         25    1    1    2    0    0 -0.61826736067E+02  0.12451564355E+03  0.24553372527E+03  0.30860735738E+03  0.12500000000E+03 0.  0.
         25    1    1    2    0    0  0.61826736067E+02 -0.12451564355E+03  0.67101761993E+01  0.18707409560E+03  0.12500000000E+03 0.  0.
</event>
<event>
 4    0  0.2222207E-002  0.1877386E+03  0.7546771E-02  0.1160517E+00
         21   -1    0    0  502  501  0.00000000000E+00  0.00000000000E+00  0.42015202251E+03  0.42015202251E+03  0.00000000000E+00 0. -1.
         21   -1    0    0  501  502 -0.00000000000E+00 -0.00000000000E+00 -0.83888165289E+02  0.83888165289E+02  0.00000000000E+00 0. -1.
         25    1    1    2    0    0  0.73931537837E+02 -0.86435651318E+02  0.27787899789E+03  0.32523642412E+03  0.12500000000E+03 0.  0.
         25    1    1    2    0    0 -0.73931537837E+02  0.86435651318E+02  0.58384859324E+02  0.17880376367E+03  0.12500000000E+03 0.  0.
</event>
<event>
 4    0  0.2222207E-002  0.4536124E+03  0.7546771E-02  0.1026650E+00
         21   -1    0    0  502  501  0.00000000000E+00  0.00000000000E+00  0.42143921123E+03  0.42143921123E+03  0.00000000000E+00 0. -1.
         21   -1    0    0  501  502 -0.00000000000E+00 -0.00000000000E+00 -0.48824163497E+03  0.48824163497E+03  0.00000000000E+00 0.  1.
         25    1    1    2    0    0  0.93466114090E+02  0.39972344594E+03 -0.18085177351E+03  0.46566845685E+03  0.12500000000E+03 0.  0.
         25    1    1    2    0    0 -0.93466114090E+02 -0.39972344594E+03  0.11404934978E+03  0.44401238936E+03  0.12500000000E+03 0.  0.
</event>
<event>
 4    0  0.2222207E-002  0.1954086E+03  0.7546771E-02  0.1153672E+00
         21   -1    0    0  502  501  0.00000000000E+00  0.00000000000E+00  0.11333918531E+04  0.11333918531E+04  0.00000000000E+00 0. -1.
         21   -1    0    0  501  502 -0.00000000000E+00 -0.00000000000E+00 -0.33690475020E+02  0.33690475020E+02  0.00000000000E+00 0. -1.
         25    1    1    2    0    0 -0.10283573121E+03  0.10931095410E+03  0.56762775721E+03  0.60029188155E+03  0.12500000000E+03 0.  0.
         25    1    1    2    0    0  0.10283573121E+03 -0.10931095410E+03  0.53207362091E+03  0.56679044661E+03  0.12500000000E+03 0.  0.
</event>
<event>
 4    0  0.2222207E-002  0.2262532E+03  0.7546771E-02  0.1129305E+00
         21   -1    0    0  502  501  0.00000000000E+00  0.00000000000E+00  0.34582153348E+02  0.34582153348E+02  0.00000000000E+00 0.  1.
         21   -1    0    0  501  502 -0.00000000000E+00 -0.00000000000E+00 -0.14802576293E+04  0.14802576293E+04  0.00000000000E+00 0.  1.
         25    1    1    2    0    0 -0.68074525851E+02 -0.54074350493E+02 -0.12830825092E+04  0.12920850985E+04  0.12500000000E+03 0.  0.
         25    1    1    2    0    0  0.68074525851E+02  0.54074350493E+02 -0.16259296671E+03  0.22275468407E+03  0.12500000000E+03 0.  0.
</event>
<event>
 4    0  0.2222207E-002  0.3260705E+03  0.7546771E-02  0.1072889E+00
         21   -1    0    0  502  501  0.00000000000E+00  0.00000000000E+00  0.64572926537E+02  0.64572926537E+02  0.00000000000E+00 0.  1.
         21   -1    0    0  501  502 -0.00000000000E+00 -0.00000000000E+00 -0.16465413701E+04  0.16465413701E+04  0.00000000000E+00 0.  1.
         25    1    1    2    0    0 -0.30503854333E+01  0.13357124397E+03 -0.82807656187E+02  0.20083000271E+03  0.12500000000E+03 0.  0.
         25    1    1    2    0    0  0.30503854333E+01 -0.13357124397E+03 -0.14991607874E+04  0.15102842939E+04  0.12500000000E+03 0.  0.
</event>
<event>
 4    0  0.2222207E-002  0.1983903E+03  0.7546771E-02  0.1151104E+00
         21   -1    0    0  502  501  0.00000000000E+00  0.00000000000E+00  0.13394873965E+03  0.13394873965E+03  0.00000000000E+00 0.  1.
         21   -1    0    0  501  502 -0.00000000000E+00 -0.00000000000E+00 -0.29383403660E+03  0.29383403660E+03  0.00000000000E+00 0.  1.
         25    1    1    2    0    0  0.12924856783E+03  0.81775595293E+02 -0.60026069924E+02  0.20644749779E+03  0.12500000000E+03 0.  0.
         25    1    1    2    0    0 -0.12924856783E+03 -0.81775595293E+02 -0.99859227024E+02  0.22133527847E+03  0.12500000000E+03 0.  0.
</event>
<event>
 4    0  0.2222207E-002  0.4347618E+03  0.7546771E-02  0.1032366E+00
         21   -1    0    0  502  501  0.00000000000E+00  0.00000000000E+00  0.83174652404E+03  0.83174652404E+03  0.00000000000E+00 0. -1.
         21   -1    0    0  501  502 -0.00000000000E+00 -0.00000000000E+00 -0.22725407673E+03  0.22725407673E+03  0.00000000000E+00 0. -1.
         25    1    1    2    0    0 -0.36810577327E+03  0.14178486816E+03  0.46468068742E+03  0.62222017840E+03  0.12500000000E+03 0.  0.
         25    1    1    2    0    0  0.36810577327E+03 -0.14178486816E+03  0.13981175989E+03  0.43678042236E+03  0.12500000000E+03 0.  0.
</event>
<event>
 4    0  0.2222207E-002  0.1615526E+03  0.7546771E-02  0.1186955E+00
         21   -1    0    0  502  501  0.00000000000E+00  0.00000000000E+00  0.12052652245E+03  0.12052652245E+03  0.00000000000E+00 0. -1.
         21   -1    0    0  501  502 -0.00000000000E+00 -0.00000000000E+00 -0.21654364795E+03  0.21654364795E+03  0.00000000000E+00 0. -1.
         25    1    1    2    0    0 -0.88025035227E+02  0.30000655598E+02 -0.92584828489E+02  0.18123298990E+03  0.12500000000E+03 0.  0.
         25    1    1    2    0    0  0.88025035227E+02 -0.30000655598E+02 -0.34322970148E+01  0.15583718050E+03  0.12500000000E+03 0.  0.
</event>
<event>
 4    0  0.2222207E-002  0.2025228E+03  0.7546771E-02  0.1147628E+00
         21   -1    0    0  502  501  0.00000000000E+00  0.00000000000E+00  0.14930144641E+03  0.14930144641E+03  0.00000000000E+00 0.  1.
         21   -1    0    0  501  502 -0.00000000000E+00 -0.00000000000E+00 -0.27471600044E+03  0.27471600044E+03  0.00000000000E+00 0.  1.
         25    1    1    2    0    0 -0.13061051561E+03  0.80076633037E+02 -0.16847591894E+02  0.19844448922E+03  0.12500000000E+03 0.  0.
         25    1    1    2    0    0  0.13061051561E+03 -0.80076633037E+02 -0.10856696214E+03  0.22557295764E+03  0.12500000000E+03 0.  0.
</event>
<event>
 4    0  0.2222207E-002  0.2203965E+03  0.7546771E-02  0.1133588E+00
         21   -1    0    0  502  501  0.00000000000E+00  0.00000000000E+00  0.82094246457E+02  0.82094246457E+02  0.00000000000E+00 0.  1.
         21   -1    0    0  501  502 -0.00000000000E+00 -0.00000000000E+00 -0.59169305630E+03  0.59169305630E+03  0.00000000000E+00 0.  1.
         25    1    1    2    0    0 -0.15277952321E+03  0.23548102544E+02 -0.40024362829E+03  0.44689602576E+03  0.12500000000E+03 0.  0.
         25    1    1    2    0    0  0.15277952321E+03 -0.23548102544E+02 -0.10935518155E+03  0.22689127700E+03  0.12500000000E+03 0.  0.
</event>
<event>
 4    0  0.2222207E-002  0.2271051E+03  0.7546771E-02  0.1128694E+00
         21   -1    0    0  502  501  0.00000000000E+00  0.00000000000E+00  0.13080439406E+03  0.13080439406E+03  0.00000000000E+00 0. -1.
         21   -1    0    0  501  502 -0.00000000000E+00 -0.00000000000E+00 -0.39430416125E+03  0.39430416125E+03  0.00000000000E+00 0. -1.
         25    1    1    2    0    0  0.50597781018E+02  0.17783936626E+03 -0.18031593222E+03  0.28692474806E+03  0.12500000000E+03 0.  0.
         25    1    1    2    0    0 -0.50597781018E+02 -0.17783936626E+03 -0.83183834975E+02  0.23818380725E+03  0.12500000000E+03 0.  0.
</event>
<event>
 4    0  0.2222207E-002  0.1882066E+03  0.7546771E-02  0.1160089E+00
         21   -1    0    0  502  501  0.00000000000E+00  0.00000000000E+00  0.25822941382E+03  0.25822941382E+03  0.00000000000E+00 0.  1.
         21   -1    0    0  501  502 -0.00000000000E+00 -0.00000000000E+00 -0.13717154698E+03  0.13717154698E+03  0.00000000000E+00 0.  1.
         25    1    1    2    0    0  0.68455905526E+02  0.81366713890E+02 -0.36260078951E+02  0.16806708915E+03  0.12500000000E+03 0.  0.
         25    1    1    2    0    0 -0.68455905526E+02 -0.81366713890E+02  0.15731794579E+03  0.22733387165E+03  0.12500000000E+03 0.  0.
</event>
<event>
 4    0  0.2222207E-002  0.1646248E+03  0.7546771E-02  0.1183572E+00
         21   -1    0    0  502  501  0.00000000000E+00  0.00000000000E+00  0.23286018280E+02  0.23286018280E+02  0.00000000000E+00 0. -1.
         21   -1    0    0  501  502 -0.00000000000E+00 -0.00000000000E+00 -0.11638456493E+04  0.11638456493E+04  0.00000000000E+00 0. -1.
         25    1    1    2    0    0 -0.29135673164E+02 -0.10298511605E+03 -0.55355780158E+03  0.57749983659E+03  0.12500000000E+03 0.  0.
         25    1    1    2    0    0  0.29135673164E+02  0.10298511605E+03 -0.58700182940E+03  0.60963183094E+03  0.12500000000E+03 0.  0.
</event>
<event>
 4    0  0.2222207E-002  0.2518517E+03  0.7546771E-02  0.1112140E+00
         21   -1    0    0  502  501  0.00000000000E+00  0.00000000000E+00  0.17118694353E+03  0.17118694353E+03  0.00000000000E+00 0. -1.
         21   -1    0    0  501  502 -0.00000000000E+00 -0.00000000000E+00 -0.37052628859E+03  0.37052628859E+03  0.00000000000E+00 0. -1.
         25    1    1    2    0    0  0.21748300522E+03 -0.27440634915E+01 -0.12366656187E+03  0.27968697855E+03  0.12500000000E+03 0.  0.
         25    1    1    2    0    0 -0.21748300522E+03  0.27440634915E+01 -0.75672783193E+02  0.26202625357E+03  0.12500000000E+03 0.  0.
</event>
<event>
 4    0  0.2222207E-002  0.2215376E+03  0.7546771E-02  0.1132742E+00
         21   -1    0    0  502  501  0.00000000000E+00  0.00000000000E+00  0.72764235237E+02  0.72764235237E+02  0.00000000000E+00 0.  1.
         21   -1    0    0  501  502 -0.00000000000E+00 -0.00000000000E+00 -0.67449216381E+03  0.67449216381E+03  0.00000000000E+00 0.  1.
         25    1    1    2    0    0 -0.67470664019E+02  0.65879708357E+01 -0.14362439491E+02  0.14292295663E+03  0.12500000000E+03 0.  0.
         25    1    1    2    0    0  0.67470664019E+02 -0.65879708357E+01 -0.58736548908E+03  0.60433344242E+03  0.12500000000E+03 0.  0.
</event>
<event>
 4    0  0.2222207E-002  0.2034332E+03  0.7546771E-02  0.1146874E+00
         21   -1    0    0  502  501  0.00000000000E+00  0.00000000000E+00  0.14784264109E+04  0.14784264109E+04  0.00000000000E+00 0. -1.
         21   -1    0    0  501  502 -0.00000000000E+00 -0.00000000000E+00 -0.27992656273E+02  0.27992656273E+02  0.00000000000E+00 0. -1.
         25    1    1    2    0    0  0.98308235906E+02 -0.47468412270E+02  0.11608274230E+04  0.11726308308E+04  0.12500000000E+03 0.  0.
         25    1    1    2    0    0 -0.98308235906E+02  0.47468412270E+02  0.28960633168E+03  0.33378823640E+03  0.12500000000E+03 0.  0.
</event>
<event>
 4    0  0.2222207E-002  0.2342540E+03  0.7546771E-02  0.1123681E+00
         21   -1    0    0  502  501  0.00000000000E+00  0.00000000000E+00  0.90816520256E+03  0.90816520256E+03  0.00000000000E+00 0. -1.
         21   -1    0    0  501  502 -0.00000000000E+00 -0.00000000000E+00 -0.60423945123E+02  0.60423945123E+02  0.00000000000E+00 0. -1.
         25    1    1    2    0    0  0.59422178549E+02  0.15947647222E+03  0.21419411966E+03  0.30077875821E+03  0.12500000000E+03 0.  0.
         25    1    1    2    0    0 -0.59422178549E+02 -0.15947647222E+03  0.63354713778E+03  0.66781038947E+03  0.12500000000E+03 0.  0.
</event>
<event>
 4    0  0.2222207E-002  0.1935755E+03  0.7546771E-02  0.1155275E+00
         21   -1    0    0  502  501  0.00000000000E+00  0.00000000000E+00  0.74673441507E+02  0.74673441507E+02  0.00000000000E+00 0.  1.
         21   -1    0    0  501  502 -0.00000000000E+00 -0.00000000000E+00 -0.50180451520E+03  0.50180451520E+03  0.00000000000E+00 0.  1.
         25    1    1    2    0    0  0.42019344284E+02  0.11037774050E+03 -0.34589297028E+03  0.38628463312E+03  0.12500000000E+03 0.  0.
         25    1    1    2    0    0 -0.42019344284E+02 -0.11037774050E+03 -0.81238103416E+02  0.19019332359E+03  0.12500000000E+03 0.  0.
</event>
<event>
 4    0  0.2222207E-002  0.3190112E+03  0.7546771E-02  0.1076105E+00
         21   -1    0    0  502  501  0.00000000000E+00  0.00000000000E+00  0.33808772257E+03  0.33808772257E+03  0.00000000000E+00 0.  1.
         21   -1    0    0  501  502 -0.00000000000E+00 -0.00000000000E+00 -0.30101098876E+03  0.30101098876E+03  0.00000000000E+00 0.  1.
         25    1    1    2    0    0  0.28237337321E+02 -0.69232735992E+02 -0.26575835648E+03  0.30305613835E+03  0.12500000000E+03 0.  0.
         25    1    1    2    0    0 -0.28237337321E+02  0.69232735992E+02  0.30283509028E+03  0.33604257299E+03  0.12500000000E+03 0.  0.
</event>
<event>
 4    0  0.2222207E-002  0.1837883E+03  0.7546771E-02  0.1164186E+00
         21   -1    0    0  502  501  0.00000000000E+00  0.00000000000E+00  0.70427307149E+02  0.70427307149E+02  0.00000000000E+00 0. -1.
         21   -1    0    0  501  502 -0.00000000000E+00 -0.00000000000E+00 -0.47961685571E+03  0.47961685571E+03  0.00000000000E+00 0. -1.
         25    1    1    2    0    0  0.12560180326E+03  0.31101743461E+02 -0.14840488756E+03  0.23322122991E+03  0.12500000000E+03 0.  0.
         25    1    1    2    0    0 -0.12560180326E+03 -0.31101743461E+02 -0.26078466100E+03  0.31682293295E+03  0.12500000000E+03 0.  0.
</event>
<event>
 4    0  0.2222207E-002  0.2375588E+03  0.7546771E-02  0.1121430E+00
         21   -1    0    0  502  501  0.00000000000E+00  0.00000000000E+00  0.35243888842E+03  0.35243888842E+03  0.00000000000E+00 0. -1.
         21   -1    0    0  501  502 -0.00000000000E+00 -0.00000000000E+00 -0.16012470599E+03  0.16012470599E+03  0.00000000000E+00 0. -1.
         25    1    1    2    0    0  0.15172753114E+03 -0.72105357527E+02 -0.24885421680E+02  0.21086657037E+03  0.12500000000E+03 0.  0.
         25    1    1    2    0    0 -0.15172753114E+03  0.72105357527E+02  0.21719960411E+03  0.30169702404E+03  0.12500000000E+03 0.  0.
</event>
<event>
 4    0  0.2222207E-002  0.3842201E+03  0.7546771E-02  0.1049385E+00
         21   -1    0    0  502  501  0.00000000000E+00  0.00000000000E+00  0.10303186584E+04  0.10303186584E+04  0.00000000000E+00 0. -1.
         21   -1    0    0  501  502 -0.00000000000E+00 -0.00000000000E+00 -0.14328097521E+03  0.14328097521E+03  0.00000000000E+00 0. -1.
         25    1    1    2    0    0  0.20364960508E+03  0.28041744784E+03  0.27696493686E+03  0.46091396480E+03  0.12500000000E+03 0.  0.
         25    1    1    2    0    0 -0.20364960508E+03 -0.28041744784E+03  0.61007274638E+03  0.71268566885E+03  0.12500000000E+03 0.  0.
</event>
<event>
 4    0  0.2222207E-002  0.2422386E+03  0.7546771E-02  0.1118310E+00
         21   -1    0    0  502  501  0.00000000000E+00  0.00000000000E+00  0.13506297066E+03  0.13506297066E+03  0.00000000000E+00 0. -1.
         21   -1    0    0  501  502 -0.00000000000E+00 -0.00000000000E+00 -0.43446051326E+03  0.43446051326E+03  0.00000000000E+00 0. -1.
         25    1    1    2    0    0 -0.24854436739E+02  0.15406199752E+03 -0.31045903532E+03  0.36927314378E+03  0.12500000000E+03 0.  0.
         25    1    1    2    0    0  0.24854436739E+02 -0.15406199752E+03  0.11061492713E+02  0.20025034014E+03  0.12500000000E+03 0.  0.
</event>
<event>
 4    0  0.2222207E-002  0.1671857E+03  0.7546771E-02  0.1180815E+00
         21   -1    0    0  502  501  0.00000000000E+00  0.00000000000E+00  0.11840286545E+03  0.11840286545E+03  0.00000000000E+00 0. -1.
         21   -1    0    0  501  502 -0.00000000000E+00 -0.00000000000E+00 -0.23606749587E+03  0.23606749587E+03  0.00000000000E+00 0. -1.
         25    1    1    2    0    0  0.36143092480E+02 -0.92208898287E+02 -0.11202049186E+03  0.19489072490E+03  0.12500000000E+03 0.  0.
         25    1    1    2    0    0 -0.36143092480E+02  0.92208898287E+02 -0.56441385604E+01  0.15957963641E+03  0.12500000000E+03 0.  0.
</event>
<event>
 4    0  0.2222207E-002  0.4672869E+03  0.7546771E-02  0.1022689E+00
         21   -1    0    0  502  501  0.00000000000E+00  0.00000000000E+00  0.72884996543E+03  0.72884996543E+03  0.00000000000E+00 0. -1.
         21   -1    0    0  501  502 -0.00000000000E+00 -0.00000000000E+00 -0.29959117305E+03  0.29959117305E+03  0.00000000000E+00 0. -1.
         25    1    1    2    0    0 -0.11537463786E+03 -0.76099491940E+02  0.68618964206E+03  0.71104406657E+03  0.12500000000E+03 0.  0.
         25    1    1    2    0    0  0.11537463786E+03  0.76099491940E+02 -0.25693084969E+03  0.31739707191E+03  0.12500000000E+03 0.  0.
</event>
<event>
 4    0  0.2222207E-002  0.2193098E+03  0.7546771E-02  0.1134399E+00
         21   -1    0    0  502  501  0.00000000000E+00  0.00000000000E+00  0.30276534928E+03  0.30276534928E+03  0.00000000000E+00 0. -1.
         21   -1    0    0  501  502 -0.00000000000E+00 -0.00000000000E+00 -0.15885826113E+03  0.15885826113E+03  0.00000000000E+00 0. -1.
         25    1    1    2    0    0 -0.13755062458E+03  0.75196593731E+02 -0.21572627847E+02  0.20165584619E+03  0.12500000000E+03 0.  0.
         25    1    1    2    0    0  0.13755062458E+03 -0.75196593731E+02  0.16547971600E+03  0.25996776423E+03  0.12500000000E+03 0.  0.
</event>
<event>
 4    0  0.2222207E-002  0.2994931E+03  0.7546771E-02  0.1085494E+00
         21   -1    0    0  502  501  0.00000000000E+00  0.00000000000E+00  0.67843833382E+03  0.67843833382E+03  0.00000000000E+00 0. -1.
         21   -1    0    0  501  502 -0.00000000000E+00 -0.00000000000E+00 -0.13220970601E+03  0.13220970601E+03  0.00000000000E+00 0. -1.
         25    1    1    2    0    0  0.74244396532E+02  0.26082902471E+03  0.30418644918E+03  0.42626096047E+03  0.12500000000E+03 0.  0.
         25    1    1    2    0    0 -0.74244396532E+02 -0.26082902471E+03  0.24204217863E+03  0.38438707937E+03  0.12500000000E+03 0.  0.
</event>
<event>
 4    0  0.2222207E-002  0.1809391E+03  0.7546771E-02  0.1166897E+00
         21   -1    0    0  502  501  0.00000000000E+00  0.00000000000E+00  0.14543299667E+04  0.14543299667E+04  0.00000000000E+00 0.  1.
         21   -1    0    0  501  502 -0.00000000000E+00 -0.00000000000E+00 -0.22511380181E+02  0.22511380181E+02  0.00000000000E+00 0.  1.
         25    1    1    2    0    0  0.54986000323E+02 -0.11758753121E+03  0.64963948409E+03  0.67417115558E+03  0.12500000000E+03 0.  0.
         25    1    1    2    0    0 -0.54986000323E+02  0.11758753121E+03  0.78217910241E+03  0.80267019129E+03  0.12500000000E+03 0.  0.
</event>
<event>
 4    0  0.2222207E-002  0.2512752E+03  0.7546771E-02  0.1112502E+00
         21   -1    0    0  502  501  0.00000000000E+00  0.00000000000E+00  0.10804799800E+03  0.10804799800E+03  0.00000000000E+00 0. -1.
         21   -1    0    0  501  502 -0.00000000000E+00 -0.00000000000E+00 -0.58436258823E+03  0.58436258823E+03  0.00000000000E+00 0. -1.
         25    1    1    2    0    0  0.12378425713E+03 -0.66505337119E+02 -0.85625428833E+01  0.18826528974E+03  0.12500000000E+03 0.  0.
         25    1    1    2    0    0 -0.12378425713E+03  0.66505337119E+02 -0.46775204735E+03  0.50414529649E+03  0.12500000000E+03 0.  0.
</event>
<event>
 4    0  0.2222207E-002  0.2542646E+03  0.7546771E-02  0.1110639E+00
         21   -1    0    0  502  501  0.00000000000E+00  0.00000000000E+00  0.19427035173E+03  0.19427035173E+03  0.00000000000E+00 0.  1.
         21   -1    0    0  501  502 -0.00000000000E+00 -0.00000000000E+00 -0.33278619842E+03  0.33278619842E+03  0.00000000000E+00 0.  1.
         25    1    1    2    0    0 -0.32907157214E+02  0.18869898122E+03  0.45852924938E+02  0.23327596798E+03  0.12500000000E+03 0.  0.
         25    1    1    2    0    0  0.32907157214E+02 -0.18869898122E+03 -0.18436877162E+03  0.29378058217E+03  0.12500000000E+03 0.  0.
</event>
<event>
 4    0  0.2222207E-002  0.2851911E+03  0.7546771E-02  0.1092887E+00
         21   -1    0    0  502  501  0.00000000000E+00  0.00000000000E+00  0.23650946850E+03  0.23650946850E+03  0.00000000000E+00 0. -1.
         21   -1    0    0  501  502 -0.00000000000E+00 -0.00000000000E+00 -0.34389314768E+03  0.34389314768E+03  0.00000000000E+00 0. -1.
         25    1    1    2    0    0  0.12845295345E+03  0.61944178921E+02  0.16305664530E+03  0.25009940449E+03  0.12500000000E+03 0.  0.
         25    1    1    2    0    0 -0.12845295345E+03 -0.61944178921E+02 -0.27044032447E+03  0.33030321169E+03  0.12500000000E+03 0.  0.
</event>
<event>
 4    0  0.2222207E-002  0.2115121E+03  0.7546771E-02  0.1140374E+00
         21   -1    0    0  502  501  0.00000000000E+00  0.00000000000E+00  0.15282373202E+04  0.15282373202E+04  0.00000000000E+00 0.  1.
         21   -1    0    0  501  502 -0.00000000000E+00 -0.00000000000E+00 -0.29273837144E+02  0.29273837144E+02  0.00000000000E+00 0.  1.
         25    1    1    2    0    0  0.16197446272E+03 -0.79324785096E+01  0.55417989250E+03  0.59079523021E+03  0.12500000000E+03 0.  0.
         25    1    1    2    0    0 -0.16197446272E+03  0.79324785096E+01  0.94478359054E+03  0.96671592711E+03  0.12500000000E+03 0.  0.
</event>
<event>
 4    0  0.2222207E-002  0.1679417E+03  0.7546771E-02  0.1180011E+00
         21   -1    0    0  502  501  0.00000000000E+00  0.00000000000E+00  0.56345485857E+02  0.56345485857E+02  0.00000000000E+00 0.  1.
         21   -1    0    0  501  502 -0.00000000000E+00 -0.00000000000E+00 -0.50056218321E+03  0.50056218321E+03  0.00000000000E+00 0.  1.
         25    1    1    2    0    0 -0.10868937871E+03  0.91533962933E+01 -0.17880040409E+03  0.24390930735E+03  0.12500000000E+03 0.  0.
         25    1    1    2    0    0  0.10868937871E+03 -0.91533962933E+01 -0.26541629327E+03  0.31299836172E+03  0.12500000000E+03 0.  0.
</event>
<event>
 4    0  0.2222207E-002  0.2612053E+03  0.7546771E-02  0.1106421E+00
         21   -1    0    0  502  501  0.00000000000E+00  0.00000000000E+00  0.30991164881E+03  0.30991164881E+03  0.00000000000E+00 0.  1.
         21   -1    0    0  501  502 -0.00000000000E+00 -0.00000000000E+00 -0.22015373589E+03  0.22015373589E+03  0.00000000000E+00 0.  1.
         25    1    1    2    0    0 -0.14228499418E+03 -0.15351676585E+03  0.14001200827E+03  0.28114192043E+03  0.12500000000E+03 0.  0.
         25    1    1    2    0    0  0.14228499418E+03  0.15351676585E+03 -0.50254095350E+02  0.24892346427E+03  0.12500000000E+03 0.  0.
</event>
<event>
 4    0  0.2222207E-002  0.2545784E+03  0.7546771E-02  0.1110445E+00
         21   -1    0    0  502  501  0.00000000000E+00  0.00000000000E+00  0.28783679469E+03  0.28783679469E+03  0.00000000000E+00 0. -1.
         21   -1    0    0  501  502 -0.00000000000E+00 -0.00000000000E+00 -0.22516296782E+03  0.22516296782E+03  0.00000000000E+00 0. -1.
         25    1    1    2    0    0  0.10473614628E+03  0.16737150834E+03 -0.70431892372E+02  0.24406665812E+03  0.12500000000E+03 0.  0.
         25    1    1    2    0    0 -0.10473614628E+03 -0.16737150834E+03  0.13310571924E+03  0.26893310439E+03  0.12500000000E+03 0.  0.
</event>
<event>
 4    0  0.2222207E-002  0.9188658E+03  0.7546771E-02  0.9402301E-01
         21   -1    0    0  502  501  0.00000000000E+00  0.00000000000E+00  0.21461176237E+04  0.21461176237E+04  0.00000000000E+00 0. -1.
         21   -1    0    0  501  502 -0.00000000000E+00 -0.00000000000E+00 -0.39341472214E+03  0.39341472214E+03  0.00000000000E+00 0. -1.
         25    1    1    2    0    0 -0.14935998567E+03  0.53436292351E+03 -0.12094128801E+03  0.58146705366E+03  0.12500000000E+03 0.  0.
         25    1    1    2    0    0  0.14935998567E+03 -0.53436292351E+03  0.18736441896E+04  0.19580652922E+04  0.12500000000E+03 0.  0.
</event>
<event>
 4    0  0.2222207E-002  0.5529784E+03  0.7546771E-02  0.1000807E+00
         21   -1    0    0  502  501  0.00000000000E+00  0.00000000000E+00  0.20337143939E+03  0.20337143939E+03  0.00000000000E+00 0.  1.
         21   -1    0    0  501  502 -0.00000000000E+00 -0.00000000000E+00 -0.15035796140E+04  0.15035796140E+04  0.00000000000E+00 0.  1.
         25    1    1    2    0    0 -0.51771123733E+02  0.51275842853E+03 -0.89197604504E+03  0.10377127349E+04  0.12500000000E+03 0.  0.
         25    1    1    2    0    0  0.51771123733E+02 -0.51275842853E+03 -0.40823212953E+03  0.66923831844E+03  0.12500000000E+03 0.  0.
</event>
<event>
 4    0  0.2222207E-002  0.1628552E+03  0.7546771E-02  0.1185510E+00
         21   -1    0    0  502  501  0.00000000000E+00  0.00000000000E+00  0.12062705005E+04  0.12062705005E+04  0.00000000000E+00 0.  1.
         21   -1    0    0  501  502 -0.00000000000E+00 -0.00000000000E+00 -0.21986631830E+02  0.21986631830E+02  0.00000000000E+00 0.  1.
         25    1    1    2    0    0  0.69399653791E+02  0.73586406204E+02  0.49485616303E+03  0.52032575682E+03  0.12500000000E+03 0.  0.
         25    1    1    2    0    0 -0.69399653791E+02 -0.73586406204E+02  0.68942770565E+03  0.70793137552E+03  0.12500000000E+03 0.  0.
</event>
<event>
 4    0  0.2222207E-002  0.2183695E+03  0.7546771E-02  0.1135105E+00
         21   -1    0    0  502  501  0.00000000000E+00  0.00000000000E+00  0.67603502252E+03  0.67603502252E+03  0.00000000000E+00 0. -1.
         21   -1    0    0  501  502 -0.00000000000E+00 -0.00000000000E+00 -0.70536631256E+02  0.70536631256E+02  0.00000000000E+00 0. -1.
         25    1    1    2    0    0  0.10931138352E+03  0.10690276987E+03  0.46203818428E+03  0.50247533721E+03  0.12500000000E+03 0.  0.
         25    1    1    2    0    0 -0.10931138352E+03 -0.10690276987E+03  0.14346020698E+03  0.24409631657E+03  0.12500000000E+03 0.  0.
</event>
<event>
 4    0  0.2222207E-002  0.3071906E+03  0.7546771E-02  0.1081700E+00
         21   -1    0    0  502  501  0.00000000000E+00  0.00000000000E+00  0.39435119090E+03  0.39435119090E+03  0.00000000000E+00 0.  1.
         21   -1    0    0  501  502 -0.00000000000E+00 -0.00000000000E+00 -0.23929451902E+03  0.23929451902E+03  0.00000000000E+00 0.  1.
         25    1    1    2    0    0  0.58137052755E+02  0.96654231080E+02  0.34252683791E+03  0.38166948001E+03  0.12500000000E+03 0.  0.
         25    1    1    2    0    0 -0.58137052755E+02 -0.96654231080E+02 -0.18747016603E+03  0.25197622991E+03  0.12500000000E+03 0.  0.
</event>
<event>
 4    0  0.2222207E-002  0.3584824E+03  0.7546771E-02  0.1059186E+00
         21   -1    0    0  502  501  0.00000000000E+00  0.00000000000E+00  0.13989225189E+03  0.13989225189E+03  0.00000000000E+00 0.  1.
         21   -1    0    0  501  502 -0.00000000000E+00 -0.00000000000E+00 -0.91863306268E+03  0.91863306268E+03  0.00000000000E+00 0.  1.
         25    1    1    2    0    0  0.30884061940E+03  0.12758411457E+03 -0.44103195262E+03  0.56726926386E+03  0.12500000000E+03 0.  0.
         25    1    1    2    0    0 -0.30884061940E+03 -0.12758411457E+03 -0.33770885816E+03  0.49125605071E+03  0.12500000000E+03 0.  0.
</event>
<event>
 4    0  0.2222207E-002  0.2266240E+03  0.7546771E-02  0.1129039E+00
         21   -1    0    0  502  501  0.00000000000E+00  0.00000000000E+00  0.70390246724E+02  0.70390246724E+02  0.00000000000E+00 0. -1.
         21   -1    0    0  501  502 -0.00000000000E+00 -0.00000000000E+00 -0.72962444159E+03  0.72962444159E+03  0.00000000000E+00 0. -1.
         25    1    1    2    0    0  0.74998642916E+02 -0.13297124071E+03 -0.13285095290E+03  0.23786660754E+03  0.12500000000E+03 0.  0.
         25    1    1    2    0    0 -0.74998642916E+02  0.13297124071E+03 -0.52638324197E+03  0.56214808078E+03  0.12500000000E+03 0.  0.
</event>
<event>
 4    0  0.2222207E-002  0.2401134E+03  0.7546771E-02  0.1119717E+00
         21   -1    0    0  502  501  0.00000000000E+00  0.00000000000E+00  0.94355606023E+03  0.94355606023E+03  0.00000000000E+00 0.  1.
         21   -1    0    0  501  502 -0.00000000000E+00 -0.00000000000E+00 -0.61103382033E+02  0.61103382033E+02  0.00000000000E+00 0.  1.
         25    1    1    2    0    0  0.47773547174E+02  0.89513687899E+02  0.68544771745E+02  0.17498113574E+03  0.12500000000E+03 0.  0.
         25    1    1    2    0    0 -0.47773547174E+02 -0.89513687899E+02  0.81390790645E+03  0.82967830652E+03  0.12500000000E+03 0.  0.
</event>
<event>
 4    0  0.2222207E-002  0.1496344E+03  0.7546771E-02  0.1200923E+00
         21   -1    0    0  502  501  0.00000000000E+00  0.00000000000E+00  0.21651478323E+02  0.21651478323E+02  0.00000000000E+00 0.  1.
         21   -1    0    0  501  502 -0.00000000000E+00 -0.00000000000E+00 -0.10341302458E+04  0.10341302458E+04  0.00000000000E+00 0.  1.
         25    1    1    2    0    0 -0.76099483941E+02  0.29564721057E+02 -0.47091758315E+03  0.49401778744E+03  0.12500000000E+03 0.  0.
         25    1    1    2    0    0  0.76099483941E+02 -0.29564721057E+02 -0.54156118434E+03  0.56176393669E+03  0.12500000000E+03 0.  0.
</event>
<event>
 4    0  0.2222207E-002  0.2437752E+03  0.7546771E-02  0.1117303E+00
         21   -1    0    0  502  501  0.00000000000E+00  0.00000000000E+00  0.33396582125E+03  0.33396582125E+03  0.00000000000E+00 0. -1.
         21   -1    0    0  501  502 -0.00000000000E+00 -0.00000000000E+00 -0.17794145527E+03  0.17794145527E+03  0.00000000000E+00 0. -1.
         25    1    1    2    0    0 -0.20211839938E+03 -0.17211230688E+02  0.23928766209E+02  0.23946953811E+03  0.12500000000E+03 0.  0.
         25    1    1    2    0    0  0.20211839938E+03  0.17211230688E+02  0.13209559978E+03  0.27243773841E+03  0.12500000000E+03 0.  0.
</event>
<event>
 4    0  0.2222207E-002  0.2423959E+03  0.7546771E-02  0.1118207E+00
         21   -1    0    0  502  501  0.00000000000E+00  0.00000000000E+00  0.44731361010E+03  0.44731361010E+03  0.00000000000E+00 0.  1.
         21   -1    0    0  501  502 -0.00000000000E+00 -0.00000000000E+00 -0.13135253863E+03  0.13135253863E+03  0.00000000000E+00 0.  1.
         25    1    1    2    0    0  0.45526590048E+02 -0.15675978327E+03  0.47270390017E+01  0.20565418778E+03  0.12500000000E+03 0.  0.
         25    1    1    2    0    0 -0.45526590048E+02  0.15675978327E+03  0.31123403247E+03  0.37301196096E+03  0.12500000000E+03 0.  0.
</event>
<event>
 4    0  0.2222207E-002  0.5385610E+03  0.7546771E-02  0.1004177E+00
         21   -1    0    0  502  501  0.00000000000E+00  0.00000000000E+00  0.43924461958E+03  0.43924461958E+03  0.00000000000E+00 0.  1.
         21   -1    0    0  501  502 -0.00000000000E+00 -0.00000000000E+00 -0.66033355014E+03  0.66033355014E+03  0.00000000000E+00 0.  1.
         25    1    1    2    0    0 -0.29414385369E+02  0.27362283734E+03 -0.56558213316E+03  0.64128216296E+03  0.12500000000E+03 0.  0.
         25    1    1    2    0    0  0.29414385369E+02 -0.27362283734E+03  0.34449320260E+03  0.45829600676E+03  0.12500000000E+03 0.  0.
</event>
<event>
 4    0  0.2222207E-002  0.2972335E+03  0.7546771E-02  0.1086632E+00
         21   -1    0    0  502  501  0.00000000000E+00  0.00000000000E+00  0.24658857996E+03  0.24658857996E+03  0.00000000000E+00 0.  1.
         21   -1    0    0  501  502 -0.00000000000E+00 -0.00000000000E+00 -0.35828006449E+03  0.35828006449E+03  0.00000000000E+00 0.  1.
         25    1    1    2    0    0 -0.13993812221E+03  0.17385776995E+03 -0.20986664163E+03  0.33087491516E+03  0.12500000000E+03 0.  0.
         25    1    1    2    0    0  0.13993812221E+03 -0.17385776995E+03  0.98175157091E+02  0.27399372928E+03  0.12500000000E+03 0.  0.
</event>
<event>
 4    0  0.2222207E-002  0.2662109E+03  0.7546771E-02  0.1103468E+00
         21   -1    0    0  502  501  0.00000000000E+00  0.00000000000E+00  0.13793442211E+03  0.13793442211E+03  0.00000000000E+00 0. -1.
         21   -1    0    0  501  502 -0.00000000000E+00 -0.00000000000E+00 -0.51378220850E+03  0.51378220850E+03  0.00000000000E+00 0. -1.
         25    1    1    2    0    0 -0.29496676842E+02 -0.15448747841E+02  0.96876214892E+02  0.16161286696E+03  0.12500000000E+03 0.  0.
         25    1    1    2    0    0  0.29496676842E+02  0.15448747841E+02 -0.47272400129E+03  0.49010376365E+03  0.12500000000E+03 0.  0.
</event>
<event>
 4    0  0.2222207E-002  0.1705913E+03  0.7546771E-02  0.1177233E+00
         21   -1    0    0  502  501  0.00000000000E+00  0.00000000000E+00  0.13028264631E+03  0.13028264631E+03  0.00000000000E+00 0.  1.
         21   -1    0    0  501  502 -0.00000000000E+00 -0.00000000000E+00 -0.22337127593E+03  0.22337127593E+03  0.00000000000E+00 0.  1.
         25    1    1    2    0    0 -0.10231228559E+03  0.53034138640E+02 -0.32033412668E+02  0.17300740785E+03  0.12500000000E+03 0.  0.
         25    1    1    2    0    0  0.10231228559E+03 -0.53034138640E+02 -0.61055216952E+02  0.18064651439E+03  0.12500000000E+03 0.  0.
</event>
<event>
 4    0  0.2222207E-002  0.2639540E+03  0.7546771E-02  0.1104791E+00
         21   -1    0    0  502  501  0.00000000000E+00  0.00000000000E+00  0.56540810774E+03  0.56540810774E+03  0.00000000000E+00 0.  1.
         21   -1    0    0  501  502 -0.00000000000E+00 -0.00000000000E+00 -0.12322373054E+03  0.12322373054E+03  0.00000000000E+00 0.  1.
         25    1    1    2    0    0 -0.17247017875E+03 -0.87929530570E+02  0.53181330402E+02  0.23649697420E+03  0.12500000000E+03 0.  0.
         25    1    1    2    0    0  0.17247017875E+03  0.87929530570E+02  0.38900304680E+03  0.45213486408E+03  0.12500000000E+03 0.  0.
</event>
<event>
 4    0  0.2222207E-002  0.3100898E+03  0.7546771E-02  0.1080303E+00
         21   -1    0    0  502  501  0.00000000000E+00  0.00000000000E+00  0.23863914255E+03  0.23863914255E+03  0.00000000000E+00 0. -1.
         21   -1    0    0  501  502 -0.00000000000E+00 -0.00000000000E+00 -0.40293342563E+03  0.40293342563E+03  0.00000000000E+00 0. -1.
         25    1    1    2    0    0 -0.17535909238E+02  0.90353448122E+02  0.19555148039E+03  0.24967305658E+03  0.12500000000E+03 0.  0.
         25    1    1    2    0    0  0.17535909238E+02 -0.90353448122E+02 -0.35984576347E+03  0.39189951159E+03  0.12500000000E+03 0.  0.
</event>
<event>
 4    0  0.2222207E-002  0.3462662E+03  0.7546771E-02  0.1064158E+00
         21   -1    0    0  502  501  0.00000000000E+00  0.00000000000E+00  0.20248118674E+04  0.20248118674E+04  0.00000000000E+00 0.  1.
         21   -1    0    0  501  502 -0.00000000000E+00 -0.00000000000E+00 -0.59215529796E+02  0.59215529796E+02  0.00000000000E+00 0.  1.
         25    1    1    2    0    0 -0.29923384742E+03 -0.45997622463E+02  0.64475715462E+03  0.72318287117E+03  0.12500000000E+03 0.  0.
         25    1    1    2    0    0  0.29923384742E+03  0.45997622463E+02  0.13208391830E+04  0.13608445260E+04  0.12500000000E+03 0.  0.
</event>
<event>
 4    0  0.2222207E-002  0.6501693E+03  0.7546771E-02  0.9806462E-01
         21   -1    0    0  502  501  0.00000000000E+00  0.00000000000E+00  0.11825694135E+04  0.11825694135E+04  0.00000000000E+00 0.  1.
         21   -1    0    0  501  502 -0.00000000000E+00 -0.00000000000E+00 -0.35745900153E+03  0.35745900153E+03  0.00000000000E+00 0.  1.
         25    1    1    2    0    0  0.18277307293E+03  0.59698758586E+03  0.25680399729E+03  0.68656643297E+03  0.12500000000E+03 0.  0.
         25    1    1    2    0    0 -0.18277307293E+03 -0.59698758586E+03  0.56830641471E+03  0.85346198208E+03  0.12500000000E+03 0.  0.
</event>
<event>
 4    0  0.2222207E-002  0.2857315E+03  0.7546771E-02  0.1092599E+00
         21   -1    0    0  502  501  0.00000000000E+00  0.00000000000E+00  0.64007254946E+03  0.64007254946E+03  0.00000000000E+00 0.  1.
         21   -1    0    0  501  502 -0.00000000000E+00 -0.00000000000E+00 -0.12755195068E+03  0.12755195068E+03  0.00000000000E+00 0.  1.
         25    1    1    2    0    0  0.42306275328E+02  0.24909887030E+03  0.31894090627E+03  0.42566227200E+03  0.12500000000E+03 0.  0.
         25    1    1    2    0    0 -0.42306275328E+02 -0.24909887030E+03  0.19357969251E+03  0.34196222814E+03  0.12500000000E+03 0.  0.
</event>
<event>
 4    0  0.2222207E-002  0.1989908E+03  0.7546771E-02  0.1150593E+00
         21   -1    0    0  502  501  0.00000000000E+00  0.00000000000E+00  0.48283225180E+03  0.48283225180E+03  0.00000000000E+00 0. -1.
         21   -1    0    0  501  502 -0.00000000000E+00 -0.00000000000E+00 -0.82010580278E+02  0.82010580278E+02  0.00000000000E+00 0. -1.
         25    1    1    2    0    0  0.30026318796E+02  0.56416733484E+02  0.40056253897E+03  0.42445232390E+03  0.12500000000E+03 0.  0.
         25    1    1    2    0    0 -0.30026318796E+02 -0.56416733484E+02  0.25913255268E+00  0.14039050818E+03  0.12500000000E+03 0.  0.
</event>
<event>
 4    0  0.2222207E-002  0.2712358E+03  0.7546771E-02  0.1100574E+00
         21   -1    0    0  502  501  0.00000000000E+00  0.00000000000E+00  0.10753749631E+03  0.10753749631E+03  0.00000000000E+00 0.  1.
         21   -1    0    0  501  502 -0.00000000000E+00 -0.00000000000E+00 -0.68412260731E+03  0.68412260731E+03  0.00000000000E+00 0.  1.
         25    1    1    2    0    0  0.19653864488E+03  0.11627250494E+03 -0.17717897214E+03  0.31490335423E+03  0.12500000000E+03 0.  0.
         25    1    1    2    0    0 -0.19653864488E+03 -0.11627250494E+03 -0.39940613885E+03  0.47675674939E+03  0.12500000000E+03 0.  0.
</event>
<event>
 4    0  0.2222207E-002  0.2646632E+03  0.7546771E-02  0.1104373E+00
         21   -1    0    0  502  501  0.00000000000E+00  0.00000000000E+00  0.40275279363E+03  0.40275279363E+03  0.00000000000E+00 0. -1.
         21   -1    0    0  501  502 -0.00000000000E+00 -0.00000000000E+00 -0.17391962125E+03  0.17391962125E+03  0.00000000000E+00 0. -1.
         25    1    1    2    0    0  0.14966691516E+03 -0.51151048453E+02 -0.72400325408E+02  0.21420416049E+03  0.12500000000E+03 0.  0.
         25    1    1    2    0    0 -0.14966691516E+03  0.51151048453E+02  0.30123349779E+03  0.36246825439E+03  0.12500000000E+03 0.  0.
</event>
<event>
 4    0  0.2222207E-002  0.1809002E+03  0.7546771E-02  0.1166935E+00
         21   -1    0    0  502  501  0.00000000000E+00  0.00000000000E+00  0.23129387483E+02  0.23129387483E+02  0.00000000000E+00 0. -1.
         21   -1    0    0  501  502 -0.00000000000E+00 -0.00000000000E+00 -0.14148611975E+04  0.14148611975E+04  0.00000000000E+00 0. -1.
         25    1    1    2    0    0  0.24145417104E+01 -0.10509644238E+03 -0.10049815463E+04  0.10181669808E+04  0.12500000000E+03 0.  0.
         25    1    1    2    0    0 -0.24145417104E+01  0.10509644238E+03 -0.38675026366E+03  0.41982360421E+03  0.12500000000E+03 0.  0.
</event>
<event>
 4    0  0.2222207E-002  0.3372191E+03  0.7546771E-02  0.1067987E+00
         21   -1    0    0  502  501  0.00000000000E+00  0.00000000000E+00  0.79903048733E+03  0.79903048733E+03  0.00000000000E+00 0.  1.
         21   -1    0    0  501  502 -0.00000000000E+00 -0.00000000000E+00 -0.14231834558E+03  0.14231834558E+03  0.00000000000E+00 0.  1.
         25    1    1    2    0    0  0.27700422707E+03 -0.23397332594E+02  0.52971689604E+03  0.61114954548E+03  0.12500000000E+03 0.  0.
         25    1    1    2    0    0 -0.27700422707E+03  0.23397332594E+02  0.12699524570E+03  0.33019928743E+03  0.12500000000E+03 0.  0.
</event>
<event>
 4    0  0.2222207E-002  0.2635505E+03  0.7546771E-02  0.1105029E+00
         21   -1    0    0  502  501  0.00000000000E+00  0.00000000000E+00  0.52665343998E+03  0.52665343998E+03  0.00000000000E+00 0.  1.
         21   -1    0    0  501  502 -0.00000000000E+00 -0.00000000000E+00 -0.13188727403E+03  0.13188727403E+03  0.00000000000E+00 0.  1.
         25    1    1    2    0    0  0.11931136338E+03  0.90574490891E+02  0.41875299943E+03  0.46197187616E+03  0.12500000000E+03 0.  0.
         25    1    1    2    0    0 -0.11931136338E+03 -0.90574490891E+02 -0.23986833488E+02  0.19656883785E+03  0.12500000000E+03 0.  0.
</event>
<event>
 4    0  0.2222207E-002  0.3448904E+03  0.7546771E-02  0.1064732E+00
         21   -1    0    0  502  501  0.00000000000E+00  0.00000000000E+00  0.36472939383E+03  0.36472939383E+03  0.00000000000E+00 0. -1.
         21   -1    0    0  501  502 -0.00000000000E+00 -0.00000000000E+00 -0.32613048602E+03  0.32613048602E+03  0.00000000000E+00 0. -1.
         25    1    1    2    0    0  0.28199230664E+03 -0.67458233089E+02 -0.11967677093E+03  0.33766522432E+03  0.12500000000E+03 0.  0.
         25    1    1    2    0    0 -0.28199230664E+03  0.67458233089E+02  0.15827567874E+03  0.35319465553E+03  0.12500000000E+03 0.  0.
</event>
<event>
 4    0  0.2222207E-002  0.1708215E+03  0.7546771E-02  0.1176994E+00
         21   -1    0    0  502  501  0.00000000000E+00  0.00000000000E+00  0.33919268696E+02  0.33919268696E+02  0.00000000000E+00 0.  1.
         21   -1    0    0  501  502 -0.00000000000E+00 -0.00000000000E+00 -0.86027730149E+03  0.86027730149E+03  0.00000000000E+00 0.  1.
         25    1    1    2    0    0  0.12799673459E+01  0.30977310657E+02 -0.11945600173E+03  0.17565867027E+03  0.12500000000E+03 0.  0.
         25    1    1    2    0    0 -0.12799673459E+01 -0.30977310657E+02 -0.70690203107E+03  0.71853789992E+03  0.12500000000E+03 0.  0.
</event>
<event>
 4    0  0.2222207E-002  0.1576780E+03  0.7546771E-02  0.1191343E+00
         21   -1    0    0  502  501  0.00000000000E+00  0.00000000000E+00  0.46270273019E+02  0.46270273019E+02  0.00000000000E+00 0. -1.
         21   -1    0    0  501  502 -0.00000000000E+00 -0.00000000000E+00 -0.53732912695E+03  0.53732912695E+03  0.00000000000E+00 0. -1.
         25    1    1    2    0    0  0.67877068164E+02 -0.66972404591E+02 -0.22326318245E+03  0.27306418292E+03  0.12500000000E+03 0.  0.
         25    1    1    2    0    0 -0.67877068164E+02  0.66972404591E+02 -0.26779567148E+03  0.31053521704E+03  0.12500000000E+03 0.  0.
</event>
<event>
 4    0  0.2222207E-002  0.1854401E+03  0.7546771E-02  0.1162640E+00
         21   -1    0    0  502  501  0.00000000000E+00  0.00000000000E+00  0.82160179403E+02  0.82160179403E+02  0.00000000000E+00 0.  1.
         21   -1    0    0  501  502 -0.00000000000E+00 -0.00000000000E+00 -0.41854867919E+03  0.41854867919E+03  0.00000000000E+00 0.  1.
         25    1    1    2    0    0  0.37114707360E+02 -0.22133016656E+01  0.97911643791E+01  0.13077945980E+03  0.12500000000E+03 0.  0.
         25    1    1    2    0    0 -0.37114707360E+02  0.22133016656E+01 -0.34617966416E+03  0.36992939879E+03  0.12500000000E+03 0.  0.
</event>
<event>
 4    0  0.2222207E-002  0.2974260E+03  0.7546771E-02  0.1086534E+00
         21   -1    0    0  502  501  0.00000000000E+00  0.00000000000E+00  0.89108032047E+03  0.89108032047E+03  0.00000000000E+00 0.  1.
         21   -1    0    0  501  502 -0.00000000000E+00 -0.00000000000E+00 -0.99275282615E+02  0.99275282615E+02  0.00000000000E+00 0.  1.
         25    1    1    2    0    0  0.81702632817E+02  0.24353264061E+03  0.25807137434E+03  0.38497961181E+03  0.12500000000E+03 0.  0.
         25    1    1    2    0    0 -0.81702632817E+02 -0.24353264061E+03  0.53373366351E+03  0.60537599128E+03  0.12500000000E+03 0.  0.
</event>
<event>
 4    0  0.2222207E-002  0.1896711E+03  0.7546771E-02  0.1158758E+00
         21   -1    0    0  502  501  0.00000000000E+00  0.00000000000E+00  0.19296901328E+03  0.19296901328E+03  0.00000000000E+00 0.  1.
         21   -1    0    0  501  502 -0.00000000000E+00 -0.00000000000E+00 -0.18642964049E+03  0.18642964049E+03  0.00000000000E+00 0.  1.
         25    1    1    2    0    0  0.40612691867E+01 -0.48669192788E+02 -0.13078365464E+03  0.18738876315E+03  0.12500000000E+03 0.  0.
         25    1    1    2    0    0 -0.40612691867E+01  0.48669192788E+02  0.13732302743E+03  0.19200989062E+03  0.12500000000E+03 0.  0.
</event>
<event>
 4    0  0.2222207E-002  0.4245023E+03  0.7546771E-02  0.1035611E+00
         21   -1    0    0  502  501  0.00000000000E+00  0.00000000000E+00  0.38257782071E+03  0.38257782071E+03  0.00000000000E+00 0.  1.
         21   -1    0    0  501  502 -0.00000000000E+00 -0.00000000000E+00 -0.47102102876E+03  0.47102102876E+03  0.00000000000E+00 0.  1.
         25    1    1    2    0    0 -0.32482643973E+03 -0.18317057841E+03  0.11637227544E+03  0.41015994836E+03  0.12500000000E+03 0.  0.
         25    1    1    2    0    0  0.32482643973E+03  0.18317057841E+03 -0.20481548350E+03  0.44343890112E+03  0.12500000000E+03 0.  0.
</event>
<event>
 4    0  0.2222207E-002  0.2580234E+03  0.7546771E-02  0.1108337E+00
         21   -1    0    0  502  501  0.00000000000E+00  0.00000000000E+00  0.11035067929E+03  0.11035067929E+03  0.00000000000E+00 0.  1.
         21   -1    0    0  501  502 -0.00000000000E+00 -0.00000000000E+00 -0.60331355607E+03  0.60331355607E+03  0.00000000000E+00 0.  1.
         25    1    1    2    0    0  0.16813079488E+02  0.20601041562E+03 -0.37192674007E+03  0.44348333787E+03  0.12500000000E+03 0.  0.
         25    1    1    2    0    0 -0.16813079488E+02 -0.20601041562E+03 -0.12103613670E+03  0.27018089750E+03  0.12500000000E+03 0.  0.
</event>
<event>
 4    0  0.2222207E-002  0.1975148E+03  0.7546771E-02  0.1151853E+00
         21   -1    0    0  502  501  0.00000000000E+00  0.00000000000E+00  0.27721648088E+02  0.27721648088E+02  0.00000000000E+00 0. -1.
         21   -1    0    0  501  502 -0.00000000000E+00 -0.00000000000E+00 -0.14072791047E+04  0.14072791047E+04  0.00000000000E+00 0. -1.
         25    1    1    2    0    0  0.27105240069E+02 -0.41309382892E+02 -0.12155203816E+04  0.12229292527E+04  0.12500000000E+03 0.  0.
         25    1    1    2    0    0 -0.27105240069E+02  0.41309382892E+02 -0.16403707507E+03  0.21207150010E+03  0.12500000000E+03 0.  0.
</event>
<event>
 4    0  0.2222207E-002  0.2232141E+03  0.7546771E-02  0.1131509E+00
         21   -1    0    0  502  501  0.00000000000E+00  0.00000000000E+00  0.13728509526E+04  0.13728509526E+04  0.00000000000E+00 0.  1.
         21   -1    0    0  501  502 -0.00000000000E+00 -0.00000000000E+00 -0.36292734287E+02  0.36292734287E+02  0.00000000000E+00 0. -1.
         25    1    1    2    0    0  0.82314751159E+02  0.12436386281E+03  0.32311740935E+03  0.37718953969E+03  0.12500000000E+03 0.  0.
         25    1    1    2    0    0 -0.82314751159E+02 -0.12436386281E+03  0.10134408089E+04  0.10319541472E+04  0.12500000000E+03 0.  0.
</event>
<event>
 4    0  0.2222207E-002  0.2707828E+03  0.7546771E-02  0.1100832E+00
         21   -1    0    0  502  501  0.00000000000E+00  0.00000000000E+00  0.50283601814E+02  0.50283601814E+02  0.00000000000E+00 0. -1.
         21   -1    0    0  501  502 -0.00000000000E+00 -0.00000000000E+00 -0.14581959276E+04  0.14581959276E+04  0.00000000000E+00 0. -1.
         25    1    1    2    0    0  0.23805005257E+02  0.92512225328E+02 -0.90071978773E+02  0.18128196675E+03  0.12500000000E+03 0.  0.
         25    1    1    2    0    0 -0.23805005257E+02 -0.92512225328E+02 -0.13178403470E+04  0.13271975626E+04  0.12500000000E+03 0.  0.
</event>
<event>
 4    0  0.2222207E-002  0.2241658E+03  0.7546771E-02  0.1130815E+00
         21   -1    0    0  502  501  0.00000000000E+00  0.00000000000E+00  0.85682153708E+02  0.85682153708E+02  0.00000000000E+00 0.  1.
         21   -1    0    0  501  502 -0.00000000000E+00 -0.00000000000E+00 -0.58647349422E+03  0.58647349422E+03  0.00000000000E+00 0.  1.
         25    1    1    2    0    0  0.10717336171E+02  0.14876065567E+03 -0.41721385561E+03  0.46036615349E+03  0.12500000000E+03 0.  0.
         25    1    1    2    0    0 -0.10717336171E+02 -0.14876065567E+03 -0.83577484906E+02  0.21178949444E+03  0.12500000000E+03 0.  0.
</event>
<event>
 4    0  0.2222207E-002  0.2636030E+03  0.7546771E-02  0.1104998E+00
         21   -1    0    0  502  501  0.00000000000E+00  0.00000000000E+00  0.52793513517E+03  0.52793513517E+03  0.00000000000E+00 0. -1.
         21   -1    0    0  501  502 -0.00000000000E+00 -0.00000000000E+00 -0.13161948787E+03  0.13161948787E+03  0.00000000000E+00 0. -1.
         25    1    1    2    0    0 -0.22392968096E+03  0.59532002991E+02  0.18170343305E+03  0.31989013579E+03  0.12500000000E+03 0.  0.
         25    1    1    2    0    0  0.22392968096E+03 -0.59532002991E+02  0.21461221425E+03  0.33966448725E+03  0.12500000000E+03 0.  0.
</event>
<event>
 4    0  0.2222207E-002  0.2115884E+03  0.7546771E-02  0.1140314E+00
         21   -1    0    0  502  501  0.00000000000E+00  0.00000000000E+00  0.68966328489E+03  0.68966328489E+03  0.00000000000E+00 0.  1.
         21   -1    0    0  501  502 -0.00000000000E+00 -0.00000000000E+00 -0.64915254178E+02  0.64915254178E+02  0.00000000000E+00 0.  1.
         25    1    1    2    0    0 -0.95340441362E+02 -0.12544031447E+03  0.19518037535E+03  0.28025961389E+03  0.12500000000E+03 0.  0.
         25    1    1    2    0    0  0.95340441362E+02  0.12544031447E+03  0.42956765536E+03  0.47431892518E+03  0.12500000000E+03 0.  0.
</event>
<event>
 4    0  0.2222207E-002  0.1737826E+03  0.7546771E-02  0.1173960E+00
         21   -1    0    0  502  501  0.00000000000E+00  0.00000000000E+00  0.63481489240E+03  0.63481489240E+03  0.00000000000E+00 0.  1.
         21   -1    0    0  501  502 -0.00000000000E+00 -0.00000000000E+00 -0.47573561718E+02  0.47573561718E+02  0.00000000000E+00 0.  1.
         25    1    1    2    0    0 -0.10854262963E+03 -0.52238090056E+02  0.30945995199E+03  0.35482500248E+03  0.12500000000E+03 0.  0.
         25    1    1    2    0    0  0.10854262963E+03  0.52238090056E+02  0.27778137869E+03  0.32756345164E+03  0.12500000000E+03 0.  0.
</event>
<event>
 4    0  0.2222207E-002  0.1930847E+03  0.7546771E-02  0.1155708E+00
         21   -1    0    0  502  501  0.00000000000E+00  0.00000000000E+00  0.52374117786E+02  0.52374117786E+02  0.00000000000E+00 0. -1.
         21   -1    0    0  501  502 -0.00000000000E+00 -0.00000000000E+00 -0.71183464035E+03  0.71183464035E+03  0.00000000000E+00 0. -1.
         25    1    1    2    0    0  0.63409988017E+02 -0.11312356704E+03 -0.46739076741E+03  0.50089609447E+03  0.12500000000E+03 0.  0.
         25    1    1    2    0    0 -0.63409988017E+02  0.11312356704E+03 -0.19206975516E+03  0.26331266366E+03  0.12500000000E+03 0.  0.
</event>
<event>
 4    0  0.2222207E-002  0.2230515E+03  0.7546771E-02  0.1131628E+00
         21   -1    0    0  502  501  0.00000000000E+00  0.00000000000E+00  0.16716003843E+04  0.16716003843E+04  0.00000000000E+00 0.  1.
         21   -1    0    0  501  502 -0.00000000000E+00 -0.00000000000E+00 -0.29763085187E+02  0.29763085187E+02  0.00000000000E+00 0.  1.
         25    1    1    2    0    0 -0.13520170470E+03  0.42886582050E+02  0.12723102297E+04  0.12862803273E+04  0.12500000000E+03 0.  0.
         25    1    1    2    0    0  0.13520170470E+03 -0.42886582050E+02  0.36952706940E+03  0.41508314215E+03  0.12500000000E+03 0.  0.
</event>
<event>
 4    0  0.2222207E-002  0.2528593E+03  0.7546771E-02  0.1111511E+00
         21   -1    0    0  502  501  0.00000000000E+00  0.00000000000E+00  0.29969424715E+03  0.29969424715E+03  0.00000000000E+00 0. -1.
         21   -1    0    0  501  502 -0.00000000000E+00 -0.00000000000E+00 -0.21334354376E+03  0.21334354376E+03  0.00000000000E+00 0. -1.
         25    1    1    2    0    0 -0.61103727381E+02  0.20164777441E+03 -0.20319156996E+02  0.24583197222E+03  0.12500000000E+03 0.  0.
         25    1    1    2    0    0  0.61103727381E+02 -0.20164777441E+03  0.10666986038E+03  0.26720581869E+03  0.12500000000E+03 0.  0.
</event>
<event>
 4    0  0.2222207E-002  0.5171059E+03  0.7546771E-02  0.1009408E+00
         21   -1    0    0  502  501  0.00000000000E+00  0.00000000000E+00  0.89923989322E+03  0.89923989322E+03  0.00000000000E+00 0.  1.
         21   -1    0    0  501  502 -0.00000000000E+00 -0.00000000000E+00 -0.29736059492E+03  0.29736059492E+03  0.00000000000E+00 0.  1.
         25    1    1    2    0    0  0.24571719186E+03 -0.11952831031E+03  0.78786309178E+03  0.84321836243E+03  0.12500000000E+03 0.  0.
         25    1    1    2    0    0 -0.24571719186E+03  0.11952831031E+03 -0.18598379347E+03  0.35338212572E+03  0.12500000000E+03 0.  0.
</event>
<event>
 4    0  0.2222207E-002  0.2617053E+03  0.7546771E-02  0.1106123E+00
         21   -1    0    0  502  501  0.00000000000E+00  0.00000000000E+00  0.21558349370E+03  0.21558349370E+03  0.00000000000E+00 0.  1.
         21   -1    0    0  501  502 -0.00000000000E+00 -0.00000000000E+00 -0.31769433314E+03  0.31769433314E+03  0.00000000000E+00 0.  1.
         25    1    1    2    0    0 -0.37472415736E+02  0.70023110560E+02  0.16878352974E+03  0.22454464559E+03  0.12500000000E+03 0.  0.
         25    1    1    2    0    0  0.37472415736E+02 -0.70023110560E+02 -0.27089436918E+03  0.30873318125E+03  0.12500000000E+03 0.  0.
</event>
<event>
 4    0  0.2222207E-002  0.2958271E+03  0.7546771E-02  0.1087345E+00
         21   -1    0    0  502  501  0.00000000000E+00  0.00000000000E+00  0.54437866196E+02  0.54437866196E+02  0.00000000000E+00 0. -1.
         21   -1    0    0  501  502 -0.00000000000E+00 -0.00000000000E+00 -0.16075878538E+04  0.16075878538E+04  0.00000000000E+00 0. -1.
         25    1    1    2    0    0  0.23194529633E+03  0.20320086087E+02 -0.11500621483E+04  0.11800336738E+04  0.12500000000E+03 0.  0.
         25    1    1    2    0    0 -0.23194529633E+03 -0.20320086087E+02 -0.40308783932E+03  0.48199204620E+03  0.12500000000E+03 0.  0.
</event>
<event>
 4    0  0.2222207E-002  0.3583587E+03  0.7546771E-02  0.1059236E+00
         21   -1    0    0  502  501  0.00000000000E+00  0.00000000000E+00  0.18189498028E+03  0.18189498028E+03  0.00000000000E+00 0. -1.
         21   -1    0    0  501  502 -0.00000000000E+00 -0.00000000000E+00 -0.70601706883E+03  0.70601706883E+03  0.00000000000E+00 0. -1.
         25    1    1    2    0    0 -0.30451181046E+02  0.50748695367E+02 -0.67162212393E+03  0.68571421296E+03  0.12500000000E+03 0.  0.
         25    1    1    2    0    0  0.30451181046E+02 -0.50748695367E+02  0.14750003537E+03  0.20219783615E+03  0.12500000000E+03 0.  0.
</event>
<event>
 4    0  0.2222207E-002  0.1752663E+03  0.7546771E-02  0.1172465E+00
         21   -1    0    0  502  501  0.00000000000E+00  0.00000000000E+00  0.15338632831E+04  0.15338632831E+04  0.00000000000E+00 0.  1.
         21   -1    0    0  501  502 -0.00000000000E+00 -0.00000000000E+00 -0.20026726562E+02  0.20026726562E+02  0.00000000000E+00 0.  1.
         25    1    1    2    0    0 -0.79490508365E+01 -0.14729922986E+02  0.12964475142E+04  0.13025672017E+04  0.12500000000E+03 0.  0.
         25    1    1    2    0    0  0.79490508365E+01  0.14729922986E+02  0.21738904234E+03  0.25132280790E+03  0.12500000000E+03 0.  0.
</event>
<event>
 4    0  0.2222207E-002  0.2089946E+03  0.7546771E-02  0.1142365E+00
         21   -1    0    0  502  501  0.00000000000E+00  0.00000000000E+00  0.14488845394E+03  0.14488845394E+03  0.00000000000E+00 0.  1.
         21   -1    0    0  501  502 -0.00000000000E+00 -0.00000000000E+00 -0.30146471278E+03  0.30146471278E+03  0.00000000000E+00 0.  1.
         25    1    1    2    0    0 -0.14170300945E+03 -0.71485572117E+01 -0.17333895490E+03  0.25651946914E+03  0.12500000000E+03 0.  0.
         25    1    1    2    0    0  0.14170300945E+03  0.71485572117E+01  0.16762696058E+02  0.18983369758E+03  0.12500000000E+03 0.  0.
</event>
<event>
 4    0  0.2222207E-002  0.2724203E+03  0.7546771E-02  0.1099902E+00
         21   -1    0    0  502  501  0.00000000000E+00  0.00000000000E+00  0.17644572696E+04  0.17644572696E+04  0.00000000000E+00 0. -1.
         21   -1    0    0  501  502 -0.00000000000E+00 -0.00000000000E+00 -0.42059862127E+02  0.42059862127E+02  0.00000000000E+00 0. -1.
         25    1    1    2    0    0 -0.13376142096E+01 -0.19726113313E+03  0.39612704731E+03  0.45984277907E+03  0.12500000000E+03 0.  0.
         25    1    1    2    0    0  0.13376142096E+01  0.19726113313E+03  0.13262703601E+04  0.13466743526E+04  0.12500000000E+03 0.  0.
</event>
<event>
 4    0  0.2222207E-002  0.1888454E+03  0.7546771E-02  0.1159507E+00
         21   -1    0    0  502  501  0.00000000000E+00  0.00000000000E+00  0.91868038184E+02  0.91868038184E+02  0.00000000000E+00 0. -1.
         21   -1    0    0  501  502 -0.00000000000E+00 -0.00000000000E+00 -0.38819350926E+03  0.38819350926E+03  0.00000000000E+00 0. -1.
         25    1    1    2    0    0 -0.57203671323E+02  0.12699426778E+03 -0.11606360144E+03  0.22021708299E+03  0.12500000000E+03 0.  0.
         25    1    1    2    0    0  0.57203671323E+02 -0.12699426778E+03 -0.18026186964E+03  0.25984446445E+03  0.12500000000E+03 0.  0.
</event>
<event>
 4    0  0.2222207E-002  0.1877177E+03  0.7546771E-02  0.1160536E+00
         21   -1    0    0  502  501  0.00000000000E+00  0.00000000000E+00  0.44873902525E+02  0.44873902525E+02  0.00000000000E+00 0.  1.
         21   -1    0    0  501  502 -0.00000000000E+00 -0.00000000000E+00 -0.78526530439E+03  0.78526530439E+03  0.00000000000E+00 0.  1.
         25    1    1    2    0    0 -0.10482867067E+03  0.90247222736E+02 -0.41860433580E+03  0.45824469594E+03  0.12500000000E+03 0.  0.
         25    1    1    2    0    0  0.10482867067E+03 -0.90247222736E+02 -0.32178706606E+03  0.37189451097E+03  0.12500000000E+03 0.  0.
</event>
<event>
 4    0  0.2222207E-002  0.1795430E+03  0.7546771E-02  0.1168246E+00
         21   -1    0    0  502  501  0.00000000000E+00  0.00000000000E+00  0.16851933078E+04  0.16851933078E+04  0.00000000000E+00 0. -1.
         21   -1    0    0  501  502 -0.00000000000E+00 -0.00000000000E+00 -0.19128787546E+02  0.19128787546E+02  0.00000000000E+00 0. -1.
         25    1    1    2    0    0  0.76027858561E+02 -0.56366124201E+02  0.41781222544E+03  0.44626161717E+03  0.12500000000E+03 0.  0.
         25    1    1    2    0    0 -0.76027858561E+02  0.56366124201E+02  0.12482522949E+04  0.12580604782E+04  0.12500000000E+03 0.  0.
</event>
<event>
 4    0  0.2222207E-002  0.1574413E+03  0.7546771E-02  0.1191616E+00
         21   -1    0    0  502  501  0.00000000000E+00  0.00000000000E+00  0.53186251704E+03  0.53186251704E+03  0.00000000000E+00 0. -1.
         21   -1    0    0  501  502 -0.00000000000E+00 -0.00000000000E+00 -0.46605561472E+02  0.46605561472E+02  0.00000000000E+00 0. -1.
         25    1    1    2    0    0 -0.59841375811E+02  0.16775273280E+02  0.10888175144E+03  0.17703851516E+03  0.12500000000E+03 0.  0.
         25    1    1    2    0    0  0.59841375811E+02 -0.16775273280E+02  0.37637520413E+03  0.40142956336E+03  0.12500000000E+03 0.  0.
</event>
<event>
 4    0  0.2222207E-002  0.2875984E+03  0.7546771E-02  0.1091610E+00
         21   -1    0    0  502  501  0.00000000000E+00  0.00000000000E+00  0.24160779372E+03  0.24160779372E+03  0.00000000000E+00 0. -1.
         21   -1    0    0  501  502 -0.00000000000E+00 -0.00000000000E+00 -0.34234336076E+03  0.34234336076E+03  0.00000000000E+00 0. -1.
         25    1    1    2    0    0  0.20863203171E+03  0.15144486861E+03 -0.75747289068E+02  0.29635371549E+03  0.12500000000E+03 0.  0.
         25    1    1    2    0    0 -0.20863203171E+03 -0.15144486861E+03 -0.24988277972E+02  0.28759743900E+03  0.12500000000E+03 0.  0.
</event>
<event>
 4    0  0.2222207E-002  0.1651605E+03  0.7546771E-02  0.1182991E+00
         21   -1    0    0  502  501  0.00000000000E+00  0.00000000000E+00  0.24846846654E+02  0.24846846654E+02  0.00000000000E+00 0. -1.
         21   -1    0    0  501  502 -0.00000000000E+00 -0.00000000000E+00 -0.10978454749E+04  0.10978454749E+04  0.00000000000E+00 0. -1.
         25    1    1    2    0    0  0.40884928931E+02  0.50658586172E+02 -0.24382551399E+03  0.28162697144E+03  0.12500000000E+03 0.  0.
         25    1    1    2    0    0 -0.40884928931E+02 -0.50658586172E+02 -0.82917311421E+03  0.84106535008E+03  0.12500000000E+03 0.  0.
</event>
<event>
 4    0  0.2222207E-002  0.2413331E+03  0.7546771E-02  0.1118908E+00
         21   -1    0    0  502  501  0.00000000000E+00  0.00000000000E+00  0.13312639193E+03  0.13312639193E+03  0.00000000000E+00 0.  1.
         21   -1    0    0  501  502 -0.00000000000E+00 -0.00000000000E+00 -0.43749165515E+03  0.43749165515E+03  0.00000000000E+00 0.  1.
         25    1    1    2    0    0  0.12244958155E+03  0.59883547314E+02 -0.33547162222E+03  0.38307459923E+03  0.12500000000E+03 0.  0.
         25    1    1    2    0    0 -0.12244958155E+03 -0.59883547314E+02  0.31106359000E+02  0.18754344785E+03  0.12500000000E+03 0.  0.
</event>
<event>
 4    0  0.2222207E-002  0.2687760E+03  0.7546771E-02  0.1101982E+00
         21   -1    0    0  502  501  0.00000000000E+00  0.00000000000E+00  0.67610707432E+02  0.67610707432E+02  0.00000000000E+00 0.  1.
         21   -1    0    0  501  502 -0.00000000000E+00 -0.00000000000E+00 -0.10684777839E+04  0.10684777839E+04  0.00000000000E+00 0.  1.
         25    1    1    2    0    0  0.14326402881E+02 -0.23502395483E+01 -0.10023709772E+04  0.10102392516E+04  0.12500000000E+03 0.  0.
         25    1    1    2    0    0 -0.14326402881E+02  0.23502395483E+01  0.15039006935E+01  0.12584923982E+03  0.12500000000E+03 0.  0.
</event>
<event>
 4    0  0.2222207E-002  0.2107849E+03  0.7546771E-02  0.1140946E+00
         21   -1    0    0  502  501  0.00000000000E+00  0.00000000000E+00  0.18671507080E+03  0.18671507080E+03  0.00000000000E+00 0.  1.
         21   -1    0    0  501  502 -0.00000000000E+00 -0.00000000000E+00 -0.23795767058E+03  0.23795767058E+03  0.00000000000E+00 0.  1.
         25    1    1    2    0    0  0.16646197089E+03  0.17296967114E+02 -0.54051544595E+02  0.21576687025E+03  0.12500000000E+03 0.  0.
         25    1    1    2    0    0 -0.16646197089E+03 -0.17296967114E+02  0.28089448102E+01  0.20890587113E+03  0.12500000000E+03 0.  0.
</event>
<event>
 4    0  0.2222207E-002  0.1653222E+03  0.7546771E-02  0.1182816E+00
         21   -1    0    0  502  501  0.00000000000E+00  0.00000000000E+00  0.11052289493E+03  0.11052289493E+03  0.00000000000E+00 0. -1.
         21   -1    0    0  501  502 -0.00000000000E+00 -0.00000000000E+00 -0.24729193802E+03  0.24729193802E+03  0.00000000000E+00 0. -1.
         25    1    1    2    0    0  0.98075935482E+02  0.42473217645E+02 -0.50161606787E+02  0.17194199642E+03  0.12500000000E+03 0.  0.
         25    1    1    2    0    0 -0.98075935482E+02 -0.42473217645E+02 -0.86607436308E+02  0.18587283653E+03  0.12500000000E+03 0.  0.
</event>
<event>
 4    0  0.2222207E-002  0.2306861E+03  0.7546771E-02  0.1126158E+00
         21   -1    0    0  502  501  0.00000000000E+00  0.00000000000E+00  0.81454317852E+03  0.81454317852E+03  0.00000000000E+00 0.  1.
         21   -1    0    0  501  502 -0.00000000000E+00 -0.00000000000E+00 -0.65332406457E+02  0.65332406457E+02  0.00000000000E+00 0.  1.
         25    1    1    2    0    0 -0.59852054205E+02  0.18439402035E+02  0.72453735244E+03  0.73790355401E+03  0.12500000000E+03 0.  0.
         25    1    1    2    0    0  0.59852054205E+02 -0.18439402035E+02  0.24673419619E+02  0.14197203096E+03  0.12500000000E+03 0.  0.
</event>
<event>
 4    0  0.2222207E-002  0.2224324E+03  0.7546771E-02  0.1132082E+00
         21   -1    0    0  502  501  0.00000000000E+00  0.00000000000E+00  0.10865057139E+04  0.10865057139E+04  0.00000000000E+00 0.  1.
         21   -1    0    0  501  502 -0.00000000000E+00 -0.00000000000E+00 -0.45536983375E+02  0.45536983375E+02  0.00000000000E+00 0.  1.
         25    1    1    2    0    0  0.16021782689E+03 -0.31245195468E+02  0.73648600262E+03  0.76464543833E+03  0.12500000000E+03 0.  0.
         25    1    1    2    0    0 -0.16021782689E+03  0.31245195468E+02  0.30448272793E+03  0.36739725897E+03  0.12500000000E+03 0.  0.
</event>
<event>
 4    0  0.2222207E-002  0.3875278E+03  0.7546771E-02  0.1048186E+00
         21   -1    0    0  502  501  0.00000000000E+00  0.00000000000E+00  0.18466175522E+03  0.18466175522E+03  0.00000000000E+00 0. -1.
         21   -1    0    0  501  502 -0.00000000000E+00 -0.00000000000E+00 -0.81325861003E+03  0.81325861003E+03  0.00000000000E+00 0.  1.
         25    1    1    2    0    0 -0.36635055640E+03  0.12696543428E+02 -0.33151644898E+03  0.50980593203E+03  0.12500000000E+03 0.  0.
         25    1    1    2    0    0  0.36635055640E+03 -0.12696543428E+02 -0.29708040584E+03  0.48811443322E+03  0.12500000000E+03 0.  0.
</event>
<event>
 4    0  0.2222207E-002  0.3153263E+03  0.7546771E-02  0.1077821E+00
         21   -1    0    0  502  501  0.00000000000E+00  0.00000000000E+00  0.39547491083E+03  0.39547491083E+03  0.00000000000E+00 0.  1.
         21   -1    0    0  501  502 -0.00000000000E+00 -0.00000000000E+00 -0.25142088290E+03  0.25142088290E+03  0.00000000000E+00 0.  1.
         25    1    1    2    0    0 -0.70187331575E+02  0.24044519144E+03  0.22090485832E+03  0.35660076840E+03  0.12500000000E+03 0.  0.
         25    1    1    2    0    0  0.70187331575E+02 -0.24044519144E+03 -0.76850830382E+02  0.29029502533E+03  0.12500000000E+03 0.  0.
</event>
<event>
 4    0  0.2222207E-002  0.2789327E+03  0.7546771E-02  0.1096273E+00
         21   -1    0    0  502  501  0.00000000000E+00  0.00000000000E+00  0.51188938079E+03  0.51188938079E+03  0.00000000000E+00 0.  1.
         21   -1    0    0  501  502 -0.00000000000E+00 -0.00000000000E+00 -0.15199271032E+03  0.15199271032E+03  0.00000000000E+00 0.  1.
         25    1    1    2    0    0  0.13413553822E+03  0.20958670505E+03  0.16077706151E+03  0.32154811935E+03  0.12500000000E+03 0.  0.
         25    1    1    2    0    0 -0.13413553822E+03 -0.20958670505E+03  0.19911960896E+03  0.34233397176E+03  0.12500000000E+03 0.  0.
</event>
<event>
 4    0  0.2222207E-002  0.2088809E+03  0.7546771E-02  0.1142455E+00
         21   -1    0    0  502  501  0.00000000000E+00  0.00000000000E+00  0.20295424333E+03  0.20295424333E+03  0.00000000000E+00 0.  1.
         21   -1    0    0  501  502 -0.00000000000E+00 -0.00000000000E+00 -0.21498053390E+03  0.21498053390E+03  0.00000000000E+00 0.  1.
         25    1    1    2    0    0  0.25932892531E+01  0.12653350550E+03 -0.11555169425E+03  0.21211941733E+03  0.12500000000E+03 0.  0.
         25    1    1    2    0    0 -0.25932892531E+01 -0.12653350550E+03  0.10352540368E+03  0.20581535990E+03  0.12500000000E+03 0.  0.
</event>
<event>
 4    0  0.2222207E-002  0.1541496E+03  0.7546771E-02  0.1195465E+00
         21   -1    0    0  502  501  0.00000000000E+00  0.00000000000E+00  0.35334160287E+02  0.35334160287E+02  0.00000000000E+00 0.  1.
         21   -1    0    0  501  502 -0.00000000000E+00 -0.00000000000E+00 -0.67249616552E+03  0.67249616552E+03  0.00000000000E+00 0.  1.
         25    1    1    2    0    0  0.20307480841E+02 -0.51716920835E+02 -0.48173768694E+03  0.50078262020E+03  0.12500000000E+03 0.  0.
         25    1    1    2    0    0 -0.20307480841E+02  0.51716920835E+02 -0.15542431829E+03  0.20704770560E+03  0.12500000000E+03 0.  0.
</event>
<event>
 4    0  0.2222207E-002  0.2335778E+03  0.7546771E-02  0.1124147E+00
         21   -1    0    0  502  501  0.00000000000E+00  0.00000000000E+00  0.21632037842E+03  0.21632037842E+03  0.00000000000E+00 0. -1.
         21   -1    0    0  501  502 -0.00000000000E+00 -0.00000000000E+00 -0.25221203626E+03  0.25221203626E+03  0.00000000000E+00 0. -1.
         25    1    1    2    0    0  0.16399303831E+02  0.11786074547E+03 -0.17580572138E+03  0.24635897418E+03  0.12500000000E+03 0.  0.
         25    1    1    2    0    0 -0.16399303831E+02 -0.11786074547E+03  0.13991406354E+03  0.22217344050E+03  0.12500000000E+03 0.  0.
</event>
<event>
 4    0  0.2222207E-002  0.2158146E+03  0.7546771E-02  0.1137042E+00
         21   -1    0    0  502  501  0.00000000000E+00  0.00000000000E+00  0.94539789763E+02  0.94539789763E+02  0.00000000000E+00 0.  1.
         21   -1    0    0  501  502 -0.00000000000E+00 -0.00000000000E+00 -0.49265969746E+03  0.49265969746E+03  0.00000000000E+00 0.  1.
         25    1    1    2    0    0 -0.11065793743E+03 -0.13403797582E+03 -0.23605718481E+03  0.31868378149E+03  0.12500000000E+03 0.  0.
         25    1    1    2    0    0  0.11065793743E+03  0.13403797582E+03 -0.16206272288E+03  0.26851570574E+03  0.12500000000E+03 0.  0.
</event>
<event>
 4    0  0.2222207E-002  0.1710969E+03  0.7546771E-02  0.1176709E+00
         21   -1    0    0  502  501  0.00000000000E+00  0.00000000000E+00  0.16652803619E+02  0.16652803619E+02  0.00000000000E+00 0. -1.
         21   -1    0    0  501  502 -0.00000000000E+00 -0.00000000000E+00 -0.17579101889E+04  0.17579101889E+04  0.00000000000E+00 0. -1.
         25    1    1    2    0    0 -0.31408466413E+02 -0.10865342589E+03 -0.10224485829E+04  0.10362519787E+04  0.12500000000E+03 0.  0.
         25    1    1    2    0    0  0.31408466413E+02  0.10865342589E+03 -0.71880880240E+03  0.73831101382E+03  0.12500000000E+03 0.  0.
</event>
<event>
 4    0  0.2222207E-002  0.1286564E+03  0.7546771E-02  0.1229463E+00
         21   -1    0    0  502  501  0.00000000000E+00  0.00000000000E+00  0.26579461923E+02  0.26579461923E+02  0.00000000000E+00 0.  1.
         21   -1    0    0  501  502 -0.00000000000E+00 -0.00000000000E+00 -0.62275427361E+03  0.62275427361E+03  0.00000000000E+00 0.  1.
         25    1    1    2    0    0 -0.20020335052E+02 -0.22802740486E+02 -0.30461679463E+03  0.33066171590E+03  0.12500000000E+03 0.  0.
         25    1    1    2    0    0  0.20020335052E+02  0.22802740486E+02 -0.29155801706E+03  0.31867201964E+03  0.12500000000E+03 0.  0.
</event>
<event>
 4    0  0.2222207E-002  0.2992407E+03  0.7546771E-02  0.1085621E+00
         21   -1    0    0  502  501  0.00000000000E+00  0.00000000000E+00  0.45089723600E+03  0.45089723600E+03  0.00000000000E+00 0. -1.
         21   -1    0    0  501  502 -0.00000000000E+00 -0.00000000000E+00 -0.19859291428E+03  0.19859291428E+03  0.00000000000E+00 0. -1.
         25    1    1    2    0    0 -0.72475865548E+01 -0.16180693928E+02 -0.16827474827E+03  0.21037046673E+03  0.12500000000E+03 0.  0.
         25    1    1    2    0    0  0.72475865548E+01  0.16180693928E+02  0.42057907000E+03  0.43911968355E+03  0.12500000000E+03 0.  0.
</event>
<event>
 4    0  0.2222207E-002  0.2424771E+03  0.7546771E-02  0.1118154E+00
         21   -1    0    0  502  501  0.00000000000E+00  0.00000000000E+00  0.26759230370E+04  0.26759230370E+04  0.00000000000E+00 0. -1.
         21   -1    0    0  501  502 -0.00000000000E+00 -0.00000000000E+00 -0.21971913962E+02  0.21971913962E+02  0.00000000000E+00 0. -1.
         25    1    1    2    0    0  0.13284699567E+02 -0.60080684836E+02  0.22293741287E+03  0.26289211093E+03  0.12500000000E+03 0.  0.
         25    1    1    2    0    0 -0.13284699567E+02  0.60080684836E+02  0.24310137102E+04  0.24350028401E+04  0.12500000000E+03 0.  0.
</event>
<event>
 4    0  0.2222207E-002  0.2068442E+03  0.7546771E-02  0.1144090E+00
         21   -1    0    0  502  501  0.00000000000E+00  0.00000000000E+00  0.21392788466E+04  0.21392788466E+04  0.00000000000E+00 0.  1.
         21   -1    0    0  501  502 -0.00000000000E+00 -0.00000000000E+00 -0.19999511353E+02  0.19999511353E+02  0.00000000000E+00 0.  1.
         25    1    1    2    0    0 -0.12666370614E+03  0.42684890063E+02  0.55644876835E+03  0.58576951618E+03  0.12500000000E+03 0.  0.
         25    1    1    2    0    0  0.12666370614E+03 -0.42684890063E+02  0.15628305669E+04  0.15735088417E+04  0.12500000000E+03 0.  0.
</event>
<event>
 4    0  0.2222207E-002  0.1811659E+03  0.7546771E-02  0.1166679E+00
         21   -1    0    0  502  501  0.00000000000E+00  0.00000000000E+00  0.42640186085E+02  0.42640186085E+02  0.00000000000E+00 0.  1.
         21   -1    0    0  501  502 -0.00000000000E+00 -0.00000000000E+00 -0.76972148086E+03  0.76972148086E+03  0.00000000000E+00 0.  1.
         25    1    1    2    0    0  0.88512211942E+02  0.63867952353E+02 -0.52649444340E+03  0.55202801191E+03  0.12500000000E+03 0.  0.
         25    1    1    2    0    0 -0.88512211942E+02 -0.63867952353E+02 -0.20058685138E+03  0.26033365504E+03  0.12500000000E+03 0.  0.
</event>
<event>
 4    0  0.2222207E-002  0.2159245E+03  0.7546771E-02  0.1136958E+00
         21   -1    0    0  502  501  0.00000000000E+00  0.00000000000E+00  0.20890308157E+03  0.20890308157E+03  0.00000000000E+00 0.  1.
         21   -1    0    0  501  502 -0.00000000000E+00 -0.00000000000E+00 -0.22318187966E+03  0.22318187966E+03  0.00000000000E+00 0.  1.
         25    1    1    2    0    0  0.57126443709E+02  0.34837042892E+02  0.15580331093E+03  0.21065783115E+03  0.12500000000E+03 0.  0.
         25    1    1    2    0    0 -0.57126443709E+02 -0.34837042892E+02 -0.17008210902E+03  0.22142713008E+03  0.12500000000E+03 0.  0.
</event>
<event>
 4    0  0.2222207E-002  0.1899518E+03  0.7546771E-02  0.1158505E+00
         21   -1    0    0  502  501  0.00000000000E+00  0.00000000000E+00  0.11884065169E+03  0.11884065169E+03  0.00000000000E+00 0.  1.
         21   -1    0    0  501  502 -0.00000000000E+00 -0.00000000000E+00 -0.30361401041E+03  0.30361401041E+03  0.00000000000E+00 0.  1.
         25    1    1    2    0    0 -0.87967340594E+02 -0.94046615220E+02 -0.16159652708E+03  0.24149835695E+03  0.12500000000E+03 0.  0.
         25    1    1    2    0    0  0.87967340594E+02  0.94046615220E+02 -0.23176831638E+02  0.18095630514E+03  0.12500000000E+03 0.  0.
</event>
<event>
 4    0  0.2222207E-002  0.2333289E+03  0.7546771E-02  0.1124318E+00
         21   -1    0    0  502  501  0.00000000000E+00  0.00000000000E+00  0.28213660919E+03  0.28213660919E+03  0.00000000000E+00 0. -1.
         21   -1    0    0  501  502 -0.00000000000E+00 -0.00000000000E+00 -0.19296454508E+03  0.19296454508E+03  0.00000000000E+00 0. -1.
         25    1    1    2    0    0  0.46720590258E+02 -0.18990753686E+03  0.68885775952E+02  0.24211141286E+03  0.12500000000E+03 0.  0.
         25    1    1    2    0    0 -0.46720590258E+02  0.18990753686E+03  0.20286288163E+02  0.23298974140E+03  0.12500000000E+03 0.  0.
</event>
<event>
 4    0  0.2222207E-002  0.1856109E+03  0.7546771E-02  0.1162481E+00
         21   -1    0    0  502  501  0.00000000000E+00  0.00000000000E+00  0.11745245820E+04  0.11745245820E+04  0.00000000000E+00 0. -1.
         21   -1    0    0  501  502 -0.00000000000E+00 -0.00000000000E+00 -0.29332208062E+02  0.29332208062E+02  0.00000000000E+00 0. -1.
         25    1    1    2    0    0 -0.71313273966E+02  0.59395265353E+02  0.90032789649E+03  0.91368960910E+03  0.12500000000E+03 0.  0.
         25    1    1    2    0    0  0.71313273966E+02 -0.59395265353E+02  0.24486447747E+03  0.29016718098E+03  0.12500000000E+03 0.  0.
</event>
<event>
 4    0  0.2222207E-002  0.1488172E+03  0.7546771E-02  0.1201934E+00
         21   -1    0    0  502  501  0.00000000000E+00  0.00000000000E+00  0.34337859795E+02  0.34337859795E+02  0.00000000000E+00 0. -1.
         21   -1    0    0  501  502 -0.00000000000E+00 -0.00000000000E+00 -0.64496002538E+03  0.64496002538E+03  0.00000000000E+00 0. -1.
         25    1    1    2    0    0 -0.40243896189E+02  0.68967677225E+02 -0.27778704876E+03  0.31490753586E+03  0.12500000000E+03 0.  0.
         25    1    1    2    0    0  0.40243896189E+02 -0.68967677225E+02 -0.33283511682E+03  0.36439034931E+03  0.12500000000E+03 0.  0.
</event>
<event>
 4    0  0.2222207E-002  0.2165204E+03  0.7546771E-02  0.1136504E+00
         21   -1    0    0  502  501  0.00000000000E+00  0.00000000000E+00  0.87231946969E+03  0.87231946969E+03  0.00000000000E+00 0. -1.
         21   -1    0    0  501  502 -0.00000000000E+00 -0.00000000000E+00 -0.53743015073E+02  0.53743015073E+02  0.00000000000E+00 0. -1.
         25    1    1    2    0    0 -0.73625738168E+02  0.23116599585E+02  0.74944563207E+03  0.76370732740E+03  0.12500000000E+03 0.  0.
         25    1    1    2    0    0  0.73625738168E+02 -0.23116599585E+02  0.69130822553E+02  0.16235515737E+03  0.12500000000E+03 0.  0.
</event>
<event>
 4    0  0.2222207E-002  0.1997574E+03  0.7546771E-02  0.1149944E+00
         21   -1    0    0  502  501  0.00000000000E+00  0.00000000000E+00  0.13204024216E+03  0.13204024216E+03  0.00000000000E+00 0. -1.
         21   -1    0    0  501  502 -0.00000000000E+00 -0.00000000000E+00 -0.30220337440E+03  0.30220337440E+03  0.00000000000E+00 0. -1.
         25    1    1    2    0    0 -0.51806185003E+02  0.10002308627E+03 -0.20209430345E+03  0.26297453504E+03  0.12500000000E+03 0.  0.
         25    1    1    2    0    0  0.51806185003E+02 -0.10002308627E+03  0.31931171202E+02  0.17126908153E+03  0.12500000000E+03 0.  0.
</event>
<event>
 4    0  0.2222207E-002  0.3232271E+03  0.7546771E-02  0.1074174E+00
         21   -1    0    0  502  501  0.00000000000E+00  0.00000000000E+00  0.15869097638E+04  0.15869097638E+04  0.00000000000E+00 0.  1.
         21   -1    0    0  501  502 -0.00000000000E+00 -0.00000000000E+00 -0.65835989682E+02  0.65835989682E+02  0.00000000000E+00 0.  1.
         25    1    1    2    0    0  0.25894462991E+03  0.13344194369E+03  0.59900909269E+03  0.67771377943E+03  0.12500000000E+03 0.  0.
         25    1    1    2    0    0 -0.25894462991E+03 -0.13344194369E+03  0.92206468143E+03  0.97503197406E+03  0.12500000000E+03 0.  0.
</event>
<event>
 4    0  0.2222207E-002  0.2426260E+03  0.7546771E-02  0.1118056E+00
         21   -1    0    0  502  501  0.00000000000E+00  0.00000000000E+00  0.84947666198E+03  0.84947666198E+03  0.00000000000E+00 0. -1.
         21   -1    0    0  501  502 -0.00000000000E+00 -0.00000000000E+00 -0.69298407851E+02  0.69298407851E+02  0.00000000000E+00 0. -1.
         25    1    1    2    0    0 -0.11458484768E+03 -0.31123131267E+02  0.66855335733E+02  0.18491341902E+03  0.12500000000E+03 0.  0.
         25    1    1    2    0    0  0.11458484768E+03  0.31123131267E+02  0.71332291839E+03  0.73386165081E+03  0.12500000000E+03 0.  0.
</event>
<event>
 4    0  0.2222207E-002  0.1917785E+03  0.7546771E-02  0.1156867E+00
         21   -1    0    0  502  501  0.00000000000E+00  0.00000000000E+00  0.57060888844E+03  0.57060888844E+03  0.00000000000E+00 0. -1.
         21   -1    0    0  501  502 -0.00000000000E+00 -0.00000000000E+00 -0.64455687312E+02  0.64455687312E+02  0.00000000000E+00 0. -1.
         25    1    1    2    0    0  0.67452761204E+02 -0.12819946791E+03  0.27460162215E+03  0.33468795833E+03  0.12500000000E+03 0.  0.
         25    1    1    2    0    0 -0.67452761204E+02  0.12819946791E+03  0.23155157899E+03  0.30037661743E+03  0.12500000000E+03 0.  0.
</event>
<event>
 4    0  0.2222207E-002  0.1980829E+03  0.7546771E-02  0.1151367E+00
         21   -1    0    0  502  501  0.00000000000E+00  0.00000000000E+00  0.12594541572E+03  0.12594541572E+03  0.00000000000E+00 0.  1.
         21   -1    0    0  501  502 -0.00000000000E+00 -0.00000000000E+00 -0.31153831541E+03  0.31153831541E+03  0.00000000000E+00 0.  1.
         25    1    1    2    0    0  0.12512051330E+03 -0.70535383453E+00  0.57038058944E+01  0.17695528750E+03  0.12500000000E+03 0.  0.
         25    1    1    2    0    0 -0.12512051330E+03  0.70535383453E+00 -0.19129670559E+03  0.26052844363E+03  0.12500000000E+03 0.  0.
</event>
<event>
 4    0  0.2222207E-002  0.4100147E+03  0.7546771E-02  0.1040366E+00
         21   -1    0    0  502  501  0.00000000000E+00  0.00000000000E+00  0.79493359745E+03  0.79493359745E+03  0.00000000000E+00 0. -1.
         21   -1    0    0  501  502 -0.00000000000E+00 -0.00000000000E+00 -0.21147938518E+03  0.21147938518E+03  0.00000000000E+00 0. -1.
         25    1    1    2    0    0 -0.25589899657E+03 -0.10447592759E+03  0.63026212229E+03  0.69946755371E+03  0.12500000000E+03 0.  0.
         25    1    1    2    0    0  0.25589899657E+03  0.10447592759E+03 -0.46807910017E+02  0.30694542892E+03  0.12500000000E+03 0.  0.
</event>
<event>
 4    0  0.2222207E-002  0.2067351E+03  0.7546771E-02  0.1144178E+00
         21   -1    0    0  502  501  0.00000000000E+00  0.00000000000E+00  0.21072771171E+03  0.21072771171E+03  0.00000000000E+00 0. -1.
         21   -1    0    0  501  502 -0.00000000000E+00 -0.00000000000E+00 -0.20281811256E+03  0.20281811256E+03  0.00000000000E+00 0. -1.
         25    1    1    2    0    0 -0.11491482028E+03  0.10086268980E+03  0.65086343925E+02  0.20794213204E+03  0.12500000000E+03 0.  0.
         25    1    1    2    0    0  0.11491482028E+03 -0.10086268980E+03 -0.57176744777E+02  0.20560369222E+03  0.12500000000E+03 0.  0.
</event>
<event>
 4    0  0.2222207E-002  0.2245917E+03  0.7546771E-02  0.1130505E+00
         21   -1    0    0  502  501  0.00000000000E+00  0.00000000000E+00  0.55512848176E+03  0.55512848176E+03  0.00000000000E+00 0.  1.
         21   -1    0    0  501  502 -0.00000000000E+00 -0.00000000000E+00 -0.90864464309E+02  0.90864464309E+02  0.00000000000E+00 0.  1.
         25    1    1    2    0    0 -0.45143809018E+02 -0.86151055841E+02  0.46113887712E+03  0.48757976979E+03  0.12500000000E+03 0.  0.
         25    1    1    2    0    0  0.45143809018E+02  0.86151055841E+02  0.31251403234E+01  0.15841317627E+03  0.12500000000E+03 0.  0.
</event>
<event>
 4    0  0.2222207E-002  0.2877220E+03  0.7546771E-02  0.1091545E+00
         21   -1    0    0  502  501  0.00000000000E+00  0.00000000000E+00  0.19710124292E+03  0.19710124292E+03  0.00000000000E+00 0. -1.
         21   -1    0    0  501  502 -0.00000000000E+00 -0.00000000000E+00 -0.42000731602E+03  0.42000731602E+03  0.00000000000E+00 0. -1.
         25    1    1    2    0    0  0.30900569051E+02  0.12871168151E+03  0.12747277698E+03  0.22225177388E+03  0.12500000000E+03 0.  0.
         25    1    1    2    0    0 -0.30900569051E+02 -0.12871168151E+03 -0.35037885008E+03  0.39485678506E+03  0.12500000000E+03 0.  0.
</event>
<event>
 4    0  0.2222207E-002  0.1548060E+03  0.7546771E-02  0.1194689E+00
         21   -1    0    0  502  501  0.00000000000E+00  0.00000000000E+00  0.15699162770E+03  0.15699162770E+03  0.00000000000E+00 0.  1.
         21   -1    0    0  501  502 -0.00000000000E+00 -0.00000000000E+00 -0.15265084865E+03  0.15265084865E+03  0.00000000000E+00 0.  1.
         25    1    1    2    0    0  0.28416034448E+02 -0.71235097084E+02 -0.47412654722E+02  0.15412614930E+03  0.12500000000E+03 0.  0.
         25    1    1    2    0    0 -0.28416034448E+02  0.71235097084E+02  0.51753433768E+02  0.15551632704E+03  0.12500000000E+03 0.  0.
</event>
<event>
 4    0  0.2222207E-002  0.1558243E+03  0.7546771E-02  0.1193493E+00
         21   -1    0    0  502  501  0.00000000000E+00  0.00000000000E+00  0.39082158942E+02  0.39082158942E+02  0.00000000000E+00 0. -1.
         21   -1    0    0  501  502 -0.00000000000E+00 -0.00000000000E+00 -0.62128667839E+03  0.62128667839E+03  0.00000000000E+00 0. -1.
         25    1    1    2    0    0 -0.66762609375E+02 -0.57628582690E+01 -0.15433919336E+03  0.20960926304E+03  0.12500000000E+03 0.  0.
         25    1    1    2    0    0  0.66762609375E+02  0.57628582690E+01 -0.42786532609E+03  0.45075957429E+03  0.12500000000E+03 0.  0.
</event>
<event>
 4    0  0.2222207E-002  0.2399803E+03  0.7546771E-02  0.1119806E+00
         21   -1    0    0  502  501  0.00000000000E+00  0.00000000000E+00  0.86656045370E+02  0.86656045370E+02  0.00000000000E+00 0. -1.
         21   -1    0    0  501  502 -0.00000000000E+00 -0.00000000000E+00 -0.66458748527E+03  0.66458748527E+03  0.00000000000E+00 0. -1.
         25    1    1    2    0    0 -0.17901498501E+03 -0.26674050182E+02 -0.43915872963E+03  0.49116520604E+03  0.12500000000E+03 0.  0.
         25    1    1    2    0    0  0.17901498501E+03  0.26674050182E+02 -0.13877271027E+03  0.26007832460E+03  0.12500000000E+03 0.  0.
</event>
<event>
 4    0  0.2222207E-002  0.1858096E+03  0.7546771E-02  0.1162296E+00
         21   -1    0    0  502  501  0.00000000000E+00  0.00000000000E+00  0.22187904508E+03  0.22187904508E+03  0.00000000000E+00 0. -1.
         21   -1    0    0  501  502 -0.00000000000E+00 -0.00000000000E+00 -0.15560381086E+03  0.15560381086E+03  0.00000000000E+00 0. -1.
         25    1    1    2    0    0  0.10354491959E+03 -0.56508808564E+01 -0.58545836226E+02  0.17264442582E+03  0.12500000000E+03 0.  0.
         25    1    1    2    0    0 -0.10354491959E+03  0.56508808564E+01  0.12482107044E+03  0.20483843012E+03  0.12500000000E+03 0.  0.
</event>
<event>
 4    0  0.2222207E-002  0.2552604E+03  0.7546771E-02  0.1110025E+00
         21   -1    0    0  502  501  0.00000000000E+00  0.00000000000E+00  0.10960142330E+03  0.10960142330E+03  0.00000000000E+00 0.  1.
         21   -1    0    0  501  502 -0.00000000000E+00 -0.00000000000E+00 -0.59449818516E+03  0.59449818516E+03  0.00000000000E+00 0.  1.
         25    1    1    2    0    0 -0.20314943602E+03 -0.68746794354E+02 -0.16042451255E+03  0.29556190437E+03  0.12500000000E+03 0.  0.
         25    1    1    2    0    0  0.20314943602E+03  0.68746794354E+02 -0.32447224931E+03  0.40853770409E+03  0.12500000000E+03 0.  0.
</event>
<event>
 4    0  0.2222207E-002  0.1681955E+03  0.7546771E-02  0.1179743E+00
         21   -1    0    0  502  501  0.00000000000E+00  0.00000000000E+00  0.12675732543E+03  0.12675732543E+03  0.00000000000E+00 0. -1.
         21   -1    0    0  501  502 -0.00000000000E+00 -0.00000000000E+00 -0.22318018220E+03  0.22318018220E+03  0.00000000000E+00 0. -1.
         25    1    1    2    0    0 -0.30015436732E+02  0.89316133719E+01 -0.16065699820E+03  0.20595235185E+03  0.12500000000E+03 0.  0.
         25    1    1    2    0    0  0.30015436732E+02 -0.89316133719E+01  0.64234141428E+02  0.14398515578E+03  0.12500000000E+03 0.  0.
</event>
<event>
 4    0  0.2222207E-002  0.2112154E+03  0.7546771E-02  0.1140607E+00
         21   -1    0    0  502  501  0.00000000000E+00  0.00000000000E+00  0.35685784624E+02  0.35685784624E+02  0.00000000000E+00 0. -1.
         21   -1    0    0  501  502 -0.00000000000E+00 -0.00000000000E+00 -0.12501323336E+04  0.12501323336E+04  0.00000000000E+00 0. -1.
         25    1    1    2    0    0  0.14510168552E+03 -0.36687905096E+02 -0.85425326498E+03  0.87622722067E+03  0.12500000000E+03 0.  0.
         25    1    1    2    0    0 -0.14510168552E+03  0.36687905096E+02 -0.36019328401E+03  0.40959089757E+03  0.12500000000E+03 0.  0.
</event>
<event>
 4    0  0.2222207E-002  0.2086760E+03  0.7546771E-02  0.1142619E+00
         21   -1    0    0  502  501  0.00000000000E+00  0.00000000000E+00  0.51179041361E+02  0.51179041361E+02  0.00000000000E+00 0. -1.
         21   -1    0    0  501  502 -0.00000000000E+00 -0.00000000000E+00 -0.85084962238E+03  0.85084962238E+03  0.00000000000E+00 0. -1.
         25    1    1    2    0    0  0.86672516832E+02 -0.63491651574E+01 -0.91378369412E+02  0.17755968988E+03  0.12500000000E+03 0.  0.
         25    1    1    2    0    0 -0.86672516832E+02  0.63491651574E+01 -0.70829221160E+03  0.72446897386E+03  0.12500000000E+03 0.  0.
</event>
<event>
 4    0  0.2222207E-002  0.1600327E+03  0.7546771E-02  0.1188660E+00
         21   -1    0    0  502  501  0.00000000000E+00  0.00000000000E+00  0.14805113844E+03  0.14805113844E+03  0.00000000000E+00 0. -1.
         21   -1    0    0  501  502 -0.00000000000E+00 -0.00000000000E+00 -0.17298394069E+03  0.17298394069E+03  0.00000000000E+00 0. -1.
         25    1    1    2    0    0 -0.68410893532E+02 -0.22742593550E+02 -0.81872809120E+02  0.16590790454E+03  0.12500000000E+03 0.  0.
         25    1    1    2    0    0  0.68410893532E+02  0.22742593550E+02  0.56940006870E+02  0.15512717459E+03  0.12500000000E+03 0.  0.
</event>
<event>
 4    0  0.2222207E-002  0.2818747E+03  0.7546771E-02  0.1094669E+00
         21   -1    0    0  502  501  0.00000000000E+00  0.00000000000E+00  0.41903976658E+03  0.41903976658E+03  0.00000000000E+00 0.  1.
         21   -1    0    0  501  502 -0.00000000000E+00 -0.00000000000E+00 -0.18960810343E+03  0.18960810343E+03  0.00000000000E+00 0.  1.
         25    1    1    2    0    0 -0.98864775821E+02 -0.17593712165E+03 -0.49376433180E+02  0.24246885743E+03  0.12500000000E+03 0.  0.
         25    1    1    2    0    0  0.98864775821E+02  0.17593712165E+03  0.27880809633E+03  0.36617901258E+03  0.12500000000E+03 0.  0.
</event>
<event>
 4    0  0.2222207E-002  0.2165551E+03  0.7546771E-02  0.1136478E+00
         21   -1    0    0  502  501  0.00000000000E+00  0.00000000000E+00  0.47396690430E+02  0.47396690430E+02  0.00000000000E+00 0.  1.
         21   -1    0    0  501  502 -0.00000000000E+00 -0.00000000000E+00 -0.98943861952E+03  0.98943861952E+03  0.00000000000E+00 0.  1.
         25    1    1    2    0    0 -0.56635674992E+02  0.91842894664E+02 -0.80641380240E+03  0.82314697211E+03  0.12500000000E+03 0.  0.
         25    1    1    2    0    0  0.56635674992E+02 -0.91842894664E+02 -0.13562812669E+03  0.21368833785E+03  0.12500000000E+03 0.  0.
</event>
<event>
 4    0  0.2222207E-002  0.2127983E+03  0.7546771E-02  0.1139369E+00
         21   -1    0    0  502  501  0.00000000000E+00  0.00000000000E+00  0.30020200932E+03  0.30020200932E+03  0.00000000000E+00 0. -1.
         21   -1    0    0  501  502 -0.00000000000E+00 -0.00000000000E+00 -0.15084219426E+03  0.15084219426E+03  0.00000000000E+00 0. -1.
         25    1    1    2    0    0 -0.13294201584E+03  0.10942858389E+03  0.78020400499E+02  0.22662828032E+03  0.12500000000E+03 0.  0.
         25    1    1    2    0    0  0.13294201584E+03 -0.10942858389E+03  0.71339414559E+02  0.22441592327E+03  0.12500000000E+03 0.  0.
</event>
<event>
 4    0  0.2222207E-002  0.1846522E+03  0.7546771E-02  0.1163375E+00
         21   -1    0    0  502  501  0.00000000000E+00  0.00000000000E+00  0.49493325726E+02  0.49493325726E+02  0.00000000000E+00 0. -1.
         21   -1    0    0  501  502 -0.00000000000E+00 -0.00000000000E+00 -0.68890965163E+03  0.68890965163E+03  0.00000000000E+00 0. -1.
         25    1    1    2    0    0 -0.60357642092E+02  0.11660077718E+03 -0.24950967621E+03  0.30841346391E+03  0.12500000000E+03 0.  0.
         25    1    1    2    0    0  0.60357642092E+02 -0.11660077718E+03 -0.38990664969E+03  0.42998951345E+03  0.12500000000E+03 0.  0.
</event>
<event>
 4    0  0.2222207E-002  0.3085730E+03  0.7546771E-02  0.1081032E+00
         21   -1    0    0  502  501  0.00000000000E+00  0.00000000000E+00  0.30870787041E+03  0.30870787041E+03  0.00000000000E+00 0.  1.
         21   -1    0    0  501  502 -0.00000000000E+00 -0.00000000000E+00 -0.30843819652E+03  0.30843819652E+03  0.00000000000E+00 0.  1.
         25    1    1    2    0    0  0.10613792836E+03 -0.48257742067E+02  0.25703606679E+03  0.30868529142E+03  0.12500000000E+03 0.  0.
         25    1    1    2    0    0 -0.10613792836E+03  0.48257742067E+02 -0.25676639290E+03  0.30846077551E+03  0.12500000000E+03 0.  0.
</event>
<event>
 4    0  0.2222207E-002  0.2426250E+03  0.7546771E-02  0.1118056E+00
         21   -1    0    0  502  501  0.00000000000E+00  0.00000000000E+00  0.21329687852E+03  0.21329687852E+03  0.00000000000E+00 0.  1.
         21   -1    0    0  501  502 -0.00000000000E+00 -0.00000000000E+00 -0.27598571052E+03  0.27598571052E+03  0.00000000000E+00 0.  1.
         25    1    1    2    0    0 -0.77715745064E+02  0.12453398157E+03 -0.17985535368E+03  0.26366910673E+03  0.12500000000E+03 0.  0.
         25    1    1    2    0    0  0.77715745064E+02 -0.12453398157E+03  0.11716652168E+03  0.22561348231E+03  0.12500000000E+03 0.  0.
</event>
<event>
 4    0  0.2222207E-002  0.2321320E+03  0.7546771E-02  0.1125148E+00
         21   -1    0    0  502  501  0.00000000000E+00  0.00000000000E+00  0.26104090349E+03  0.26104090349E+03  0.00000000000E+00 0.  1.
         21   -1    0    0  501  502 -0.00000000000E+00 -0.00000000000E+00 -0.20642462645E+03  0.20642462645E+03  0.00000000000E+00 0.  1.
         25    1    1    2    0    0  0.31179981089E+02 -0.18067220252E+03  0.95937048924E+02  0.24175101518E+03  0.12500000000E+03 0.  0.
         25    1    1    2    0    0 -0.31179981089E+02  0.18067220252E+03 -0.41320771887E+02  0.22571451476E+03  0.12500000000E+03 0.  0.
</event>
<event>
 4    0  0.2222207E-002  0.2479884E+03  0.7546771E-02  0.1114583E+00
         21   -1    0    0  502  501  0.00000000000E+00  0.00000000000E+00  0.62334700807E+03  0.62334700807E+03  0.00000000000E+00 0.  1.
         21   -1    0    0  501  502 -0.00000000000E+00 -0.00000000000E+00 -0.98658094107E+02  0.98658094107E+02  0.00000000000E+00 0.  1.
         25    1    1    2    0    0 -0.70337578958E+02  0.14775189458E+03  0.46350436215E+03  0.50718762909E+03  0.12500000000E+03 0.  0.
         25    1    1    2    0    0  0.70337578958E+02 -0.14775189458E+03  0.61184551814E+02  0.21481747309E+03  0.12500000000E+03 0.  0.
</event>
<event>
 4    0  0.2222207E-002  0.1965013E+03  0.7546771E-02  0.1152725E+00
         21   -1    0    0  502  501  0.00000000000E+00  0.00000000000E+00  0.86157845817E+02  0.86157845817E+02  0.00000000000E+00 0.  1.
         21   -1    0    0  501  502 -0.00000000000E+00 -0.00000000000E+00 -0.44816293998E+03  0.44816293998E+03  0.00000000000E+00 0.  1.
         25    1    1    2    0    0  0.14516582701E+03  0.42379845202E+02 -0.19580798754E+03  0.27719115534E+03  0.12500000000E+03 0.  0.
         25    1    1    2    0    0 -0.14516582701E+03 -0.42379845202E+02 -0.16619710662E+03  0.25712963046E+03  0.12500000000E+03 0.  0.
</event>
<event>
 4    0  0.2222207E-002  0.3815356E+03  0.7546771E-02  0.1050368E+00
         21   -1    0    0  502  501  0.00000000000E+00  0.00000000000E+00  0.10927824712E+04  0.10927824712E+04  0.00000000000E+00 0.  1.
         21   -1    0    0  501  502 -0.00000000000E+00 -0.00000000000E+00 -0.13320988492E+03  0.13320988492E+03  0.00000000000E+00 0.  1.
         25    1    1    2    0    0  0.35107201010E+03 -0.30892645328E+01  0.34843962867E+03  0.51019238985E+03  0.12500000000E+03 0.  0.
         25    1    1    2    0    0 -0.35107201010E+03  0.30892645328E+01  0.61113295756E+03  0.71579996623E+03  0.12500000000E+03 0.  0.
</event>
<event>
 4    0  0.2222207E-002  0.1728650E+03  0.7546771E-02  0.1174893E+00
         21   -1    0    0  502  501  0.00000000000E+00  0.00000000000E+00  0.46488915027E+02  0.46488915027E+02  0.00000000000E+00 0. -1.
         21   -1    0    0  501  502 -0.00000000000E+00 -0.00000000000E+00 -0.64278323762E+03  0.64278323762E+03  0.00000000000E+00 0. -1.
         25    1    1    2    0    0  0.51152612668E+02 -0.69861065563E+02 -0.46206699727E+03  0.48644431154E+03  0.12500000000E+03 0.  0.
         25    1    1    2    0    0 -0.51152612668E+02  0.69861065563E+02 -0.13422732532E+03  0.20282784111E+03  0.12500000000E+03 0.  0.
</event>
<event>
 4    0  0.2222207E-002  0.2724507E+03  0.7546771E-02  0.1099885E+00
         21   -1    0    0  502  501  0.00000000000E+00  0.00000000000E+00  0.28289660027E+03  0.28289660027E+03  0.00000000000E+00 0. -1.
         21   -1    0    0  501  502 -0.00000000000E+00 -0.00000000000E+00 -0.26239049232E+03  0.26239049232E+03  0.00000000000E+00 0. -1.
         25    1    1    2    0    0 -0.20920300036E+03  0.38114325414E+02  0.12603188740E+03  0.27699753393E+03  0.12500000000E+03 0.  0.
         25    1    1    2    0    0  0.20920300036E+03 -0.38114325414E+02 -0.10552577945E+03  0.26828955866E+03  0.12500000000E+03 0.  0.
</event>
<event>
 4    0  0.2222207E-002  0.1781353E+03  0.7546771E-02  0.1169620E+00
         21   -1    0    0  502  501  0.00000000000E+00  0.00000000000E+00  0.83488374036E+03  0.83488374036E+03  0.00000000000E+00 0.  1.
         21   -1    0    0  501  502 -0.00000000000E+00 -0.00000000000E+00 -0.38007896453E+02  0.38007896453E+02  0.00000000000E+00 0.  1.
         25    1    1    2    0    0 -0.65124385877E+02  0.21537676071E+02  0.66005926855E+03  0.67528386262E+03  0.12500000000E+03 0.  0.
         25    1    1    2    0    0  0.65124385877E+02 -0.21537676071E+02  0.13681657536E+03  0.19760777419E+03  0.12500000000E+03 0.  0.
</event>
<event>
 4    0  0.2222207E-002  0.3907293E+03  0.7546771E-02  0.1047038E+00
         21   -1    0    0  502  501  0.00000000000E+00  0.00000000000E+00  0.88088401105E+03  0.88088401105E+03  0.00000000000E+00 0. -1.
         21   -1    0    0  501  502 -0.00000000000E+00 -0.00000000000E+00 -0.17331383756E+03  0.17331383756E+03  0.00000000000E+00 0. -1.
         25    1    1    2    0    0 -0.73745694682E+02  0.12526891249E+03  0.81307135113E+03  0.83536863117E+03  0.12500000000E+03 0.  0.
         25    1    1    2    0    0  0.73745694682E+02 -0.12526891249E+03 -0.10550117765E+03  0.21882921744E+03  0.12500000000E+03 0.  0.
</event>
<event>
 4    0  0.2222207E-002  0.2675704E+03  0.7546771E-02  0.1102678E+00
         21   -1    0    0  502  501  0.00000000000E+00  0.00000000000E+00  0.53612365221E+02  0.53612365221E+02  0.00000000000E+00 0.  1.
         21   -1    0    0  501  502 -0.00000000000E+00 -0.00000000000E+00 -0.13353997101E+04  0.13353997101E+04  0.00000000000E+00 0.  1.
         25    1    1    2    0    0 -0.19145405445E+03  0.13843693838E+03 -0.60915762499E+03  0.66521985310E+03  0.12500000000E+03 0.  0.
         25    1    1    2    0    0  0.19145405445E+03 -0.13843693838E+03 -0.67262971990E+03  0.72379222224E+03  0.12500000000E+03 0.  0.
</event>
<event>
 4    0  0.2222207E-002  0.1332252E+03  0.7546771E-02  0.1222747E+00
         21   -1    0    0  502  501  0.00000000000E+00  0.00000000000E+00  0.33851572600E+03  0.33851572600E+03  0.00000000000E+00 0. -1.
         21   -1    0    0  501  502 -0.00000000000E+00 -0.00000000000E+00 -0.52431710455E+02  0.52431710455E+02  0.00000000000E+00 0. -1.
         25    1    1    2    0    0 -0.24471701590E+02  0.29676924598E+02  0.10579673933E+03  0.16821870908E+03  0.12500000000E+03 0.  0.
         25    1    1    2    0    0  0.24471701590E+02 -0.29676924598E+02  0.18028727622E+03  0.22272872737E+03  0.12500000000E+03 0.  0.
</event>
<event>
 4    0  0.2222207E-002  0.4874623E+03  0.7546771E-02  0.1017104E+00
         21   -1    0    0  502  501  0.00000000000E+00  0.00000000000E+00  0.32791177914E+03  0.32791177914E+03  0.00000000000E+00 0. -1.
         21   -1    0    0  501  502 -0.00000000000E+00 -0.00000000000E+00 -0.72464466353E+03  0.72464466353E+03  0.00000000000E+00 0. -1.
         25    1    1    2    0    0  0.14935013168E+03 -0.37667831994E+03 -0.45793235594E+03  0.62411462181E+03  0.12500000000E+03 0.  0.
         25    1    1    2    0    0 -0.14935013168E+03  0.37667831994E+03  0.61199471550E+02  0.42844182086E+03  0.12500000000E+03 0.  0.
</event>
<event>
 4    0  0.2222207E-002  0.3515718E+03  0.7546771E-02  0.1061972E+00
         21   -1    0    0  502  501  0.00000000000E+00  0.00000000000E+00  0.18725240378E+03  0.18725240378E+03  0.00000000000E+00 0.  1.
         21   -1    0    0  501  502 -0.00000000000E+00 -0.00000000000E+00 -0.66008630366E+03  0.66008630366E+03  0.00000000000E+00 0. -1.
         25    1    1    2    0    0  0.23416325799E+03  0.22568791611E+03 -0.17976215729E+03  0.39205471565E+03  0.12500000000E+03 0.  0.
         25    1    1    2    0    0 -0.23416325799E+03 -0.22568791611E+03 -0.29307174260E+03  0.45528399179E+03  0.12500000000E+03 0.  0.
</event>
<event>
 4    0  0.2222207E-002  0.1990798E+03  0.7546771E-02  0.1150518E+00
         21   -1    0    0  502  501  0.00000000000E+00  0.00000000000E+00  0.90646047407E+03  0.90646047407E+03  0.00000000000E+00 0. -1.
         21   -1    0    0  501  502 -0.00000000000E+00 -0.00000000000E+00 -0.43722569550E+02  0.43722569550E+02  0.00000000000E+00 0. -1.
         25    1    1    2    0    0  0.65728583265E+01  0.19292338050E+02  0.64816673868E+02  0.14227296997E+03  0.12500000000E+03 0.  0.
         25    1    1    2    0    0 -0.65728583265E+01 -0.19292338050E+02  0.79792123065E+03  0.80791007364E+03  0.12500000000E+03 0.  0.
</event>
<event>
 4    0  0.2222207E-002  0.2866546E+03  0.7546771E-02  0.1092109E+00
         21   -1    0    0  502  501  0.00000000000E+00  0.00000000000E+00  0.24157537654E+03  0.24157537654E+03  0.00000000000E+00 0. -1.
         21   -1    0    0  501  502 -0.00000000000E+00 -0.00000000000E+00 -0.34014578593E+03  0.34014578593E+03  0.00000000000E+00 0.  1.
         25    1    1    2    0    0 -0.14549391183E+03  0.18774029550E+03  0.52844261136E+02  0.27355513680E+03  0.12500000000E+03 0.  0.
         25    1    1    2    0    0  0.14549391183E+03 -0.18774029550E+03 -0.15141467053E+03  0.30816602568E+03  0.12500000000E+03 0.  0.
</event>
<event>
 4    0  0.2222207E-002  0.2229528E+03  0.7546771E-02  0.1131701E+00
         21   -1    0    0  502  501  0.00000000000E+00  0.00000000000E+00  0.89213201070E+02  0.89213201070E+02  0.00000000000E+00 0.  1.
         21   -1    0    0  501  502 -0.00000000000E+00 -0.00000000000E+00 -0.55718151677E+03  0.55718151677E+03  0.00000000000E+00 0.  1.
         25    1    1    2    0    0  0.22984083127E+02 -0.12326906226E+03 -0.43040353661E+03  0.46539846811E+03  0.12500000000E+03 0.  0.
         25    1    1    2    0    0 -0.22984083127E+02  0.12326906226E+03 -0.37564779086E+02  0.18099624973E+03  0.12500000000E+03 0.  0.
</event>
<event>
 4    0  0.2222207E-002  0.2392321E+03  0.7546771E-02  0.1120305E+00
         21   -1    0    0  502  501  0.00000000000E+00  0.00000000000E+00  0.30999627497E+03  0.30999627497E+03  0.00000000000E+00 0. -1.
         21   -1    0    0  501  502 -0.00000000000E+00 -0.00000000000E+00 -0.18462163987E+03  0.18462163987E+03  0.00000000000E+00 0. -1.
         25    1    1    2    0    0 -0.15156624046E+03 -0.64303211423E+02 -0.61793146572E+02  0.21575592972E+03  0.12500000000E+03 0.  0.
         25    1    1    2    0    0  0.15156624046E+03  0.64303211423E+02  0.18716778167E+03  0.27886198512E+03  0.12500000000E+03 0.  0.
</event>
<event>
 4    0  0.2222207E-002  0.1959860E+03  0.7546771E-02  0.1153170E+00
         21   -1    0    0  502  501  0.00000000000E+00  0.00000000000E+00  0.39251589048E+03  0.39251589048E+03  0.00000000000E+00 0. -1.
         21   -1    0    0  501  502 -0.00000000000E+00 -0.00000000000E+00 -0.97857262369E+02  0.97857262369E+02  0.00000000000E+00 0. -1.
         25    1    1    2    0    0 -0.42363892586E+01 -0.14910603810E+03  0.17626524262E+03  0.26257378648E+03  0.12500000000E+03 0.  0.
         25    1    1    2    0    0  0.42363892586E+01  0.14910603810E+03  0.11839338550E+03  0.22779936637E+03  0.12500000000E+03 0.  0.
</event>
<event>
 4    0  0.2222207E-002  0.3125275E+03  0.7546771E-02  0.1079141E+00
         21   -1    0    0  502  501  0.00000000000E+00  0.00000000000E+00  0.19403071084E+04  0.19403071084E+04  0.00000000000E+00 0. -1.
         21   -1    0    0  501  502 -0.00000000000E+00 -0.00000000000E+00 -0.50339150714E+02  0.50339150714E+02  0.00000000000E+00 0. -1.
         25    1    1    2    0    0 -0.21618158114E+03  0.14899639689E+03  0.58027734209E+03  0.64906178138E+03  0.12500000000E+03 0.  0.
         25    1    1    2    0    0  0.21618158114E+03 -0.14899639689E+03  0.13096906156E+04  0.13415844778E+04  0.12500000000E+03 0.  0.
</event>
<event>
 4    0  0.2222207E-002  0.2404267E+03  0.7546771E-02  0.1119509E+00
         21   -1    0    0  502  501  0.00000000000E+00  0.00000000000E+00  0.14096070067E+03  0.14096070067E+03  0.00000000000E+00 0.  1.
         21   -1    0    0  501  502 -0.00000000000E+00 -0.00000000000E+00 -0.41007874610E+03  0.41007874610E+03  0.00000000000E+00 0.  1.
         25    1    1    2    0    0  0.64051744188E+02  0.16844442765E+03 -0.21672585179E+02  0.22038795813E+03  0.12500000000E+03 0.  0.
         25    1    1    2    0    0 -0.64051744188E+02 -0.16844442765E+03 -0.24744546025E+03  0.33065148864E+03  0.12500000000E+03 0.  0.
</event>
<event>
 4    0  0.2222207E-002  0.1816244E+03  0.7546771E-02  0.1166240E+00
         21   -1    0    0  502  501  0.00000000000E+00  0.00000000000E+00  0.29070506321E+03  0.29070506321E+03  0.00000000000E+00 0.  1.
         21   -1    0    0  501  502 -0.00000000000E+00 -0.00000000000E+00 -0.11347382239E+03  0.11347382239E+03  0.00000000000E+00 0.  1.
         25    1    1    2    0    0 -0.87170275178E+02  0.63367256261E+02  0.17297648804E+03  0.23908143268E+03  0.12500000000E+03 0.  0.
         25    1    1    2    0    0  0.87170275178E+02 -0.63367256261E+02  0.42547527826E+01  0.16509745292E+03  0.12500000000E+03 0.  0.
</event>
<event>
 4    0  0.2222207E-002  0.2295869E+03  0.7546771E-02  0.1126931E+00
         21   -1    0    0  502  501  0.00000000000E+00  0.00000000000E+00  0.39385907413E+03  0.39385907413E+03  0.00000000000E+00 0.  1.
         21   -1    0    0  501  502 -0.00000000000E+00 -0.00000000000E+00 -0.13382997256E+03  0.13382997256E+03  0.00000000000E+00 0.  1.
         25    1    1    2    0    0  0.23536327073E+02 -0.18788530995E+03  0.89705126372E+02  0.24398126585E+03  0.12500000000E+03 0.  0.
         25    1    1    2    0    0 -0.23536327073E+02  0.18788530995E+03  0.17032397520E+03  0.28370778085E+03  0.12500000000E+03 0.  0.
</event>
<event>
 4    0  0.2222207E-002  0.1994226E+03  0.7546771E-02  0.1150227E+00
         21   -1    0    0  502  501  0.00000000000E+00  0.00000000000E+00  0.21467693826E+03  0.21467693826E+03  0.00000000000E+00 0. -1.
         21   -1    0    0  501  502 -0.00000000000E+00 -0.00000000000E+00 -0.18525218699E+03  0.18525218699E+03  0.00000000000E+00 0. -1.
         25    1    1    2    0    0 -0.31725505228E+02 -0.15058067049E+03  0.36295889260E+02  0.20155256780E+03  0.12500000000E+03 0.  0.
         25    1    1    2    0    0  0.31725505228E+02  0.15058067049E+03 -0.68711379895E+01  0.19837655745E+03  0.12500000000E+03 0.  0.
</event>
<event>
 4    0  0.2222207E-002  0.1788252E+03  0.7546771E-02  0.1168945E+00
         21   -1    0    0  502  501  0.00000000000E+00  0.00000000000E+00  0.82662415594E+03  0.82662415594E+03  0.00000000000E+00 0. -1.
         21   -1    0    0  501  502 -0.00000000000E+00 -0.00000000000E+00 -0.38685591574E+02  0.38685591574E+02  0.00000000000E+00 0. -1.
         25    1    1    2    0    0  0.11741300357E+02  0.25627860433E+02  0.92181975105E+02  0.15785170857E+03  0.12500000000E+03 0.  0.
         25    1    1    2    0    0 -0.11741300357E+02 -0.25627860433E+02  0.69575658926E+03  0.70745803894E+03  0.12500000000E+03 0.  0.
</event>
<event>
 4    0  0.2222207E-002  0.1894685E+03  0.7546771E-02  0.1158942E+00
         21   -1    0    0  502  501  0.00000000000E+00  0.00000000000E+00  0.45469801747E+03  0.45469801747E+03  0.00000000000E+00 0. -1.
         21   -1    0    0  501  502 -0.00000000000E+00 -0.00000000000E+00 -0.78949800913E+02  0.78949800913E+02  0.00000000000E+00 0. -1.
         25    1    1    2    0    0  0.41978361515E+02 -0.11978689053E+03  0.27872957047E+03  0.33079639574E+03  0.12500000000E+03 0.  0.
         25    1    1    2    0    0 -0.41978361515E+02  0.11978689053E+03  0.97018646080E+02  0.20285142264E+03  0.12500000000E+03 0.  0.
</event>
<event>
 4    0  0.2222207E-002  0.2168427E+03  0.7546771E-02  0.1136259E+00
         21   -1    0    0  502  501  0.00000000000E+00  0.00000000000E+00  0.57900715630E+02  0.57900715630E+02  0.00000000000E+00 0.  1.
         21   -1    0    0  501  502 -0.00000000000E+00 -0.00000000000E+00 -0.81209320088E+03  0.81209320088E+03  0.00000000000E+00 0.  1.
         25    1    1    2    0    0  0.37086237074E+02 -0.17212265525E+03 -0.33726822949E+03  0.40047029359E+03  0.12500000000E+03 0.  0.
         25    1    1    2    0    0 -0.37086237074E+02  0.17212265525E+03 -0.41692425577E+03  0.46952362292E+03  0.12500000000E+03 0.  0.
</event>
<event>
 4    0  0.2222207E-002  0.3119080E+03  0.7546771E-02  0.1079435E+00
         21   -1    0    0  502  501  0.00000000000E+00  0.00000000000E+00  0.21373597293E+03  0.21373597293E+03  0.00000000000E+00 0.  1.
         21   -1    0    0  501  502 -0.00000000000E+00 -0.00000000000E+00 -0.45517185126E+03  0.45517185126E+03  0.00000000000E+00 0.  1.
         25    1    1    2    0    0  0.93741330429E+02  0.23950014976E+03 -0.25427578964E+03  0.38266034020E+03  0.12500000000E+03 0.  0.
         25    1    1    2    0    0 -0.93741330429E+02 -0.23950014976E+03  0.12839911309E+02  0.28624748398E+03  0.12500000000E+03 0.  0.
</event>
<event>
 4    0  0.2222207E-002  0.2099862E+03  0.7546771E-02  0.1141577E+00
         21   -1    0    0  502  501  0.00000000000E+00  0.00000000000E+00  0.29339792388E+03  0.29339792388E+03  0.00000000000E+00 0. -1.
         21   -1    0    0  501  502 -0.00000000000E+00 -0.00000000000E+00 -0.15028799536E+03  0.15028799536E+03  0.00000000000E+00 0. -1.
         25    1    1    2    0    0 -0.13658691501E+03  0.49352094960E+02  0.16229766296E+03  0.25111181978E+03  0.12500000000E+03 0.  0.
         25    1    1    2    0    0  0.13658691501E+03 -0.49352094960E+02 -0.19187734439E+02  0.19257409946E+03  0.12500000000E+03 0.  0.
</event>
<event>
 4    0  0.2222207E-002  0.1722342E+03  0.7546771E-02  0.1175538E+00
         21   -1    0    0  502  501  0.00000000000E+00  0.00000000000E+00  0.21057902078E+03  0.21057902078E+03  0.00000000000E+00 0. -1.
         21   -1    0    0  501  502 -0.00000000000E+00 -0.00000000000E+00 -0.14087168320E+03  0.14087168320E+03  0.00000000000E+00 0. -1.
         25    1    1    2    0    0 -0.93227352048E+02  0.45851998123E+02  0.92981081816E+02  0.18725444314E+03  0.12500000000E+03 0.  0.
         25    1    1    2    0    0  0.93227352048E+02 -0.45851998123E+02 -0.23273744228E+02  0.16419626083E+03  0.12500000000E+03 0.  0.
</event>
<event>
 4    0  0.2222207E-002  0.3046101E+03  0.7546771E-02  0.1082959E+00
         21   -1    0    0  502  501  0.00000000000E+00  0.00000000000E+00  0.20359312274E+03  0.20359312274E+03  0.00000000000E+00 0.  1.
         21   -1    0    0  501  502 -0.00000000000E+00 -0.00000000000E+00 -0.45574866965E+03  0.45574866965E+03  0.00000000000E+00 0.  1.
         25    1    1    2    0    0 -0.24963314943E+03  0.20602898987E+02 -0.25604553470E+03  0.37937515019E+03  0.12500000000E+03 0.  0.
         25    1    1    2    0    0  0.24963314943E+03 -0.20602898987E+02  0.38899877916E+01  0.27996664220E+03  0.12500000000E+03 0.  0.
</event>
<event>
 4    0  0.2222207E-002  0.2143827E+03  0.7546771E-02  0.1138142E+00
         21   -1    0    0  502  501  0.00000000000E+00  0.00000000000E+00  0.47278662123E+03  0.47278662123E+03  0.00000000000E+00 0. -1.
         21   -1    0    0  501  502 -0.00000000000E+00 -0.00000000000E+00 -0.97210722333E+02  0.97210722333E+02  0.00000000000E+00 0. -1.
         25    1    1    2    0    0 -0.14609371524E+03 -0.92431422966E+01  0.31324567916E+03  0.36766379319E+03  0.12500000000E+03 0.  0.
         25    1    1    2    0    0  0.14609371524E+03  0.92431422966E+01  0.62330219732E+02  0.20233355037E+03  0.12500000000E+03 0.  0.
</event>
<event>
 4    0  0.2222207E-002  0.3506994E+03  0.7546771E-02  0.1062328E+00
         21   -1    0    0  502  501  0.00000000000E+00  0.00000000000E+00  0.59306573586E+03  0.59306573586E+03  0.00000000000E+00 0. -1.
         21   -1    0    0  501  502 -0.00000000000E+00 -0.00000000000E+00 -0.20738014283E+03  0.20738014283E+03  0.00000000000E+00 0. -1.
         25    1    1    2    0    0 -0.53886709608E+02 -0.32245037619E+03  0.21802807809E+03  0.41235817612E+03  0.12500000000E+03 0.  0.
         25    1    1    2    0    0  0.53886709608E+02  0.32245037619E+03  0.16765751494E+03  0.38808770258E+03  0.12500000000E+03 0.  0.
</event>
<event>
 4    0  0.2222207E-002  0.2170668E+03  0.7546771E-02  0.1136089E+00
         21   -1    0    0  502  501  0.00000000000E+00  0.00000000000E+00  0.16099022734E+03  0.16099022734E+03  0.00000000000E+00 0. -1.
         21   -1    0    0  501  502 -0.00000000000E+00 -0.00000000000E+00 -0.29267618619E+03  0.29267618619E+03  0.00000000000E+00 0. -1.
         25    1    1    2    0    0  0.51536523171E+02 -0.14354674819E+03 -0.16065164200E+03  0.25435336093E+03  0.12500000000E+03 0.  0.
         25    1    1    2    0    0 -0.51536523171E+02  0.14354674819E+03  0.28965683158E+02  0.19931305260E+03  0.12500000000E+03 0.  0.
</event>
<event>
 4    0  0.2222207E-002  0.1463999E+03  0.7546771E-02  0.1204968E+00
         21   -1    0    0  502  501  0.00000000000E+00  0.00000000000E+00  0.86131722345E+02  0.86131722345E+02  0.00000000000E+00 0. -1.
         21   -1    0    0  501  502 -0.00000000000E+00 -0.00000000000E+00 -0.24883895865E+03  0.24883895865E+03  0.00000000000E+00 0. -1.
         25    1    1    2    0    0  0.67652911307E+01 -0.67472813103E+02 -0.41565530814E+02  0.14815884389E+03  0.12500000000E+03 0.  0.
         25    1    1    2    0    0 -0.67652911307E+01  0.67472813103E+02 -0.12114170550E+03  0.18681183710E+03  0.12500000000E+03 0.  0.
</event>
<event>
 4    0  0.2222207E-002  0.2671851E+03  0.7546771E-02  0.1102902E+00
         21   -1    0    0  502  501  0.00000000000E+00  0.00000000000E+00  0.25509873680E+03  0.25509873680E+03  0.00000000000E+00 0. -1.
         21   -1    0    0  501  502 -0.00000000000E+00 -0.00000000000E+00 -0.27984418178E+03  0.27984418178E+03  0.00000000000E+00 0. -1.
         25    1    1    2    0    0 -0.16821334544E+03 -0.98560295019E+02 -0.14575602563E+03  0.27364151795E+03  0.12500000000E+03 0.  0.
         25    1    1    2    0    0  0.16821334544E+03  0.98560295019E+02  0.12101058066E+03  0.26130140063E+03  0.12500000000E+03 0.  0.
</event>
<event>
 4    0  0.2222207E-002  0.3266023E+03  0.7546771E-02  0.1072650E+00
         21   -1    0    0  502  501  0.00000000000E+00  0.00000000000E+00  0.20852233784E+04  0.20852233784E+04  0.00000000000E+00 0. -1.
         21   -1    0    0  501  502 -0.00000000000E+00 -0.00000000000E+00 -0.51154753545E+02  0.51154753545E+02  0.00000000000E+00 0. -1.
         25    1    1    2    0    0 -0.24511301066E+03  0.97943043444E+02  0.14951575366E+04  0.15234153363E+04  0.12500000000E+03 0.  0.
         25    1    1    2    0    0  0.24511301066E+03 -0.97943043444E+02  0.53891108830E+03  0.61296279564E+03  0.12500000000E+03 0.  0.
</event>
<event>
 4    0  0.2222207E-002  0.1580116E+03  0.7546771E-02  0.1190960E+00
         21   -1    0    0  502  501  0.00000000000E+00  0.00000000000E+00  0.26438359350E+03  0.26438359350E+03  0.00000000000E+00 0.  1.
         21   -1    0    0  501  502 -0.00000000000E+00 -0.00000000000E+00 -0.94437294499E+02  0.94437294499E+02  0.00000000000E+00 0.  1.
         25    1    1    2    0    0 -0.52930296527E+02  0.76888746412E+02  0.56492842903E+02  0.16592147816E+03  0.12500000000E+03 0.  0.
         25    1    1    2    0    0  0.52930296527E+02 -0.76888746412E+02  0.11345345609E+03  0.19289940984E+03  0.12500000000E+03 0.  0.
</event>
<event>
 4    0  0.2222207E-002  0.2419186E+03  0.7546771E-02  0.1118521E+00
         21   -1    0    0  502  501  0.00000000000E+00  0.00000000000E+00  0.70299372823E+02  0.70299372823E+02  0.00000000000E+00 0.  1.
         21   -1    0    0  501  502 -0.00000000000E+00 -0.00000000000E+00 -0.83250573387E+03  0.83250573387E+03  0.00000000000E+00 0.  1.
         25    1    1    2    0    0 -0.69723160027E+02 -0.10226864653E+03 -0.69097876472E+03  0.71301952877E+03  0.12500000000E+03 0.  0.
         25    1    1    2    0    0  0.69723160027E+02  0.10226864653E+03 -0.71227596319E+02  0.18978557792E+03  0.12500000000E+03 0.  0.
</event>
<event>
 4    0  0.2222207E-002  0.1936204E+03  0.7546771E-02  0.1155236E+00
         21   -1    0    0  502  501  0.00000000000E+00  0.00000000000E+00  0.27187929837E+02  0.27187929837E+02  0.00000000000E+00 0.  1.
         21   -1    0    0  501  502 -0.00000000000E+00 -0.00000000000E+00 -0.13788783189E+04  0.13788783189E+04  0.00000000000E+00 0.  1.
         25    1    1    2    0    0 -0.58161511202E+02 -0.12986401037E+03 -0.52986213993E+03  0.56269557481E+03  0.12500000000E+03 0.  0.
         25    1    1    2    0    0  0.58161511202E+02  0.12986401037E+03 -0.82182824917E+03  0.84337067396E+03  0.12500000000E+03 0.  0.
</event>
<event>
 4    0  0.2222207E-002  0.2400133E+03  0.7546771E-02  0.1119784E+00
         21   -1    0    0  502  501  0.00000000000E+00  0.00000000000E+00  0.87601314772E+02  0.87601314772E+02  0.00000000000E+00 0. -1.
         21   -1    0    0  501  502 -0.00000000000E+00 -0.00000000000E+00 -0.65759703129E+03  0.65759703129E+03  0.00000000000E+00 0. -1.
         25    1    1    2    0    0  0.10694944238E+03  0.36249159423E+02 -0.55040644320E+03  0.57560788520E+03  0.12500000000E+03 0.  0.
         25    1    1    2    0    0 -0.10694944238E+03 -0.36249159423E+02 -0.19589273311E+02  0.16959046086E+03  0.12500000000E+03 0.  0.
</event>
<event>
 4    0  0.2222207E-002  0.1799561E+03  0.7546771E-02  0.1167846E+00
         21   -1    0    0  502  501  0.00000000000E+00  0.00000000000E+00  0.68937799839E+03  0.68937799839E+03  0.00000000000E+00 0. -1.
         21   -1    0    0  501  502 -0.00000000000E+00 -0.00000000000E+00 -0.46975977797E+02  0.46975977797E+02  0.00000000000E+00 0. -1.
         25    1    1    2    0    0 -0.11984035437E+03 -0.29836916599E+02  0.40063075301E+03  0.43747223042E+03  0.12500000000E+03 0.  0.
         25    1    1    2    0    0  0.11984035437E+03  0.29836916599E+02  0.24177126758E+03  0.29888174577E+03  0.12500000000E+03 0.  0.
</event>
<event>
 4    0  0.2222207E-002  0.1939630E+03  0.7546771E-02  0.1154935E+00
         21   -1    0    0  502  501  0.00000000000E+00  0.00000000000E+00  0.17291391387E+02  0.17291391387E+02  0.00000000000E+00 0.  1.
         21   -1    0    0  501  502 -0.00000000000E+00 -0.00000000000E+00 -0.21757436660E+04  0.21757436660E+04  0.00000000000E+00 0. -1.
         25    1    1    2    0    0  0.79402625170E+02 -0.31974636900E+02 -0.17639321137E+04  0.17704261227E+04  0.12500000000E+03 0.  0.
         25    1    1    2    0    0 -0.79402625170E+02  0.31974636900E+02 -0.39452016093E+03  0.42260893468E+03  0.12500000000E+03 0.  0.
</event>
<event>
 4    0  0.2222207E-002  0.2438458E+03  0.7546771E-02  0.1117257E+00
         21   -1    0    0  502  501  0.00000000000E+00  0.00000000000E+00  0.83015273242E+02  0.83015273242E+02  0.00000000000E+00 0. -1.
         21   -1    0    0  501  502 -0.00000000000E+00 -0.00000000000E+00 -0.71626278380E+03  0.71626278380E+03  0.00000000000E+00 0. -1.
         25    1    1    2    0    0  0.76206974669E+02  0.19181856665E+03 -0.37419294005E+03  0.44524961750E+03  0.12500000000E+03 0.  0.
         25    1    1    2    0    0 -0.76206974669E+02 -0.19181856665E+03 -0.25905457051E+03  0.35402843954E+03  0.12500000000E+03 0.  0.
</event>
<event>
 4    0  0.2222207E-002  0.1897425E+03  0.7546771E-02  0.1158694E+00
         21   -1    0    0  502  501  0.00000000000E+00  0.00000000000E+00  0.18465654886E+03  0.18465654886E+03  0.00000000000E+00 0.  1.
         21   -1    0    0  501  502 -0.00000000000E+00 -0.00000000000E+00 -0.19496855049E+03  0.19496855049E+03  0.00000000000E+00 0.  1.
         25    1    1    2    0    0  0.81867848319E+02 -0.33336702809E+02 -0.11728457144E+03  0.19285837042E+03  0.12500000000E+03 0.  0.
         25    1    1    2    0    0 -0.81867848319E+02  0.33336702809E+02  0.10697256981E+03  0.18676672893E+03  0.12500000000E+03 0.  0.
</event>
<event>
 4    0  0.2222207E-002  0.1957320E+03  0.7546771E-02  0.1153391E+00
         21   -1    0    0  502  501  0.00000000000E+00  0.00000000000E+00  0.93033040513E+03  0.93033040513E+03  0.00000000000E+00 0. -1.
         21   -1    0    0  501  502 -0.00000000000E+00 -0.00000000000E+00 -0.41180014049E+02  0.41180014049E+02  0.00000000000E+00 0. -1.
         25    1    1    2    0    0 -0.32709126398E+00  0.15058872139E+03  0.43715104726E+03  0.47896044526E+03  0.12500000000E+03 0.  0.
         25    1    1    2    0    0  0.32709126398E+00 -0.15058872139E+03  0.45199934382E+03  0.49254997392E+03  0.12500000000E+03 0.  0.
</event>
<event>
 4    0  0.2222207E-002  0.2735100E+03  0.7546771E-02  0.1099287E+00
         21   -1    0    0  502  501  0.00000000000E+00  0.00000000000E+00  0.28780579754E+03  0.28780579754E+03  0.00000000000E+00 0. -1.
         21   -1    0    0  501  502 -0.00000000000E+00 -0.00000000000E+00 -0.25992420723E+03  0.25992420723E+03  0.00000000000E+00 0. -1.
         25    1    1    2    0    0 -0.79170724741E+02 -0.22919629156E+03  0.33555763951E+02  0.27486348068E+03  0.12500000000E+03 0.  0.
         25    1    1    2    0    0  0.79170724741E+02  0.22919629156E+03 -0.56741736396E+01  0.27286652409E+03  0.12500000000E+03 0.  0.
</event>
<event>
 4    0  0.2222207E-002  0.1989783E+03  0.7546771E-02  0.1150604E+00
         21   -1    0    0  502  501  0.00000000000E+00  0.00000000000E+00  0.28703496042E+03  0.28703496042E+03  0.00000000000E+00 0. -1.
         21   -1    0    0  501  502 -0.00000000000E+00 -0.00000000000E+00 -0.13793565196E+03  0.13793565196E+03  0.00000000000E+00 0. -1.
         25    1    1    2    0    0 -0.72590518421E+02 -0.64854221946E+02  0.20310374976E+03  0.25758801726E+03  0.12500000000E+03 0.  0.
         25    1    1    2    0    0  0.72590518421E+02  0.64854221946E+02 -0.54004441296E+02  0.16738259512E+03  0.12500000000E+03 0.  0.
</event>
<event>
 4    0  0.2222207E-002  0.3467542E+03  0.7546771E-02  0.1063955E+00
         21   -1    0    0  502  501  0.00000000000E+00  0.00000000000E+00  0.11444967010E+04  0.11444967010E+04  0.00000000000E+00 0.  1.
         21   -1    0    0  501  502 -0.00000000000E+00 -0.00000000000E+00 -0.10505797397E+03  0.10505797397E+03  0.00000000000E+00 0.  1.
         25    1    1    2    0    0 -0.51345110773E+00 -0.30856869219E+03  0.34504259786E+03  0.47947293539E+03  0.12500000000E+03 0.  0.
         25    1    1    2    0    0  0.51345110773E+00  0.30856869219E+03  0.69439612913E+03  0.77008173954E+03  0.12500000000E+03 0.  0.
</event>
<event>
 4    0  0.2222207E-002  0.3349454E+03  0.7546771E-02  0.1068969E+00
         21   -1    0    0  502  501  0.00000000000E+00  0.00000000000E+00  0.59422411570E+03  0.59422411570E+03  0.00000000000E+00 0.  1.
         21   -1    0    0  501  502 -0.00000000000E+00 -0.00000000000E+00 -0.18879812454E+03  0.18879812454E+03  0.00000000000E+00 0.  1.
         25    1    1    2    0    0 -0.56483796114E+01  0.24004738939E+03  0.43327818600E+03  0.51089102537E+03  0.12500000000E+03 0.  0.
         25    1    1    2    0    0  0.56483796114E+01 -0.24004738939E+03 -0.27852194838E+02  0.27213121486E+03  0.12500000000E+03 0.  0.
</event>
<event>
 4    0  0.2222207E-002  0.1876199E+03  0.7546771E-02  0.1160626E+00
         21   -1    0    0  502  501  0.00000000000E+00  0.00000000000E+00  0.45106123183E+03  0.45106123183E+03  0.00000000000E+00 0. -1.
         21   -1    0    0  501  502 -0.00000000000E+00 -0.00000000000E+00 -0.78040908658E+02  0.78040908658E+02  0.00000000000E+00 0. -1.
         25    1    1    2    0    0 -0.54206785439E+02  0.74438851177E+02  0.33504479756E+03  0.36926891898E+03  0.12500000000E+03 0.  0.
         25    1    1    2    0    0  0.54206785439E+02 -0.74438851177E+02  0.37975525613E+02  0.15983322151E+03  0.12500000000E+03 0.  0.
</event>
<event>
 4    0  0.2222207E-002  0.2570268E+03  0.7546771E-02  0.1108943E+00
         21   -1    0    0  502  501  0.00000000000E+00  0.00000000000E+00  0.22546723717E+03  0.22546723717E+03  0.00000000000E+00 0. -1.
         21   -1    0    0  501  502 -0.00000000000E+00 -0.00000000000E+00 -0.29300399309E+03  0.29300399309E+03  0.00000000000E+00 0. -1.
         25    1    1    2    0    0 -0.13174937250E+03 -0.14527904361E+03  0.76597302717E+02  0.24485923395E+03  0.12500000000E+03 0.  0.
         25    1    1    2    0    0  0.13174937250E+03  0.14527904361E+03 -0.14413405863E+03  0.27361199631E+03  0.12500000000E+03 0.  0.
</event>
<event>
 4    0  0.2222207E-002  0.2013272E+03  0.7546771E-02  0.1148624E+00
         21   -1    0    0  502  501  0.00000000000E+00  0.00000000000E+00  0.81804503900E+03  0.81804503900E+03  0.00000000000E+00 0. -1.
         21   -1    0    0  501  502 -0.00000000000E+00 -0.00000000000E+00 -0.49548155602E+02  0.49548155602E+02  0.00000000000E+00 0. -1.
         25    1    1    2    0    0 -0.46170992496E+02  0.15021658954E+03  0.41553507338E+03  0.46150967653E+03  0.12500000000E+03 0.  0.
         25    1    1    2    0    0  0.46170992496E+02 -0.15021658954E+03  0.35296181002E+03  0.40608351808E+03  0.12500000000E+03 0.  0.
</event>
<event>
 4    0  0.2222207E-002  0.1901925E+03  0.7546771E-02  0.1158288E+00
         21   -1    0    0  502  501  0.00000000000E+00  0.00000000000E+00  0.42206608645E+03  0.42206608645E+03  0.00000000000E+00 0.  1.
         21   -1    0    0  501  502 -0.00000000000E+00 -0.00000000000E+00 -0.85705062675E+02  0.85705062675E+02  0.00000000000E+00 0.  1.
         25    1    1    2    0    0 -0.19420167144E+02 -0.12665799743E+03  0.82406254909E+02  0.19706644070E+03  0.12500000000E+03 0.  0.
         25    1    1    2    0    0  0.19420167144E+02  0.12665799743E+03  0.25395476886E+03  0.31070470842E+03  0.12500000000E+03 0.  0.
</event>
<event>
 4    0  0.2222207E-002  0.2024351E+03  0.7546771E-02  0.1147701E+00
         21   -1    0    0  502  501  0.00000000000E+00  0.00000000000E+00  0.38449695644E+03  0.38449695644E+03  0.00000000000E+00 0. -1.
         21   -1    0    0  501  502 -0.00000000000E+00 -0.00000000000E+00 -0.10658077181E+03  0.10658077181E+03  0.00000000000E+00 0. -1.
         25    1    1    2    0    0 -0.88602382484E+02 -0.11024890307E+03  0.22767416388E+03  0.29574605273E+03  0.12500000000E+03 0.  0.
         25    1    1    2    0    0  0.88602382484E+02  0.11024890307E+03  0.50242020745E+02  0.19533167551E+03  0.12500000000E+03 0.  0.
</event>
<event>
 4    0  0.2222207E-002  0.2074375E+03  0.7546771E-02  0.1143611E+00
         21   -1    0    0  502  501  0.00000000000E+00  0.00000000000E+00  0.25110828139E+02  0.25110828139E+02  0.00000000000E+00 0. -1.
         21   -1    0    0  501  502 -0.00000000000E+00 -0.00000000000E+00 -0.17136158309E+04  0.17136158309E+04  0.00000000000E+00 0. -1.
         25    1    1    2    0    0  0.39484801745E+02 -0.15328469930E+03 -0.10474198501E+04  0.10666623604E+04  0.12500000000E+03 0.  0.
         25    1    1    2    0    0 -0.39484801745E+02  0.15328469930E+03 -0.64108515270E+03  0.67206429872E+03  0.12500000000E+03 0.  0.
</event>
<event>
 4    0  0.2222207E-002  0.2492492E+03  0.7546771E-02  0.1113780E+00
         21   -1    0    0  502  501  0.00000000000E+00  0.00000000000E+00  0.41047423608E+03  0.41047423608E+03  0.00000000000E+00 0.  1.
         21   -1    0    0  501  502 -0.00000000000E+00 -0.00000000000E+00 -0.15134970107E+03  0.15134970107E+03  0.00000000000E+00 0.  1.
         25    1    1    2    0    0  0.84917800158E+02  0.19095496536E+03  0.18946828283E+03  0.30854183149E+03  0.12500000000E+03 0.  0.
         25    1    1    2    0    0 -0.84917800158E+02 -0.19095496536E+03  0.69656252188E+02  0.25328210566E+03  0.12500000000E+03 0.  0.
</event>
<event>
 4    0  0.2222207E-002  0.2080757E+03  0.7546771E-02  0.1143099E+00
         21   -1    0    0  502  501  0.00000000000E+00  0.00000000000E+00  0.63712890669E+03  0.63712890669E+03  0.00000000000E+00 0. -1.
         21   -1    0    0  501  502 -0.00000000000E+00 -0.00000000000E+00 -0.67954067354E+02  0.67954067354E+02  0.00000000000E+00 0. -1.
         25    1    1    2    0    0  0.38877097943E+02 -0.14727851330E+03  0.17133412474E+03  0.26111830944E+03  0.12500000000E+03 0.  0.
         25    1    1    2    0    0 -0.38877097943E+02  0.14727851330E+03  0.39784071460E+03  0.44396466460E+03  0.12500000000E+03 0.  0.
</event>
<event>
 4    0  0.2222207E-002  0.3469385E+03  0.7546771E-02  0.1063879E+00
         21   -1    0    0  502  501  0.00000000000E+00  0.00000000000E+00  0.75409024309E+03  0.75409024309E+03  0.00000000000E+00 0. -1.
         21   -1    0    0  501  502 -0.00000000000E+00 -0.00000000000E+00 -0.15961789822E+03  0.15961789822E+03  0.00000000000E+00 0. -1.
         25    1    1    2    0    0 -0.27096654594E+03  0.25042078347E+02  0.52792834706E+03  0.60694589078E+03  0.12500000000E+03 0.  0.
         25    1    1    2    0    0  0.27096654594E+03 -0.25042078347E+02  0.66543997817E+02  0.30676225053E+03  0.12500000000E+03 0.  0.
</event>
<event>
 4    0  0.2222207E-002  0.1810792E+03  0.7546771E-02  0.1166763E+00
         21   -1    0    0  502  501  0.00000000000E+00  0.00000000000E+00  0.10809031963E+04  0.10809031963E+04  0.00000000000E+00 0.  1.
         21   -1    0    0  501  502 -0.00000000000E+00 -0.00000000000E+00 -0.30335449478E+02  0.30335449478E+02  0.00000000000E+00 0.  1.
         25    1    1    2    0    0  0.11847179639E+03 -0.79140306125E+01  0.69519789070E+03  0.71625645243E+03  0.12500000000E+03 0.  0.
         25    1    1    2    0    0 -0.11847179639E+03  0.79140306125E+01  0.35536985615E+03  0.39498219337E+03  0.12500000000E+03 0.  0.
</event>
<event>
 4    0  0.2222207E-002  0.1712562E+03  0.7546771E-02  0.1176544E+00
         21   -1    0    0  502  501  0.00000000000E+00  0.00000000000E+00  0.13738860009E+03  0.13738860009E+03  0.00000000000E+00 0. -1.
         21   -1    0    0  501  502 -0.00000000000E+00 -0.00000000000E+00 -0.21347238799E+03  0.21347238799E+03  0.00000000000E+00 0. -1.
         25    1    1    2    0    0 -0.39862267428E+01 -0.34965846873E+02 -0.15241081458E+03  0.20023125843E+03  0.12500000000E+03 0.  0.
         25    1    1    2    0    0  0.39862267428E+01  0.34965846873E+02  0.76327026690E+02  0.15062972965E+03  0.12500000000E+03 0.  0.
</event>
<event>
 4    0  0.2222207E-002  0.2721746E+03  0.7546771E-02  0.1100041E+00
         21   -1    0    0  502  501  0.00000000000E+00  0.00000000000E+00  0.32789114795E+03  0.32789114795E+03  0.00000000000E+00 0.  1.
         21   -1    0    0  501  502 -0.00000000000E+00 -0.00000000000E+00 -0.22592569573E+03  0.22592569573E+03  0.00000000000E+00 0.  1.
         25    1    1    2    0    0 -0.11405495773E+03 -0.18944245875E+03 -0.48477764255E+02  0.25859634991E+03  0.12500000000E+03 0.  0.
         25    1    1    2    0    0  0.11405495773E+03  0.18944245875E+03  0.15044321647E+03  0.29522049377E+03  0.12500000000E+03 0.  0.
</event>
<event>
 4    0  0.2222207E-002  0.2140389E+03  0.7546771E-02  0.1138407E+00
         21   -1    0    0  502  501  0.00000000000E+00  0.00000000000E+00  0.68968367163E+03  0.68968367163E+03  0.00000000000E+00 0.  1.
         21   -1    0    0  501  502 -0.00000000000E+00 -0.00000000000E+00 -0.66425603908E+02  0.66425603908E+02  0.00000000000E+00 0.  1.
         25    1    1    2    0    0 -0.12151874535E+03  0.64420409247E+02  0.49914591282E+03  0.53262410468E+03  0.12500000000E+03 0.  0.
         25    1    1    2    0    0  0.12151874535E+03 -0.64420409247E+02  0.12411215490E+03  0.22348517086E+03  0.12500000000E+03 0.  0.
</event>
<event>
 4    0  0.2222207E-002  0.2764217E+03  0.7546771E-02  0.1097660E+00
         21   -1    0    0  502  501  0.00000000000E+00  0.00000000000E+00  0.80763849746E+03  0.80763849746E+03  0.00000000000E+00 0. -1.
         21   -1    0    0  501  502 -0.00000000000E+00 -0.00000000000E+00 -0.94607836654E+02  0.94607836654E+02  0.00000000000E+00 0.  1.
         25    1    1    2    0    0 -0.19966634473E+03 -0.24791240279E+02  0.58905642531E+03  0.63489662703E+03  0.12500000000E+03 0.  0.
         25    1    1    2    0    0  0.19966634473E+03  0.24791240279E+02  0.12397423549E+03  0.26734970708E+03  0.12500000000E+03 0.  0.
</event>
<event>
 4    0  0.2222207E-002  0.4840322E+03  0.7546771E-02  0.1018033E+00
         21   -1    0    0  502  501  0.00000000000E+00  0.00000000000E+00  0.26342344907E+04  0.26342344907E+04  0.00000000000E+00 0.  1.
         21   -1    0    0  501  502 -0.00000000000E+00 -0.00000000000E+00 -0.88939366789E+02  0.88939366789E+02  0.00000000000E+00 0.  1.
         25    1    1    2    0    0 -0.72304450403E+02  0.90532083494E+02  0.25470312179E+04  0.25527273682E+04  0.12500000000E+03 0.  0.
         25    1    1    2    0    0  0.72304450403E+02 -0.90532083494E+02 -0.17360939294E+01  0.17044648929E+03  0.12500000000E+03 0.  0.
</event>
<event>
 4    0  0.2222207E-002  0.3407259E+03  0.7546771E-02  0.1066487E+00
         21   -1    0    0  502  501  0.00000000000E+00  0.00000000000E+00  0.26060869212E+03  0.26060869212E+03  0.00000000000E+00 0.  1.
         21   -1    0    0  501  502 -0.00000000000E+00 -0.00000000000E+00 -0.44547294092E+03  0.44547294092E+03  0.00000000000E+00 0.  1.
         25    1    1    2    0    0 -0.16970092913E+03 -0.26768601883E+03 -0.88431150712E+02  0.35199329318E+03  0.12500000000E+03 0.  0.
         25    1    1    2    0    0  0.16970092913E+03  0.26768601883E+03 -0.96433098084E+02  0.35408833987E+03  0.12500000000E+03 0.  0.
</event>
<event>
 4    0  0.2222207E-002  0.2112555E+03  0.7546771E-02  0.1140576E+00
         21   -1    0    0  502  501  0.00000000000E+00  0.00000000000E+00  0.57544530250E+02  0.57544530250E+02  0.00000000000E+00 0. -1.
         21   -1    0    0  501  502 -0.00000000000E+00 -0.00000000000E+00 -0.77555378247E+03  0.77555378247E+03  0.00000000000E+00 0. -1.
         25    1    1    2    0    0  0.73059184986E+02  0.14754119396E+03 -0.44490338532E+03  0.49058135991E+03  0.12500000000E+03 0.  0.
         25    1    1    2    0    0 -0.73059184986E+02 -0.14754119396E+03 -0.27310586690E+03  0.34251695281E+03  0.12500000000E+03 0.  0.
</event>
<event>
 4    0  0.2222207E-002  0.1623882E+03  0.7546771E-02  0.1186027E+00
         21   -1    0    0  502  501  0.00000000000E+00  0.00000000000E+00  0.23800727281E+03  0.23800727281E+03  0.00000000000E+00 0.  1.
         21   -1    0    0  501  502 -0.00000000000E+00 -0.00000000000E+00 -0.11079461136E+03  0.11079461136E+03  0.00000000000E+00 0.  1.
         25    1    1    2    0    0 -0.48033607102E+02  0.91690921166E+02  0.69534720027E+02  0.17656310409E+03  0.12500000000E+03 0.  0.
         25    1    1    2    0    0  0.48033607102E+02 -0.91690921166E+02  0.57677941420E+02  0.17223878008E+03  0.12500000000E+03 0.  0.
</event>
<event>
 4    0  0.2222207E-002  0.2176322E+03  0.7546771E-02  0.1135661E+00
         21   -1    0    0  502  501  0.00000000000E+00  0.00000000000E+00  0.35648860476E+03  0.35648860476E+03  0.00000000000E+00 0. -1.
         21   -1    0    0  501  502 -0.00000000000E+00 -0.00000000000E+00 -0.13286192485E+03  0.13286192485E+03  0.00000000000E+00 0. -1.
         25    1    1    2    0    0  0.17460460922E+03 -0.83405168521E+01  0.15047267708E+03  0.26234206741E+03  0.12500000000E+03 0.  0.
         25    1    1    2    0    0 -0.17460460922E+03  0.83405168521E+01  0.73154002829E+02  0.22700846220E+03  0.12500000000E+03 0.  0.
</event>
<event>
 4    0  0.2222207E-002  0.2206143E+03  0.7546771E-02  0.1133426E+00
         21   -1    0    0  502  501  0.00000000000E+00  0.00000000000E+00  0.38349197387E+03  0.38349197387E+03  0.00000000000E+00 0.  1.
         21   -1    0    0  501  502 -0.00000000000E+00 -0.00000000000E+00 -0.12691444586E+03  0.12691444586E+03  0.00000000000E+00 0.  1.
         25    1    1    2    0    0  0.96097697841E+02  0.14133811946E+03  0.56657366100E+02  0.21919463651E+03  0.12500000000E+03 0.  0.
         25    1    1    2    0    0 -0.96097697841E+02 -0.14133811946E+03  0.19992016191E+03  0.29121178321E+03  0.12500000000E+03 0.  0.
</event>
<event>
 4    0  0.2222207E-002  0.1753513E+03  0.7546771E-02  0.1172379E+00
         21   -1    0    0  502  501  0.00000000000E+00  0.00000000000E+00  0.35155872965E+02  0.35155872965E+02  0.00000000000E+00 0.  1.
         21   -1    0    0  501  502 -0.00000000000E+00 -0.00000000000E+00 -0.87462109757E+03  0.87462109757E+03  0.00000000000E+00 0.  1.
         25    1    1    2    0    0 -0.81700273526E+02 -0.86769194785E+02 -0.49838475586E+03  0.52746202966E+03  0.12500000000E+03 0.  0.
         25    1    1    2    0    0  0.81700273526E+02  0.86769194785E+02 -0.34108046874E+03  0.38231494087E+03  0.12500000000E+03 0.  0.
</event>
<event>
 4    0  0.2222207E-002  0.2385196E+03  0.7546771E-02  0.1120783E+00
         21   -1    0    0  502  501  0.00000000000E+00  0.00000000000E+00  0.14336542653E+04  0.14336542653E+04  0.00000000000E+00 0.  1.
         21   -1    0    0  501  502 -0.00000000000E+00 -0.00000000000E+00 -0.39682925833E+02  0.39682925833E+02  0.00000000000E+00 0.  1.
         25    1    1    2    0    0 -0.16468097151E+03 -0.87353801834E+02  0.94629672021E+03  0.97254973742E+03  0.12500000000E+03 0.  0.
         25    1    1    2    0    0  0.16468097151E+03  0.87353801834E+02  0.44767461924E+03  0.50078745370E+03  0.12500000000E+03 0.  0.
</event>
<event>
 4    0  0.2222207E-002  0.3456454E+03  0.7546771E-02  0.1064417E+00
         21   -1    0    0  502  501  0.00000000000E+00  0.00000000000E+00  0.79612793074E+02  0.79612793074E+02  0.00000000000E+00 0.  1.
         21   -1    0    0  501  502 -0.00000000000E+00 -0.00000000000E+00 -0.15006479375E+04  0.15006479375E+04  0.00000000000E+00 0.  1.
         25    1    1    2    0    0 -0.10685233976E+03 -0.10658123599E+02 -0.15967635023E+02  0.16556262706E+03  0.12500000000E+03 0.  0.
         25    1    1    2    0    0  0.10685233976E+03  0.10658123599E+02 -0.14050675094E+04  0.14146981035E+04  0.12500000000E+03 0.  0.
</event>
<event>
 4    0  0.2222207E-002  0.1890112E+03  0.7546771E-02  0.1159356E+00
         21   -1    0    0  502  501  0.00000000000E+00  0.00000000000E+00  0.60407503992E+03  0.60407503992E+03  0.00000000000E+00 0. -1.
         21   -1    0    0  501  502 -0.00000000000E+00 -0.00000000000E+00 -0.59140393406E+02  0.59140393406E+02  0.00000000000E+00 0. -1.
         25    1    1    2    0    0  0.80562464754E+02  0.67628956915E+02  0.10569223772E+03  0.19457604080E+03  0.12500000000E+03 0.  0.
         25    1    1    2    0    0 -0.80562464754E+02 -0.67628956915E+02  0.43924240879E+03  0.46863939252E+03  0.12500000000E+03 0.  0.
</event>
<event>
 4    0  0.2222207E-002  0.3499501E+03  0.7546771E-02  0.1062636E+00
         21   -1    0    0  502  501  0.00000000000E+00  0.00000000000E+00  0.35118424298E+03  0.35118424298E+03  0.00000000000E+00 0.  1.
         21   -1    0    0  501  502 -0.00000000000E+00 -0.00000000000E+00 -0.34872035187E+03  0.34872035187E+03  0.00000000000E+00 0. -1.
         25    1    1    2    0    0  0.77787336312E+02 -0.31378711065E+03 -0.47006017907E+02  0.34978248415E+03  0.12500000000E+03 0.  0.
         25    1    1    2    0    0 -0.77787336312E+02  0.31378711065E+03  0.49469909016E+02  0.35012211070E+03  0.12500000000E+03 0.  0.
</event>
<event>
 4    0  0.2222207E-002  0.1861800E+03  0.7546771E-02  0.1161953E+00
         21   -1    0    0  502  501  0.00000000000E+00  0.00000000000E+00  0.50769451780E+02  0.50769451780E+02  0.00000000000E+00 0.  1.
         21   -1    0    0  501  502 -0.00000000000E+00 -0.00000000000E+00 -0.68275262746E+03  0.68275262746E+03  0.00000000000E+00 0.  1.
         25    1    1    2    0    0  0.85233501540E+02 -0.29128009510E+02 -0.11009140374E+03  0.18936290001E+03  0.12500000000E+03 0.  0.
         25    1    1    2    0    0 -0.85233501540E+02  0.29128009510E+02 -0.52189177194E+03  0.54415917923E+03  0.12500000000E+03 0.  0.
</event>
<event>
 4    0  0.2222207E-002  0.1528361E+03  0.7546771E-02  0.1197031E+00
         21   -1    0    0  502  501  0.00000000000E+00  0.00000000000E+00  0.27637680007E+03  0.27637680007E+03  0.00000000000E+00 0.  1.
         21   -1    0    0  501  502 -0.00000000000E+00 -0.00000000000E+00 -0.84518263786E+02  0.84518263786E+02  0.00000000000E+00 0.  1.
         25    1    1    2    0    0 -0.78254525574E+02  0.10828078604E+02  0.50311319206E+02  0.15619618081E+03  0.12500000000E+03 0.  0.
         25    1    1    2    0    0  0.78254525574E+02 -0.10828078604E+02  0.14154721708E+03  0.20469888305E+03  0.12500000000E+03 0.  0.
</event>
<event>
 4    0  0.2222207E-002  0.2298851E+03  0.7546771E-02  0.1126721E+00
         21   -1    0    0  502  501  0.00000000000E+00  0.00000000000E+00  0.32979320720E+03  0.32979320720E+03  0.00000000000E+00 0.  1.
         21   -1    0    0  501  502 -0.00000000000E+00 -0.00000000000E+00 -0.16024338658E+03  0.16024338658E+03  0.00000000000E+00 0.  1.
         25    1    1    2    0    0  0.17087090802E+03  0.36903050808E+02 -0.22288636052E+01  0.21491549549E+03  0.12500000000E+03 0.  0.
         25    1    1    2    0    0 -0.17087090802E+03 -0.36903050808E+02  0.17177868422E+03  0.27512109829E+03  0.12500000000E+03 0.  0.
</event>
<event>
 4    0  0.2222207E-002  0.2115024E+03  0.7546771E-02  0.1140382E+00
         21   -1    0    0  502  501  0.00000000000E+00  0.00000000000E+00  0.27025722382E+02  0.27025722382E+02  0.00000000000E+00 0.  1.
         21   -1    0    0  501  502 -0.00000000000E+00 -0.00000000000E+00 -0.16552105878E+04  0.16552105878E+04  0.00000000000E+00 0.  1.
         25    1    1    2    0    0 -0.13385115983E+03  0.79706447239E+02 -0.10907356542E+04  0.11088726339E+04  0.12500000000E+03 0.  0.
         25    1    1    2    0    0  0.13385115983E+03 -0.79706447239E+02 -0.53744921121E+03  0.57336367634E+03  0.12500000000E+03 0.  0.
</event>
<event>
 4    0  0.2222207E-002  0.1838342E+03  0.7546771E-02  0.1164143E+00
         21   -1    0    0  502  501  0.00000000000E+00  0.00000000000E+00  0.70068041750E+03  0.70068041750E+03  0.00000000000E+00 0.  1.
         21   -1    0    0  501  502 -0.00000000000E+00 -0.00000000000E+00 -0.48231694924E+02  0.48231694924E+02  0.00000000000E+00 0.  1.
         25    1    1    2    0    0 -0.11344772473E+03 -0.27272536180E+01  0.17804356997E+03  0.24536164526E+03  0.12500000000E+03 0.  0.
         25    1    1    2    0    0  0.11344772473E+03  0.27272536180E+01  0.47440515261E+03  0.50355046716E+03  0.12500000000E+03 0.  0.
</event>
<event>
 4    0  0.2222207E-002  0.1748576E+03  0.7546771E-02  0.1172875E+00
         21   -1    0    0  502  501  0.00000000000E+00  0.00000000000E+00  0.10759953834E+04  0.10759953834E+04  0.00000000000E+00 0. -1.
         21   -1    0    0  501  502 -0.00000000000E+00 -0.00000000000E+00 -0.28415701843E+02  0.28415701843E+02  0.00000000000E+00 0. -1.
         25    1    1    2    0    0 -0.61926298738E+02 -0.78154661765E+02  0.74725586756E+03  0.76417232954E+03  0.12500000000E+03 0.  0.
         25    1    1    2    0    0  0.61926298738E+02  0.78154661765E+02  0.30032381403E+03  0.34023875573E+03  0.12500000000E+03 0.  0.
</event>
<event>
 4    0  0.2222207E-002  0.2108080E+03  0.7546771E-02  0.1140928E+00
         21   -1    0    0  502  501  0.00000000000E+00  0.00000000000E+00  0.46126712216E+02  0.46126712216E+02  0.00000000000E+00 0. -1.
         21   -1    0    0  501  502 -0.00000000000E+00 -0.00000000000E+00 -0.96343361756E+03  0.96343361756E+03  0.00000000000E+00 0.  1.
         25    1    1    2    0    0  0.15752481550E+03 -0.23825463529E+02 -0.59895786409E+03  0.63226358678E+03  0.12500000000E+03 0.  0.
         25    1    1    2    0    0 -0.15752481550E+03  0.23825463529E+02 -0.31834904126E+03  0.37729674300E+03  0.12500000000E+03 0.  0.
</event>
<event>
 4    0  0.2222207E-002  0.4127513E+03  0.7546771E-02  0.1039452E+00
         21   -1    0    0  502  501  0.00000000000E+00  0.00000000000E+00  0.89188694776E+02  0.89188694776E+02  0.00000000000E+00 0.  1.
         21   -1    0    0  501  502 -0.00000000000E+00 -0.00000000000E+00 -0.19101485795E+04  0.19101485795E+04  0.00000000000E+00 0.  1.
         25    1    1    2    0    0 -0.24566456857E+03  0.29742709687E+03 -0.10969034976E+04  0.11694598075E+04  0.12500000000E+03 0.  0.
         25    1    1    2    0    0  0.24566456857E+03 -0.29742709687E+03 -0.72405638713E+03  0.82987746683E+03  0.12500000000E+03 0.  0.
</event>
<event>
 4    0  0.2222207E-002  0.1831806E+03  0.7546771E-02  0.1164760E+00
         21   -1    0    0  502  501  0.00000000000E+00  0.00000000000E+00  0.12443032892E+03  0.12443032892E+03  0.00000000000E+00 0. -1.
         21   -1    0    0  501  502 -0.00000000000E+00 -0.00000000000E+00 -0.26967003758E+03  0.26967003758E+03  0.00000000000E+00 0. -1.
         25    1    1    2    0    0 -0.34689648219E+01  0.10469713399E+03  0.17101564612E+02  0.16398471604E+03  0.12500000000E+03 0.  0.
         25    1    1    2    0    0  0.34689648219E+01 -0.10469713399E+03 -0.16234127327E+03  0.23011565047E+03  0.12500000000E+03 0.  0.
</event>
<event>
 4    0  0.2222207E-002  0.2091981E+03  0.7546771E-02  0.1142203E+00
         21   -1    0    0  502  501  0.00000000000E+00  0.00000000000E+00  0.25979064073E+02  0.25979064073E+02  0.00000000000E+00 0. -1.
         21   -1    0    0  501  502 -0.00000000000E+00 -0.00000000000E+00 -0.16845812584E+04  0.16845812584E+04  0.00000000000E+00 0. -1.
         25    1    1    2    0    0 -0.12703783800E+03  0.44228715982E+02 -0.12390380752E+04  0.12525714125E+04  0.12500000000E+03 0.  0.
         25    1    1    2    0    0  0.12703783800E+03 -0.44228715982E+02 -0.41956411910E+03  0.45798890995E+03  0.12500000000E+03 0.  0.
</event>
<event>
 4    0  0.2222207E-002  0.1917214E+03  0.7546771E-02  0.1156918E+00
         21   -1    0    0  502  501  0.00000000000E+00  0.00000000000E+00  0.92630707641E+02  0.92630707641E+02  0.00000000000E+00 0. -1.
         21   -1    0    0  501  502 -0.00000000000E+00 -0.00000000000E+00 -0.39681320246E+03  0.39681320246E+03  0.00000000000E+00 0. -1.
         25    1    1    2    0    0  0.77913334686E+02 -0.11184761564E+03 -0.21657022171E+03  0.28479472920E+03  0.12500000000E+03 0.  0.
         25    1    1    2    0    0 -0.77913334686E+02  0.11184761564E+03 -0.87612273102E+02  0.20464918090E+03  0.12500000000E+03 0.  0.
</event>
<event>
 4    0  0.2222207E-002  0.1834543E+03  0.7546771E-02  0.1164501E+00
         21   -1    0    0  502  501  0.00000000000E+00  0.00000000000E+00  0.54929263127E+02  0.54929263127E+02  0.00000000000E+00 0. -1.
         21   -1    0    0  501  502 -0.00000000000E+00 -0.00000000000E+00 -0.61270601513E+03  0.61270601513E+03  0.00000000000E+00 0. -1.
         25    1    1    2    0    0 -0.10168425476E+03  0.29825868719E+02 -0.12882499450E+03  0.20844699402E+03  0.12500000000E+03 0.  0.
         25    1    1    2    0    0  0.10168425476E+03 -0.29825868719E+02 -0.42895175751E+03  0.45918828423E+03  0.12500000000E+03 0.  0.
</event>
<event>
 4    0  0.2222207E-002  0.2054296E+03  0.7546771E-02  0.1145237E+00
         21   -1    0    0  502  501  0.00000000000E+00  0.00000000000E+00  0.30702357036E+03  0.30702357036E+03  0.00000000000E+00 0. -1.
         21   -1    0    0  501  502 -0.00000000000E+00 -0.00000000000E+00 -0.13745302432E+03  0.13745302432E+03  0.00000000000E+00 0. -1.
         25    1    1    2    0    0 -0.79273485964E+02 -0.79982211631E+02 -0.42736184978E+02  0.17358807926E+03  0.12500000000E+03 0.  0.
         25    1    1    2    0    0  0.79273485964E+02  0.79982211631E+02  0.21230673102E+03  0.27088851543E+03  0.12500000000E+03 0.  0.
</event>
<event>
 4    0  0.2222207E-002  0.3128422E+03  0.7546771E-02  0.1078991E+00
         21   -1    0    0  502  501  0.00000000000E+00  0.00000000000E+00  0.31360032537E+03  0.31360032537E+03  0.00000000000E+00 0.  1.
         21   -1    0    0  501  502 -0.00000000000E+00 -0.00000000000E+00 -0.31208596449E+03  0.31208596449E+03  0.00000000000E+00 0.  1.
         25    1    1    2    0    0  0.69563005208E+02  0.14461662228E+03  0.23843892523E+03  0.31341841075E+03  0.12500000000E+03 0.  0.
         25    1    1    2    0    0 -0.69563005208E+02 -0.14461662228E+03 -0.23692456435E+03  0.31226787911E+03  0.12500000000E+03 0.  0.
</event>
<event>
 4    0  0.2222207E-002  0.3343618E+03  0.7546771E-02  0.1069223E+00
         21   -1    0    0  502  501  0.00000000000E+00  0.00000000000E+00  0.90560381211E+02  0.90560381211E+02  0.00000000000E+00 0.  1.
         21   -1    0    0  501  502 -0.00000000000E+00 -0.00000000000E+00 -0.12345114089E+04  0.12345114089E+04  0.00000000000E+00 0.  1.
         25    1    1    2    0    0  0.27947195679E+02  0.61822973786E+02  0.27634156602E+02  0.14488537692E+03  0.12500000000E+03 0.  0.
         25    1    1    2    0    0 -0.27947195679E+02 -0.61822973786E+02 -0.11715851843E+04  0.11801864132E+04  0.12500000000E+03 0.  0.
</event>
<event>
 4    0  0.2222207E-002  0.2883455E+03  0.7546771E-02  0.1091216E+00
         21   -1    0    0  502  501  0.00000000000E+00  0.00000000000E+00  0.20925388705E+03  0.20925388705E+03  0.00000000000E+00 0. -1.
         21   -1    0    0  501  502 -0.00000000000E+00 -0.00000000000E+00 -0.39733129208E+03  0.39733129208E+03  0.00000000000E+00 0. -1.
         25    1    1    2    0    0  0.63669071371E+02  0.54431437923E+02  0.16468250193E+03  0.22307366166E+03  0.12500000000E+03 0.  0.
         25    1    1    2    0    0 -0.63669071371E+02 -0.54431437923E+02 -0.35275990695E+03  0.38351151748E+03  0.12500000000E+03 0.  0.
</event>
<event>
 4    0  0.2222207E-002  0.3035531E+03  0.7546771E-02  0.1083478E+00
         21   -1    0    0  502  501  0.00000000000E+00  0.00000000000E+00  0.32235439436E+03  0.32235439436E+03  0.00000000000E+00 0.  1.
         21   -1    0    0  501  502 -0.00000000000E+00 -0.00000000000E+00 -0.28584843524E+03  0.28584843524E+03  0.00000000000E+00 0.  1.
         25    1    1    2    0    0  0.11238209059E+03 -0.10827509769E+03 -0.21055892621E+03  0.29036751276E+03  0.12500000000E+03 0.  0.
         25    1    1    2    0    0 -0.11238209059E+03  0.10827509769E+03  0.24706488532E+03  0.31783531683E+03  0.12500000000E+03 0.  0.
</event>
<event>
 4    0  0.2222207E-002  0.2076996E+03  0.7546771E-02  0.1143401E+00
         21   -1    0    0  502  501  0.00000000000E+00  0.00000000000E+00  0.58945496504E+02  0.58945496504E+02  0.00000000000E+00 0.  1.
         21   -1    0    0  501  502 -0.00000000000E+00 -0.00000000000E+00 -0.73184747663E+03  0.73184747663E+03  0.00000000000E+00 0.  1.
         25    1    1    2    0    0 -0.80827683715E+02  0.53430072853E+01 -0.61200999933E+03  0.62987530628E+03  0.12500000000E+03 0.  0.
         25    1    1    2    0    0  0.80827683715E+02 -0.53430072853E+01 -0.60891980800E+02  0.16091766686E+03  0.12500000000E+03 0.  0.
</event>
<event>
 4    0  0.2222207E-002  0.1817840E+03  0.7546771E-02  0.1166088E+00
         21   -1    0    0  502  501  0.00000000000E+00  0.00000000000E+00  0.11711378321E+03  0.11711378321E+03  0.00000000000E+00 0.  1.
         21   -1    0    0  501  502 -0.00000000000E+00 -0.00000000000E+00 -0.28216511748E+03  0.28216511748E+03  0.00000000000E+00 0.  1.
         25    1    1    2    0    0  0.50437259675E+02  0.11996532022E+03 -0.10670726943E+03  0.20963548499E+03  0.12500000000E+03 0.  0.
         25    1    1    2    0    0 -0.50437259675E+02 -0.11996532022E+03 -0.58344064837E+02  0.18964341570E+03  0.12500000000E+03 0.  0.
</event>
<event>
 4    0  0.2222207E-002  0.2359718E+03  0.7546771E-02  0.1122506E+00
         21   -1    0    0  502  501  0.00000000000E+00  0.00000000000E+00  0.85811501608E+03  0.85811501608E+03  0.00000000000E+00 0.  1.
         21   -1    0    0  501  502 -0.00000000000E+00 -0.00000000000E+00 -0.64889518091E+02  0.64889518091E+02  0.00000000000E+00 0.  1.
         25    1    1    2    0    0  0.12313468830E+03  0.23676542411E+01  0.70516271252E+03  0.72666856845E+03  0.12500000000E+03 0.  0.
         25    1    1    2    0    0 -0.12313468830E+03 -0.23676542411E+01  0.88062785468E+02  0.19633596572E+03  0.12500000000E+03 0.  0.
</event>
<event>
 4    0  0.2222207E-002  0.2673591E+03  0.7546771E-02  0.1102801E+00
         21   -1    0    0  502  501  0.00000000000E+00  0.00000000000E+00  0.37187475041E+03  0.37187475041E+03  0.00000000000E+00 0. -1.
         21   -1    0    0  501  502 -0.00000000000E+00 -0.00000000000E+00 -0.19221761584E+03  0.19221761584E+03  0.00000000000E+00 0. -1.
         25    1    1    2    0    0  0.20775511814E+03 -0.77301343397E+02  0.33613535080E+01  0.25450733880E+03  0.12500000000E+03 0.  0.
         25    1    1    2    0    0 -0.20775511814E+03  0.77301343397E+02  0.17629578106E+03  0.30958502746E+03  0.12500000000E+03 0.  0.
</event>
<event>
 4    0  0.2222207E-002  0.3427966E+03  0.7546771E-02  0.1065611E+00
         21   -1    0    0  502  501  0.00000000000E+00  0.00000000000E+00  0.38437107986E+03  0.38437107986E+03  0.00000000000E+00 0.  1.
         21   -1    0    0  501  502 -0.00000000000E+00 -0.00000000000E+00 -0.30571893135E+03  0.30571893135E+03  0.00000000000E+00 0.  1.
         25    1    1    2    0    0  0.47045740859E+02 -0.26873856190E+03 -0.12744346358E+03  0.32603765549E+03  0.12500000000E+03 0.  0.
         25    1    1    2    0    0 -0.47045740859E+02  0.26873856190E+03  0.20609561208E+03  0.36405235572E+03  0.12500000000E+03 0.  0.
</event>
<event>
 4    0  0.2222207E-002  0.1923938E+03  0.7546771E-02  0.1156320E+00
         21   -1    0    0  502  501  0.00000000000E+00  0.00000000000E+00  0.12460059274E+03  0.12460059274E+03  0.00000000000E+00 0. -1.
         21   -1    0    0  501  502 -0.00000000000E+00 -0.00000000000E+00 -0.29707208015E+03  0.29707208015E+03  0.00000000000E+00 0. -1.
         25    1    1    2    0    0 -0.10692066032E+03  0.51640827108E+02 -0.17981176072E+03  0.24911056164E+03  0.12500000000E+03 0.  0.
         25    1    1    2    0    0  0.10692066032E+03 -0.51640827108E+02  0.73402733090E+01  0.17256211125E+03  0.12500000000E+03 0.  0.
</event>
<event>
 4    0  0.2222207E-002  0.2459953E+03  0.7546771E-02  0.1115862E+00
         21   -1    0    0  502  501  0.00000000000E+00  0.00000000000E+00  0.12958771092E+03  0.12958771092E+03  0.00000000000E+00 0. -1.
         21   -1    0    0  501  502 -0.00000000000E+00 -0.00000000000E+00 -0.46697079448E+03  0.46697079448E+03  0.00000000000E+00 0. -1.
         25    1    1    2    0    0 -0.10943426817E+03 -0.15762127971E+03 -0.59776308154E+02  0.23668234806E+03  0.12500000000E+03 0.  0.
         25    1    1    2    0    0  0.10943426817E+03  0.15762127971E+03 -0.27760677541E+03  0.35987615734E+03  0.12500000000E+03 0.  0.
</event>
<event>
 4    0  0.2222207E-002  0.2195833E+03  0.7546771E-02  0.1134194E+00
         21   -1    0    0  502  501  0.00000000000E+00  0.00000000000E+00  0.86357520844E+02  0.86357520844E+02  0.00000000000E+00 0.  1.
         21   -1    0    0  501  502 -0.00000000000E+00 -0.00000000000E+00 -0.55833979643E+03  0.55833979643E+03  0.00000000000E+00 0.  1.
         25    1    1    2    0    0 -0.25432338975E+02 -0.60054212487E+02  0.11132983781E+02  0.14142933087E+03  0.12500000000E+03 0.  0.
         25    1    1    2    0    0  0.25432338975E+02  0.60054212487E+02 -0.48311525937E+03  0.50326798640E+03  0.12500000000E+03 0.  0.
</event>
<event>
 4    0  0.2222207E-002  0.2734383E+03  0.7546771E-02  0.1099328E+00
         21   -1    0    0  502  501  0.00000000000E+00  0.00000000000E+00  0.89088857746E+02  0.89088857746E+02  0.00000000000E+00 0. -1.
         21   -1    0    0  501  502 -0.00000000000E+00 -0.00000000000E+00 -0.83925753111E+03  0.83925753111E+03  0.00000000000E+00 0.  1.
         25    1    1    2    0    0  0.11715441417E+03  0.19810651422E+03 -0.50844841584E+03  0.57194067814E+03  0.12500000000E+03 0.  0.
         25    1    1    2    0    0 -0.11715441417E+03 -0.19810651422E+03 -0.24172025752E+03  0.35640571072E+03  0.12500000000E+03 0.  0.
</event>
<event>
 4    0  0.2222207E-002  0.2186848E+03  0.7546771E-02  0.1134867E+00
         21   -1    0    0  502  501  0.00000000000E+00  0.00000000000E+00  0.35253403570E+03  0.35253403570E+03  0.00000000000E+00 0.  1.
         21   -1    0    0  501  502 -0.00000000000E+00 -0.00000000000E+00 -0.13565509217E+03  0.13565509217E+03  0.00000000000E+00 0.  1.
         25    1    1    2    0    0  0.16053097479E+03  0.69176538614E+02  0.63203328022E+02  0.22399832150E+03  0.12500000000E+03 0.  0.
         25    1    1    2    0    0 -0.16053097479E+03 -0.69176538614E+02  0.15367561551E+03  0.26419080636E+03  0.12500000000E+03 0.  0.
</event>
<event>
 4    0  0.2222207E-002  0.1781936E+03  0.7546771E-02  0.1169563E+00
         21   -1    0    0  502  501  0.00000000000E+00  0.00000000000E+00  0.42519630872E+03  0.42519630872E+03  0.00000000000E+00 0. -1.
         21   -1    0    0  501  502 -0.00000000000E+00 -0.00000000000E+00 -0.74678341597E+02  0.74678341597E+02  0.00000000000E+00 0. -1.
         25    1    1    2    0    0 -0.68248876385E+01 -0.12038496854E+03  0.11935039834E+03  0.21073356953E+03  0.12500000000E+03 0.  0.
         25    1    1    2    0    0  0.68248876385E+01  0.12038496854E+03  0.23116756879E+03  0.28914108079E+03  0.12500000000E+03 0.  0.
</event>
<event>
 4    0  0.2222207E-002  0.1710880E+03  0.7546771E-02  0.1176718E+00
         21   -1    0    0  502  501  0.00000000000E+00  0.00000000000E+00  0.24741120534E+03  0.24741120534E+03  0.00000000000E+00 0. -1.
         21   -1    0    0  501  502 -0.00000000000E+00 -0.00000000000E+00 -0.11830955757E+03  0.11830955757E+03  0.00000000000E+00 0. -1.
         25    1    1    2    0    0 -0.46310210058E+02 -0.69272444704E+02  0.15205489406E+03  0.21374984902E+03  0.12500000000E+03 0.  0.
         25    1    1    2    0    0  0.46310210058E+02  0.69272444704E+02 -0.22953246294E+02  0.15197091388E+03  0.12500000000E+03 0.  0.
</event>
<event>
 4    0  0.2222207E-002  0.2595336E+03  0.7546771E-02  0.1107424E+00
         21   -1    0    0  502  501  0.00000000000E+00  0.00000000000E+00  0.18775192748E+03  0.18775192748E+03  0.00000000000E+00 0. -1.
         21   -1    0    0  501  502 -0.00000000000E+00 -0.00000000000E+00 -0.35875889300E+03  0.35875889300E+03  0.00000000000E+00 0. -1.
         25    1    1    2    0    0 -0.89984017820E+02  0.20740972699E+03 -0.59355891272E+02  0.26507365041E+03  0.12500000000E+03 0.  0.
         25    1    1    2    0    0  0.89984017820E+02 -0.20740972699E+03 -0.11165107425E+03  0.28143717006E+03  0.12500000000E+03 0.  0.
</event>
<event>
 4    0  0.2222207E-002  0.2129397E+03  0.7546771E-02  0.1139259E+00
         21   -1    0    0  502  501  0.00000000000E+00  0.00000000000E+00  0.81827772633E+02  0.81827772633E+02  0.00000000000E+00 0. -1.
         21   -1    0    0  501  502 -0.00000000000E+00 -0.00000000000E+00 -0.55413112905E+03  0.55413112905E+03  0.00000000000E+00 0. -1.
         25    1    1    2    0    0  0.11604727966E+03  0.94861381262E+02 -0.36332358210E+03  0.41242536062E+03  0.12500000000E+03 0.  0.
         25    1    1    2    0    0 -0.11604727966E+03 -0.94861381262E+02 -0.10897977432E+03  0.22353354107E+03  0.12500000000E+03 0.  0.
</event>
<event>
 4    0  0.2222207E-002  0.1972585E+03  0.7546771E-02  0.1152073E+00
         21   -1    0    0  502  501  0.00000000000E+00  0.00000000000E+00  0.20814711273E+03  0.20814711273E+03  0.00000000000E+00 0. -1.
         21   -1    0    0  501  502 -0.00000000000E+00 -0.00000000000E+00 -0.18693948943E+03  0.18693948943E+03  0.00000000000E+00 0. -1.
         25    1    1    2    0    0 -0.15190327239E+03  0.13081210866E+01 -0.38946474894E+01  0.19676504675E+03  0.12500000000E+03 0.  0.
         25    1    1    2    0    0  0.15190327239E+03 -0.13081210866E+01  0.25102270796E+02  0.19832155541E+03  0.12500000000E+03 0.  0.
</event>
<event>
 4    0  0.2222207E-002  0.2141936E+03  0.7546771E-02  0.1138287E+00
         21   -1    0    0  502  501  0.00000000000E+00  0.00000000000E+00  0.47754411890E+03  0.47754411890E+03  0.00000000000E+00 0.  1.
         21   -1    0    0  501  502 -0.00000000000E+00 -0.00000000000E+00 -0.96072616936E+02  0.96072616936E+02  0.00000000000E+00 0.  1.
         25    1    1    2    0    0  0.55011343694E+02 -0.41588545113E+02 -0.23079564977E+02  0.14461507992E+03  0.12500000000E+03 0.  0.
         25    1    1    2    0    0 -0.55011343694E+02  0.41588545113E+02  0.40455106695E+03  0.42900165592E+03  0.12500000000E+03 0.  0.
</event>
<event>
 4    0  0.2222207E-002  0.2734018E+03  0.7546771E-02  0.1099348E+00
         21   -1    0    0  502  501  0.00000000000E+00  0.00000000000E+00  0.10116016021E+03  0.10116016021E+03  0.00000000000E+00 0.  1.
         21   -1    0    0  501  502 -0.00000000000E+00 -0.00000000000E+00 -0.73891288504E+03  0.73891288504E+03  0.00000000000E+00 0.  1.
         25    1    1    2    0    0 -0.23490941297E+03  0.62512593434E+02 -0.32774051724E+03  0.42676586471E+03  0.12500000000E+03 0.  0.
         25    1    1    2    0    0  0.23490941297E+03 -0.62512593434E+02 -0.31001220759E+03  0.41330718055E+03  0.12500000000E+03 0.  0.
</event>
<event>
 4    0  0.2222207E-002  0.2448088E+03  0.7546771E-02  0.1116630E+00
         21   -1    0    0  502  501  0.00000000000E+00  0.00000000000E+00  0.18332149170E+03  0.18332149170E+03  0.00000000000E+00 0. -1.
         21   -1    0    0  501  502 -0.00000000000E+00 -0.00000000000E+00 -0.32691937625E+03  0.32691937625E+03  0.00000000000E+00 0. -1.
         25    1    1    2    0    0 -0.17449140435E+03 -0.10652461452E+03 -0.12402578939E+03  0.26981871715E+03  0.12500000000E+03 0.  0.
         25    1    1    2    0    0  0.17449140435E+03  0.10652461452E+03 -0.19572095155E+02  0.24042215081E+03  0.12500000000E+03 0.  0.
</event>
<event>
 4    0  0.2222207E-002  0.1811460E+03  0.7546771E-02  0.1166699E+00
         21   -1    0    0  502  501  0.00000000000E+00  0.00000000000E+00  0.58956460343E+02  0.58956460343E+02  0.00000000000E+00 0. -1.
         21   -1    0    0  501  502 -0.00000000000E+00 -0.00000000000E+00 -0.55657809695E+03  0.55657809695E+03  0.00000000000E+00 0. -1.
         25    1    1    2    0    0  0.12713124883E+03  0.10961711572E+02 -0.19766097810E+03  0.26641579498E+03  0.12500000000E+03 0.  0.
         25    1    1    2    0    0 -0.12713124883E+03 -0.10961711572E+02 -0.29996065851E+03  0.34911876232E+03  0.12500000000E+03 0.  0.
</event>
<event>
 4    0  0.2222207E-002  0.1361299E+03  0.7546771E-02  0.1218633E+00
         21   -1    0    0  502  501  0.00000000000E+00  0.00000000000E+00  0.16631760000E+04  0.16631760000E+04  0.00000000000E+00 0. -1.
         21   -1    0    0  501  502 -0.00000000000E+00 -0.00000000000E+00 -0.11142145146E+02  0.11142145146E+02  0.00000000000E+00 0. -1.
         25    1    1    2    0    0  0.43295067626E+02  0.22947144911E+02  0.68777646848E+03  0.70075852113E+03  0.12500000000E+03 0.  0.
         25    1    1    2    0    0 -0.43295067626E+02 -0.22947144911E+02  0.96425738638E+03  0.97355962402E+03  0.12500000000E+03 0.  0.
</event>
<event>
 4    0  0.2222207E-002  0.1929470E+03  0.7546771E-02  0.1155830E+00
         21   -1    0    0  502  501  0.00000000000E+00  0.00000000000E+00  0.61497891648E+02  0.61497891648E+02  0.00000000000E+00 0. -1.
         21   -1    0    0  501  502 -0.00000000000E+00 -0.00000000000E+00 -0.60536278964E+03  0.60536278964E+03  0.00000000000E+00 0. -1.
         25    1    1    2    0    0 -0.10777126943E+03  0.58974511494E+02 -0.13249240488E+03  0.21970861811E+03  0.12500000000E+03 0.  0.
         25    1    1    2    0    0  0.10777126943E+03 -0.58974511494E+02 -0.41137249311E+03  0.44715206318E+03  0.12500000000E+03 0.  0.
</event>
<event>
 4    0  0.2222207E-002  0.2093293E+03  0.7546771E-02  0.1142098E+00
         21   -1    0    0  502  501  0.00000000000E+00  0.00000000000E+00  0.65473898355E+03  0.65473898355E+03  0.00000000000E+00 0. -1.
         21   -1    0    0  501  502 -0.00000000000E+00 -0.00000000000E+00 -0.66925560343E+02  0.66925560343E+02  0.00000000000E+00 0. -1.
         25    1    1    2    0    0 -0.33065082036E+01  0.16282663960E+03  0.36435587797E+03  0.41821484117E+03  0.12500000000E+03 0.  0.
         25    1    1    2    0    0  0.33065082036E+01 -0.16282663960E+03  0.22345754523E+03  0.30344970272E+03  0.12500000000E+03 0.  0.
</event>
<event>
 4    0  0.2222207E-002  0.2380147E+03  0.7546771E-02  0.1121122E+00
         21   -1    0    0  502  501  0.00000000000E+00  0.00000000000E+00  0.15623362137E+03  0.15623362137E+03  0.00000000000E+00 0.  1.
         21   -1    0    0  501  502 -0.00000000000E+00 -0.00000000000E+00 -0.36260439424E+03  0.36260439424E+03  0.00000000000E+00 0.  1.
         25    1    1    2    0    0  0.17785232243E+03  0.60314438149E+02 -0.18588157151E+03  0.29231188596E+03  0.12500000000E+03 0.  0.
         25    1    1    2    0    0 -0.17785232243E+03 -0.60314438149E+02 -0.20489201357E+02  0.22652612966E+03  0.12500000000E+03 0.  0.
</event>
<event>
 4    0  0.2222207E-002  0.2510543E+03  0.7546771E-02  0.1112640E+00
         21   -1    0    0  502  501  0.00000000000E+00  0.00000000000E+00  0.13677448784E+03  0.13677448784E+03  0.00000000000E+00 0.  1.
         21   -1    0    0  501  502 -0.00000000000E+00 -0.00000000000E+00 -0.46081889489E+03  0.46081889489E+03  0.00000000000E+00 0.  1.
         25    1    1    2    0    0 -0.50518537594E+02 -0.21135388520E+03 -0.14602425751E+03  0.29012182132E+03  0.12500000000E+03 0.  0.
         25    1    1    2    0    0  0.50518537594E+02  0.21135388520E+03 -0.17802014955E+03  0.30747156141E+03  0.12500000000E+03 0.  0.
</event>
<event>
 4    0  0.2222207E-002  0.2268311E+03  0.7546771E-02  0.1128890E+00
         21   -1    0    0  502  501  0.00000000000E+00  0.00000000000E+00  0.31506369304E+03  0.31506369304E+03  0.00000000000E+00 0. -1.
         21   -1    0    0  501  502 -0.00000000000E+00 -0.00000000000E+00 -0.16330779513E+03  0.16330779513E+03  0.00000000000E+00 0. -1.
         25    1    1    2    0    0 -0.45798927800E+02  0.18248975961E+03  0.97675141833E+02  0.24610056376E+03  0.12500000000E+03 0.  0.
         25    1    1    2    0    0  0.45798927800E+02 -0.18248975961E+03  0.54080756073E+02  0.23227092441E+03  0.12500000000E+03 0.  0.
</event>
<event>
 4    0  0.2222207E-002  0.1747392E+03  0.7546771E-02  0.1172994E+00
         21   -1    0    0  502  501  0.00000000000E+00  0.00000000000E+00  0.60942927545E+03  0.60942927545E+03  0.00000000000E+00 0.  1.
         21   -1    0    0  501  502 -0.00000000000E+00 -0.00000000000E+00 -0.50102274725E+02  0.50102274725E+02  0.00000000000E+00 0.  1.
         25    1    1    2    0    0  0.10741233388E+02  0.12115455501E+03  0.29990069536E+03  0.34692827410E+03  0.12500000000E+03 0.  0.
         25    1    1    2    0    0 -0.10741233388E+02 -0.12115455501E+03  0.25942630537E+03  0.31260327608E+03  0.12500000000E+03 0.  0.
</event>
<event>
 4    0  0.2222207E-002  0.2021312E+03  0.7546771E-02  0.1147953E+00
         21   -1    0    0  502  501  0.00000000000E+00  0.00000000000E+00  0.60887696453E+02  0.60887696453E+02  0.00000000000E+00 0.  1.
         21   -1    0    0  501  502 -0.00000000000E+00 -0.00000000000E+00 -0.67102285559E+03  0.67102285559E+03  0.00000000000E+00 0.  1.
         25    1    1    2    0    0  0.10243485566E+03  0.93410728175E+02 -0.16466960339E+03  0.24891673723E+03  0.12500000000E+03 0.  0.
         25    1    1    2    0    0 -0.10243485566E+03 -0.93410728175E+02 -0.44546555575E+03  0.48299381482E+03  0.12500000000E+03 0.  0.
</event>
<event>
 4    0  0.2222207E-002  0.2346168E+03  0.7546771E-02  0.1123432E+00
         21   -1    0    0  502  501  0.00000000000E+00  0.00000000000E+00  0.23013559759E+03  0.23013559759E+03  0.00000000000E+00 0.  1.
         21   -1    0    0  501  502 -0.00000000000E+00 -0.00000000000E+00 -0.23918523825E+03  0.23918523825E+03  0.00000000000E+00 0.  1.
         25    1    1    2    0    0  0.11424160271E+03 -0.49770367032E+01  0.15781408982E+03  0.23153013115E+03  0.12500000000E+03 0.  0.
         25    1    1    2    0    0 -0.11424160271E+03  0.49770367032E+01 -0.16686373048E+03  0.23779070469E+03  0.12500000000E+03 0.  0.
</event>
<event>
 4    0  0.2222207E-002  0.2053596E+03  0.7546771E-02  0.1145294E+00
         21   -1    0    0  502  501  0.00000000000E+00  0.00000000000E+00  0.11602193294E+02  0.11602193294E+02  0.00000000000E+00 0. -1.
         21   -1    0    0  501  502 -0.00000000000E+00 -0.00000000000E+00 -0.36348793048E+04  0.36348793048E+04  0.00000000000E+00 0. -1.
         25    1    1    2    0    0 -0.14829757238E+03  0.49594326877E+02 -0.22180860173E+04  0.22271017820E+04  0.12500000000E+03 0.  0.
         25    1    1    2    0    0  0.14829757238E+03 -0.49594326877E+02 -0.14051910941E+04  0.14193797160E+04  0.12500000000E+03 0.  0.
</event>
<event>
 4    0  0.2222207E-002  0.1957477E+03  0.7546771E-02  0.1153377E+00
         21   -1    0    0  502  501  0.00000000000E+00  0.00000000000E+00  0.20896412309E+03  0.20896412309E+03  0.00000000000E+00 0.  1.
         21   -1    0    0  501  502 -0.00000000000E+00 -0.00000000000E+00 -0.18336724591E+03  0.18336724591E+03  0.00000000000E+00 0.  1.
         25    1    1    2    0    0  0.33523771835E+02 -0.10814611152E+03 -0.86775431092E+02  0.18966918610E+03  0.12500000000E+03 0.  0.
         25    1    1    2    0    0 -0.33523771835E+02  0.10814611152E+03  0.11237230827E+03  0.20266218291E+03  0.12500000000E+03 0.  0.
</event>
<event>
 4    0  0.2222207E-002  0.1949746E+03  0.7546771E-02  0.1154050E+00
         21   -1    0    0  502  501  0.00000000000E+00  0.00000000000E+00  0.55973396416E+02  0.55973396416E+02  0.00000000000E+00 0.  1.
         21   -1    0    0  501  502 -0.00000000000E+00 -0.00000000000E+00 -0.67916365839E+03  0.67916365839E+03  0.00000000000E+00 0.  1.
         25    1    1    2    0    0  0.15240721691E+02 -0.13922097759E+02 -0.59098838120E+03  0.60441572706E+03  0.12500000000E+03 0.  0.
         25    1    1    2    0    0 -0.15240721691E+02  0.13922097759E+02 -0.32201880782E+02  0.13072132775E+03  0.12500000000E+03 0.  0.
</event>
<event>
 4    0  0.2222207E-002  0.1851671E+03  0.7546771E-02  0.1162894E+00
         21   -1    0    0  502  501  0.00000000000E+00  0.00000000000E+00  0.12117231600E+04  0.12117231600E+04  0.00000000000E+00 0. -1.
         21   -1    0    0  501  502 -0.00000000000E+00 -0.00000000000E+00 -0.28295959958E+02  0.28295959958E+02  0.00000000000E+00 0. -1.
         25    1    1    2    0    0 -0.10748122622E+03  0.79939522507E+02  0.50190908336E+03  0.53430353658E+03  0.12500000000E+03 0.  0.
         25    1    1    2    0    0  0.10748122622E+03 -0.79939522507E+02  0.68151811667E+03  0.70571558336E+03  0.12500000000E+03 0.  0.
</event>
<event>
 4    0  0.2222207E-002  0.2101599E+03  0.7546771E-02  0.1141439E+00
         21   -1    0    0  502  501  0.00000000000E+00  0.00000000000E+00  0.30396401325E+02  0.30396401325E+02  0.00000000000E+00 0. -1.
         21   -1    0    0  501  502 -0.00000000000E+00 -0.00000000000E+00 -0.14530404396E+04  0.14530404396E+04  0.00000000000E+00 0. -1.
         25    1    1    2    0    0  0.11513053442E+03  0.10669727845E+03 -0.93180756486E+03  0.95316823652E+03  0.12500000000E+03 0.  0.
         25    1    1    2    0    0 -0.11513053442E+03 -0.10669727845E+03 -0.49083647346E+03  0.53026860445E+03  0.12500000000E+03 0.  0.
</event>
<event>
 4    0  0.2222207E-002  0.2350536E+03  0.7546771E-02  0.1123133E+00
         21   -1    0    0  502  501  0.00000000000E+00  0.00000000000E+00  0.11507366962E+03  0.11507366962E+03  0.00000000000E+00 0. -1.
         21   -1    0    0  501  502 -0.00000000000E+00 -0.00000000000E+00 -0.48012898787E+03  0.48012898787E+03  0.00000000000E+00 0. -1.
         25    1    1    2    0    0  0.18705478803E+03 -0.38056467664E+02 -0.25400811272E+03  0.34144239600E+03  0.12500000000E+03 0.  0.
         25    1    1    2    0    0 -0.18705478803E+03  0.38056467664E+02 -0.11104720552E+03  0.25376026149E+03  0.12500000000E+03 0.  0.
</event>
<event>
 4    0  0.2222207E-002  0.1629631E+03  0.7546771E-02  0.1185391E+00
         21   -1    0    0  502  501  0.00000000000E+00  0.00000000000E+00  0.13127933731E+03  0.13127933731E+03  0.00000000000E+00 0.  1.
         21   -1    0    0  501  502 -0.00000000000E+00 -0.00000000000E+00 -0.20229366125E+03  0.20229366125E+03  0.00000000000E+00 0.  1.
         25    1    1    2    0    0  0.71274266503E+02 -0.24811527751E+02  0.38553175517E+02  0.15101980108E+03  0.12500000000E+03 0.  0.
         25    1    1    2    0    0 -0.71274266503E+02  0.24811527751E+02 -0.10956749946E+03  0.18255319749E+03  0.12500000000E+03 0.  0.
</event>
<event>
 4    0  0.2222207E-002  0.1995931E+03  0.7546771E-02  0.1150083E+00
         21   -1    0    0  502  501  0.00000000000E+00  0.00000000000E+00  0.62969340888E+02  0.62969340888E+02  0.00000000000E+00 0.  1.
         21   -1    0    0  501  502 -0.00000000000E+00 -0.00000000000E+00 -0.63264789122E+03  0.63264789122E+03  0.00000000000E+00 0.  1.
         25    1    1    2    0    0 -0.12321742663E+03 -0.14694180494E+01 -0.11926839924E+03  0.21221367645E+03  0.12500000000E+03 0.  0.
         25    1    1    2    0    0  0.12321742663E+03  0.14694180494E+01 -0.45041015108E+03  0.48340355565E+03  0.12500000000E+03 0.  0.
</event>
<event>
 4    0  0.2222207E-002  0.3316384E+03  0.7546771E-02  0.1070414E+00
         21   -1    0    0  502  501  0.00000000000E+00  0.00000000000E+00  0.31297425693E+03  0.31297425693E+03  0.00000000000E+00 0. -1.
         21   -1    0    0  501  502 -0.00000000000E+00 -0.00000000000E+00 -0.35141549091E+03  0.35141549091E+03  0.00000000000E+00 0. -1.
         25    1    1    2    0    0  0.73593960949E+02  0.19917134825E+03 -0.24156992239E+03  0.34505988531E+03  0.12500000000E+03 0.  0.
         25    1    1    2    0    0 -0.73593960949E+02 -0.19917134825E+03  0.20312868841E+03  0.31932986253E+03  0.12500000000E+03 0.  0.
</event>
<event>
 4    0  0.2222207E-002  0.1927015E+03  0.7546771E-02  0.1156047E+00
         21   -1    0    0  502  501  0.00000000000E+00  0.00000000000E+00  0.69032693880E+03  0.69032693880E+03  0.00000000000E+00 0. -1.
         21   -1    0    0  501  502 -0.00000000000E+00 -0.00000000000E+00 -0.53791719705E+02  0.53791719705E+02  0.00000000000E+00 0. -1.
         25    1    1    2    0    0  0.12921600554E+03  0.69194277396E+02  0.32777529402E+03  0.38019240850E+03  0.12500000000E+03 0.  0.
         25    1    1    2    0    0 -0.12921600554E+03 -0.69194277396E+02  0.30875992508E+03  0.36392625001E+03  0.12500000000E+03 0.  0.
</event>
<event>
 4    0  0.2222207E-002  0.2101888E+03  0.7546771E-02  0.1141417E+00
         21   -1    0    0  502  501  0.00000000000E+00  0.00000000000E+00  0.18068745696E+04  0.18068745696E+04  0.00000000000E+00 0.  1.
         21   -1    0    0  501  502 -0.00000000000E+00 -0.00000000000E+00 -0.24450685312E+02  0.24450685312E+02  0.00000000000E+00 0.  1.
         25    1    1    2    0    0 -0.47329589883E+02 -0.13083826463E+03  0.47346283541E+03  0.50906855932E+03  0.12500000000E+03 0.  0.
         25    1    1    2    0    0  0.47329589883E+02  0.13083826463E+03  0.13089610489E+04  0.13222566956E+04  0.12500000000E+03 0.  0.
</event>
<event>
 4    0  0.2222207E-002  0.2207005E+03  0.7546771E-02  0.1133362E+00
         21   -1    0    0  502  501  0.00000000000E+00  0.00000000000E+00  0.61560731978E+03  0.61560731978E+03  0.00000000000E+00 0.  1.
         21   -1    0    0  501  502 -0.00000000000E+00 -0.00000000000E+00 -0.79123035264E+02  0.79123035264E+02  0.00000000000E+00 0.  1.
         25    1    1    2    0    0  0.12552680387E+03  0.12788102836E+03  0.21914227134E+03  0.30944930278E+03  0.12500000000E+03 0.  0.
         25    1    1    2    0    0 -0.12552680387E+03 -0.12788102836E+03  0.31734201318E+03  0.38528105226E+03  0.12500000000E+03 0.  0.
</event>
<event>
 4    0  0.2222207E-002  0.2725193E+03  0.7546771E-02  0.1099846E+00
         21   -1    0    0  502  501  0.00000000000E+00  0.00000000000E+00  0.72466297847E+03  0.72466297847E+03  0.00000000000E+00 0.  1.
         21   -1    0    0  501  502 -0.00000000000E+00 -0.00000000000E+00 -0.10248456278E+03  0.10248456278E+03  0.00000000000E+00 0.  1.
         25    1    1    2    0    0 -0.43810604260E+01 -0.23554052269E+03  0.22600591542E+03  0.34957432017E+03  0.12500000000E+03 0.  0.
         25    1    1    2    0    0  0.43810604260E+01  0.23554052269E+03  0.39617250028E+03  0.47757322108E+03  0.12500000000E+03 0.  0.
</event>
<event>
 4    0  0.2222207E-002  0.2633962E+03  0.7546771E-02  0.1105120E+00
         21   -1    0    0  502  501  0.00000000000E+00  0.00000000000E+00  0.98009180129E+03  0.98009180129E+03  0.00000000000E+00 0. -1.
         21   -1    0    0  501  502 -0.00000000000E+00 -0.00000000000E+00 -0.70786804160E+02  0.70786804160E+02  0.00000000000E+00 0. -1.
         25    1    1    2    0    0 -0.86675044643E+02 -0.21501862373E+03  0.45992832829E+03  0.53000437647E+03  0.12500000000E+03 0.  0.
         25    1    1    2    0    0  0.86675044643E+02  0.21501862373E+03  0.44937666884E+03  0.52087422898E+03  0.12500000000E+03 0.  0.
</event>
<event>
 4    0  0.2222207E-002  0.1835592E+03  0.7546771E-02  0.1164402E+00
         21   -1    0    0  502  501  0.00000000000E+00  0.00000000000E+00  0.12951014194E+03  0.12951014194E+03  0.00000000000E+00 0.  1.
         21   -1    0    0  501  502 -0.00000000000E+00 -0.00000000000E+00 -0.26016476723E+03  0.26016476723E+03  0.00000000000E+00 0.  1.
         25    1    1    2    0    0  0.92219546914E+02  0.80948328880E+02 -0.70745496147E+01  0.17530580719E+03  0.12500000000E+03 0.  0.
         25    1    1    2    0    0 -0.92219546914E+02 -0.80948328880E+02 -0.12358007567E+03  0.21436910198E+03  0.12500000000E+03 0.  0.
</event>
<event>
 4    0  0.2222207E-002  0.1659505E+03  0.7546771E-02  0.1182138E+00
         21   -1    0    0  502  501  0.00000000000E+00  0.00000000000E+00  0.47449776519E+02  0.47449776519E+02  0.00000000000E+00 0.  1.
         21   -1    0    0  501  502 -0.00000000000E+00 -0.00000000000E+00 -0.58039428086E+03  0.58039428086E+03  0.00000000000E+00 0.  1.
         25    1    1    2    0    0 -0.10506539341E+03  0.24512901288E+02 -0.23510491400E+03  0.28729590984E+03  0.12500000000E+03 0.  0.
         25    1    1    2    0    0  0.10506539341E+03 -0.24512901288E+02 -0.29783959034E+03  0.34054814754E+03  0.12500000000E+03 0.  0.
</event>
<event>
 4    0  0.2222207E-002  0.1617868E+03  0.7546771E-02  0.1186694E+00
         21   -1    0    0  502  501  0.00000000000E+00  0.00000000000E+00  0.22313479052E+03  0.22313479052E+03  0.00000000000E+00 0.  1.
         21   -1    0    0  501  502 -0.00000000000E+00 -0.00000000000E+00 -0.11730568546E+03  0.11730568546E+03  0.00000000000E+00 0.  1.
         25    1    1    2    0    0 -0.13927592993E+02  0.99394726902E+02  0.29943228663E+02  0.16307938719E+03  0.12500000000E+03 0.  0.
         25    1    1    2    0    0  0.13927592993E+02 -0.99394726902E+02  0.75885876401E+02  0.17736108880E+03  0.12500000000E+03 0.  0.
</event>
<event>
 4    0  0.2222207E-002  0.1917993E+03  0.7546771E-02  0.1156848E+00
         21   -1    0    0  502  501  0.00000000000E+00  0.00000000000E+00  0.13396738184E+04  0.13396738184E+04  0.00000000000E+00 0.  1.
         21   -1    0    0  501  502 -0.00000000000E+00 -0.00000000000E+00 -0.27459640871E+02  0.27459640871E+02  0.00000000000E+00 0.  1.
         25    1    1    2    0    0  0.75513350431E+02  0.20640640495E+02  0.21912230526E+03  0.26413611414E+03  0.12500000000E+03 0.  0.
         25    1    1    2    0    0 -0.75513350431E+02 -0.20640640495E+02  0.10930918723E+04  0.11029973451E+04  0.12500000000E+03 0.  0.
</event>
<event>
 4    0  0.2222207E-002  0.3209411E+03  0.7546771E-02  0.1075217E+00
         21   -1    0    0  502  501  0.00000000000E+00  0.00000000000E+00  0.42168870222E+02  0.42168870222E+02  0.00000000000E+00 0. -1.
         21   -1    0    0  501  502 -0.00000000000E+00 -0.00000000000E+00 -0.24426355978E+04  0.24426355978E+04  0.00000000000E+00 0. -1.
         25    1    1    2    0    0  0.92728711761E+02 -0.16702458304E+03 -0.20734470124E+04  0.20859777896E+04  0.12500000000E+03 0.  0.
         25    1    1    2    0    0 -0.92728711761E+02  0.16702458304E+03 -0.32701971512E+03  0.39882667840E+03  0.12500000000E+03 0.  0.
</event>
<event>
 4    0  0.2222207E-002  0.2294403E+03  0.7546771E-02  0.1127034E+00
         21   -1    0    0  502  501  0.00000000000E+00  0.00000000000E+00  0.12657976622E+03  0.12657976622E+03  0.00000000000E+00 0. -1.
         21   -1    0    0  501  502 -0.00000000000E+00 -0.00000000000E+00 -0.41588690923E+03  0.41588690923E+03  0.00000000000E+00 0. -1.
         25    1    1    2    0    0  0.23575977439E+02 -0.18971454687E+03 -0.11901335990E+03  0.25755895605E+03  0.12500000000E+03 0.  0.
         25    1    1    2    0    0 -0.23575977439E+02  0.18971454687E+03 -0.17029378311E+03  0.28490771940E+03  0.12500000000E+03 0.  0.
</event>
<event>
 4    0  0.2222207E-002  0.2576398E+03  0.7546771E-02  0.1108570E+00
         21   -1    0    0  502  501  0.00000000000E+00  0.00000000000E+00  0.10905293651E+04  0.10905293651E+04  0.00000000000E+00 0.  1.
         21   -1    0    0  501  502 -0.00000000000E+00 -0.00000000000E+00 -0.60867920032E+02  0.60867920032E+02  0.00000000000E+00 0.  1.
         25    1    1    2    0    0 -0.15082591531E+03  0.15220868105E+03  0.67024269450E+03  0.71467909501E+03  0.12500000000E+03 0.  0.
         25    1    1    2    0    0  0.15082591531E+03 -0.15220868105E+03  0.35941875054E+03  0.43671819009E+03  0.12500000000E+03 0.  0.
</event>
<event>
 4    0  0.2222207E-002  0.2087535E+03  0.7546771E-02  0.1142557E+00
         21   -1    0    0  502  501  0.00000000000E+00  0.00000000000E+00  0.46236925744E+03  0.46236925744E+03  0.00000000000E+00 0.  1.
         21   -1    0    0  501  502 -0.00000000000E+00 -0.00000000000E+00 -0.94249426703E+02  0.94249426703E+02  0.00000000000E+00 0.  1.
         25    1    1    2    0    0  0.53388041245E+02  0.28320564590E+02 -0.23767742726E+02  0.14086249650E+03  0.12500000000E+03 0.  0.
         25    1    1    2    0    0 -0.53388041245E+02 -0.28320564590E+02  0.39188757347E+03  0.41575618764E+03  0.12500000000E+03 0.  0.
</event>
<event>
 4    0  0.2222207E-002  0.6242322E+03  0.7546771E-02  0.9856369E-01
         21   -1    0    0  502  501  0.00000000000E+00  0.00000000000E+00  0.17149503713E+03  0.17149503713E+03  0.00000000000E+00 0.  1.
         21   -1    0    0  501  502 -0.00000000000E+00 -0.00000000000E+00 -0.22721695742E+04  0.22721695742E+04  0.00000000000E+00 0.  1.
         25    1    1    2    0    0 -0.17402087327E+03  0.59120643431E+02 -0.21920908069E+04  0.22033305745E+04  0.12500000000E+03 0.  0.
         25    1    1    2    0    0  0.17402087327E+03 -0.59120643431E+02  0.91416269916E+02  0.24033403674E+03  0.12500000000E+03 0.  0.
</event>
<event>
 4    0  0.2222207E-002  0.1684264E+03  0.7546771E-02  0.1179499E+00
         21   -1    0    0  502  501  0.00000000000E+00  0.00000000000E+00  0.10356620876E+03  0.10356620876E+03  0.00000000000E+00 0.  1.
         21   -1    0    0  501  502 -0.00000000000E+00 -0.00000000000E+00 -0.27390644570E+03  0.27390644570E+03  0.00000000000E+00 0.  1.
         25    1    1    2    0    0 -0.18667705752E+02  0.77087866735E+02 -0.17517650339E+03  0.22935306794E+03  0.12500000000E+03 0.  0.
         25    1    1    2    0    0  0.18667705752E+02 -0.77087866735E+02  0.48362664527E+01  0.14811958651E+03  0.12500000000E+03 0.  0.
</event>
<event>
 4    0  0.2222207E-002  0.2465088E+03  0.7546771E-02  0.1115531E+00
         21   -1    0    0  502  501  0.00000000000E+00  0.00000000000E+00  0.98806948384E+02  0.98806948384E+02  0.00000000000E+00 0.  1.
         21   -1    0    0  501  502 -0.00000000000E+00 -0.00000000000E+00 -0.61500301015E+03  0.61500301015E+03  0.00000000000E+00 0.  1.
         25    1    1    2    0    0  0.66218967616E+02 -0.21305774335E+02 -0.54875933798E+03  0.56709849119E+03  0.12500000000E+03 0.  0.
         25    1    1    2    0    0 -0.66218967616E+02  0.21305774335E+02  0.32563276212E+02  0.14671146734E+03  0.12500000000E+03 0.  0.
</event>
<event>
 4    0  0.2222207E-002  0.3731419E+03  0.7546771E-02  0.1053498E+00
         21   -1    0    0  502  501  0.00000000000E+00  0.00000000000E+00  0.24083591177E+03  0.24083591177E+03  0.00000000000E+00 0. -1.
         21   -1    0    0  501  502 -0.00000000000E+00 -0.00000000000E+00 -0.57813182790E+03  0.57813182790E+03  0.00000000000E+00 0. -1.
         25    1    1    2    0    0 -0.50289451559E+02  0.17068095904E+03  0.16411576516E+03  0.27243348379E+03  0.12500000000E+03 0.  0.
         25    1    1    2    0    0  0.50289451559E+02 -0.17068095904E+03 -0.50141168129E+03  0.54653425588E+03  0.12500000000E+03 0.  0.
</event>
<event>
 4    0  0.2222207E-002  0.1811063E+03  0.7546771E-02  0.1166737E+00
         21   -1    0    0  502  501  0.00000000000E+00  0.00000000000E+00  0.90133888347E+03  0.90133888347E+03  0.00000000000E+00 0.  1.
         21   -1    0    0  501  502 -0.00000000000E+00 -0.00000000000E+00 -0.36389761232E+02  0.36389761232E+02  0.00000000000E+00 0.  1.
         25    1    1    2    0    0  0.75707744549E+02  0.20498987808E+02  0.16067030246E+03  0.21815548854E+03  0.12500000000E+03 0.  0.
         25    1    1    2    0    0 -0.75707744549E+02 -0.20498987808E+02  0.70427881978E+03  0.71957315616E+03  0.12500000000E+03 0.  0.
</event>
<event>
 4    0  0.2222207E-002  0.2318283E+03  0.7546771E-02  0.1125360E+00
         21   -1    0    0  502  501  0.00000000000E+00  0.00000000000E+00  0.22927228550E+03  0.22927228550E+03  0.00000000000E+00 0.  1.
         21   -1    0    0  501  502 -0.00000000000E+00 -0.00000000000E+00 -0.23441279036E+03  0.23441279036E+03  0.00000000000E+00 0.  1.
         25    1    1    2    0    0  0.33922290751E+02  0.63352004297E+02  0.17897645988E+03  0.22982987501E+03  0.12500000000E+03 0.  0.
         25    1    1    2    0    0 -0.33922290751E+02 -0.63352004297E+02 -0.18411696473E+03  0.23385520084E+03  0.12500000000E+03 0.  0.
</event>
<event>
 4    0  0.2222207E-002  0.2310021E+03  0.7546771E-02  0.1125936E+00
         21   -1    0    0  502  501  0.00000000000E+00  0.00000000000E+00  0.71194129056E+02  0.71194129056E+02  0.00000000000E+00 0.  1.
         21   -1    0    0  501  502 -0.00000000000E+00 -0.00000000000E+00 -0.74952752819E+03  0.74952752819E+03  0.00000000000E+00 0.  1.
         25    1    1    2    0    0 -0.61139788214E+02 -0.73640176635E+02 -0.63946357256E+03  0.65855873690E+03  0.12500000000E+03 0.  0.
         25    1    1    2    0    0  0.61139788214E+02  0.73640176635E+02 -0.38869826578E+02  0.16216292035E+03  0.12500000000E+03 0.  0.
</event>
<event>
 4    0  0.2222207E-002  0.1859989E+03  0.7546771E-02  0.1162120E+00
         21   -1    0    0  502  501  0.00000000000E+00  0.00000000000E+00  0.24989816036E+03  0.24989816036E+03  0.00000000000E+00 0. -1.
         21   -1    0    0  501  502 -0.00000000000E+00 -0.00000000000E+00 -0.13843875280E+03  0.13843875280E+03  0.00000000000E+00 0. -1.
         25    1    1    2    0    0 -0.76446826011E+02 -0.78895137025E+02  0.14245718324E+03  0.21906074251E+03  0.12500000000E+03 0.  0.
         25    1    1    2    0    0  0.76446826011E+02  0.78895137025E+02 -0.30997775677E+02  0.16927617065E+03  0.12500000000E+03 0.  0.
</event>
<event>
 4    0  0.2222207E-002  0.3726227E+03  0.7546771E-02  0.1053695E+00
         21   -1    0    0  502  501  0.00000000000E+00  0.00000000000E+00  0.10755924811E+04  0.10755924811E+04  0.00000000000E+00 0.  1.
         21   -1    0    0  501  502 -0.00000000000E+00 -0.00000000000E+00 -0.12908948056E+03  0.12908948056E+03  0.00000000000E+00 0.  1.
         25    1    1    2    0    0  0.33877055069E+03 -0.85163259325E+02  0.52935111858E+03  0.64641772369E+03  0.12500000000E+03 0.  0.
         25    1    1    2    0    0 -0.33877055069E+03  0.85163259325E+02  0.41715188193E+03  0.55826423793E+03  0.12500000000E+03 0.  0.
</event>
<event>
 4    0  0.2222207E-002  0.2970441E+03  0.7546771E-02  0.1086728E+00
         21   -1    0    0  502  501  0.00000000000E+00  0.00000000000E+00  0.33336366221E+03  0.33336366221E+03  0.00000000000E+00 0.  1.
         21   -1    0    0  501  502 -0.00000000000E+00 -0.00000000000E+00 -0.26468159046E+03  0.26468159046E+03  0.00000000000E+00 0.  1.
         25    1    1    2    0    0  0.24331406799E+03  0.11481584650E+03  0.49468100598E+02  0.30075988307E+03  0.12500000000E+03 0.  0.
         25    1    1    2    0    0 -0.24331406799E+03 -0.11481584650E+03  0.19213971146E+02  0.29728536960E+03  0.12500000000E+03 0.  0.
</event>
<event>
 4    0  0.2222207E-002  0.3346386E+03  0.7546771E-02  0.1069103E+00
         21   -1    0    0  502  501  0.00000000000E+00  0.00000000000E+00  0.32240673990E+03  0.32240673990E+03  0.00000000000E+00 0.  1.
         21   -1    0    0  501  502 -0.00000000000E+00 -0.00000000000E+00 -0.34733462009E+03  0.34733462009E+03  0.00000000000E+00 0.  1.
         25    1    1    2    0    0  0.81032330106E+02 -0.28578255665E+03 -0.10263809956E+03  0.33822697658E+03  0.12500000000E+03 0.  0.
         25    1    1    2    0    0 -0.81032330106E+02  0.28578255665E+03  0.77710219376E+02  0.33151438340E+03  0.12500000000E+03 0.  0.
</event>
<event>
 4    0  0.2222207E-002  0.1570847E+03  0.7546771E-02  0.1192028E+00
         21   -1    0    0  502  501  0.00000000000E+00  0.00000000000E+00  0.42283888344E+03  0.42283888344E+03  0.00000000000E+00 0.  1.
         21   -1    0    0  501  502 -0.00000000000E+00 -0.00000000000E+00 -0.58357002713E+02  0.58357002713E+02  0.00000000000E+00 0.  1.
         25    1    1    2    0    0 -0.60527836130E+02  0.49755350252E+02  0.99597458499E+02  0.17799962799E+03  0.12500000000E+03 0.  0.
         25    1    1    2    0    0  0.60527836130E+02 -0.49755350252E+02  0.26488442223E+03  0.30319625817E+03  0.12500000000E+03 0.  0.
</event>
<event>
 4    0  0.2222207E-002  0.2072628E+03  0.7546771E-02  0.1143752E+00
         21   -1    0    0  502  501  0.00000000000E+00  0.00000000000E+00  0.95326057218E+02  0.95326057218E+02  0.00000000000E+00 0. -1.
         21   -1    0    0  501  502 -0.00000000000E+00 -0.00000000000E+00 -0.45064122317E+03  0.45064122317E+03  0.00000000000E+00 0. -1.
         25    1    1    2    0    0  0.12657177239E+03 -0.39076626110E+02 -0.30794601377E+03  0.35777526979E+03  0.12500000000E+03 0.  0.
         25    1    1    2    0    0 -0.12657177239E+03  0.39076626110E+02 -0.47369152181E+02  0.18819201060E+03  0.12500000000E+03 0.  0.
</event>
<event>
 4    0  0.2222207E-002  0.2429112E+03  0.7546771E-02  0.1117869E+00
         21   -1    0    0  502  501  0.00000000000E+00  0.00000000000E+00  0.25283264437E+03  0.25283264437E+03  0.00000000000E+00 0. -1.
         21   -1    0    0  501  502 -0.00000000000E+00 -0.00000000000E+00 -0.23337905435E+03  0.23337905435E+03  0.00000000000E+00 0. -1.
         25    1    1    2    0    0 -0.36000716532E+01 -0.20062918473E+03 -0.46137407256E+02  0.24087069276E+03  0.12500000000E+03 0.  0.
         25    1    1    2    0    0  0.36000716532E+01  0.20062918473E+03  0.65590997272E+02  0.24534100596E+03  0.12500000000E+03 0.  0.
</event>
<event>
 4    0  0.2222207E-002  0.1840757E+03  0.7546771E-02  0.1163916E+00
         21   -1    0    0  502  501  0.00000000000E+00  0.00000000000E+00  0.98199435644E+02  0.98199435644E+02  0.00000000000E+00 0. -1.
         21   -1    0    0  501  502 -0.00000000000E+00 -0.00000000000E+00 -0.34505136530E+03  0.34505136530E+03  0.00000000000E+00 0. -1.
         25    1    1    2    0    0 -0.71237891235E+02 -0.11391592612E+03 -0.10609627632E+03  0.21197427962E+03  0.12500000000E+03 0.  0.
         25    1    1    2    0    0  0.71237891235E+02  0.11391592612E+03 -0.14075565334E+03  0.23127652133E+03  0.12500000000E+03 0.  0.
</event>
<event>
 4    0  0.2222207E-002  0.1991008E+03  0.7546771E-02  0.1150500E+00
         21   -1    0    0  502  501  0.00000000000E+00  0.00000000000E+00  0.13195649810E+03  0.13195649810E+03  0.00000000000E+00 0. -1.
         21   -1    0    0  501  502 -0.00000000000E+00 -0.00000000000E+00 -0.30041056506E+03  0.30041056506E+03  0.00000000000E+00 0. -1.
         25    1    1    2    0    0 -0.13777448868E+03 -0.69262604778E+02 -0.10094298578E+03  0.22269621580E+03  0.12500000000E+03 0.  0.
         25    1    1    2    0    0  0.13777448868E+03  0.69262604778E+02 -0.67511081181E+02  0.20967084736E+03  0.12500000000E+03 0.  0.
</event>
<event>
 4    0  0.2222207E-002  0.3237588E+03  0.7546771E-02  0.1073932E+00
         21   -1    0    0  502  501  0.00000000000E+00  0.00000000000E+00  0.42216416698E+03  0.42216416698E+03  0.00000000000E+00 0.  1.
         21   -1    0    0  501  502 -0.00000000000E+00 -0.00000000000E+00 -0.24829151317E+03  0.24829151317E+03  0.00000000000E+00 0.  1.
         25    1    1    2    0    0 -0.51877165923E+02 -0.95660113998E+02 -0.20103957402E+03  0.26054559692E+03  0.12500000000E+03 0.  0.
         25    1    1    2    0    0  0.51877165923E+02  0.95660113998E+02  0.37491222783E+03  0.40991008323E+03  0.12500000000E+03 0.  0.
</event>
<event>
 4    0  0.2222207E-002  0.2155731E+03  0.7546771E-02  0.1137227E+00
         21   -1    0    0  502  501  0.00000000000E+00  0.00000000000E+00  0.45968289047E+03  0.45968289047E+03  0.00000000000E+00 0. -1.
         21   -1    0    0  501  502 -0.00000000000E+00 -0.00000000000E+00 -0.10109528443E+03  0.10109528443E+03  0.00000000000E+00 0. -1.
         25    1    1    2    0    0  0.18863210501E+02  0.37433280729E+02  0.40113189408E+03  0.42224266443E+03  0.12500000000E+03 0.  0.
         25    1    1    2    0    0 -0.18863210501E+02 -0.37433280729E+02 -0.42544288037E+02  0.13853551047E+03  0.12500000000E+03 0.  0.
</event>
<event>
 4    0  0.2222207E-002  0.2746923E+03  0.7546771E-02  0.1098624E+00
         21   -1    0    0  502  501  0.00000000000E+00  0.00000000000E+00  0.38224762105E+03  0.38224762105E+03  0.00000000000E+00 0. -1.
         21   -1    0    0  501  502 -0.00000000000E+00 -0.00000000000E+00 -0.19740041321E+03  0.19740041321E+03  0.00000000000E+00 0. -1.
         25    1    1    2    0    0 -0.10093989558E+02  0.23819180908E+03  0.15015149458E+03  0.30823318748E+03  0.12500000000E+03 0.  0.
         25    1    1    2    0    0  0.10093989558E+02 -0.23819180908E+03  0.34695713251E+02  0.27141484678E+03  0.12500000000E+03 0.  0.
</event>
<event>
 4    0  0.2222207E-002  0.2672399E+03  0.7546771E-02  0.1102870E+00
         21   -1    0    0  502  501  0.00000000000E+00  0.00000000000E+00  0.65571180675E+03  0.65571180675E+03  0.00000000000E+00 0.  1.
         21   -1    0    0  501  502 -0.00000000000E+00 -0.00000000000E+00 -0.10891544337E+03  0.10891544337E+03  0.00000000000E+00 0.  1.
         25    1    1    2    0    0 -0.34724400649E+02 -0.10304102715E+03 -0.26581173059E+02  0.16779390942E+03  0.12500000000E+03 0.  0.
         25    1    1    2    0    0  0.34724400649E+02  0.10304102715E+03  0.57337753644E+03  0.59683334070E+03  0.12500000000E+03 0.  0.
</event>
<event>
 4    0  0.2222207E-002  0.2947418E+03  0.7546771E-02  0.1087899E+00
         21   -1    0    0  502  501  0.00000000000E+00  0.00000000000E+00  0.51313180951E+03  0.51313180951E+03  0.00000000000E+00 0. -1.
         21   -1    0    0  501  502 -0.00000000000E+00 -0.00000000000E+00 -0.16929904277E+03  0.16929904277E+03  0.00000000000E+00 0. -1.
         25    1    1    2    0    0  0.70008440425E+02 -0.24384441615E+03  0.75847128995E+02  0.29281234263E+03  0.12500000000E+03 0.  0.
         25    1    1    2    0    0 -0.70008440425E+02  0.24384441615E+03  0.26798563775E+03  0.38961850965E+03  0.12500000000E+03 0.  0.
</event>
<event>
 4    0  0.2222207E-002  0.1848203E+03  0.7546771E-02  0.1163218E+00
         21   -1    0    0  502  501  0.00000000000E+00  0.00000000000E+00  0.16944014717E+03  0.16944014717E+03  0.00000000000E+00 0. -1.
         21   -1    0    0  501  502 -0.00000000000E+00 -0.00000000000E+00 -0.20159661236E+03  0.20159661236E+03  0.00000000000E+00 0. -1.
         25    1    1    2    0    0 -0.12455193573E+03 -0.36408617923E+02  0.25245048324E+02  0.18193703476E+03  0.12500000000E+03 0.  0.
         25    1    1    2    0    0  0.12455193573E+03  0.36408617923E+02 -0.57401513520E+02  0.18909972477E+03  0.12500000000E+03 0.  0.
</event>
<event>
 4    0  0.2222207E-002  0.3989476E+03  0.7546771E-02  0.1044145E+00
         21   -1    0    0  502  501  0.00000000000E+00  0.00000000000E+00  0.18238879758E+03  0.18238879758E+03  0.00000000000E+00 0.  1.
         21   -1    0    0  501  502 -0.00000000000E+00 -0.00000000000E+00 -0.87263678056E+03  0.87263678056E+03  0.00000000000E+00 0.  1.
         25    1    1    2    0    0  0.16009177474E+00 -0.20987789272E+03  0.71934405660E+02  0.25465332160E+03  0.12500000000E+03 0.  0.
         25    1    1    2    0    0 -0.16009177474E+00  0.20987789272E+03 -0.76218238864E+03  0.80037225654E+03  0.12500000000E+03 0.  0.
</event>
<event>
 4    0  0.2222207E-002  0.1705326E+03  0.7546771E-02  0.1177294E+00
         21   -1    0    0  502  501  0.00000000000E+00  0.00000000000E+00  0.67493032990E+03  0.67493032990E+03  0.00000000000E+00 0. -1.
         21   -1    0    0  501  502 -0.00000000000E+00 -0.00000000000E+00 -0.43087973341E+02  0.43087973341E+02  0.00000000000E+00 0.  1.
         25    1    1    2    0    0 -0.10510302345E+03 -0.34393621720E+02  0.24218387464E+03  0.29412173651E+03  0.12500000000E+03 0.  0.
         25    1    1    2    0    0  0.10510302345E+03  0.34393621720E+02  0.38965848192E+03  0.42389656673E+03  0.12500000000E+03 0.  0.
</event>
<event>
 4    0  0.2222207E-002  0.2101440E+03  0.7546771E-02  0.1141452E+00
         21   -1    0    0  502  501  0.00000000000E+00  0.00000000000E+00  0.72989048331E+02  0.72989048331E+02  0.00000000000E+00 0. -1.
         21   -1    0    0  501  502 -0.00000000000E+00 -0.00000000000E+00 -0.60502932931E+03  0.60502932931E+03  0.00000000000E+00 0.  1.
         25    1    1    2    0    0 -0.13308440052E+03 -0.41008139202E+01 -0.43372738210E+03  0.47060887829E+03  0.12500000000E+03 0.  0.
         25    1    1    2    0    0  0.13308440052E+03  0.41008139202E+01 -0.98312898877E+02  0.20740949936E+03  0.12500000000E+03 0.  0.
</event>
<event>
 4    0  0.2222207E-002  0.1811337E+03  0.7546771E-02  0.1166710E+00
         21   -1    0    0  502  501  0.00000000000E+00  0.00000000000E+00  0.37400231831E+03  0.37400231831E+03  0.00000000000E+00 0. -1.
         21   -1    0    0  501  502 -0.00000000000E+00 -0.00000000000E+00 -0.87725169409E+02  0.87725169409E+02  0.00000000000E+00 0. -1.
         25    1    1    2    0    0  0.32083719907E+02  0.12010170809E+03  0.90116249837E+02  0.19798920136E+03  0.12500000000E+03 0.  0.
         25    1    1    2    0    0 -0.32083719907E+02 -0.12010170809E+03  0.19616089906E+03  0.26373828636E+03  0.12500000000E+03 0.  0.
</event>
<event>
 4    0  0.2222207E-002  0.2012157E+03  0.7546771E-02  0.1148717E+00
         21   -1    0    0  502  501  0.00000000000E+00  0.00000000000E+00  0.35707645008E+02  0.35707645008E+02  0.00000000000E+00 0.  1.
         21   -1    0    0  501  502 -0.00000000000E+00 -0.00000000000E+00 -0.11338676320E+04  0.11338676320E+04  0.00000000000E+00 0.  1.
         25    1    1    2    0    0  0.98199857019E+02  0.19504299551E+02 -0.19504974046E+03  0.25237478256E+03  0.12500000000E+03 0.  0.
         25    1    1    2    0    0 -0.98199857019E+02 -0.19504299551E+02 -0.90311024656E+03  0.91720049447E+03  0.12500000000E+03 0.  0.
</event>
<event>
 4    0  0.2222207E-002  0.1816249E+03  0.7546771E-02  0.1166240E+00
         21   -1    0    0  502  501  0.00000000000E+00  0.00000000000E+00  0.15433458469E+03  0.15433458469E+03  0.00000000000E+00 0.  1.
         21   -1    0    0  501  502 -0.00000000000E+00 -0.00000000000E+00 -0.21374084478E+03  0.21374084478E+03  0.00000000000E+00 0.  1.
         25    1    1    2    0    0 -0.28052730233E+02  0.11737671769E+03 -0.83305358469E+02  0.19268895214E+03  0.12500000000E+03 0.  0.
         25    1    1    2    0    0  0.28052730233E+02 -0.11737671769E+03  0.23899098379E+02  0.17538647733E+03  0.12500000000E+03 0.  0.
</event>
<event>
 4    0  0.2222207E-002  0.2724457E+03  0.7546771E-02  0.1099888E+00
         21   -1    0    0  502  501  0.00000000000E+00  0.00000000000E+00  0.21116782561E+03  0.21116782561E+03  0.00000000000E+00 0.  1.
         21   -1    0    0  501  502 -0.00000000000E+00 -0.00000000000E+00 -0.35150550819E+03  0.35150550819E+03  0.00000000000E+00 0.  1.
         25    1    1    2    0    0 -0.24125866713E+03 -0.34443632431E+01 -0.49932225854E+02  0.27628940494E+03  0.12500000000E+03 0.  0.
         25    1    1    2    0    0  0.24125866713E+03  0.34443632431E+01 -0.90405456729E+02  0.28638392886E+03  0.12500000000E+03 0.  0.
</event>
<event>
 4    0  0.2222207E-002  0.2292581E+03  0.7546771E-02  0.1127163E+00
         21   -1    0    0  502  501  0.00000000000E+00  0.00000000000E+00  0.29175344766E+03  0.29175344766E+03  0.00000000000E+00 0.  1.
         21   -1    0    0  501  502 -0.00000000000E+00 -0.00000000000E+00 -0.18014957841E+03  0.18014957841E+03  0.00000000000E+00 0.  1.
         25    1    1    2    0    0 -0.13226157995E+03 -0.91487075985E+02 -0.52490089607E+02  0.21034072385E+03  0.12500000000E+03 0.  0.
         25    1    1    2    0    0  0.13226157995E+03  0.91487075985E+02  0.16409395886E+03  0.26156230221E+03  0.12500000000E+03 0.  0.
</event>
<event>
 4    0  0.2222207E-002  0.2397400E+03  0.7546771E-02  0.1119966E+00
         21   -1    0    0  502  501  0.00000000000E+00  0.00000000000E+00  0.73403598951E+03  0.73403598951E+03  0.00000000000E+00 0.  1.
         21   -1    0    0  501  502 -0.00000000000E+00 -0.00000000000E+00 -0.78300331003E+02  0.78300331003E+02  0.00000000000E+00 0.  1.
         25    1    1    2    0    0 -0.43553224864E+02  0.14266333573E+03  0.90676105600E+02  0.21470180922E+03  0.12500000000E+03 0.  0.
         25    1    1    2    0    0  0.43553224864E+02 -0.14266333573E+03  0.56505955291E+03  0.59763451130E+03  0.12500000000E+03 0.  0.
</event>
<event>
 4    0  0.2222207E-002  0.2007841E+03  0.7546771E-02  0.1149079E+00
         21   -1    0    0  502  501  0.00000000000E+00  0.00000000000E+00  0.43843159942E+03  0.43843159942E+03  0.00000000000E+00 0.  1.
         21   -1    0    0  501  502 -0.00000000000E+00 -0.00000000000E+00 -0.91951092549E+02  0.91951092549E+02  0.00000000000E+00 0.  1.
         25    1    1    2    0    0  0.94647738518E+02  0.11267071357E+03  0.24601958653E+03  0.31273554493E+03  0.12500000000E+03 0.  0.
         25    1    1    2    0    0 -0.94647738518E+02 -0.11267071357E+03  0.10046092034E+03  0.21764714705E+03  0.12500000000E+03 0.  0.
</event>
<event>
 4    0  0.2222207E-002  0.3016209E+03  0.7546771E-02  0.1084433E+00
         21   -1    0    0  502  501  0.00000000000E+00  0.00000000000E+00  0.39095131030E+03  0.39095131030E+03  0.00000000000E+00 0.  1.
         21   -1    0    0  501  502 -0.00000000000E+00 -0.00000000000E+00 -0.23270209952E+03  0.23270209952E+03  0.00000000000E+00 0.  1.
         25    1    1    2    0    0  0.37595715512E+02  0.58885634359E+02 -0.19531803975E+03  0.24218813433E+03  0.12500000000E+03 0.  0.
         25    1    1    2    0    0 -0.37595715512E+02 -0.58885634359E+02  0.35356725053E+03  0.38146527549E+03  0.12500000000E+03 0.  0.
</event>
<event>
 4    0  0.2222207E-002  0.1856301E+03  0.7546771E-02  0.1162463E+00
         21   -1    0    0  502  501  0.00000000000E+00  0.00000000000E+00  0.32877692832E+03  0.32877692832E+03  0.00000000000E+00 0.  1.
         21   -1    0    0  501  502 -0.00000000000E+00 -0.00000000000E+00 -0.10480827538E+03  0.10480827538E+03  0.00000000000E+00 0.  1.
         25    1    1    2    0    0  0.83906523071E+02  0.10011829823E+03  0.16111234103E+03  0.24216970224E+03  0.12500000000E+03 0.  0.
         25    1    1    2    0    0 -0.83906523071E+02 -0.10011829823E+03  0.62856311913E+02  0.19141550146E+03  0.12500000000E+03 0.  0.
</event>
<event>
 4    0  0.2222207E-002  0.3345057E+03  0.7546771E-02  0.1069160E+00
         21   -1    0    0  502  501  0.00000000000E+00  0.00000000000E+00  0.88500978086E+03  0.88500978086E+03  0.00000000000E+00 0.  1.
         21   -1    0    0  501  502 -0.00000000000E+00 -0.00000000000E+00 -0.12643254435E+03  0.12643254435E+03  0.00000000000E+00 0.  1.
         25    1    1    2    0    0  0.60636797035E+02 -0.30015228205E+03  0.30368383252E+03  0.44901791023E+03  0.12500000000E+03 0.  0.
         25    1    1    2    0    0 -0.60636797035E+02  0.30015228205E+03  0.45489340398E+03  0.56242441498E+03  0.12500000000E+03 0.  0.
</event>
<event>
 4    0  0.2222207E-002  0.2573380E+03  0.7546771E-02  0.1108753E+00
         21   -1    0    0  502  501  0.00000000000E+00  0.00000000000E+00  0.19361518403E+03  0.19361518403E+03  0.00000000000E+00 0.  1.
         21   -1    0    0  501  502 -0.00000000000E+00 -0.00000000000E+00 -0.34203328520E+03  0.34203328520E+03  0.00000000000E+00 0.  1.
         25    1    1    2    0    0 -0.13952417237E+03  0.92118064759E+02  0.82405875053E+02  0.22442918877E+03  0.12500000000E+03 0.  0.
         25    1    1    2    0    0  0.13952417237E+03 -0.92118064759E+02 -0.23082397622E+03  0.31121928046E+03  0.12500000000E+03 0.  0.
</event>
<event>
 4    0  0.2222207E-002  0.3251966E+03  0.7546771E-02  0.1073282E+00
         21   -1    0    0  502  501  0.00000000000E+00  0.00000000000E+00  0.38837175847E+03  0.38837175847E+03  0.00000000000E+00 0.  1.
         21   -1    0    0  501  502 -0.00000000000E+00 -0.00000000000E+00 -0.27229797854E+03  0.27229797854E+03  0.00000000000E+00 0.  1.
         25    1    1    2    0    0 -0.81125702025E+02  0.28608045558E+03  0.16099730292E+02  0.32296688361E+03  0.12500000000E+03 0.  0.
         25    1    1    2    0    0  0.81125702025E+02 -0.28608045558E+03  0.99974049634E+02  0.33770285340E+03  0.12500000000E+03 0.  0.
</event>
<event>
 4    0  0.2222207E-002  0.1847798E+03  0.7546771E-02  0.1163256E+00
         21   -1    0    0  502  501  0.00000000000E+00  0.00000000000E+00  0.56842792673E+02  0.56842792673E+02  0.00000000000E+00 0.  1.
         21   -1    0    0  501  502 -0.00000000000E+00 -0.00000000000E+00 -0.60066692883E+03  0.60066692883E+03  0.00000000000E+00 0.  1.
         25    1    1    2    0    0  0.66400966503E+02  0.11712981058E+03 -0.23677154045E+03  0.29969024549E+03  0.12500000000E+03 0.  0.
         25    1    1    2    0    0 -0.66400966503E+02 -0.11712981058E+03 -0.30705259571E+03  0.35781947601E+03  0.12500000000E+03 0.  0.
</event>
<event>
 4    0  0.2222207E-002  0.2012439E+03  0.7546771E-02  0.1148694E+00
         21   -1    0    0  502  501  0.00000000000E+00  0.00000000000E+00  0.47244912803E+02  0.47244912803E+02  0.00000000000E+00 0.  1.
         21   -1    0    0  501  502 -0.00000000000E+00 -0.00000000000E+00 -0.85721626796E+03  0.85721626796E+03  0.00000000000E+00 0.  1.
         25    1    1    2    0    0 -0.11086715620E+02  0.88052582090E+02 -0.69796386966E+03  0.71460110260E+03  0.12500000000E+03 0.  0.
         25    1    1    2    0    0  0.11086715620E+02 -0.88052582090E+02 -0.11200748550E+03  0.18986007817E+03  0.12500000000E+03 0.  0.
</event>
<event>
 4    0  0.2222207E-002  0.1888190E+03  0.7546771E-02  0.1159531E+00
         21   -1    0    0  502  501  0.00000000000E+00  0.00000000000E+00  0.95320420332E+02  0.95320420332E+02  0.00000000000E+00 0. -1.
         21   -1    0    0  501  502 -0.00000000000E+00 -0.00000000000E+00 -0.37402905226E+03  0.37402905226E+03  0.00000000000E+00 0. -1.
         25    1    1    2    0    0 -0.12031883011E+03 -0.73142125875E+02 -0.15698425839E+03  0.24514373098E+03  0.12500000000E+03 0.  0.
         25    1    1    2    0    0  0.12031883011E+03  0.73142125875E+02 -0.12172437354E+03  0.22420574161E+03  0.12500000000E+03 0.  0.
</event>
<event>
 4    0  0.2222207E-002  0.3141833E+03  0.7546771E-02  0.1078358E+00
         21   -1    0    0  502  501  0.00000000000E+00  0.00000000000E+00  0.15733926730E+03  0.15733926730E+03  0.00000000000E+00 0. -1.
         21   -1    0    0  501  502 -0.00000000000E+00 -0.00000000000E+00 -0.62737788752E+03  0.62737788752E+03  0.00000000000E+00 0. -1.
         25    1    1    2    0    0 -0.14077484342E+03 -0.29548489596E+02 -0.54696331677E+03  0.57921027242E+03  0.12500000000E+03 0.  0.
         25    1    1    2    0    0  0.14077484342E+03  0.29548489596E+02  0.76924696546E+02  0.20550688240E+03  0.12500000000E+03 0.  0.
</event>
<event>
 4    0  0.2222207E-002  0.3863729E+03  0.7546771E-02  0.1048603E+00
         21   -1    0    0  502  501  0.00000000000E+00  0.00000000000E+00  0.17284549510E+04  0.17284549510E+04  0.00000000000E+00 0. -1.
         21   -1    0    0  501  502 -0.00000000000E+00 -0.00000000000E+00 -0.86368464291E+02  0.86368464291E+02  0.00000000000E+00 0. -1.
         25    1    1    2    0    0 -0.35462105206E+03 -0.29609600907E+02  0.62418327811E+03  0.72928909474E+03  0.12500000000E+03 0.  0.
         25    1    1    2    0    0  0.35462105206E+03  0.29609600907E+02  0.10179032086E+04  0.10855343206E+04  0.12500000000E+03 0.  0.
</event>
<event>
 4    0  0.2222207E-002  0.1609928E+03  0.7546771E-02  0.1187580E+00
         21   -1    0    0  502  501  0.00000000000E+00  0.00000000000E+00  0.13389408855E+03  0.13389408855E+03  0.00000000000E+00 0.  1.
         21   -1    0    0  501  502 -0.00000000000E+00 -0.00000000000E+00 -0.19357596146E+03  0.19357596146E+03  0.00000000000E+00 0.  1.
         25    1    1    2    0    0 -0.28077998801E+02  0.62884393691E+02  0.45932180850E+02  0.14992526880E+03  0.12500000000E+03 0.  0.
         25    1    1    2    0    0  0.28077998801E+02 -0.62884393691E+02 -0.10561405376E+03  0.17754478122E+03  0.12500000000E+03 0.  0.
</event>
<event>
 4    0  0.2222207E-002  0.3077783E+03  0.7546771E-02  0.1081416E+00
         21   -1    0    0  502  501  0.00000000000E+00  0.00000000000E+00  0.49655519481E+03  0.49655519481E+03  0.00000000000E+00 0.  1.
         21   -1    0    0  501  502 -0.00000000000E+00 -0.00000000000E+00 -0.19076925672E+03  0.19076925672E+03  0.00000000000E+00 0.  1.
         25    1    1    2    0    0  0.46572764919E+02 -0.23778582541E+03 -0.65541835344E+01  0.27272528031E+03  0.12500000000E+03 0.  0.
         25    1    1    2    0    0 -0.46572764919E+02  0.23778582541E+03  0.31234012163E+03  0.41459917122E+03  0.12500000000E+03 0.  0.
</event>
<event>
 4    0  0.2222207E-002  0.1912028E+03  0.7546771E-02  0.1157381E+00
         21   -1    0    0  502  501  0.00000000000E+00  0.00000000000E+00  0.17853103730E+03  0.17853103730E+03  0.00000000000E+00 0. -1.
         21   -1    0    0  501  502 -0.00000000000E+00 -0.00000000000E+00 -0.20477390277E+03  0.20477390277E+03  0.00000000000E+00 0. -1.
         25    1    1    2    0    0  0.77217387185E+02  0.12215346179E+03 -0.20173900545E+02  0.19213531527E+03  0.12500000000E+03 0.  0.
         25    1    1    2    0    0 -0.77217387185E+02 -0.12215346179E+03 -0.60689649199E+01  0.19116962480E+03  0.12500000000E+03 0.  0.
</event>
<event>
 4    0  0.2222207E-002  0.1924278E+03  0.7546771E-02  0.1156290E+00
         21   -1    0    0  502  501  0.00000000000E+00  0.00000000000E+00  0.41126912206E+02  0.41126912206E+02  0.00000000000E+00 0.  1.
         21   -1    0    0  501  502 -0.00000000000E+00 -0.00000000000E+00 -0.90034622696E+03  0.90034622696E+03  0.00000000000E+00 0.  1.
         25    1    1    2    0    0  0.11745819014E+03 -0.74606487552E+02 -0.31909456443E+03  0.36987686528E+03  0.12500000000E+03 0.  0.
         25    1    1    2    0    0 -0.11745819014E+03  0.74606487552E+02 -0.54012475032E+03  0.57159627389E+03  0.12500000000E+03 0.  0.
</event>
<event>
 4    0  0.2222207E-002  0.2035917E+03  0.7546771E-02  0.1146744E+00
         21   -1    0    0  502  501  0.00000000000E+00  0.00000000000E+00  0.37398674190E+02  0.37398674190E+02  0.00000000000E+00 0.  1.
         21   -1    0    0  501  502 -0.00000000000E+00 -0.00000000000E+00 -0.11083169169E+04  0.11083169169E+04  0.00000000000E+00 0.  1.
         25    1    1    2    0    0  0.27129971666E+02  0.53541878349E+02 -0.11601268526E+03  0.18079466597E+03  0.12500000000E+03 0.  0.
         25    1    1    2    0    0 -0.27129971666E+02 -0.53541878349E+02 -0.95490555741E+03  0.96492092509E+03  0.12500000000E+03 0.  0.
</event>
<event>
 4    0  0.2222207E-002  0.1967448E+03  0.7546771E-02  0.1152515E+00
         21   -1    0    0  502  501  0.00000000000E+00  0.00000000000E+00  0.96542563740E+02  0.96542563740E+02  0.00000000000E+00 0.  1.
         21   -1    0    0  501  502 -0.00000000000E+00 -0.00000000000E+00 -0.40094779955E+03  0.40094779955E+03  0.00000000000E+00 0.  1.
         25    1    1    2    0    0 -0.12436452914E+03 -0.20176989721E+02 -0.44849315546E+02  0.18305766339E+03  0.12500000000E+03 0.  0.
         25    1    1    2    0    0  0.12436452914E+03  0.20176989721E+02 -0.25955592027E+03  0.31443269990E+03  0.12500000000E+03 0.  0.
</event>
<event>
 4    0  0.2222207E-002  0.2467988E+03  0.7546771E-02  0.1115345E+00
         21   -1    0    0  502  501  0.00000000000E+00  0.00000000000E+00  0.87936212609E+02  0.87936212609E+02  0.00000000000E+00 0.  1.
         21   -1    0    0  501  502 -0.00000000000E+00 -0.00000000000E+00 -0.69265736430E+03  0.69265736430E+03  0.00000000000E+00 0.  1.
         25    1    1    2    0    0 -0.19237064067E+03  0.48669442334E+02 -0.42393067507E+03  0.48447641354E+03  0.12500000000E+03 0.  0.
         25    1    1    2    0    0  0.19237064067E+03 -0.48669442334E+02 -0.18079047662E+03  0.29611716338E+03  0.12500000000E+03 0.  0.
</event>
<event>
 4    0  0.2222207E-002  0.2671948E+03  0.7546771E-02  0.1102896E+00
         21   -1    0    0  502  501  0.00000000000E+00  0.00000000000E+00  0.86275141998E+02  0.86275141998E+02  0.00000000000E+00 0.  1.
         21   -1    0    0  501  502 -0.00000000000E+00 -0.00000000000E+00 -0.82750438850E+03  0.82750438850E+03  0.00000000000E+00 0.  1.
         25    1    1    2    0    0  0.19837045630E+03 -0.50832943286E+02 -0.16949924756E+03  0.29375129102E+03  0.12500000000E+03 0.  0.
         25    1    1    2    0    0 -0.19837045630E+03  0.50832943286E+02 -0.57172999895E+03  0.62002823948E+03  0.12500000000E+03 0.  0.
</event>
<event>
 4    0  0.2222207E-002  0.1763215E+03  0.7546771E-02  0.1171411E+00
         21   -1    0    0  502  501  0.00000000000E+00  0.00000000000E+00  0.97760347775E+02  0.97760347775E+02  0.00000000000E+00 0.  1.
         21   -1    0    0  501  502 -0.00000000000E+00 -0.00000000000E+00 -0.31801511995E+03  0.31801511995E+03  0.00000000000E+00 0.  1.
         25    1    1    2    0    0 -0.48004694235E+02  0.42899888720E+02 -0.23556727276E+03  0.27433882539E+03  0.12500000000E+03 0.  0.
         25    1    1    2    0    0  0.48004694235E+02 -0.42899888720E+02  0.15312500586E+02  0.14143664233E+03  0.12500000000E+03 0.  0.
</event>
<event>
 4    0  0.2222207E-002  0.1879687E+03  0.7546771E-02  0.1160306E+00
         21   -1    0    0  502  501  0.00000000000E+00  0.00000000000E+00  0.14703285945E+04  0.14703285945E+04  0.00000000000E+00 0.  1.
         21   -1    0    0  501  502 -0.00000000000E+00 -0.00000000000E+00 -0.24030155115E+02  0.24030155115E+02  0.00000000000E+00 0.  1.
         25    1    1    2    0    0  0.93854478764E+00  0.10906050519E+03  0.10744868440E+04  0.10872175737E+04  0.12500000000E+03 0.  0.
         25    1    1    2    0    0 -0.93854478764E+00 -0.10906050519E+03  0.37181159547E+03  0.40714117599E+03  0.12500000000E+03 0.  0.
</event>
<event>
 4    0  0.2222207E-002  0.4334847E+03  0.7546771E-02  0.1032765E+00
         21   -1    0    0  502  501  0.00000000000E+00  0.00000000000E+00  0.37889472141E+03  0.37889472141E+03  0.00000000000E+00 0. -1.
         21   -1    0    0  501  502 -0.00000000000E+00 -0.00000000000E+00 -0.49593983881E+03  0.49593983881E+03  0.00000000000E+00 0. -1.
         25    1    1    2    0    0  0.36567215545E+03  0.13215008924E+03 -0.20511337682E+03  0.45702983350E+03  0.12500000000E+03 0.  0.
         25    1    1    2    0    0 -0.36567215545E+03 -0.13215008924E+03  0.88068259413E+02  0.41780472672E+03  0.12500000000E+03 0.  0.
</event>
<event>
 4    0  0.2222207E-002  0.3034423E+03  0.7546771E-02  0.1083532E+00
         21   -1    0    0  502  501  0.00000000000E+00  0.00000000000E+00  0.27598667465E+03  0.27598667465E+03  0.00000000000E+00 0.  1.
         21   -1    0    0  501  502 -0.00000000000E+00 -0.00000000000E+00 -0.33362931237E+03  0.33362931237E+03  0.00000000000E+00 0.  1.
         25    1    1    2    0    0 -0.12213604388E+03 -0.11677153517E+03 -0.24866572132E+03  0.32559552454E+03  0.12500000000E+03 0.  0.
         25    1    1    2    0    0  0.12213604388E+03  0.11677153517E+03  0.19102308360E+03  0.28402046249E+03  0.12500000000E+03 0.  0.
</event>
<event>
 4    0  0.2222207E-002  0.2355338E+03  0.7546771E-02  0.1122804E+00
         21   -1    0    0  502  501  0.00000000000E+00  0.00000000000E+00  0.31454269923E+03  0.31454269923E+03  0.00000000000E+00 0. -1.
         21   -1    0    0  501  502 -0.00000000000E+00 -0.00000000000E+00 -0.17637092933E+03  0.17637092933E+03  0.00000000000E+00 0. -1.
         25    1    1    2    0    0 -0.68085525877E+01 -0.13464470811E+03  0.22251497002E+03  0.28864072079E+03  0.12500000000E+03 0.  0.
         25    1    1    2    0    0  0.68085525877E+01  0.13464470811E+03 -0.84343200126E+02  0.20227290777E+03  0.12500000000E+03 0.  0.
</event>
<event>
 4    0  0.2222207E-002  0.3345337E+03  0.7546771E-02  0.1069148E+00
         21   -1    0    0  502  501  0.00000000000E+00  0.00000000000E+00  0.39302628080E+03  0.39302628080E+03  0.00000000000E+00 0.  1.
         21   -1    0    0  501  502 -0.00000000000E+00 -0.00000000000E+00 -0.28474641540E+03  0.28474641540E+03  0.00000000000E+00 0.  1.
         25    1    1    2    0    0  0.25581752398E+03 -0.13810530378E+03 -0.55771262389E+02  0.32132711404E+03  0.12500000000E+03 0.  0.
         25    1    1    2    0    0 -0.25581752398E+03  0.13810530378E+03  0.16405112778E+03  0.35644558215E+03  0.12500000000E+03 0.  0.
</event>
<event>
 4    0  0.2222207E-002  0.2605669E+03  0.7546771E-02  0.1106803E+00
         21   -1    0    0  502  501  0.00000000000E+00  0.00000000000E+00  0.98830066350E+02  0.98830066350E+02  0.00000000000E+00 0.  1.
         21   -1    0    0  501  502 -0.00000000000E+00 -0.00000000000E+00 -0.68698833844E+03  0.68698833844E+03  0.00000000000E+00 0.  1.
         25    1    1    2    0    0 -0.16248102230E+03 -0.71706853704E+02 -0.76982436616E+02  0.23041972794E+03  0.12500000000E+03 0.  0.
         25    1    1    2    0    0  0.16248102230E+03  0.71706853704E+02 -0.51117583548E+03  0.55539867685E+03  0.12500000000E+03 0.  0.
</event>
<event>
 4    0  0.2222207E-002  0.1908511E+03  0.7546771E-02  0.1157696E+00
         21   -1    0    0  502  501  0.00000000000E+00  0.00000000000E+00  0.18226938958E+03  0.18226938958E+03  0.00000000000E+00 0.  1.
         21   -1    0    0  501  502 -0.00000000000E+00 -0.00000000000E+00 -0.19983695050E+03  0.19983695050E+03  0.00000000000E+00 0.  1.
         25    1    1    2    0    0 -0.10817034683E+03  0.36527323903E+02  0.79423565023E+02  0.18699778610E+03  0.12500000000E+03 0.  0.
         25    1    1    2    0    0  0.10817034683E+03 -0.36527323903E+02 -0.96991125949E+02  0.19510855398E+03  0.12500000000E+03 0.  0.
</event>
<event>
 4    0  0.2222207E-002  0.1939234E+03  0.7546771E-02  0.1154970E+00
         21   -1    0    0  502  501  0.00000000000E+00  0.00000000000E+00  0.14200664713E+03  0.14200664713E+03  0.00000000000E+00 0. -1.
         21   -1    0    0  501  502 -0.00000000000E+00 -0.00000000000E+00 -0.26482067726E+03  0.26482067726E+03  0.00000000000E+00 0. -1.
         25    1    1    2    0    0 -0.14041280004E+03  0.44927951883E+02 -0.77893077600E+02  0.20839051517E+03  0.12500000000E+03 0.  0.
         25    1    1    2    0    0  0.14041280004E+03 -0.44927951883E+02 -0.44920952534E+02  0.19843680922E+03  0.12500000000E+03 0.  0.
</event>
<event>
 4    0  0.2222207E-002  0.2136629E+03  0.7546771E-02  0.1138698E+00
         21   -1    0    0  502  501  0.00000000000E+00  0.00000000000E+00  0.52589113215E+03  0.52589113215E+03  0.00000000000E+00 0. -1.
         21   -1    0    0  501  502 -0.00000000000E+00 -0.00000000000E+00 -0.86808536786E+02  0.86808536786E+02  0.00000000000E+00 0. -1.
         25    1    1    2    0    0 -0.15049786383E+02 -0.14813564423E+03  0.92456363104E+02  0.21527620454E+03  0.12500000000E+03 0.  0.
         25    1    1    2    0    0  0.15049786383E+02  0.14813564423E+03  0.34662623226E+03  0.39742346440E+03  0.12500000000E+03 0.  0.
</event>
<event>
 4    0  0.2222207E-002  0.2505598E+03  0.7546771E-02  0.1112952E+00
         21   -1    0    0  502  501  0.00000000000E+00  0.00000000000E+00  0.13027348790E+03  0.13027348790E+03  0.00000000000E+00 0.  1.
         21   -1    0    0  501  502 -0.00000000000E+00 -0.00000000000E+00 -0.48191075003E+03  0.48191075003E+03  0.00000000000E+00 0.  1.
         25    1    1    2    0    0 -0.14697864235E+03 -0.81436167588E+02 -0.34385703308E+03  0.40261300264E+03  0.12500000000E+03 0.  0.
         25    1    1    2    0    0  0.14697864235E+03  0.81436167588E+02 -0.77802290428E+01  0.20957123529E+03  0.12500000000E+03 0.  0.
</event>
<event>
 4    0  0.2222207E-002  0.2081125E+03  0.7546771E-02  0.1143069E+00
         21   -1    0    0  502  501  0.00000000000E+00  0.00000000000E+00  0.60645862889E+03  0.60645862889E+03  0.00000000000E+00 0.  1.
         21   -1    0    0  501  502 -0.00000000000E+00 -0.00000000000E+00 -0.71415907301E+02  0.71415907301E+02  0.00000000000E+00 0.  1.
         25    1    1    2    0    0 -0.10534671883E+03  0.53733902035E+02  0.76891936192E+02  0.18847448965E+03  0.12500000000E+03 0.  0.
         25    1    1    2    0    0  0.10534671883E+03 -0.53733902035E+02  0.45815078540E+03  0.48940004654E+03  0.12500000000E+03 0.  0.
</event>
<event>
 4    0  0.2222207E-002  0.2841571E+03  0.7546771E-02  0.1093440E+00
         21   -1    0    0  502  501  0.00000000000E+00  0.00000000000E+00  0.63370172980E+03  0.63370172980E+03  0.00000000000E+00 0. -1.
         21   -1    0    0  501  502 -0.00000000000E+00 -0.00000000000E+00 -0.12741838780E+03  0.12741838780E+03  0.00000000000E+00 0. -1.
         25    1    1    2    0    0 -0.19923986993E+03 -0.15759968512E+03  0.22071980118E+03  0.35899361715E+03  0.12500000000E+03 0.  0.
         25    1    1    2    0    0  0.19923986993E+03  0.15759968512E+03  0.28556354082E+03  0.40212650045E+03  0.12500000000E+03 0.  0.
</event>
<event>
 4    0  0.2222207E-002  0.3416008E+03  0.7546771E-02  0.1066116E+00
         21   -1    0    0  502  501  0.00000000000E+00  0.00000000000E+00  0.75803273277E+03  0.75803273277E+03  0.00000000000E+00 0. -1.
         21   -1    0    0  501  502 -0.00000000000E+00 -0.00000000000E+00 -0.15393944536E+03  0.15393944536E+03  0.00000000000E+00 0. -1.
         25    1    1    2    0    0  0.22721059001E+02  0.32692888467E+02 -0.11897349748E+03  0.17710100107E+03  0.12500000000E+03 0.  0.
         25    1    1    2    0    0 -0.22721059001E+02 -0.32692888467E+02  0.72306678489E+03  0.73487117707E+03  0.12500000000E+03 0.  0.
</event>
<event>
 4    0  0.2222207E-002  0.2689755E+03  0.7546771E-02  0.1101867E+00
         21   -1    0    0  502  501  0.00000000000E+00  0.00000000000E+00  0.56683042037E+03  0.56683042037E+03  0.00000000000E+00 0.  1.
         21   -1    0    0  501  502 -0.00000000000E+00 -0.00000000000E+00 -0.12763569453E+03  0.12763569453E+03  0.00000000000E+00 0.  1.
         25    1    1    2    0    0 -0.82978819885E+02 -0.14745101728E+03  0.43598221553E+03  0.48407931097E+03  0.12500000000E+03 0.  0.
         25    1    1    2    0    0  0.82978819885E+02  0.14745101728E+03  0.32125103120E+01  0.21038680393E+03  0.12500000000E+03 0.  0.
</event>
<event>
 4    0  0.2222207E-002  0.1972873E+03  0.7546771E-02  0.1152048E+00
         21   -1    0    0  502  501  0.00000000000E+00  0.00000000000E+00  0.26079001019E+02  0.26079001019E+02  0.00000000000E+00 0. -1.
         21   -1    0    0  501  502 -0.00000000000E+00 -0.00000000000E+00 -0.14924750817E+04  0.14924750817E+04  0.00000000000E+00 0. -1.
         25    1    1    2    0    0  0.13653741924E+02 -0.22374007378E+02 -0.13118984873E+04  0.13181007784E+04  0.12500000000E+03 0.  0.
         25    1    1    2    0    0 -0.13653741924E+02  0.22374007378E+02 -0.15449759336E+03  0.20045330436E+03  0.12500000000E+03 0.  0.
</event>
<event>
 4    0  0.2222207E-002  0.1631782E+03  0.7546771E-02  0.1185155E+00
         21   -1    0    0  502  501  0.00000000000E+00  0.00000000000E+00  0.18792695488E+04  0.18792695488E+04  0.00000000000E+00 0.  1.
         21   -1    0    0  501  502 -0.00000000000E+00 -0.00000000000E+00 -0.14168870915E+02  0.14168870915E+02  0.00000000000E+00 0.  1.
         25    1    1    2    0    0  0.83533973750E+02  0.63397672592E+02  0.94544275234E+03  0.95941867171E+03  0.12500000000E+03 0.  0.
         25    1    1    2    0    0 -0.83533973750E+02 -0.63397672592E+02  0.91965792558E+03  0.93401974805E+03  0.12500000000E+03 0.  0.
</event>
<event>
 4    0  0.2222207E-002  0.2538200E+03  0.7546771E-02  0.1110914E+00
         21   -1    0    0  502  501  0.00000000000E+00  0.00000000000E+00  0.82628206157E+02  0.82628206157E+02  0.00000000000E+00 0.  1.
         21   -1    0    0  501  502 -0.00000000000E+00 -0.00000000000E+00 -0.77969278726E+03  0.77969278726E+03  0.00000000000E+00 0.  1.
         25    1    1    2    0    0 -0.11655735488E+03 -0.10054533131E+03 -0.61767957673E+03  0.64872801707E+03  0.12500000000E+03 0.  0.
         25    1    1    2    0    0  0.11655735488E+03  0.10054533131E+03 -0.79385004370E+02  0.21359297634E+03  0.12500000000E+03 0.  0.
</event>
<event>
 4    0  0.2222207E-002  0.2298771E+03  0.7546771E-02  0.1126726E+00
         21   -1    0    0  502  501  0.00000000000E+00  0.00000000000E+00  0.29179796751E+02  0.29179796751E+02  0.00000000000E+00 0. -1.
         21   -1    0    0  501  502 -0.00000000000E+00 -0.00000000000E+00 -0.18109613016E+04  0.18109613016E+04  0.00000000000E+00 0. -1.
         25    1    1    2    0    0 -0.38766253814E+02 -0.14497778953E+03 -0.13761136084E+04  0.13899046893E+04  0.12500000000E+03 0.  0.
         25    1    1    2    0    0  0.38766253814E+02  0.14497778953E+03 -0.40566789638E+03  0.45023640907E+03  0.12500000000E+03 0.  0.
</event>
<event>
 4    0  0.2222207E-002  0.2519126E+03  0.7546771E-02  0.1112102E+00
         21   -1    0    0  502  501  0.00000000000E+00  0.00000000000E+00  0.76135470290E+02  0.76135470290E+02  0.00000000000E+00 0.  1.
         21   -1    0    0  501  502 -0.00000000000E+00 -0.00000000000E+00 -0.83351343720E+03  0.83351343720E+03  0.00000000000E+00 0.  1.
         25    1    1    2    0    0 -0.16651794033E+02 -0.16844399715E+03 -0.62876191392E+03  0.66303635407E+03  0.12500000000E+03 0.  0.
         25    1    1    2    0    0  0.16651794033E+02  0.16844399715E+03 -0.12861605299E+03  0.24661255342E+03  0.12500000000E+03 0.  0.
</event>
<event>
 4    0  0.2222207E-002  0.3081119E+03  0.7546771E-02  0.1081254E+00
         21   -1    0    0  502  501  0.00000000000E+00  0.00000000000E+00  0.87384890005E+02  0.87384890005E+02  0.00000000000E+00 0.  1.
         21   -1    0    0  501  502 -0.00000000000E+00 -0.00000000000E+00 -0.10863773121E+04  0.10863773121E+04  0.00000000000E+00 0.  1.
         25    1    1    2    0    0  0.10465520661E+03 -0.21478095291E+03 -0.78345580882E+03  0.82855994012E+03  0.12500000000E+03 0.  0.
         25    1    1    2    0    0 -0.10465520661E+03  0.21478095291E+03 -0.21553661324E+03  0.34520226194E+03  0.12500000000E+03 0.  0.
</event>
<event>
 4    0  0.2222207E-002  0.1741057E+03  0.7546771E-02  0.1173633E+00
         21   -1    0    0  502  501  0.00000000000E+00  0.00000000000E+00  0.76989941629E+02  0.76989941629E+02  0.00000000000E+00 0.  1.
         21   -1    0    0  501  502 -0.00000000000E+00 -0.00000000000E+00 -0.39372415030E+03  0.39372415030E+03  0.00000000000E+00 0.  1.
         25    1    1    2    0    0 -0.96817595386E+02 -0.66446583039E+02 -0.11783538408E+03  0.20808405253E+03  0.12500000000E+03 0.  0.
         25    1    1    2    0    0  0.96817595386E+02  0.66446583039E+02 -0.19889882458E+03  0.26263003940E+03  0.12500000000E+03 0.  0.
</event>
<event>
 4    0  0.2222207E-002  0.1934573E+03  0.7546771E-02  0.1155380E+00
         21   -1    0    0  502  501  0.00000000000E+00  0.00000000000E+00  0.34091118956E+02  0.34091118956E+02  0.00000000000E+00 0. -1.
         21   -1    0    0  501  502 -0.00000000000E+00 -0.00000000000E+00 -0.10978141900E+04  0.10978141900E+04  0.00000000000E+00 0. -1.
         25    1    1    2    0    0  0.90800341158E+02 -0.60758406266E+02 -0.82241831448E+03  0.83900725258E+03  0.12500000000E+03 0.  0.
         25    1    1    2    0    0 -0.90800341158E+02  0.60758406266E+02 -0.24130475653E+03  0.29289805634E+03  0.12500000000E+03 0.  0.
</event>
<event>
 4    0  0.2222207E-002  0.2557000E+03  0.7546771E-02  0.1109755E+00
         21   -1    0    0  502  501  0.00000000000E+00  0.00000000000E+00  0.32835708554E+03  0.32835708554E+03  0.00000000000E+00 0. -1.
         21   -1    0    0  501  502 -0.00000000000E+00 -0.00000000000E+00 -0.19912004845E+03  0.19912004845E+03  0.00000000000E+00 0. -1.
         25    1    1    2    0    0 -0.16248302303E+03  0.14923298083E+03  0.30623871755E+02  0.25540954732E+03  0.12500000000E+03 0.  0.
         25    1    1    2    0    0  0.16248302303E+03 -0.14923298083E+03  0.98613165334E+02  0.27206758667E+03  0.12500000000E+03 0.  0.
</event>
<event>
 4    0  0.2222207E-002  0.2172009E+03  0.7546771E-02  0.1135987E+00
         21   -1    0    0  502  501  0.00000000000E+00  0.00000000000E+00  0.59788988037E+03  0.59788988037E+03  0.00000000000E+00 0. -1.
         21   -1    0    0  501  502 -0.00000000000E+00 -0.00000000000E+00 -0.78904569989E+02  0.78904569989E+02  0.00000000000E+00 0. -1.
         25    1    1    2    0    0  0.94251799560E+02 -0.58772592792E+02  0.43534423431E+02  0.17279428638E+03  0.12500000000E+03 0.  0.
         25    1    1    2    0    0 -0.94251799560E+02  0.58772592792E+02  0.47545088695E+03  0.50400016397E+03  0.12500000000E+03 0.  0.
</event>
<event>
 4    0  0.2222207E-002  0.1962052E+03  0.7546771E-02  0.1152981E+00
         21   -1    0    0  502  501  0.00000000000E+00  0.00000000000E+00  0.51389841247E+03  0.51389841247E+03  0.00000000000E+00 0.  1.
         21   -1    0    0  501  502 -0.00000000000E+00 -0.00000000000E+00 -0.74910708415E+02  0.74910708415E+02  0.00000000000E+00 0.  1.
         25    1    1    2    0    0 -0.40908941114E+02  0.11509891944E+03  0.85704134898E+02  0.19465739508E+03  0.12500000000E+03 0.  0.
         25    1    1    2    0    0  0.40908941114E+02 -0.11509891944E+03  0.35328356915E+03  0.39415172580E+03  0.12500000000E+03 0.  0.
</event>
<event>
 4    0  0.2222207E-002  0.2668132E+03  0.7546771E-02  0.1103117E+00
         21   -1    0    0  502  501  0.00000000000E+00  0.00000000000E+00  0.14413674881E+03  0.14413674881E+03  0.00000000000E+00 0. -1.
         21   -1    0    0  501  502 -0.00000000000E+00 -0.00000000000E+00 -0.49390093933E+03  0.49390093933E+03  0.00000000000E+00 0. -1.
         25    1    1    2    0    0  0.43496915959E+01  0.20992621991E+03 -0.46793425473E+02  0.24880225540E+03  0.12500000000E+03 0.  0.
         25    1    1    2    0    0 -0.43496915959E+01 -0.20992621991E+03 -0.30297076504E+03  0.38923543273E+03  0.12500000000E+03 0.  0.
</event>
<event>
 4    0  0.2222207E-002  0.1886823E+03  0.7546771E-02  0.1159655E+00
         21   -1    0    0  502  501  0.00000000000E+00  0.00000000000E+00  0.12337460771E+03  0.12337460771E+03  0.00000000000E+00 0.  1.
         21   -1    0    0  501  502 -0.00000000000E+00 -0.00000000000E+00 -0.28856013068E+03  0.28856013068E+03  0.00000000000E+00 0.  1.
         25    1    1    2    0    0  0.49887958131E+02 -0.82819335416E+02 -0.19512994595E+03  0.25109469626E+03  0.12500000000E+03 0.  0.
         25    1    1    2    0    0 -0.49887958131E+02  0.82819335416E+02  0.29944422971E+02  0.16084004213E+03  0.12500000000E+03 0.  0.
</event>
<event>
 4    0  0.2222207E-002  0.2710325E+03  0.7546771E-02  0.1100690E+00
         21   -1    0    0  502  501  0.00000000000E+00  0.00000000000E+00  0.13475824476E+03  0.13475824476E+03  0.00000000000E+00 0.  1.
         21   -1    0    0  501  502 -0.00000000000E+00 -0.00000000000E+00 -0.54511401057E+03  0.54511401057E+03  0.00000000000E+00 0.  1.
         25    1    1    2    0    0  0.41568807194E+02  0.12631625331E+03  0.46136832004E+02  0.18824815762E+03  0.12500000000E+03 0.  0.
         25    1    1    2    0    0 -0.41568807194E+02 -0.12631625331E+03 -0.45649259782E+03  0.49162409771E+03  0.12500000000E+03 0.  0.
</event>
<event>
 4    0  0.2222207E-002  0.2452742E+03  0.7546771E-02  0.1116328E+00
         21   -1    0    0  502  501  0.00000000000E+00  0.00000000000E+00  0.10966705250E+03  0.10966705250E+03  0.00000000000E+00 0. -1.
         21   -1    0    0  501  502 -0.00000000000E+00 -0.00000000000E+00 -0.54856437215E+03  0.54856437215E+03  0.00000000000E+00 0. -1.
         25    1    1    2    0    0 -0.19903046064E+03 -0.63962067701E+02 -0.18078708163E+03  0.30333684124E+03  0.12500000000E+03 0.  0.
         25    1    1    2    0    0  0.19903046064E+03  0.63962067701E+02 -0.25811023801E+03  0.35489458341E+03  0.12500000000E+03 0.  0.
</event>
<event>
 4    0  0.2222207E-002  0.2211283E+03  0.7546771E-02  0.1133045E+00
         21   -1    0    0  502  501  0.00000000000E+00  0.00000000000E+00  0.22339158812E+03  0.22339158812E+03  0.00000000000E+00 0. -1.
         21   -1    0    0  501  502 -0.00000000000E+00 -0.00000000000E+00 -0.21888799583E+03  0.21888799583E+03  0.00000000000E+00 0. -1.
         25    1    1    2    0    0  0.18420249428E+02  0.35976416237E+02 -0.17563133909E+03  0.21932846460E+03  0.12500000000E+03 0.  0.
         25    1    1    2    0    0 -0.18420249428E+02 -0.35976416237E+02  0.18013493138E+03  0.22295111935E+03  0.12500000000E+03 0.  0.
</event>
<event>
 4    0  0.2222207E-002  0.1848269E+03  0.7546771E-02  0.1163212E+00
         21   -1    0    0  502  501  0.00000000000E+00  0.00000000000E+00  0.50751143861E+02  0.50751143861E+02  0.00000000000E+00 0.  1.
         21   -1    0    0  501  502 -0.00000000000E+00 -0.00000000000E+00 -0.67310776837E+03  0.67310776837E+03  0.00000000000E+00 0.  1.
         25    1    1    2    0    0  0.71575003199E+02  0.11307810963E+03 -0.26217031171E+03  0.31979354637E+03  0.12500000000E+03 0.  0.
         25    1    1    2    0    0 -0.71575003199E+02 -0.11307810963E+03 -0.36018631281E+03  0.40406536587E+03  0.12500000000E+03 0.  0.
</event>
<event>
 4    0  0.2222207E-002  0.2136148E+03  0.7546771E-02  0.1138735E+00
         21   -1    0    0  502  501  0.00000000000E+00  0.00000000000E+00  0.15430838568E+03  0.15430838568E+03  0.00000000000E+00 0.  1.
         21   -1    0    0  501  502 -0.00000000000E+00 -0.00000000000E+00 -0.29571482175E+03  0.29571482175E+03  0.00000000000E+00 0.  1.
         25    1    1    2    0    0  0.29855489985E+02  0.22753915258E+02 -0.24883247382E+03  0.28098343540E+03  0.12500000000E+03 0.  0.
         25    1    1    2    0    0 -0.29855489985E+02 -0.22753915258E+02  0.10742603775E+03  0.16903977203E+03  0.12500000000E+03 0.  0.
</event>
<event>
 4    0  0.2222207E-002  0.1670260E+03  0.7546771E-02  0.1180985E+00
         21   -1    0    0  502  501  0.00000000000E+00  0.00000000000E+00  0.38057627865E+03  0.38057627865E+03  0.00000000000E+00 0. -1.
         21   -1    0    0  501  502 -0.00000000000E+00 -0.00000000000E+00 -0.73303802409E+02  0.73303802409E+02  0.00000000000E+00 0. -1.
         25    1    1    2    0    0 -0.32790708810E+02  0.71322074164E+02  0.25984727271E+03  0.29884389568E+03  0.12500000000E+03 0.  0.
         25    1    1    2    0    0  0.32790708810E+02 -0.71322074164E+02  0.47425203525E+02  0.15503618538E+03  0.12500000000E+03 0.  0.
</event>
<event>
 4    0  0.2222207E-002  0.1768197E+03  0.7546771E-02  0.1170917E+00
         21   -1    0    0  502  501  0.00000000000E+00  0.00000000000E+00  0.20891024061E+03  0.20891024061E+03  0.00000000000E+00 0.  1.
         21   -1    0    0  501  502 -0.00000000000E+00 -0.00000000000E+00 -0.14965848240E+03  0.14965848240E+03  0.00000000000E+00 0.  1.
         25    1    1    2    0    0  0.10087242987E+03 -0.59673830963E+02  0.73868683880E+02  0.18659527236E+03  0.12500000000E+03 0.  0.
         25    1    1    2    0    0 -0.10087242987E+03  0.59673830963E+02 -0.14616925671E+02  0.17197345064E+03  0.12500000000E+03 0.  0.
</event>
<event>
 4    0  0.2222207E-002  0.1766459E+03  0.7546771E-02  0.1171089E+00
         21   -1    0    0  502  501  0.00000000000E+00  0.00000000000E+00  0.52859143248E+03  0.52859143248E+03  0.00000000000E+00 0. -1.
         21   -1    0    0  501  502 -0.00000000000E+00 -0.00000000000E+00 -0.59031953044E+02  0.59031953044E+02  0.00000000000E+00 0. -1.
         25    1    1    2    0    0  0.48107531945E+02 -0.10651672667E+03  0.30763515521E+03  0.35202916984E+03  0.12500000000E+03 0.  0.
         25    1    1    2    0    0 -0.48107531945E+02  0.10651672667E+03  0.16192432422E+03  0.23559421569E+03  0.12500000000E+03 0.  0.
</event>
<event>
 4    0  0.2222207E-002  0.6026781E+03  0.7546771E-02  0.9899865E-01
         21   -1    0    0  502  501  0.00000000000E+00  0.00000000000E+00  0.20061974634E+04  0.20061974634E+04  0.00000000000E+00 0. -1.
         21   -1    0    0  501  502 -0.00000000000E+00 -0.00000000000E+00 -0.18104940530E+03  0.18104940530E+03  0.00000000000E+00 0. -1.
         25    1    1    2    0    0 -0.34179404047E+03  0.38066655278E+03  0.14443052885E+04  0.15373265615E+04  0.12500000000E+03 0.  0.
         25    1    1    2    0    0  0.34179404047E+03 -0.38066655278E+03  0.38084276969E+03  0.64992030721E+03  0.12500000000E+03 0.  0.
</event>
<event>
 4    0  0.2222207E-002  0.1900174E+03  0.7546771E-02  0.1158446E+00
         21   -1    0    0  502  501  0.00000000000E+00  0.00000000000E+00  0.23593511266E+03  0.23593511266E+03  0.00000000000E+00 0.  1.
         21   -1    0    0  501  502 -0.00000000000E+00 -0.00000000000E+00 -0.15303615775E+03  0.15303615775E+03  0.00000000000E+00 0.  1.
         25    1    1    2    0    0 -0.87790765060E+02  0.73809855787E+02 -0.46158204750E+02  0.17581437116E+03  0.12500000000E+03 0.  0.
         25    1    1    2    0    0  0.87790765060E+02 -0.73809855787E+02  0.12905715966E+03  0.21315689926E+03  0.12500000000E+03 0.  0.
</event>
<event>
 4    0  0.2222207E-002  0.3216627E+03  0.7546771E-02  0.1074887E+00
         21   -1    0    0  502  501  0.00000000000E+00  0.00000000000E+00  0.69012806485E+03  0.69012806485E+03  0.00000000000E+00 0.  1.
         21   -1    0    0  501  502 -0.00000000000E+00 -0.00000000000E+00 -0.14992421344E+03  0.14992421344E+03  0.00000000000E+00 0.  1.
         25    1    1    2    0    0  0.16957437932E+03 -0.15155756503E+03  0.51826083161E+03  0.57960715594E+03  0.12500000000E+03 0.  0.
         25    1    1    2    0    0 -0.16957437932E+03  0.15155756503E+03  0.21943019801E+02  0.26044512235E+03  0.12500000000E+03 0.  0.
</event>
<event>
 4    0  0.2222207E-002  0.2259379E+03  0.7546771E-02  0.1129532E+00
         21   -1    0    0  502  501  0.00000000000E+00  0.00000000000E+00  0.14253953333E+03  0.14253953333E+03  0.00000000000E+00 0.  1.
         21   -1    0    0  501  502 -0.00000000000E+00 -0.00000000000E+00 -0.35813186946E+03  0.35813186946E+03  0.00000000000E+00 0.  1.
         25    1    1    2    0    0  0.22701086702E+02 -0.18435277373E+03 -0.14143339554E+03  0.26482010855E+03  0.12500000000E+03 0.  0.
         25    1    1    2    0    0 -0.22701086702E+02  0.18435277373E+03 -0.74158940586E+02  0.23585129423E+03  0.12500000000E+03 0.  0.
</event>
<event>
 4    0  0.2222207E-002  0.2190521E+03  0.7546771E-02  0.1134592E+00
         21   -1    0    0  502  501  0.00000000000E+00  0.00000000000E+00  0.47726817405E+03  0.47726817405E+03  0.00000000000E+00 0.  1.
         21   -1    0    0  501  502 -0.00000000000E+00 -0.00000000000E+00 -0.10053847149E+03  0.10053847149E+03  0.00000000000E+00 0.  1.
         25    1    1    2    0    0 -0.33593881188E+01 -0.46874759129E+01 -0.48760590941E+02  0.13429762897E+03  0.12500000000E+03 0.  0.
         25    1    1    2    0    0  0.33593881188E+01  0.46874759129E+01  0.42549029349E+03  0.44350901657E+03  0.12500000000E+03 0.  0.
</event>
<event>
 4    0  0.2222207E-002  0.3647457E+03  0.7546771E-02  0.1056720E+00
         21   -1    0    0  502  501  0.00000000000E+00  0.00000000000E+00  0.16547167950E+03  0.16547167950E+03  0.00000000000E+00 0. -1.
         21   -1    0    0  501  502 -0.00000000000E+00 -0.00000000000E+00 -0.80400121308E+03  0.80400121308E+03  0.00000000000E+00 0. -1.
         25    1    1    2    0    0 -0.80161180424E+01 -0.34179915123E+03 -0.28885736813E+03  0.46470904559E+03  0.12500000000E+03 0.  0.
         25    1    1    2    0    0  0.80161180424E+01  0.34179915123E+03 -0.34967216546E+03  0.50476384699E+03  0.12500000000E+03 0.  0.
</event>
<event>
 4    0  0.2222207E-002  0.1885551E+03  0.7546771E-02  0.1159771E+00
         21   -1    0    0  502  501  0.00000000000E+00  0.00000000000E+00  0.14742756279E+03  0.14742756279E+03  0.00000000000E+00 0. -1.
         21   -1    0    0  501  502 -0.00000000000E+00 -0.00000000000E+00 -0.24115579293E+03  0.24115579293E+03  0.00000000000E+00 0. -1.
         25    1    1    2    0    0  0.75985659243E+02 -0.79966315627E+02 -0.13763259847E+03  0.21618548565E+03  0.12500000000E+03 0.  0.
         25    1    1    2    0    0 -0.75985659243E+02  0.79966315627E+02  0.43904368329E+02  0.17239787007E+03  0.12500000000E+03 0.  0.
</event>
<event>
 4    0  0.2222207E-002  0.2133815E+03  0.7546771E-02  0.1138916E+00
         21   -1    0    0  502  501  0.00000000000E+00  0.00000000000E+00  0.39320996133E+03  0.39320996133E+03  0.00000000000E+00 0. -1.
         21   -1    0    0  501  502 -0.00000000000E+00 -0.00000000000E+00 -0.11579478043E+03  0.11579478043E+03  0.00000000000E+00 0. -1.
         25    1    1    2    0    0 -0.10332649882E+03  0.59147571634E+02 -0.10890182744E+02  0.17296935182E+03  0.12500000000E+03 0.  0.
         25    1    1    2    0    0  0.10332649882E+03 -0.59147571634E+02  0.28830536364E+03  0.33603538994E+03  0.12500000000E+03 0.  0.
</event>
<event>
 4    0  0.2222207E-002  0.3654514E+03  0.7546771E-02  0.1056446E+00
         21   -1    0    0  502  501  0.00000000000E+00  0.00000000000E+00  0.26175576797E+03  0.26175576797E+03  0.00000000000E+00 0. -1.
         21   -1    0    0  501  502 -0.00000000000E+00 -0.00000000000E+00 -0.51022654600E+03  0.51022654600E+03  0.00000000000E+00 0. -1.
         25    1    1    2    0    0 -0.13878525303E+03  0.83079127159E+02 -0.44419060946E+03  0.48897217238E+03  0.12500000000E+03 0.  0.
         25    1    1    2    0    0  0.13878525303E+03 -0.83079127159E+02  0.19571983143E+03  0.28301014159E+03  0.12500000000E+03 0.  0.
</event>
<event>
 4    0  0.2222207E-002  0.3297840E+03  0.7546771E-02  0.1071232E+00
         21   -1    0    0  502  501  0.00000000000E+00  0.00000000000E+00  0.98776257795E+03  0.98776257795E+03  0.00000000000E+00 0.  1.
         21   -1    0    0  501  502 -0.00000000000E+00 -0.00000000000E+00 -0.11010486073E+03  0.11010486073E+03  0.00000000000E+00 0.  1.
         25    1    1    2    0    0 -0.15331016425E+03 -0.28892029857E+02  0.22479611128E+01  0.19992200774E+03  0.12500000000E+03 0.  0.
         25    1    1    2    0    0  0.15331016425E+03  0.28892029857E+02  0.87540975611E+03  0.89794543094E+03  0.12500000000E+03 0.  0.
</event>
<event>
 4    0  0.2222207E-002  0.5197999E+03  0.7546771E-02  0.1008736E+00
         21   -1    0    0  502  501  0.00000000000E+00  0.00000000000E+00  0.12283923192E+03  0.12283923192E+03  0.00000000000E+00 0. -1.
         21   -1    0    0  501  502 -0.00000000000E+00 -0.00000000000E+00 -0.21995575858E+04  0.21995575858E+04  0.00000000000E+00 0. -1.
         25    1    1    2    0    0  0.33684251450E+02 -0.48823002371E+03 -0.76417827958E+03  0.91602217650E+03  0.12500000000E+03 0.  0.
         25    1    1    2    0    0 -0.33684251450E+02  0.48823002371E+03 -0.13125400743E+04  0.14063746412E+04  0.12500000000E+03 0.  0.
</event>
<event>
 4    0  0.2222207E-002  0.2327454E+03  0.7546771E-02  0.1124722E+00
         21   -1    0    0  502  501  0.00000000000E+00  0.00000000000E+00  0.15845510740E+04  0.15845510740E+04  0.00000000000E+00 0. -1.
         21   -1    0    0  501  502 -0.00000000000E+00 -0.00000000000E+00 -0.34186609396E+02  0.34186609396E+02  0.00000000000E+00 0. -1.
         25    1    1    2    0    0 -0.10709324830E+03  0.15206785428E+03  0.55657495788E+03  0.59999523321E+03  0.12500000000E+03 0.  0.
         25    1    1    2    0    0  0.10709324830E+03 -0.15206785428E+03  0.99378950671E+03  0.10187424502E+04  0.12500000000E+03 0.  0.
</event>
<event>
 4    0  0.2222207E-002  0.2490522E+03  0.7546771E-02  0.1113905E+00
         21   -1    0    0  502  501  0.00000000000E+00  0.00000000000E+00  0.72594302311E+03  0.72594302311E+03  0.00000000000E+00 0.  1.
         21   -1    0    0  501  502 -0.00000000000E+00 -0.00000000000E+00 -0.85443340543E+02  0.85443340543E+02  0.00000000000E+00 0.  1.
         25    1    1    2    0    0  0.14679927901E+03 -0.13376246493E+03  0.45614331016E+03  0.51296602690E+03  0.12500000000E+03 0.  0.
         25    1    1    2    0    0 -0.14679927901E+03  0.13376246493E+03  0.18435637240E+03  0.29842033675E+03  0.12500000000E+03 0.  0.
</event>
<event>
 4    0  0.2222207E-002  0.1526020E+03  0.7546771E-02  0.1197312E+00
         21   -1    0    0  502  501  0.00000000000E+00  0.00000000000E+00  0.13195309097E+03  0.13195309097E+03  0.00000000000E+00 0. -1.
         21   -1    0    0  501  502 -0.00000000000E+00 -0.00000000000E+00 -0.17648214247E+03  0.17648214247E+03  0.00000000000E+00 0. -1.
         25    1    1    2    0    0 -0.70131961136E+02  0.51968873402E+02 -0.28899739158E+02  0.15517554801E+03  0.12500000000E+03 0.  0.
         25    1    1    2    0    0  0.70131961136E+02 -0.51968873402E+02 -0.15629312339E+02  0.15325968544E+03  0.12500000000E+03 0.  0.
</event>
<event>
 4    0  0.2222207E-002  0.1897786E+03  0.7546771E-02  0.1158661E+00
         21   -1    0    0  502  501  0.00000000000E+00  0.00000000000E+00  0.29471881164E+03  0.29471881164E+03  0.00000000000E+00 0. -1.
         21   -1    0    0  501  502 -0.00000000000E+00 -0.00000000000E+00 -0.12220437004E+03  0.12220437004E+03  0.00000000000E+00 0. -1.
         25    1    1    2    0    0  0.27343400011E+02  0.56498721405E+01  0.24008417147E+03  0.27211209449E+03  0.12500000000E+03 0.  0.
         25    1    1    2    0    0 -0.27343400011E+02 -0.56498721405E+01 -0.67569729862E+02  0.14481108719E+03  0.12500000000E+03 0.  0.
</event>
<event>
 4    0  0.2222207E-002  0.2233562E+03  0.7546771E-02  0.1131405E+00
         21   -1    0    0  502  501  0.00000000000E+00  0.00000000000E+00  0.10041089737E+04  0.10041089737E+04  0.00000000000E+00 0.  1.
         21   -1    0    0  501  502 -0.00000000000E+00 -0.00000000000E+00 -0.49683860461E+02  0.49683860461E+02  0.00000000000E+00 0.  1.
         25    1    1    2    0    0 -0.10858017623E+03  0.26613320223E+02  0.82523508255E+03  0.84210205139E+03  0.12500000000E+03 0.  0.
         25    1    1    2    0    0  0.10858017623E+03 -0.26613320223E+02  0.12919003071E+03  0.21169078279E+03  0.12500000000E+03 0.  0.
</event>
<event>
 4    0  0.2222207E-002  0.2103262E+03  0.7546771E-02  0.1141308E+00
         21   -1    0    0  502  501  0.00000000000E+00  0.00000000000E+00  0.84636232926E+02  0.84636232926E+02  0.00000000000E+00 0. -1.
         21   -1    0    0  501  502 -0.00000000000E+00 -0.00000000000E+00 -0.52267346565E+03  0.52267346565E+03  0.00000000000E+00 0. -1.
         25    1    1    2    0    0 -0.20011849778E+02  0.15520143765E+03 -0.31173451372E+03  0.37052849745E+03  0.12500000000E+03 0.  0.
         25    1    1    2    0    0  0.20011849778E+02 -0.15520143765E+03 -0.12630271900E+03  0.23678120112E+03  0.12500000000E+03 0.  0.
</event>
<event>
 4    0  0.2222207E-002  0.2171210E+03  0.7546771E-02  0.1136048E+00
         21   -1    0    0  502  501  0.00000000000E+00  0.00000000000E+00  0.92530749070E+03  0.92530749070E+03  0.00000000000E+00 0.  1.
         21   -1    0    0  501  502 -0.00000000000E+00 -0.00000000000E+00 -0.50946876812E+02  0.50946876812E+02  0.00000000000E+00 0.  1.
         25    1    1    2    0    0 -0.80524304191E+02 -0.15381413221E+03  0.35385872532E+03  0.41350205358E+03  0.12500000000E+03 0.  0.
         25    1    1    2    0    0  0.80524304191E+02  0.15381413221E+03  0.52050188857E+03  0.56275231394E+03  0.12500000000E+03 0.  0.
</event>
<event>
 4    0  0.2222207E-002  0.2025127E+03  0.7546771E-02  0.1147636E+00
         21   -1    0    0  502  501  0.00000000000E+00  0.00000000000E+00  0.10628641476E+04  0.10628641476E+04  0.00000000000E+00 0. -1.
         21   -1    0    0  501  502 -0.00000000000E+00 -0.00000000000E+00 -0.38585741895E+02  0.38585741895E+02  0.00000000000E+00 0. -1.
         25    1    1    2    0    0 -0.11304671550E+02  0.14062640411E+03  0.31077398462E+03  0.36346808753E+03  0.12500000000E+03 0.  0.
         25    1    1    2    0    0  0.11304671550E+02 -0.14062640411E+03  0.71350442104E+03  0.73798180192E+03  0.12500000000E+03 0.  0.
</event>
<event>
 4    0  0.2222207E-002  0.3152388E+03  0.7546771E-02  0.1077862E+00
         21   -1    0    0  502  501  0.00000000000E+00  0.00000000000E+00  0.15897528543E+03  0.15897528543E+03  0.00000000000E+00 0. -1.
         21   -1    0    0  501  502 -0.00000000000E+00 -0.00000000000E+00 -0.62510018628E+03  0.62510018628E+03  0.00000000000E+00 0. -1.
         25    1    1    2    0    0 -0.76876070480E+02 -0.25613231747E+03 -0.95493020122E+02  0.31025410739E+03  0.12500000000E+03 0.  0.
         25    1    1    2    0    0  0.76876070480E+02  0.25613231747E+03 -0.37063188073E+03  0.47382136431E+03  0.12500000000E+03 0.  0.
</event>
<event>
 4    0  0.2222207E-002  0.4507760E+03  0.7546771E-02  0.1027491E+00
         21   -1    0    0  502  501  0.00000000000E+00  0.00000000000E+00  0.75162748584E+03  0.75162748584E+03  0.00000000000E+00 0.  1.
         21   -1    0    0  501  502 -0.00000000000E+00 -0.00000000000E+00 -0.27034530122E+03  0.27034530122E+03  0.00000000000E+00 0.  1.
         25    1    1    2    0    0  0.21455765002E+03 -0.21111107647E+03 -0.11235486292E+03  0.34474844019E+03  0.12500000000E+03 0.  0.
         25    1    1    2    0    0 -0.21455765002E+03  0.21111107647E+03  0.59363704754E+03  0.67722434688E+03  0.12500000000E+03 0.  0.
</event>
<event>
 4    0  0.2222207E-002  0.1617869E+03  0.7546771E-02  0.1186694E+00
         21   -1    0    0  502  501  0.00000000000E+00  0.00000000000E+00  0.43186610288E+03  0.43186610288E+03  0.00000000000E+00 0. -1.
         21   -1    0    0  501  502 -0.00000000000E+00 -0.00000000000E+00 -0.60609074640E+02  0.60609074640E+02  0.00000000000E+00 0. -1.
         25    1    1    2    0    0 -0.40348462788E+02  0.73636550687E+02  0.27566617214E+03  0.31411332112E+03  0.12500000000E+03 0.  0.
         25    1    1    2    0    0  0.40348462788E+02 -0.73636550687E+02  0.95590856100E+02  0.17836185639E+03  0.12500000000E+03 0.  0.
</event>
<event>
 4    0  0.2222207E-002  0.2085610E+03  0.7546771E-02  0.1142711E+00
         21   -1    0    0  502  501  0.00000000000E+00  0.00000000000E+00  0.17285122836E+04  0.17285122836E+04  0.00000000000E+00 0. -1.
         21   -1    0    0  501  502 -0.00000000000E+00 -0.00000000000E+00 -0.25164814572E+02  0.25164814572E+02  0.00000000000E+00 0. -1.
         25    1    1    2    0    0  0.62191612126E+02 -0.98048002280E+02  0.34731526532E+03  0.38695490809E+03  0.12500000000E+03 0.  0.
         25    1    1    2    0    0 -0.62191612126E+02  0.98048002280E+02  0.13560322037E+04  0.13667221901E+04  0.12500000000E+03 0.  0.
</event>
<event>
 4    0  0.2222207E-002  0.1708405E+03  0.7546771E-02  0.1176974E+00
         21   -1    0    0  502  501  0.00000000000E+00  0.00000000000E+00  0.11404345903E+03  0.11404345903E+03  0.00000000000E+00 0. -1.
         21   -1    0    0  501  502 -0.00000000000E+00 -0.00000000000E+00 -0.25592413848E+03  0.25592413848E+03  0.00000000000E+00 0. -1.
         25    1    1    2    0    0 -0.90508032346E+02 -0.58214699998E+02 -0.22749415969E+02  0.16650282623E+03  0.12500000000E+03 0.  0.
         25    1    1    2    0    0  0.90508032346E+02  0.58214699998E+02 -0.11913126348E+03  0.20346477129E+03  0.12500000000E+03 0.  0.
</event>
<event>
 4    0  0.2222207E-002  0.2350462E+03  0.7546771E-02  0.1123138E+00
         21   -1    0    0  502  501  0.00000000000E+00  0.00000000000E+00  0.39308877489E+03  0.39308877489E+03  0.00000000000E+00 0.  1.
         21   -1    0    0  501  502 -0.00000000000E+00 -0.00000000000E+00 -0.14054513270E+03  0.14054513270E+03  0.00000000000E+00 0.  1.
         25    1    1    2    0    0 -0.11786474060E+03  0.76095339851E+02  0.28656430093E+03  0.34267578903E+03  0.12500000000E+03 0.  0.
         25    1    1    2    0    0  0.11786474060E+03 -0.76095339851E+02 -0.34020658738E+02  0.19095811856E+03  0.12500000000E+03 0.  0.
</event>
<event>
 4    0  0.2222207E-002  0.2631762E+03  0.7546771E-02  0.1105250E+00
         21   -1    0    0  502  501  0.00000000000E+00  0.00000000000E+00  0.67456732139E+02  0.67456732139E+02  0.00000000000E+00 0. -1.
         21   -1    0    0  501  502 -0.00000000000E+00 -0.00000000000E+00 -0.10267579284E+04  0.10267579284E+04  0.00000000000E+00 0. -1.
         25    1    1    2    0    0  0.12412973357E+03  0.98869729253E+02 -0.83031552404E+03  0.85453629741E+03  0.12500000000E+03 0.  0.
         25    1    1    2    0    0 -0.12412973357E+03 -0.98869729253E+02 -0.12898567222E+03  0.23967836314E+03  0.12500000000E+03 0.  0.
</event>
<event>
 4    0  0.2222207E-002  0.2447788E+03  0.7546771E-02  0.1116650E+00
         21   -1    0    0  502  501  0.00000000000E+00  0.00000000000E+00  0.19736345509E+03  0.19736345509E+03  0.00000000000E+00 0.  1.
         21   -1    0    0  501  502 -0.00000000000E+00 -0.00000000000E+00 -0.30358542861E+03  0.30358542861E+03  0.00000000000E+00 0.  1.
         25    1    1    2    0    0  0.14462841877E+03 -0.13258129057E+03  0.24795239659E+02  0.23395508551E+03  0.12500000000E+03 0.  0.
         25    1    1    2    0    0 -0.14462841877E+03  0.13258129057E+03 -0.13101721318E+03  0.26699379819E+03  0.12500000000E+03 0.  0.
</event>
<event>
 4    0  0.2222207E-002  0.1892059E+03  0.7546771E-02  0.1159179E+00
         21   -1    0    0  502  501  0.00000000000E+00  0.00000000000E+00  0.74563684096E+03  0.74563684096E+03  0.00000000000E+00 0. -1.
         21   -1    0    0  501  502 -0.00000000000E+00 -0.00000000000E+00 -0.48011150404E+02  0.48011150404E+02  0.00000000000E+00 0. -1.
         25    1    1    2    0    0  0.62831998282E+02  0.54028481287E+02  0.10687579388E+03  0.18415855157E+03  0.12500000000E+03 0.  0.
         25    1    1    2    0    0 -0.62831998282E+02 -0.54028481287E+02  0.59074989668E+03  0.60948943980E+03  0.12500000000E+03 0.  0.
</event>
<event>
 4    0  0.2222207E-002  0.1783061E+03  0.7546771E-02  0.1169453E+00
         21   -1    0    0  502  501  0.00000000000E+00  0.00000000000E+00  0.36243195848E+03  0.36243195848E+03  0.00000000000E+00 0. -1.
         21   -1    0    0  501  502 -0.00000000000E+00 -0.00000000000E+00 -0.87721503395E+02  0.87721503395E+02  0.00000000000E+00 0.  1.
         25    1    1    2    0    0 -0.11780261495E+03 -0.36896748097E+02  0.98875618883E+02  0.20159418176E+03  0.12500000000E+03 0.  0.
         25    1    1    2    0    0  0.11780261495E+03  0.36896748097E+02  0.17583483620E+03  0.24855928011E+03  0.12500000000E+03 0.  0.
</event>
<event>
 4    0  0.2222207E-002  0.1631951E+03  0.7546771E-02  0.1185136E+00
         21   -1    0    0  502  501  0.00000000000E+00  0.00000000000E+00  0.11115710415E+02  0.11115710415E+02  0.00000000000E+00 0. -1.
         21   -1    0    0  501  502 -0.00000000000E+00 -0.00000000000E+00 -0.23959455214E+04  0.23959455214E+04  0.00000000000E+00 0. -1.
         25    1    1    2    0    0 -0.95622170187E+02  0.33746609923E+02 -0.13910152506E+04  0.14002967045E+04  0.12500000000E+03 0.  0.
         25    1    1    2    0    0  0.95622170187E+02 -0.33746609923E+02 -0.99381456042E+03  0.10067645274E+04  0.12500000000E+03 0.  0.
</event>
<event>
 4    0  0.2222207E-002  0.3477293E+03  0.7546771E-02  0.1063551E+00
         21   -1    0    0  502  501  0.00000000000E+00  0.00000000000E+00  0.94528526113E+03  0.94528526113E+03  0.00000000000E+00 0.  1.
         21   -1    0    0  501  502 -0.00000000000E+00 -0.00000000000E+00 -0.12791444419E+03  0.12791444419E+03  0.00000000000E+00 0.  1.
         25    1    1    2    0    0 -0.20882147417E+02 -0.11194860934E+03  0.87756584257E+03  0.89370876871E+03  0.12500000000E+03 0.  0.
         25    1    1    2    0    0  0.20882147417E+02  0.11194860934E+03 -0.60195025634E+02  0.17949093661E+03  0.12500000000E+03 0.  0.
</event>
<event>
 4    0  0.2222207E-002  0.2246995E+03  0.7546771E-02  0.1130427E+00
         21   -1    0    0  502  501  0.00000000000E+00  0.00000000000E+00  0.50803618219E+03  0.50803618219E+03  0.00000000000E+00 0.  1.
         21   -1    0    0  501  502 -0.00000000000E+00 -0.00000000000E+00 -0.99382386321E+02  0.99382386321E+02  0.00000000000E+00 0.  1.
         25    1    1    2    0    0  0.17470699513E+03 -0.23793942956E+01  0.11531801603E+03  0.24382666073E+03  0.12500000000E+03 0.  0.
         25    1    1    2    0    0 -0.17470699513E+03  0.23793942956E+01  0.29333577985E+03  0.36359190778E+03  0.12500000000E+03 0.  0.
</event>
<event>
 4    0  0.2222207E-002  0.2022655E+03  0.7546771E-02  0.1147842E+00
         21   -1    0    0  502  501  0.00000000000E+00  0.00000000000E+00  0.10962872320E+03  0.10962872320E+03  0.00000000000E+00 0.  1.
         21   -1    0    0  501  502 -0.00000000000E+00 -0.00000000000E+00 -0.37318067894E+03  0.37318067894E+03  0.00000000000E+00 0.  1.
         25    1    1    2    0    0 -0.12080815737E+03 -0.75477818525E+02 -0.47426299832E+02  0.19536060476E+03  0.12500000000E+03 0.  0.
         25    1    1    2    0    0  0.12080815737E+03  0.75477818525E+02 -0.21612565591E+03  0.28744879738E+03  0.12500000000E+03 0.  0.
</event>
<event>
 4    0  0.2222207E-002  0.2946368E+03  0.7546771E-02  0.1087953E+00
         21   -1    0    0  502  501  0.00000000000E+00  0.00000000000E+00  0.22263156961E+02  0.22263156961E+02  0.00000000000E+00 0.  1.
         21   -1    0    0  501  502 -0.00000000000E+00 -0.00000000000E+00 -0.38993046784E+04  0.38993046784E+04  0.00000000000E+00 0.  1.
         25    1    1    2    0    0  0.24196011815E+03  0.81512494847E+01 -0.11922585882E+04  0.12229949643E+04  0.12500000000E+03 0.  0.
         25    1    1    2    0    0 -0.24196011815E+03 -0.81512494847E+01 -0.26847829333E+04  0.26985728711E+04  0.12500000000E+03 0.  0.
</event>
<event>
 4    0  0.2222207E-002  0.1778695E+03  0.7546771E-02  0.1169881E+00
         21   -1    0    0  502  501  0.00000000000E+00  0.00000000000E+00  0.20356850565E+03  0.20356850565E+03  0.00000000000E+00 0.  1.
         21   -1    0    0  501  502 -0.00000000000E+00 -0.00000000000E+00 -0.15541474407E+03  0.15541474407E+03  0.00000000000E+00 0.  1.
         25    1    1    2    0    0  0.95249831999E+02 -0.83235501864E+02  0.27553286375E+02  0.17995794747E+03  0.12500000000E+03 0.  0.
         25    1    1    2    0    0 -0.95249831999E+02  0.83235501864E+02  0.20600475211E+02  0.17902530225E+03  0.12500000000E+03 0.  0.
</event>
<event>
 4    0  0.2222207E-002  0.1954690E+03  0.7546771E-02  0.1153619E+00
         21   -1    0    0  502  501  0.00000000000E+00  0.00000000000E+00  0.23321722104E+03  0.23321722104E+03  0.00000000000E+00 0. -1.
         21   -1    0    0  501  502 -0.00000000000E+00 -0.00000000000E+00 -0.16383060769E+03  0.16383060769E+03  0.00000000000E+00 0. -1.
         25    1    1    2    0    0  0.16366497211E+01  0.21174723212E+01 -0.11790794038E+03  0.17185588356E+03  0.12500000000E+03 0.  0.
         25    1    1    2    0    0 -0.16366497211E+01 -0.21174723212E+01  0.18729455372E+03  0.22519194516E+03  0.12500000000E+03 0.  0.
</event>
<event>
 4    0  0.2222207E-002  0.1575058E+03  0.7546771E-02  0.1191542E+00
         21   -1    0    0  502  501  0.00000000000E+00  0.00000000000E+00  0.20903599946E+02  0.20903599946E+02  0.00000000000E+00 0.  1.
         21   -1    0    0  501  502 -0.00000000000E+00 -0.00000000000E+00 -0.11867850171E+04  0.11867850171E+04  0.00000000000E+00 0.  1.
         25    1    1    2    0    0  0.30392798957E+02 -0.82358499069E+02 -0.43562959325E+03  0.46163274051E+03  0.12500000000E+03 0.  0.
         25    1    1    2    0    0 -0.30392798957E+02  0.82358499069E+02 -0.73025182395E+03  0.74605587658E+03  0.12500000000E+03 0.  0.
</event>
<event>
 4    0  0.2222207E-002  0.4398565E+03  0.7546771E-02  0.1030791E+00
         21   -1    0    0  502  501  0.00000000000E+00  0.00000000000E+00  0.23289114761E+03  0.23289114761E+03  0.00000000000E+00 0. -1.
         21   -1    0    0  501  502 -0.00000000000E+00 -0.00000000000E+00 -0.83074734307E+03  0.83074734307E+03  0.00000000000E+00 0. -1.
         25    1    1    2    0    0 -0.11523226019E+01  0.33982407945E+03 -0.60087487487E+03  0.70153927051E+03  0.12500000000E+03 0.  0.
         25    1    1    2    0    0  0.11523226019E+01 -0.33982407945E+03  0.30186794017E+01  0.36209922017E+03  0.12500000000E+03 0.  0.
</event>
<event>
 4    0  0.2222207E-002  0.2159411E+03  0.7546771E-02  0.1136946E+00
         21   -1    0    0  502  501  0.00000000000E+00  0.00000000000E+00  0.87045897470E+02  0.87045897470E+02  0.00000000000E+00 0.  1.
         21   -1    0    0  501  502 -0.00000000000E+00 -0.00000000000E+00 -0.53570086747E+03  0.53570086747E+03  0.00000000000E+00 0.  1.
         25    1    1    2    0    0 -0.11462700231E+03 -0.93507725461E+02 -0.86605418657E+02  0.21215216926E+03  0.12500000000E+03 0.  0.
         25    1    1    2    0    0  0.11462700231E+03  0.93507725461E+02 -0.36204955134E+03  0.41059459569E+03  0.12500000000E+03 0.  0.
</event>
<event>
 4    0  0.2222207E-002  0.2580301E+03  0.7546771E-02  0.1108333E+00
         21   -1    0    0  502  501  0.00000000000E+00  0.00000000000E+00  0.13386624491E+03  0.13386624491E+03  0.00000000000E+00 0.  1.
         21   -1    0    0  501  502 -0.00000000000E+00 -0.00000000000E+00 -0.49735850706E+03  0.49735850706E+03  0.00000000000E+00 0.  1.
         25    1    1    2    0    0  0.16536728447E+03 -0.15357621158E+03 -0.18755121044E+03  0.31895524462E+03  0.12500000000E+03 0.  0.
         25    1    1    2    0    0 -0.16536728447E+03  0.15357621158E+03 -0.17594105171E+03  0.31226950734E+03  0.12500000000E+03 0.  0.
</event>
<event>
 4    0  0.2222207E-002  0.2450765E+03  0.7546771E-02  0.1116456E+00
         21   -1    0    0  502  501  0.00000000000E+00  0.00000000000E+00  0.61768259033E+03  0.61768259033E+03  0.00000000000E+00 0.  1.
         21   -1    0    0  501  502 -0.00000000000E+00 -0.00000000000E+00 -0.97238449802E+02  0.97238449802E+02  0.00000000000E+00 0.  1.
         25    1    1    2    0    0 -0.18632117258E+03  0.58125431643E+02  0.37638988201E+03  0.44202770098E+03  0.12500000000E+03 0.  0.
         25    1    1    2    0    0  0.18632117258E+03 -0.58125431643E+02  0.14405425852E+03  0.27289333915E+03  0.12500000000E+03 0.  0.
</event>
<event>
 4    0  0.2222207E-002  0.3364062E+03  0.7546771E-02  0.1068337E+00
         21   -1    0    0  502  501  0.00000000000E+00  0.00000000000E+00  0.25272060859E+03  0.25272060859E+03  0.00000000000E+00 0.  1.
         21   -1    0    0  501  502 -0.00000000000E+00 -0.00000000000E+00 -0.44780341854E+03  0.44780341854E+03  0.00000000000E+00 0.  1.
         25    1    1    2    0    0  0.27831669352E+03  0.11481614833E+03 -0.18403660909E+03  0.37434930652E+03  0.12500000000E+03 0.  0.
         25    1    1    2    0    0 -0.27831669352E+03 -0.11481614833E+03 -0.11046200855E+02  0.32617472061E+03  0.12500000000E+03 0.  0.
</event>
<event>
 4    0  0.2222207E-002  0.4219469E+03  0.7546771E-02  0.1036435E+00
         21   -1    0    0  502  501  0.00000000000E+00  0.00000000000E+00  0.67548759710E+03  0.67548759710E+03  0.00000000000E+00 0.  1.
         21   -1    0    0  501  502 -0.00000000000E+00 -0.00000000000E+00 -0.26357142467E+03  0.26357142467E+03  0.00000000000E+00 0.  1.
         25    1    1    2    0    0  0.85617818016E+02  0.17094017978E+03 -0.18882137666E+03  0.29636036865E+03  0.12500000000E+03 0.  0.
         25    1    1    2    0    0 -0.85617818016E+02 -0.17094017978E+03  0.60073754909E+03  0.64269865311E+03  0.12500000000E+03 0.  0.
</event>
<event>
 4    0  0.2222207E-002  0.1975339E+03  0.7546771E-02  0.1151836E+00
         21   -1    0    0  502  501  0.00000000000E+00  0.00000000000E+00  0.61001356262E+03  0.61001356262E+03  0.00000000000E+00 0.  1.
         21   -1    0    0  501  502 -0.00000000000E+00 -0.00000000000E+00 -0.63965228570E+02  0.63965228570E+02  0.00000000000E+00 0.  1.
         25    1    1    2    0    0  0.99206242327E+02 -0.85285252456E+02  0.13783969379E+03  0.22746479725E+03  0.12500000000E+03 0.  0.
         25    1    1    2    0    0 -0.99206242327E+02  0.85285252456E+02  0.40820864026E+03  0.44651399394E+03  0.12500000000E+03 0.  0.
</event>
<event>
 4    0  0.2222207E-002  0.1600785E+03  0.7546771E-02  0.1188608E+00
         21   -1    0    0  502  501  0.00000000000E+00  0.00000000000E+00  0.14246349446E+02  0.14246349446E+02  0.00000000000E+00 0. -1.
         21   -1    0    0  501  502 -0.00000000000E+00 -0.00000000000E+00 -0.17987146493E+04  0.17987146493E+04  0.00000000000E+00 0. -1.
         25    1    1    2    0    0  0.74947278093E+02  0.64883974910E+02 -0.81773265674E+03  0.83314988003E+03  0.12500000000E+03 0.  0.
         25    1    1    2    0    0 -0.74947278093E+02 -0.64883974910E+02 -0.96673564306E+03  0.97981111867E+03  0.12500000000E+03 0.  0.
</event>
<event>
 4    0  0.2222207E-002  0.2076169E+03  0.7546771E-02  0.1143467E+00
         21   -1    0    0  502  501  0.00000000000E+00  0.00000000000E+00  0.38494679033E+03  0.38494679033E+03  0.00000000000E+00 0.  1.
         21   -1    0    0  501  502 -0.00000000000E+00 -0.00000000000E+00 -0.11197596825E+03  0.11197596825E+03  0.00000000000E+00 0.  1.
         25    1    1    2    0    0  0.85829167500E+02 -0.13653339218E+03  0.18239644189E+03  0.27368133877E+03  0.12500000000E+03 0.  0.
         25    1    1    2    0    0 -0.85829167500E+02  0.13653339218E+03  0.90574380188E+02  0.22324141982E+03  0.12500000000E+03 0.  0.
</event>
<event>
 4    0  0.2222207E-002  0.2269585E+03  0.7546771E-02  0.1128799E+00
         21   -1    0    0  502  501  0.00000000000E+00  0.00000000000E+00  0.28708312328E+02  0.28708312328E+02  0.00000000000E+00 0.  1.
         21   -1    0    0  501  502 -0.00000000000E+00 -0.00000000000E+00 -0.17942600033E+04  0.17942600033E+04  0.00000000000E+00 0.  1.
         25    1    1    2    0    0  0.83907695211E+02  0.70884475272E+02 -0.26294370881E+03  0.31117439508E+03  0.12500000000E+03 0.  0.
         25    1    1    2    0    0 -0.83907695211E+02 -0.70884475272E+02 -0.15026079821E+04  0.15117939205E+04  0.12500000000E+03 0.  0.
</event>
<event>
 4    0  0.2222207E-002  0.2706473E+03  0.7546771E-02  0.1100910E+00
         21   -1    0    0  502  501  0.00000000000E+00  0.00000000000E+00  0.27044949616E+03  0.27044949616E+03  0.00000000000E+00 0.  1.
         21   -1    0    0  501  502 -0.00000000000E+00 -0.00000000000E+00 -0.27084527294E+03  0.27084527294E+03  0.00000000000E+00 0.  1.
         25    1    1    2    0    0 -0.17897758399E+03 -0.15992816072E+03  0.36719246008E+01  0.27064455507E+03  0.12500000000E+03 0.  0.
         25    1    1    2    0    0  0.17897758399E+03  0.15992816072E+03 -0.40677013853E+01  0.27065021403E+03  0.12500000000E+03 0.  0.
</event>
<event>
 4    0  0.2222207E-002  0.3133806E+03  0.7546771E-02  0.1078737E+00
         21   -1    0    0  502  501  0.00000000000E+00  0.00000000000E+00  0.14080377109E+04  0.14080377109E+04  0.00000000000E+00 0. -1.
         21   -1    0    0  501  502 -0.00000000000E+00 -0.00000000000E+00 -0.69747719490E+02  0.69747719490E+02  0.00000000000E+00 0. -1.
         25    1    1    2    0    0  0.13665826717E+03 -0.44481844213E+02  0.12558959770E+04  0.12702573839E+04  0.12500000000E+03 0.  0.
         25    1    1    2    0    0 -0.13665826717E+03  0.44481844213E+02  0.82394014423E+02  0.20752804645E+03  0.12500000000E+03 0.  0.
</event>
<event>
 4    0  0.2222207E-002  0.3844556E+03  0.7546771E-02  0.1049299E+00
         21   -1    0    0  502  501  0.00000000000E+00  0.00000000000E+00  0.95515769088E+03  0.95515769088E+03  0.00000000000E+00 0.  1.
         21   -1    0    0  501  502 -0.00000000000E+00 -0.00000000000E+00 -0.15474525085E+03  0.15474525085E+03  0.00000000000E+00 0. -1.
         25    1    1    2    0    0  0.24584382106E+03  0.22058167882E+03  0.61952706232E+03  0.71311586879E+03  0.12500000000E+03 0.  0.
         25    1    1    2    0    0 -0.24584382106E+03 -0.22058167882E+03  0.18088537771E+03  0.39678707294E+03  0.12500000000E+03 0.  0.
</event>
<event>
 4    0  0.2222207E-002  0.2260083E+03  0.7546771E-02  0.1129481E+00
         21   -1    0    0  502  501  0.00000000000E+00  0.00000000000E+00  0.50618914758E+02  0.50618914758E+02  0.00000000000E+00 0. -1.
         21   -1    0    0  501  502 -0.00000000000E+00 -0.00000000000E+00 -0.10091040123E+04  0.10091040123E+04  0.00000000000E+00 0. -1.
         25    1    1    2    0    0  0.50014339404E+02 -0.16033787475E+03 -0.67879616327E+03  0.71035125079E+03  0.12500000000E+03 0.  0.
         25    1    1    2    0    0 -0.50014339404E+02  0.16033787475E+03 -0.27968893428E+03  0.34937167628E+03  0.12500000000E+03 0.  0.
</event>
<event>
 4    0  0.2222207E-002  0.2262953E+03  0.7546771E-02  0.1129275E+00
         21   -1    0    0  502  501  0.00000000000E+00  0.00000000000E+00  0.46195926676E+03  0.46195926676E+03  0.00000000000E+00 0. -1.
         21   -1    0    0  501  502 -0.00000000000E+00 -0.00000000000E+00 -0.11085297102E+03  0.11085297102E+03  0.00000000000E+00 0. -1.
         25    1    1    2    0    0 -0.15765352270E+03 -0.71060285086E+02  0.80164936060E+02  0.22793774218E+03  0.12500000000E+03 0.  0.
         25    1    1    2    0    0  0.15765352270E+03  0.71060285086E+02  0.27094135967E+03  0.34487449560E+03  0.12500000000E+03 0.  0.
</event>
<event>
 4    0  0.2222207E-002  0.2764496E+03  0.7546771E-02  0.1097644E+00
         21   -1    0    0  502  501  0.00000000000E+00  0.00000000000E+00  0.10738988118E+04  0.10738988118E+04  0.00000000000E+00 0.  1.
         21   -1    0    0  501  502 -0.00000000000E+00 -0.00000000000E+00 -0.71165324592E+02  0.71165324592E+02  0.00000000000E+00 0.  1.
         25    1    1    2    0    0  0.21487198031E+03 -0.12094133376E+03  0.49803801211E+03  0.56961709563E+03  0.12500000000E+03 0.  0.
         25    1    1    2    0    0 -0.21487198031E+03  0.12094133376E+03  0.50469547510E+03  0.57544704076E+03  0.12500000000E+03 0.  0.
</event>
<event>
 4    0  0.2222207E-002  0.3098589E+03  0.7546771E-02  0.1080414E+00
         21   -1    0    0  502  501  0.00000000000E+00  0.00000000000E+00  0.65665425149E+03  0.65665425149E+03  0.00000000000E+00 0. -1.
         21   -1    0    0  501  502 -0.00000000000E+00 -0.00000000000E+00 -0.14621478148E+03  0.14621478148E+03  0.00000000000E+00 0. -1.
         25    1    1    2    0    0  0.23536376231E+03  0.13892834904E+03  0.15749129033E+03  0.33930177322E+03  0.12500000000E+03 0.  0.
         25    1    1    2    0    0 -0.23536376231E+03 -0.13892834904E+03  0.35294817968E+03  0.46356725975E+03  0.12500000000E+03 0.  0.
</event>
<event>
 4    0  0.2222207E-002  0.4569573E+03  0.7546771E-02  0.1025667E+00
         21   -1    0    0  502  501  0.00000000000E+00  0.00000000000E+00  0.21935043350E+03  0.21935043350E+03  0.00000000000E+00 0.  1.
         21   -1    0    0  501  502 -0.00000000000E+00 -0.00000000000E+00 -0.95194674300E+03  0.95194674300E+03  0.00000000000E+00 0. -1.
         25    1    1    2    0    0  0.15473014747E+03 -0.27712282298E+03 -0.75597684142E+03  0.82937594752E+03  0.12500000000E+03 0.  0.
         25    1    1    2    0    0 -0.15473014747E+03  0.27712282298E+03  0.23380531921E+02  0.34192122898E+03  0.12500000000E+03 0.  0.
</event>
<event>
 4    0  0.2222207E-002  0.2021163E+03  0.7546771E-02  0.1147966E+00
         21   -1    0    0  502  501  0.00000000000E+00  0.00000000000E+00  0.22676628030E+03  0.22676628030E+03  0.00000000000E+00 0. -1.
         21   -1    0    0  501  502 -0.00000000000E+00 -0.00000000000E+00 -0.18014586010E+03  0.18014586010E+03  0.00000000000E+00 0. -1.
         25    1    1    2    0    0 -0.13278610361E+03  0.69493234900E+02  0.76237701029E+02  0.20952003739E+03  0.12500000000E+03 0.  0.
         25    1    1    2    0    0  0.13278610361E+03 -0.69493234900E+02 -0.29617280829E+02  0.19739210301E+03  0.12500000000E+03 0.  0.
</event>
<event>
 4    0  0.2222207E-002  0.1817664E+03  0.7546771E-02  0.1166104E+00
         21   -1    0    0  502  501  0.00000000000E+00  0.00000000000E+00  0.59143182602E+03  0.59143182602E+03  0.00000000000E+00 0.  1.
         21   -1    0    0  501  502 -0.00000000000E+00 -0.00000000000E+00 -0.55862763156E+02  0.55862763156E+02  0.00000000000E+00 0.  1.
         25    1    1    2    0    0 -0.11619653390E+03 -0.42060767844E+02  0.18535227094E+03  0.25544315811E+03  0.12500000000E+03 0.  0.
         25    1    1    2    0    0  0.11619653390E+03  0.42060767844E+02  0.35021679193E+03  0.39185143107E+03  0.12500000000E+03 0.  0.
</event>
<event>
 4    0  0.2222207E-002  0.4943323E+03  0.7546771E-02  0.1015269E+00
         21   -1    0    0  502  501  0.00000000000E+00  0.00000000000E+00  0.12976222464E+03  0.12976222464E+03  0.00000000000E+00 0.  1.
         21   -1    0    0  501  502 -0.00000000000E+00 -0.00000000000E+00 -0.18831708737E+04  0.18831708737E+04  0.00000000000E+00 0.  1.
         25    1    1    2    0    0 -0.87557553826E+01 -0.11295885231E+03 -0.18227448816E+04  0.18305355142E+04  0.12500000000E+03 0.  0.
         25    1    1    2    0    0  0.87557553826E+01  0.11295885231E+03  0.69336232484E+02  0.18239758414E+03  0.12500000000E+03 0.  0.
</event>
<event>
 4    0  0.2222207E-002  0.2455240E+03  0.7546771E-02  0.1116167E+00
         21   -1    0    0  502  501  0.00000000000E+00  0.00000000000E+00  0.89345325194E+03  0.89345325194E+03  0.00000000000E+00 0. -1.
         21   -1    0    0  501  502 -0.00000000000E+00 -0.00000000000E+00 -0.67470808267E+02  0.67470808267E+02  0.00000000000E+00 0. -1.
         25    1    1    2    0    0  0.13147906295E+03  0.14813291438E+03  0.26883232247E+03  0.35654722257E+03  0.12500000000E+03 0.  0.
         25    1    1    2    0    0 -0.13147906295E+03 -0.14813291438E+03  0.55715012120E+03  0.60437683764E+03  0.12500000000E+03 0.  0.
</event>
<event>
 4    0  0.2222207E-002  0.1886695E+03  0.7546771E-02  0.1159667E+00
         21   -1    0    0  502  501  0.00000000000E+00  0.00000000000E+00  0.52575516949E+02  0.52575516949E+02  0.00000000000E+00 0. -1.
         21   -1    0    0  501  502 -0.00000000000E+00 -0.00000000000E+00 -0.67704839105E+03  0.67704839105E+03  0.00000000000E+00 0. -1.
         25    1    1    2    0    0  0.14662241901E+02 -0.82027859811E+02 -0.91537654185E+02  0.17591956473E+03  0.12500000000E+03 0.  0.
         25    1    1    2    0    0 -0.14662241901E+02  0.82027859811E+02 -0.53293521992E+03  0.55370434327E+03  0.12500000000E+03 0.  0.
</event>
<event>
 4    0  0.2222207E-002  0.1297799E+03  0.7546771E-02  0.1227783E+00
         21   -1    0    0  502  501  0.00000000000E+00  0.00000000000E+00  0.29424100560E+02  0.29424100560E+02  0.00000000000E+00 0.  1.
         21   -1    0    0  501  502 -0.00000000000E+00 -0.00000000000E+00 -0.57241583959E+03  0.57241583959E+03  0.00000000000E+00 0.  1.
         25    1    1    2    0    0 -0.67202834915E+01 -0.87676018870E+01 -0.19474083083E+03  0.23167007628E+03  0.12500000000E+03 0.  0.
         25    1    1    2    0    0  0.67202834915E+01  0.87676018870E+01 -0.34825090820E+03  0.37016986387E+03  0.12500000000E+03 0.  0.
</event>
<event>
 4    0  0.2222207E-002  0.2245954E+03  0.7546771E-02  0.1130503E+00
         21   -1    0    0  502  501  0.00000000000E+00  0.00000000000E+00  0.12872603893E+03  0.12872603893E+03  0.00000000000E+00 0.  1.
         21   -1    0    0  501  502 -0.00000000000E+00 -0.00000000000E+00 -0.39186382237E+03  0.39186382237E+03  0.00000000000E+00 0.  1.
         25    1    1    2    0    0 -0.51430417289E+01 -0.59307301173E+02  0.73386108586E+02  0.15669820607E+03  0.12500000000E+03 0.  0.
         25    1    1    2    0    0  0.51430417289E+01  0.59307301173E+02 -0.33652389202E+03  0.36389165523E+03  0.12500000000E+03 0.  0.
</event>
<event>
 4    0  0.2222207E-002  0.2857336E+03  0.7546771E-02  0.1092598E+00
         21   -1    0    0  502  501  0.00000000000E+00  0.00000000000E+00  0.84809336951E+03  0.84809336951E+03  0.00000000000E+00 0.  1.
         21   -1    0    0  501  502 -0.00000000000E+00 -0.00000000000E+00 -0.96267349398E+02  0.96267349398E+02  0.00000000000E+00 0.  1.
         25    1    1    2    0    0  0.19002845779E+03 -0.12833824938E+03  0.56747116263E+03  0.62468395325E+03  0.12500000000E+03 0.  0.
         25    1    1    2    0    0 -0.19002845779E+03  0.12833824938E+03  0.18435485748E+03  0.31967676566E+03  0.12500000000E+03 0.  0.
</event>
<event>
 4    0  0.2222207E-002  0.2006265E+03  0.7546771E-02  0.1149212E+00
         21   -1    0    0  502  501  0.00000000000E+00  0.00000000000E+00  0.39125944967E+03  0.39125944967E+03  0.00000000000E+00 0. -1.
         21   -1    0    0  501  502 -0.00000000000E+00 -0.00000000000E+00 -0.10287542861E+03  0.10287542861E+03  0.00000000000E+00 0. -1.
         25    1    1    2    0    0 -0.18335670410E+02 -0.80452218355E+02  0.30857138587E+03  0.34300153997E+03  0.12500000000E+03 0.  0.
         25    1    1    2    0    0  0.18335670410E+02  0.80452218355E+02 -0.20187364807E+02  0.15113333830E+03  0.12500000000E+03 0.  0.
</event>
<event>
 4    0  0.2222207E-002  0.2331170E+03  0.7546771E-02  0.1124465E+00
         21   -1    0    0  502  501  0.00000000000E+00  0.00000000000E+00  0.18657128477E+03  0.18657128477E+03  0.00000000000E+00 0.  1.
         21   -1    0    0  501  502 -0.00000000000E+00 -0.00000000000E+00 -0.29127484209E+03  0.29127484209E+03  0.00000000000E+00 0.  1.
         25    1    1    2    0    0  0.10727232698E+03 -0.51727822533E+02 -0.21289085966E+03  0.27409968604E+03  0.12500000000E+03 0.  0.
         25    1    1    2    0    0 -0.10727232698E+03  0.51727822533E+02  0.10818730234E+03  0.20374644082E+03  0.12500000000E+03 0.  0.
</event>
<event>
 4    0  0.2222207E-002  0.2975914E+03  0.7546771E-02  0.1086451E+00
         21   -1    0    0  502  501  0.00000000000E+00  0.00000000000E+00  0.51279152364E+03  0.51279152364E+03  0.00000000000E+00 0. -1.
         21   -1    0    0  501  502 -0.00000000000E+00 -0.00000000000E+00 -0.17270298314E+03  0.17270298314E+03  0.00000000000E+00 0. -1.
         25    1    1    2    0    0 -0.22740298993E+03 -0.14411724641E+03  0.14551129895E+03  0.33057591967E+03  0.12500000000E+03 0.  0.
         25    1    1    2    0    0  0.22740298993E+03  0.14411724641E+03  0.19457724155E+03  0.35491858711E+03  0.12500000000E+03 0.  0.
</event>
<event>
 4    0  0.2222207E-002  0.2085529E+03  0.7546771E-02  0.1142717E+00
         21   -1    0    0  502  501  0.00000000000E+00  0.00000000000E+00  0.79625727823E+02  0.79625727823E+02  0.00000000000E+00 0.  1.
         21   -1    0    0  501  502 -0.00000000000E+00 -0.00000000000E+00 -0.54623463161E+03  0.54623463161E+03  0.00000000000E+00 0.  1.
         25    1    1    2    0    0 -0.16018503137E+03 -0.34640630565E+02 -0.28099320951E+03  0.34848443487E+03  0.12500000000E+03 0.  0.
         25    1    1    2    0    0  0.16018503137E+03  0.34640630565E+02 -0.18561569428E+03  0.27737592456E+03  0.12500000000E+03 0.  0.
</event>
<event>
 4    0  0.2222207E-002  0.1865302E+03  0.7546771E-02  0.1161629E+00
         21   -1    0    0  502  501  0.00000000000E+00  0.00000000000E+00  0.20912654730E+02  0.20912654730E+02  0.00000000000E+00 0. -1.
         21   -1    0    0  501  502 -0.00000000000E+00 -0.00000000000E+00 -0.16637533440E+04  0.16637533440E+04  0.00000000000E+00 0. -1.
         25    1    1    2    0    0  0.84895426360E+02  0.10498246540E+03 -0.68297236451E+03  0.70732227601E+03  0.12500000000E+03 0.  0.
         25    1    1    2    0    0 -0.84895426360E+02 -0.10498246540E+03 -0.95986832477E+03  0.97734372273E+03  0.12500000000E+03 0.  0.
</event>
<event>
 4    0  0.2222207E-002  0.1949876E+03  0.7546771E-02  0.1154038E+00
         21   -1    0    0  502  501  0.00000000000E+00  0.00000000000E+00  0.43838417809E+03  0.43838417809E+03  0.00000000000E+00 0.  1.
         21   -1    0    0  501  502 -0.00000000000E+00 -0.00000000000E+00 -0.86727912539E+02  0.86727912539E+02  0.00000000000E+00 0.  1.
         25    1    1    2    0    0  0.68529383355E+02  0.13223442450E+03  0.19547660205E+03  0.27571420231E+03  0.12500000000E+03 0.  0.
         25    1    1    2    0    0 -0.68529383355E+02 -0.13223442450E+03  0.15617966350E+03  0.24939788832E+03  0.12500000000E+03 0.  0.
</event>
<event>
 4    0  0.2222207E-002  0.2242424E+03  0.7546771E-02  0.1130759E+00
         21   -1    0    0  502  501  0.00000000000E+00  0.00000000000E+00  0.10872878299E+03  0.10872878299E+03  0.00000000000E+00 0. -1.
         21   -1    0    0  501  502 -0.00000000000E+00 -0.00000000000E+00 -0.46247765648E+03  0.46247765648E+03  0.00000000000E+00 0. -1.
         25    1    1    2    0    0 -0.61711234264E+02 -0.77022064353E+02 -0.37792736192E+03  0.41011555167E+03  0.12500000000E+03 0.  0.
         25    1    1    2    0    0  0.61711234264E+02  0.77022064353E+02  0.24178488433E+02  0.16109088781E+03  0.12500000000E+03 0.  0.
</event>
<event>
 4    0  0.2222207E-002  0.3112208E+03  0.7546771E-02  0.1079762E+00
         21   -1    0    0  502  501  0.00000000000E+00  0.00000000000E+00  0.38211828439E+03  0.38211828439E+03  0.00000000000E+00 0. -1.
         21   -1    0    0  501  502 -0.00000000000E+00 -0.00000000000E+00 -0.25347754170E+03  0.25347754170E+03  0.00000000000E+00 0. -1.
         25    1    1    2    0    0  0.87717214248E+02  0.68525074836E+02 -0.20360483145E+03  0.26357147597E+03  0.12500000000E+03 0.  0.
         25    1    1    2    0    0 -0.87717214248E+02 -0.68525074836E+02  0.33224557413E+03  0.37202435013E+03  0.12500000000E+03 0.  0.
</event>
<event>
 4    0  0.2222207E-002  0.2563416E+03  0.7546771E-02  0.1109361E+00
         21   -1    0    0  502  501  0.00000000000E+00  0.00000000000E+00  0.16057430637E+03  0.16057430637E+03  0.00000000000E+00 0.  1.
         21   -1    0    0  501  502 -0.00000000000E+00 -0.00000000000E+00 -0.40922504313E+03  0.40922504313E+03  0.00000000000E+00 0.  1.
         25    1    1    2    0    0 -0.14495193628E+03 -0.11494101924E+02  0.64753705188E+02  0.20238878562E+03  0.12500000000E+03 0.  0.
         25    1    1    2    0    0  0.14495193628E+03  0.11494101924E+02 -0.31340444195E+03  0.36741056387E+03  0.12500000000E+03 0.  0.
</event>
<event>
 4    0  0.2222207E-002  0.4482824E+03  0.7546771E-02  0.1028235E+00
         21   -1    0    0  502  501  0.00000000000E+00  0.00000000000E+00  0.86117196430E+03  0.86117196430E+03  0.00000000000E+00 0.  1.
         21   -1    0    0  501  502 -0.00000000000E+00 -0.00000000000E+00 -0.23335302538E+03  0.23335302538E+03  0.00000000000E+00 0.  1.
         25    1    1    2    0    0 -0.34373927692E+03  0.25847522891E+03  0.33726308793E+03  0.56065811770E+03  0.12500000000E+03 0.  0.
         25    1    1    2    0    0  0.34373927692E+03 -0.25847522891E+03  0.29055585099E+03  0.53386687198E+03  0.12500000000E+03 0.  0.
</event>
<event>
 4    0  0.2222207E-002  0.2257299E+03  0.7546771E-02  0.1129682E+00
         21   -1    0    0  502  501  0.00000000000E+00  0.00000000000E+00  0.89789030108E+03  0.89789030108E+03  0.00000000000E+00 0. -1.
         21   -1    0    0  501  502 -0.00000000000E+00 -0.00000000000E+00 -0.56748570291E+02  0.56748570291E+02  0.00000000000E+00 0. -1.
         25    1    1    2    0    0  0.52353188074E+02  0.22335003508E+02  0.41779546600E+02  0.14356266645E+03  0.12500000000E+03 0.  0.
         25    1    1    2    0    0 -0.52353188074E+02 -0.22335003508E+02  0.79936218419E+03  0.81107620492E+03  0.12500000000E+03 0.  0.
</event>
<event>
 4    0  0.2222207E-002  0.2964886E+03  0.7546771E-02  0.1087009E+00
         21   -1    0    0  502  501  0.00000000000E+00  0.00000000000E+00  0.80323549671E+03  0.80323549671E+03  0.00000000000E+00 0. -1.
         21   -1    0    0  501  502 -0.00000000000E+00 -0.00000000000E+00 -0.10943921844E+03  0.10943921844E+03  0.00000000000E+00 0. -1.
         25    1    1    2    0    0  0.18838043087E+02 -0.22535572846E+03  0.12311128548E+03  0.28621926006E+03  0.12500000000E+03 0.  0.
         25    1    1    2    0    0 -0.18838043087E+02  0.22535572846E+03  0.57068499279E+03  0.62645545509E+03  0.12500000000E+03 0.  0.
</event>
<event>
 4    0  0.2222207E-002  0.2555042E+03  0.7546771E-02  0.1109875E+00
         21   -1    0    0  502  501  0.00000000000E+00  0.00000000000E+00  0.60151193496E+02  0.60151193496E+02  0.00000000000E+00 0.  1.
         21   -1    0    0  501  502 -0.00000000000E+00 -0.00000000000E+00 -0.10853047674E+04  0.10853047674E+04  0.00000000000E+00 0.  1.
         25    1    1    2    0    0  0.16324774173E+02  0.53421627445E+02 -0.99613598934E+03  0.10055010083E+04  0.12500000000E+03 0.  0.
         25    1    1    2    0    0 -0.16324774173E+02 -0.53421627445E+02 -0.29017584572E+02  0.13995495256E+03  0.12500000000E+03 0.  0.
</event>
<event>
 4    0  0.2222207E-002  0.3181224E+03  0.7546771E-02  0.1076517E+00
         21   -1    0    0  502  501  0.00000000000E+00  0.00000000000E+00  0.11203735702E+03  0.11203735702E+03  0.00000000000E+00 0.  1.
         21   -1    0    0  501  502 -0.00000000000E+00 -0.00000000000E+00 -0.90328690730E+03  0.90328690730E+03  0.00000000000E+00 0.  1.
         25    1    1    2    0    0  0.10376393602E+02 -0.29235116609E+03 -0.39552559231E+03  0.50758483826E+03  0.12500000000E+03 0.  0.
         25    1    1    2    0    0 -0.10376393602E+02  0.29235116609E+03 -0.39572395798E+03  0.50773942606E+03  0.12500000000E+03 0.  0.
</event>
<event>
 4    0  0.2222207E-002  0.2231575E+03  0.7546771E-02  0.1131551E+00
         21   -1    0    0  502  501  0.00000000000E+00  0.00000000000E+00  0.28798847500E+03  0.28798847500E+03  0.00000000000E+00 0.  1.
         21   -1    0    0  501  502 -0.00000000000E+00 -0.00000000000E+00 -0.17292110025E+03  0.17292110025E+03  0.00000000000E+00 0.  1.
         25    1    1    2    0    0 -0.13421223008E+03 -0.56881746050E+02  0.17494322445E+03  0.25976640953E+03  0.12500000000E+03 0.  0.
         25    1    1    2    0    0  0.13421223008E+03  0.56881746050E+02 -0.59875849700E+02  0.20114316572E+03  0.12500000000E+03 0.  0.
</event>
<event>
 4    0  0.2222207E-002  0.2029976E+03  0.7546771E-02  0.1147234E+00
         21   -1    0    0  502  501  0.00000000000E+00  0.00000000000E+00  0.24419604915E+03  0.24419604915E+03  0.00000000000E+00 0.  1.
         21   -1    0    0  501  502 -0.00000000000E+00 -0.00000000000E+00 -0.16874983765E+03  0.16874983765E+03  0.00000000000E+00 0.  1.
         25    1    1    2    0    0 -0.13711654157E+03  0.41781157237E+02 -0.34459683966E+02  0.19328497327E+03  0.12500000000E+03 0.  0.
         25    1    1    2    0    0  0.13711654157E+03 -0.41781157237E+02  0.10990589546E+03  0.21966091352E+03  0.12500000000E+03 0.  0.
</event>
<event>
 4    0  0.2222207E-002  0.3413129E+03  0.7546771E-02  0.1066238E+00
         21   -1    0    0  502  501  0.00000000000E+00  0.00000000000E+00  0.62733428378E+03  0.62733428378E+03  0.00000000000E+00 0. -1.
         21   -1    0    0  501  502 -0.00000000000E+00 -0.00000000000E+00 -0.18569765440E+03  0.18569765440E+03  0.00000000000E+00 0. -1.
         25    1    1    2    0    0 -0.27658680123E+02  0.26683331354E+03  0.18326482532E+02  0.29652298354E+03  0.12500000000E+03 0.  0.
         25    1    1    2    0    0  0.27658680123E+02 -0.26683331354E+03  0.42331014685E+03  0.51650895464E+03  0.12500000000E+03 0.  0.
</event>
<event>
 4    0  0.2222207E-002  0.3624984E+03  0.7546771E-02  0.1057599E+00
         21   -1    0    0  502  501  0.00000000000E+00  0.00000000000E+00  0.17666632410E+03  0.17666632410E+03  0.00000000000E+00 0.  1.
         21   -1    0    0  501  502 -0.00000000000E+00 -0.00000000000E+00 -0.74380392769E+03  0.74380392769E+03  0.00000000000E+00 0. -1.
         25    1    1    2    0    0 -0.30244735322E+03  0.45594481893E+02 -0.47285222282E+03  0.57686002018E+03  0.12500000000E+03 0.  0.
         25    1    1    2    0    0  0.30244735322E+03 -0.45594481893E+02 -0.94285380765E+02  0.34361023162E+03  0.12500000000E+03 0.  0.
</event>
<event>
 4    0  0.2222207E-002  0.2055399E+03  0.7546771E-02  0.1145147E+00
         21   -1    0    0  502  501  0.00000000000E+00  0.00000000000E+00  0.38230086362E+02  0.38230086362E+02  0.00000000000E+00 0. -1.
         21   -1    0    0  501  502 -0.00000000000E+00 -0.00000000000E+00 -0.11050628203E+04  0.11050628203E+04  0.00000000000E+00 0. -1.
         25    1    1    2    0    0  0.10170490870E+03  0.12758380284E+03 -0.53240645916E+03  0.57070408528E+03  0.12500000000E+03 0.  0.
         25    1    1    2    0    0 -0.10170490870E+03 -0.12758380284E+03 -0.53442627479E+03  0.57258882139E+03  0.12500000000E+03 0.  0.
</event>
<event>
 4    0  0.2222207E-002  0.3399218E+03  0.7546771E-02  0.1066829E+00
         21   -1    0    0  502  501  0.00000000000E+00  0.00000000000E+00  0.15943885409E+03  0.15943885409E+03  0.00000000000E+00 0. -1.
         21   -1    0    0  501  502 -0.00000000000E+00 -0.00000000000E+00 -0.72470933698E+03  0.72470933698E+03  0.00000000000E+00 0. -1.
         25    1    1    2    0    0  0.15418135975E+03  0.23201865258E+03 -0.88351400033E+02  0.31786084491E+03  0.12500000000E+03 0.  0.
         25    1    1    2    0    0 -0.15418135975E+03 -0.23201865258E+03 -0.47691908286E+03  0.56628734617E+03  0.12500000000E+03 0.  0.
</event>
<event>
 4    0  0.2222207E-002  0.1775218E+03  0.7546771E-02  0.1170223E+00
         21   -1    0    0  502  501  0.00000000000E+00  0.00000000000E+00  0.10707845208E+03  0.10707845208E+03  0.00000000000E+00 0.  1.
         21   -1    0    0  501  502 -0.00000000000E+00 -0.00000000000E+00 -0.29430742067E+03  0.29430742067E+03  0.00000000000E+00 0.  1.
         25    1    1    2    0    0  0.16925285148E+02 -0.12927330125E+02  0.46841229037E+02  0.13517648419E+03  0.12500000000E+03 0.  0.
         25    1    1    2    0    0 -0.16925285148E+02  0.12927330125E+02 -0.23407019762E+03  0.26620938855E+03  0.12500000000E+03 0.  0.
</event>
<event>
 4    0  0.2222207E-002  0.2976447E+03  0.7546771E-02  0.1086424E+00
         21   -1    0    0  502  501  0.00000000000E+00  0.00000000000E+00  0.58073379435E+02  0.58073379435E+02  0.00000000000E+00 0.  1.
         21   -1    0    0  501  502 -0.00000000000E+00 -0.00000000000E+00 -0.15255241900E+04  0.15255241900E+04  0.00000000000E+00 0.  1.
         25    1    1    2    0    0 -0.13407880065E+03 -0.18033953368E+03 -0.33497814571E+03  0.42229708772E+03  0.12500000000E+03 0.  0.
         25    1    1    2    0    0  0.13407880065E+03  0.18033953368E+03 -0.11324726648E+04  0.11613004817E+04  0.12500000000E+03 0.  0.
</event>
<event>
 4    0  0.2222207E-002  0.2399429E+03  0.7546771E-02  0.1119831E+00
         21   -1    0    0  502  501  0.00000000000E+00  0.00000000000E+00  0.88532949587E+02  0.88532949587E+02  0.00000000000E+00 0.  1.
         21   -1    0    0  501  502 -0.00000000000E+00 -0.00000000000E+00 -0.65029592663E+03  0.65029592663E+03  0.00000000000E+00 0. -1.
         25    1    1    2    0    0  0.17925470760E+03 -0.99058665020E+02 -0.27832967339E+03  0.36747418467E+03  0.12500000000E+03 0.  0.
         25    1    1    2    0    0 -0.17925470760E+03  0.99058665020E+02 -0.28343330366E+03  0.37135469155E+03  0.12500000000E+03 0.  0.
</event>
<event>
 4    0  0.2222207E-002  0.1557288E+03  0.7546771E-02  0.1193605E+00
         21   -1    0    0  502  501  0.00000000000E+00  0.00000000000E+00  0.74898973607E+02  0.74898973607E+02  0.00000000000E+00 0.  1.
         21   -1    0    0  501  502 -0.00000000000E+00 -0.00000000000E+00 -0.32378908001E+03  0.32378908001E+03  0.00000000000E+00 0.  1.
         25    1    1    2    0    0 -0.81320967876E+02  0.33730290515E+02 -0.16232386583E+03  0.22299073912E+03  0.12500000000E+03 0.  0.
         25    1    1    2    0    0  0.81320967876E+02 -0.33730290515E+02 -0.86566240569E+02  0.17569731450E+03  0.12500000000E+03 0.  0.
</event>
<event>
 4    0  0.2222207E-002  0.1764566E+03  0.7546771E-02  0.1171277E+00
         21   -1    0    0  502  501  0.00000000000E+00  0.00000000000E+00  0.66188314552E+03  0.66188314552E+03  0.00000000000E+00 0. -1.
         21   -1    0    0  501  502 -0.00000000000E+00 -0.00000000000E+00 -0.47042932030E+02  0.47042932030E+02  0.00000000000E+00 0. -1.
         25    1    1    2    0    0  0.24873339931E+02 -0.88575617248E+02  0.47605745047E+03  0.50071950147E+03  0.12500000000E+03 0.  0.
         25    1    1    2    0    0 -0.24873339931E+02  0.88575617248E+02  0.13878276303E+03  0.20820657608E+03  0.12500000000E+03 0.  0.
</event>
<event>
 4    0  0.2222207E-002  0.2631878E+03  0.7546771E-02  0.1105243E+00
         21   -1    0    0  502  501  0.00000000000E+00  0.00000000000E+00  0.41906585529E+03  0.41906585529E+03  0.00000000000E+00 0. -1.
         21   -1    0    0  501  502 -0.00000000000E+00 -0.00000000000E+00 -0.16529095600E+03  0.16529095600E+03  0.00000000000E+00 0. -1.
         25    1    1    2    0    0  0.29406359825E+02 -0.86195506365E+02 -0.10952121970E+03  0.18951067748E+03  0.12500000000E+03 0.  0.
         25    1    1    2    0    0 -0.29406359825E+02  0.86195506365E+02  0.36329611898E+03  0.39484613381E+03  0.12500000000E+03 0.  0.
</event>
<event>
 4    0  0.2222207E-002  0.1804429E+03  0.7546771E-02  0.1167375E+00
         21   -1    0    0  502  501  0.00000000000E+00  0.00000000000E+00  0.42360374962E+02  0.42360374962E+02  0.00000000000E+00 0. -1.
         21   -1    0    0  501  502 -0.00000000000E+00 -0.00000000000E+00 -0.76863473841E+03  0.76863473841E+03  0.00000000000E+00 0. -1.
         25    1    1    2    0    0  0.62248509754E+02  0.81961946560E+02 -0.54209969799E+03  0.56576472160E+03  0.12500000000E+03 0.  0.
         25    1    1    2    0    0 -0.62248509754E+02 -0.81961946560E+02 -0.18417466546E+03  0.24523039177E+03  0.12500000000E+03 0.  0.
</event>
<event>
 4    0  0.2222207E-002  0.1638306E+03  0.7546771E-02  0.1184439E+00
         21   -1    0    0  502  501  0.00000000000E+00  0.00000000000E+00  0.68960497532E+02  0.68960497532E+02  0.00000000000E+00 0. -1.
         21   -1    0    0  501  502 -0.00000000000E+00 -0.00000000000E+00 -0.38921525927E+03  0.38921525927E+03  0.00000000000E+00 0. -1.
         25    1    1    2    0    0 -0.18566847982E+02  0.92005710870E+02 -0.91542615974E+02  0.18114863846E+03  0.12500000000E+03 0.  0.
         25    1    1    2    0    0  0.18566847982E+02 -0.92005710870E+02 -0.22871214577E+03  0.27702711834E+03  0.12500000000E+03 0.  0.
</event>
<event>
 4    0  0.2222207E-002  0.1928131E+03  0.7546771E-02  0.1155948E+00
         21   -1    0    0  502  501  0.00000000000E+00  0.00000000000E+00  0.26556045867E+03  0.26556045867E+03  0.00000000000E+00 0. -1.
         21   -1    0    0  501  502 -0.00000000000E+00 -0.00000000000E+00 -0.13999400611E+03  0.13999400611E+03  0.00000000000E+00 0. -1.
         25    1    1    2    0    0 -0.42857389078E+02  0.62966014727E+02  0.19476942681E+03  0.24364236994E+03  0.12500000000E+03 0.  0.
         25    1    1    2    0    0  0.42857389078E+02 -0.62966014727E+02 -0.69202974257E+02  0.16191209484E+03  0.12500000000E+03 0.  0.
</event>
<event>
 4    0  0.2222207E-002  0.3432486E+03  0.7546771E-02  0.1065421E+00
         21   -1    0    0  502  501  0.00000000000E+00  0.00000000000E+00  0.20760075648E+03  0.20760075648E+03  0.00000000000E+00 0. -1.
         21   -1    0    0  501  502 -0.00000000000E+00 -0.00000000000E+00 -0.56752983625E+03  0.56752983625E+03  0.00000000000E+00 0. -1.
         25    1    1    2    0    0  0.91032235864E+02 -0.27941757094E+03 -0.32204212880E+03  0.45353850955E+03  0.12500000000E+03 0.  0.
         25    1    1    2    0    0 -0.91032235864E+02  0.27941757094E+03 -0.37886950965E+02  0.32159208319E+03  0.12500000000E+03 0.  0.
</event>
<event>
 4    0  0.2222207E-002  0.1893959E+03  0.7546771E-02  0.1159007E+00
         21   -1    0    0  502  501  0.00000000000E+00  0.00000000000E+00  0.12042083927E+03  0.12042083927E+03  0.00000000000E+00 0. -1.
         21   -1    0    0  501  502 -0.00000000000E+00 -0.00000000000E+00 -0.29787876971E+03  0.29787876971E+03  0.00000000000E+00 0. -1.
         25    1    1    2    0    0 -0.11093535064E+03  0.56152672236E+01  0.94706945646E+01  0.16748993194E+03  0.12500000000E+03 0.  0.
         25    1    1    2    0    0  0.11093535064E+03 -0.56152672236E+01 -0.18692862500E+03  0.25080967703E+03  0.12500000000E+03 0.  0.
</event>
<event>
 4    0  0.2222207E-002  0.1396052E+03  0.7546771E-02  0.1213861E+00
         21   -1    0    0  502  501  0.00000000000E+00  0.00000000000E+00  0.13866506169E+03  0.13866506169E+03  0.00000000000E+00 0. -1.
         21   -1    0    0  501  502 -0.00000000000E+00 -0.00000000000E+00 -0.14055174664E+03  0.14055174664E+03  0.00000000000E+00 0. -1.
         25    1    1    2    0    0 -0.78601086013E+01  0.51707372627E+02  0.32660741901E+02  0.13938133933E+03  0.12500000000E+03 0.  0.
         25    1    1    2    0    0  0.78601086013E+01 -0.51707372627E+02 -0.34547426851E+02  0.13983546901E+03  0.12500000000E+03 0.  0.
</event>
<event>
 4    0  0.2222207E-002  0.2301858E+03  0.7546771E-02  0.1126509E+00
         21   -1    0    0  502  501  0.00000000000E+00  0.00000000000E+00  0.51600851100E+03  0.51600851100E+03  0.00000000000E+00 0. -1.
         21   -1    0    0  501  502 -0.00000000000E+00 -0.00000000000E+00 -0.10268339116E+03  0.10268339116E+03  0.00000000000E+00 0. -1.
         25    1    1    2    0    0 -0.14100938084E+03  0.12895341229E+03  0.24579455681E+03  0.33548858726E+03  0.12500000000E+03 0.  0.
         25    1    1    2    0    0  0.14100938084E+03 -0.12895341229E+03  0.16753056303E+03  0.28320331490E+03  0.12500000000E+03 0.  0.
</event>
<event>
 4    0  0.2222207E-002  0.1734118E+03  0.7546771E-02  0.1174336E+00
         21   -1    0    0  502  501  0.00000000000E+00  0.00000000000E+00  0.87247052632E+03  0.87247052632E+03  0.00000000000E+00 0. -1.
         21   -1    0    0  501  502 -0.00000000000E+00 -0.00000000000E+00 -0.34467253253E+02  0.34467253253E+02  0.00000000000E+00 0. -1.
         25    1    1    2    0    0 -0.48229084644E+02  0.10527345721E+03  0.33474735717E+03  0.37561860781E+03  0.12500000000E+03 0.  0.
         25    1    1    2    0    0  0.48229084644E+02 -0.10527345721E+03  0.50325591590E+03  0.53131917177E+03  0.12500000000E+03 0.  0.
</event>
<event>
 4    0  0.2222207E-002  0.1506402E+03  0.7546771E-02  0.1199689E+00
         21   -1    0    0  502  501  0.00000000000E+00  0.00000000000E+00  0.17858691061E+02  0.17858691061E+02  0.00000000000E+00 0.  1.
         21   -1    0    0  501  502 -0.00000000000E+00 -0.00000000000E+00 -0.12706682599E+04  0.12706682599E+04  0.00000000000E+00 0.  1.
         25    1    1    2    0    0 -0.46322935196E+02  0.70132689646E+02 -0.63389036126E+03  0.65154155553E+03  0.12500000000E+03 0.  0.
         25    1    1    2    0    0  0.46322935196E+02 -0.70132689646E+02 -0.61891920755E+03  0.63698539540E+03  0.12500000000E+03 0.  0.
</event>
<event>
 4    0  0.2222207E-002  0.2090053E+03  0.7546771E-02  0.1142356E+00
         21   -1    0    0  502  501  0.00000000000E+00  0.00000000000E+00  0.92072541236E+03  0.92072541236E+03  0.00000000000E+00 0.  1.
         21   -1    0    0  501  502 -0.00000000000E+00 -0.00000000000E+00 -0.47444355247E+02  0.47444355247E+02  0.00000000000E+00 0.  1.
         25    1    1    2    0    0  0.45656687286E+02  0.11418821173E+02  0.80897922559E+03  0.81993128371E+03  0.12500000000E+03 0.  0.
         25    1    1    2    0    0 -0.45656687286E+02 -0.11418821173E+02  0.64301831525E+02  0.14823848390E+03  0.12500000000E+03 0.  0.
</event>
<event>
 4    0  0.2222207E-002  0.3126814E+03  0.7546771E-02  0.1079068E+00
         21   -1    0    0  502  501  0.00000000000E+00  0.00000000000E+00  0.78823441243E+02  0.78823441243E+02  0.00000000000E+00 0. -1.
         21   -1    0    0  501  502 -0.00000000000E+00 -0.00000000000E+00 -0.12403630510E+04  0.12403630510E+04  0.00000000000E+00 0. -1.
         25    1    1    2    0    0  0.21906782714E+03  0.18403661313E+03 -0.54518928084E+03  0.62826470520E+03  0.12500000000E+03 0.  0.
         25    1    1    2    0    0 -0.21906782714E+03 -0.18403661313E+03 -0.61635032896E+03  0.69092178708E+03  0.12500000000E+03 0.  0.
</event>
<event>
 4    0  0.2222207E-002  0.2718244E+03  0.7546771E-02  0.1100240E+00
         21   -1    0    0  502  501  0.00000000000E+00  0.00000000000E+00  0.45003224657E+02  0.45003224657E+02  0.00000000000E+00 0. -1.
         21   -1    0    0  501  502 -0.00000000000E+00 -0.00000000000E+00 -0.16418485767E+04  0.16418485767E+04  0.00000000000E+00 0. -1.
         25    1    1    2    0    0  0.14289792470E+03 -0.16173985421E+03 -0.11338142645E+04  0.11609217819E+04  0.12500000000E+03 0.  0.
         25    1    1    2    0    0 -0.14289792470E+03  0.16173985421E+03 -0.46303108755E+03  0.52593001945E+03  0.12500000000E+03 0.  0.
</event>
<event>
 4    0  0.2222207E-002  0.1815726E+03  0.7546771E-02  0.1166290E+00
         21   -1    0    0  502  501  0.00000000000E+00  0.00000000000E+00  0.57362535422E+03  0.57362535422E+03  0.00000000000E+00 0.  1.
         21   -1    0    0  501  502 -0.00000000000E+00 -0.00000000000E+00 -0.57474135965E+02  0.57474135965E+02  0.00000000000E+00 0.  1.
         25    1    1    2    0    0  0.82635194361E+02 -0.10247776498E+03  0.25172490150E+03  0.31035575345E+03  0.12500000000E+03 0.  0.
         25    1    1    2    0    0 -0.82635194361E+02  0.10247776498E+03  0.26442631675E+03  0.32074373673E+03  0.12500000000E+03 0.  0.
</event>
<event>
 4    0  0.2222207E-002  0.2178892E+03  0.7546771E-02  0.1135467E+00
         21   -1    0    0  502  501  0.00000000000E+00  0.00000000000E+00  0.13931403099E+03  0.13931403099E+03  0.00000000000E+00 0.  1.
         21   -1    0    0  501  502 -0.00000000000E+00 -0.00000000000E+00 -0.34078192440E+03  0.34078192440E+03  0.00000000000E+00 0.  1.
         25    1    1    2    0    0  0.14913340673E+02  0.65288419959E+01 -0.29653156021E+03  0.32221266224E+03  0.12500000000E+03 0.  0.
         25    1    1    2    0    0 -0.14913340673E+02 -0.65288419959E+01  0.95063666810E+02  0.15788329315E+03  0.12500000000E+03 0.  0.
</event>
<event>
 4    0  0.2222207E-002  0.2013453E+03  0.7546771E-02  0.1148609E+00
         21   -1    0    0  502  501  0.00000000000E+00  0.00000000000E+00  0.98335196271E+02  0.98335196271E+02  0.00000000000E+00 0.  1.
         21   -1    0    0  501  502 -0.00000000000E+00 -0.00000000000E+00 -0.41226263850E+03  0.41226263850E+03  0.00000000000E+00 0.  1.
         25    1    1    2    0    0 -0.10712165781E+03 -0.30925524024E+02 -0.15294503349E+02  0.16819738239E+03  0.12500000000E+03 0.  0.
         25    1    1    2    0    0  0.10712165781E+03  0.30925524024E+02 -0.29863293888E+03  0.34240045238E+03  0.12500000000E+03 0.  0.
</event>
<event>
 4    0  0.2222207E-002  0.2546886E+03  0.7546771E-02  0.1110377E+00
         21   -1    0    0  502  501  0.00000000000E+00  0.00000000000E+00  0.12143944871E+04  0.12143944871E+04  0.00000000000E+00 0. -1.
         21   -1    0    0  501  502 -0.00000000000E+00 -0.00000000000E+00 -0.53414500604E+02  0.53414500604E+02  0.00000000000E+00 0. -1.
         25    1    1    2    0    0  0.68377778119E+02  0.20979261137E+03  0.52197001500E+03  0.58031556664E+03  0.12500000000E+03 0.  0.
         25    1    1    2    0    0 -0.68377778119E+02 -0.20979261137E+03  0.63900997145E+03  0.68749342102E+03  0.12500000000E+03 0.  0.
</event>
<event>
 4    0  0.2222207E-002  0.2135291E+03  0.7546771E-02  0.1138801E+00
         21   -1    0    0  502  501  0.00000000000E+00  0.00000000000E+00  0.35384895368E+02  0.35384895368E+02  0.00000000000E+00 0. -1.
         21   -1    0    0  501  502 -0.00000000000E+00 -0.00000000000E+00 -0.12885352490E+04  0.12885352490E+04  0.00000000000E+00 0. -1.
         25    1    1    2    0    0  0.14926229817E+03  0.87015561904E+02 -0.66035670033E+03  0.69393581356E+03  0.12500000000E+03 0.  0.
         25    1    1    2    0    0 -0.14926229817E+03 -0.87015561904E+02 -0.59279365331E+03  0.62998433081E+03  0.12500000000E+03 0.  0.
</event>
<event>
 4    0  0.2222207E-002  0.2115802E+03  0.7546771E-02  0.1140321E+00
         21   -1    0    0  502  501  0.00000000000E+00  0.00000000000E+00  0.43898488667E+03  0.43898488667E+03  0.00000000000E+00 0.  1.
         21   -1    0    0  501  502 -0.00000000000E+00 -0.00000000000E+00 -0.10197655240E+03  0.10197655240E+03  0.00000000000E+00 0.  1.
         25    1    1    2    0    0  0.43803961810E+01 -0.17716604727E+02 -0.48475315376E+02  0.13530677054E+03  0.12500000000E+03 0.  0.
         25    1    1    2    0    0 -0.43803961810E+01  0.17716604727E+02  0.38548364965E+03  0.40565466853E+03  0.12500000000E+03 0.  0.
</event>
<event>
 4    0  0.2222207E-002  0.2762545E+03  0.7546771E-02  0.1097752E+00
         21   -1    0    0  502  501  0.00000000000E+00  0.00000000000E+00  0.49525918367E+02  0.49525918367E+02  0.00000000000E+00 0.  1.
         21   -1    0    0  501  502 -0.00000000000E+00 -0.00000000000E+00 -0.15409413573E+04  0.15409413573E+04  0.00000000000E+00 0.  1.
         25    1    1    2    0    0  0.69705044079E+02  0.19226588045E+03 -0.35031202271E+03  0.42446257221E+03  0.12500000000E+03 0.  0.
         25    1    1    2    0    0 -0.69705044079E+02 -0.19226588045E+03 -0.11411034162E+04  0.11660047034E+04  0.12500000000E+03 0.  0.
</event>
<event>
 4    0  0.2222207E-002  0.2688046E+03  0.7546771E-02  0.1101966E+00
         21   -1    0    0  502  501  0.00000000000E+00  0.00000000000E+00  0.11926732723E+03  0.11926732723E+03  0.00000000000E+00 0.  1.
         21   -1    0    0  501  502 -0.00000000000E+00 -0.00000000000E+00 -0.60583179465E+03  0.60583179465E+03  0.00000000000E+00 0.  1.
         25    1    1    2    0    0 -0.58646627845E+02  0.22826746029E+03 -0.28771887494E+03  0.39236795407E+03  0.12500000000E+03 0.  0.
         25    1    1    2    0    0  0.58646627845E+02 -0.22826746029E+03 -0.19884559248E+03  0.33273116781E+03  0.12500000000E+03 0.  0.
</event>
<event>
 4    0  0.2222207E-002  0.3345706E+03  0.7546771E-02  0.1069132E+00
         21   -1    0    0  502  501  0.00000000000E+00  0.00000000000E+00  0.26033258272E+03  0.26033258272E+03  0.00000000000E+00 0.  1.
         21   -1    0    0  501  502 -0.00000000000E+00 -0.00000000000E+00 -0.42997886394E+03  0.42997886394E+03  0.00000000000E+00 0.  1.
         25    1    1    2    0    0 -0.89373033694E+01 -0.26327589841E+03 -0.25408229152E+03  0.38675170968E+03  0.12500000000E+03 0.  0.
         25    1    1    2    0    0  0.89373033694E+01  0.26327589841E+03  0.84436010301E+02  0.30355973698E+03  0.12500000000E+03 0.  0.
</event>
<event>
 4    0  0.2222207E-002  0.1832655E+03  0.7546771E-02  0.1164680E+00
         21   -1    0    0  502  501  0.00000000000E+00  0.00000000000E+00  0.21688318683E+03  0.21688318683E+03  0.00000000000E+00 0. -1.
         21   -1    0    0  501  502 -0.00000000000E+00 -0.00000000000E+00 -0.15485862321E+03  0.15485862321E+03  0.00000000000E+00 0. -1.
         25    1    1    2    0    0 -0.88705950247E+02  0.79428285436E+02 -0.31373455021E+02  0.17546193837E+03  0.12500000000E+03 0.  0.
         25    1    1    2    0    0  0.88705950247E+02 -0.79428285436E+02  0.93398018644E+02  0.19627987167E+03  0.12500000000E+03 0.  0.
</event>
<event>
 4    0  0.2222207E-002  0.2148192E+03  0.7546771E-02  0.1137806E+00
         21   -1    0    0  502  501  0.00000000000E+00  0.00000000000E+00  0.58674268720E+03  0.58674268720E+03  0.00000000000E+00 0. -1.
         21   -1    0    0  501  502 -0.00000000000E+00 -0.00000000000E+00 -0.78649925104E+02  0.78649925104E+02  0.00000000000E+00 0. -1.
         25    1    1    2    0    0 -0.12057511064E+03  0.11962531631E+03  0.19068668099E+03  0.28431493790E+03  0.12500000000E+03 0.  0.
         25    1    1    2    0    0  0.12057511064E+03 -0.11962531631E+03  0.31740608111E+03  0.38107767440E+03  0.12500000000E+03 0.  0.
</event>
<event>
 4    0  0.2222207E-002  0.2098347E+03  0.7546771E-02  0.1141697E+00
         21   -1    0    0  502  501  0.00000000000E+00  0.00000000000E+00  0.19224565171E+04  0.19224565171E+04  0.00000000000E+00 0. -1.
         21   -1    0    0  501  502 -0.00000000000E+00 -0.00000000000E+00 -0.22903292248E+02  0.22903292248E+02  0.00000000000E+00 0. -1.
         25    1    1    2    0    0  0.24858215585E+02  0.11064854635E+03  0.15277153767E+04  0.15370101834E+04  0.12500000000E+03 0.  0.
         25    1    1    2    0    0 -0.24858215585E+02 -0.11064854635E+03  0.37183784819E+03  0.40834962598E+03  0.12500000000E+03 0.  0.
</event>
<event>
 4    0  0.2222207E-002  0.2196197E+03  0.7546771E-02  0.1134167E+00
         21   -1    0    0  502  501  0.00000000000E+00  0.00000000000E+00  0.51097939982E+02  0.51097939982E+02  0.00000000000E+00 0.  1.
         21   -1    0    0  501  502 -0.00000000000E+00 -0.00000000000E+00 -0.94392883813E+03  0.94392883813E+03  0.00000000000E+00 0.  1.
         25    1    1    2    0    0 -0.12958677236E+03  0.84194763930E+02 -0.23479908514E+03  0.30763143569E+03  0.12500000000E+03 0.  0.
         25    1    1    2    0    0  0.12958677236E+03 -0.84194763930E+02 -0.65803181301E+03  0.68739534242E+03  0.12500000000E+03 0.  0.
</event>
<event>
 4    0  0.2222207E-002  0.2286268E+03  0.7546771E-02  0.1127610E+00
         21   -1    0    0  502  501  0.00000000000E+00  0.00000000000E+00  0.25989060400E+03  0.25989060400E+03  0.00000000000E+00 0. -1.
         21   -1    0    0  501  502 -0.00000000000E+00 -0.00000000000E+00 -0.20112392703E+03  0.20112392703E+03  0.00000000000E+00 0. -1.
         25    1    1    2    0    0  0.17492184677E+03 -0.35527402601E+02  0.99128682947E+02  0.23939787926E+03  0.12500000000E+03 0.  0.
         25    1    1    2    0    0 -0.17492184677E+03  0.35527402601E+02 -0.40362005976E+02  0.22161665177E+03  0.12500000000E+03 0.  0.
</event>
<event>
 4    0  0.2222207E-002  0.3667162E+03  0.7546771E-02  0.1055956E+00
         21   -1    0    0  502  501  0.00000000000E+00  0.00000000000E+00  0.13707012411E+03  0.13707012411E+03  0.00000000000E+00 0. -1.
         21   -1    0    0  501  502 -0.00000000000E+00 -0.00000000000E+00 -0.98110934768E+03  0.98110934768E+03  0.00000000000E+00 0. -1.
         25    1    1    2    0    0 -0.20030993501E+03 -0.69956521786E+02 -0.77426628003E+01  0.24637965385E+03  0.12500000000E+03 0.  0.
         25    1    1    2    0    0  0.20030993501E+03  0.69956521786E+02 -0.83629656077E+03  0.87179981794E+03  0.12500000000E+03 0.  0.
</event>
<event>
 4    0  0.2222207E-002  0.1465458E+03  0.7546771E-02  0.1204783E+00
         21   -1    0    0  502  501  0.00000000000E+00  0.00000000000E+00  0.47001611434E+03  0.47001611434E+03  0.00000000000E+00 0. -1.
         21   -1    0    0  501  502 -0.00000000000E+00 -0.00000000000E+00 -0.45691328747E+02  0.45691328747E+02  0.00000000000E+00 0. -1.
         25    1    1    2    0    0  0.60819339550E+00 -0.70394274148E+02  0.15952475595E+03  0.21454340235E+03  0.12500000000E+03 0.  0.
         25    1    1    2    0    0 -0.60819339550E+00  0.70394274148E+02  0.26480002964E+03  0.30116404073E+03  0.12500000000E+03 0.  0.
</event>
<event>
 4    0  0.2222207E-002  0.3532372E+03  0.7546771E-02  0.1061294E+00
         21   -1    0    0  502  501  0.00000000000E+00  0.00000000000E+00  0.23380675813E+04  0.23380675813E+04  0.00000000000E+00 0. -1.
         21   -1    0    0  501  502 -0.00000000000E+00 -0.00000000000E+00 -0.53367367872E+02  0.53367367872E+02  0.00000000000E+00 0. -1.
         25    1    1    2    0    0  0.30193306433E+03  0.36928884301E+02  0.15787980639E+04  0.16126858480E+04  0.12500000000E+03 0.  0.
         25    1    1    2    0    0 -0.30193306433E+03 -0.36928884301E+02  0.70590214950E+03  0.77874910113E+03  0.12500000000E+03 0.  0.
</event>
<event>
 4    0  0.2222207E-002  0.2742017E+03  0.7546771E-02  0.1098899E+00
         21   -1    0    0  502  501  0.00000000000E+00  0.00000000000E+00  0.11056100695E+04  0.11056100695E+04  0.00000000000E+00 0. -1.
         21   -1    0    0  501  502 -0.00000000000E+00 -0.00000000000E+00 -0.68004600579E+02  0.68004600579E+02  0.00000000000E+00 0. -1.
         25    1    1    2    0    0 -0.14241445108E+03 -0.17776821394E+03  0.33128001190E+03  0.42101646054E+03  0.12500000000E+03 0.  0.
         25    1    1    2    0    0  0.14241445108E+03  0.17776821394E+03  0.70632545705E+03  0.75259820957E+03  0.12500000000E+03 0.  0.
</event>
<event>
 4    0  0.2222207E-002  0.1824905E+03  0.7546771E-02  0.1165414E+00
         21   -1    0    0  502  501  0.00000000000E+00  0.00000000000E+00  0.13372038290E+03  0.13372038290E+03  0.00000000000E+00 0. -1.
         21   -1    0    0  501  502 -0.00000000000E+00 -0.00000000000E+00 -0.24904804711E+03  0.24904804711E+03  0.00000000000E+00 0. -1.
         25    1    1    2    0    0 -0.10111656562E+03  0.83338191887E+02 -0.34026869132E+02  0.18426242670E+03  0.12500000000E+03 0.  0.
         25    1    1    2    0    0  0.10111656562E+03 -0.83338191887E+02 -0.81300795083E+02  0.19850600331E+03  0.12500000000E+03 0.  0.
</event>
<event>
 4    0  0.2222207E-002  0.2611336E+03  0.7546771E-02  0.1106464E+00
         21   -1    0    0  502  501  0.00000000000E+00  0.00000000000E+00  0.36892297295E+03  0.36892297295E+03  0.00000000000E+00 0.  1.
         21   -1    0    0  501  502 -0.00000000000E+00 -0.00000000000E+00 -0.18483734179E+03  0.18483734179E+03  0.00000000000E+00 0.  1.
         25    1    1    2    0    0  0.17850852676E+03 -0.13820648096E+03  0.13444711217E+03  0.29097654798E+03  0.12500000000E+03 0.  0.
         25    1    1    2    0    0 -0.17850852676E+03  0.13820648096E+03  0.49638518987E+02  0.26278376676E+03  0.12500000000E+03 0.  0.
</event>
<event>
 4    0  0.2222207E-002  0.2795945E+03  0.7546771E-02  0.1095911E+00
         21   -1    0    0  502  501  0.00000000000E+00  0.00000000000E+00  0.32414045842E+03  0.32414045842E+03  0.00000000000E+00 0. -1.
         21   -1    0    0  501  502 -0.00000000000E+00 -0.00000000000E+00 -0.24117042699E+03  0.24117042699E+03  0.00000000000E+00 0. -1.
         25    1    1    2    0    0 -0.71697361233E+02 -0.65184914139E+01 -0.20064718348E+03  0.24711797704E+03  0.12500000000E+03 0.  0.
         25    1    1    2    0    0  0.71697361233E+02  0.65184914139E+01  0.28361721491E+03  0.31819290836E+03  0.12500000000E+03 0.  0.
</event>
<event>
 4    0  0.2222207E-002  0.1781002E+03  0.7546771E-02  0.1169654E+00
         21   -1    0    0  502  501  0.00000000000E+00  0.00000000000E+00  0.48588388913E+03  0.48588388913E+03  0.00000000000E+00 0.  1.
         21   -1    0    0  501  502 -0.00000000000E+00 -0.00000000000E+00 -0.65282406043E+02  0.65282406043E+02  0.00000000000E+00 0.  1.
         25    1    1    2    0    0 -0.30983015342E+02 -0.33732740021E+02  0.27236682885E+02  0.13588481109E+03  0.12500000000E+03 0.  0.
         25    1    1    2    0    0  0.30983015342E+02  0.33732740021E+02  0.39336480021E+03  0.41528148409E+03  0.12500000000E+03 0.  0.
</event>
<event>
 4    0  0.2222207E-002  0.1714116E+03  0.7546771E-02  0.1176384E+00
         21   -1    0    0  502  501  0.00000000000E+00  0.00000000000E+00  0.25316247775E+02  0.25316247775E+02  0.00000000000E+00 0. -1.
         21   -1    0    0  501  502 -0.00000000000E+00 -0.00000000000E+00 -0.11605964721E+04  0.11605964721E+04  0.00000000000E+00 0. -1.
         25    1    1    2    0    0 -0.70873560065E+02 -0.69043416265E+02 -0.78551525421E+03  0.80152933162E+03  0.12500000000E+03 0.  0.
         25    1    1    2    0    0  0.70873560065E+02  0.69043416265E+02 -0.34976497008E+03  0.38438338822E+03  0.12500000000E+03 0.  0.
</event>
<event>
 4    0  0.2222207E-002  0.1930882E+03  0.7546771E-02  0.1155705E+00
         21   -1    0    0  502  501  0.00000000000E+00  0.00000000000E+00  0.25793521399E+03  0.25793521399E+03  0.00000000000E+00 0. -1.
         21   -1    0    0  501  502 -0.00000000000E+00 -0.00000000000E+00 -0.14454426013E+03  0.14454426013E+03  0.00000000000E+00 0. -1.
         25    1    1    2    0    0  0.84245383994E+02 -0.11334086909E+03  0.13539435389E+02  0.18908134134E+03  0.12500000000E+03 0.  0.
         25    1    1    2    0    0 -0.84245383994E+02  0.11334086909E+03  0.99851518469E+02  0.21339813278E+03  0.12500000000E+03 0.  0.
</event>
<event>
 4    0  0.2222207E-002  0.2053436E+03  0.7546771E-02  0.1145307E+00
         21   -1    0    0  502  501  0.00000000000E+00  0.00000000000E+00  0.83610033418E+02  0.83610033418E+02  0.00000000000E+00 0.  1.
         21   -1    0    0  501  502 -0.00000000000E+00 -0.00000000000E+00 -0.50431728520E+03  0.50431728520E+03  0.00000000000E+00 0.  1.
         25    1    1    2    0    0 -0.12501778720E+03 -0.97992753129E+02 -0.26214714531E+03  0.33102590923E+03  0.12500000000E+03 0.  0.
         25    1    1    2    0    0  0.12501778720E+03  0.97992753129E+02 -0.15856010646E+03  0.25690140939E+03  0.12500000000E+03 0.  0.
</event>
<event>
 4    0  0.2222207E-002  0.2221608E+03  0.7546771E-02  0.1132282E+00
         21   -1    0    0  502  501  0.00000000000E+00  0.00000000000E+00  0.57425941848E+03  0.57425941848E+03  0.00000000000E+00 0.  1.
         21   -1    0    0  501  502 -0.00000000000E+00 -0.00000000000E+00 -0.85946239745E+02  0.85946239745E+02  0.00000000000E+00 0.  1.
         25    1    1    2    0    0 -0.15352711889E+03  0.31062507014E+02  0.38663766542E+03  0.43548724424E+03  0.12500000000E+03 0.  0.
         25    1    1    2    0    0  0.15352711889E+03 -0.31062507014E+02  0.10167551332E+03  0.22471841399E+03  0.12500000000E+03 0.  0.
</event>
<event>
 4    0  0.2222207E-002  0.1385161E+03  0.7546771E-02  0.1215340E+00
         21   -1    0    0  502  501  0.00000000000E+00  0.00000000000E+00  0.11972411576E+03  0.11972411576E+03  0.00000000000E+00 0.  1.
         21   -1    0    0  501  502 -0.00000000000E+00 -0.00000000000E+00 -0.16025777834E+03  0.16025777834E+03  0.00000000000E+00 0.  1.
         25    1    1    2    0    0 -0.85148532210E+01  0.22249904513E+02  0.35034688059E+02  0.13198481103E+03  0.12500000000E+03 0.  0.
         25    1    1    2    0    0  0.85148532210E+01 -0.22249904513E+02 -0.75568350645E+02  0.14799708306E+03  0.12500000000E+03 0.  0.
</event>
<event>
 4    0  0.2222207E-002  0.2228582E+03  0.7546771E-02  0.1131770E+00
         21   -1    0    0  502  501  0.00000000000E+00  0.00000000000E+00  0.24653211940E+04  0.24653211940E+04  0.00000000000E+00 0.  1.
         21   -1    0    0  501  502 -0.00000000000E+00 -0.00000000000E+00 -0.20145755543E+02  0.20145755543E+02  0.00000000000E+00 0.  1.
         25    1    1    2    0    0 -0.62809404828E+02 -0.19886963941E+01  0.21899149527E+04  0.21943795197E+04  0.12500000000E+03 0.  0.
         25    1    1    2    0    0  0.62809404828E+02  0.19886963941E+01  0.25526048579E+03  0.29108742991E+03  0.12500000000E+03 0.  0.
</event>
<event>
 4    0  0.2222207E-002  0.2497054E+03  0.7546771E-02  0.1113491E+00
         21   -1    0    0  502  501  0.00000000000E+00  0.00000000000E+00  0.89952447909E+03  0.89952447909E+03  0.00000000000E+00 0. -1.
         21   -1    0    0  501  502 -0.00000000000E+00 -0.00000000000E+00 -0.69317489655E+02  0.69317489655E+02  0.00000000000E+00 0. -1.
         25    1    1    2    0    0  0.57143902313E+02  0.65375079836E+02  0.79914140384E+03  0.81350556849E+03  0.12500000000E+03 0.  0.
         25    1    1    2    0    0 -0.57143902313E+02 -0.65375079836E+02  0.31065585595E+02  0.15533640025E+03  0.12500000000E+03 0.  0.
</event>
<event>
 4    0  0.2222207E-002  0.1692015E+03  0.7546771E-02  0.1178683E+00
         21   -1    0    0  502  501  0.00000000000E+00  0.00000000000E+00  0.57513710797E+02  0.57513710797E+02  0.00000000000E+00 0.  1.
         21   -1    0    0  501  502 -0.00000000000E+00 -0.00000000000E+00 -0.49777940244E+03  0.49777940244E+03  0.00000000000E+00 0.  1.
         25    1    1    2    0    0 -0.90539072150E+02  0.65151676046E+02 -0.18122961219E+03  0.24680201946E+03  0.12500000000E+03 0.  0.
         25    1    1    2    0    0  0.90539072150E+02 -0.65151676046E+02 -0.25903607946E+03  0.30849109377E+03  0.12500000000E+03 0.  0.
</event>
<event>
 4    0  0.2222207E-002  0.2495990E+03  0.7546771E-02  0.1113558E+00
         21   -1    0    0  502  501  0.00000000000E+00  0.00000000000E+00  0.40400776906E+03  0.40400776906E+03  0.00000000000E+00 0. -1.
         21   -1    0    0  501  502 -0.00000000000E+00 -0.00000000000E+00 -0.15420417729E+03  0.15420417729E+03  0.00000000000E+00 0. -1.
         25    1    1    2    0    0 -0.18708706408E+03 -0.31055698343E+02  0.24061788898E+03  0.33088970133E+03  0.12500000000E+03 0.  0.
         25    1    1    2    0    0  0.18708706408E+03  0.31055698343E+02  0.91857027846E+01  0.22732224502E+03  0.12500000000E+03 0.  0.
</event>
<event>
 4    0  0.2222207E-002  0.3169544E+03  0.7546771E-02  0.1077060E+00
         21   -1    0    0  502  501  0.00000000000E+00  0.00000000000E+00  0.15727834377E+04  0.15727834377E+04  0.00000000000E+00 0.  1.
         21   -1    0    0  501  502 -0.00000000000E+00 -0.00000000000E+00 -0.63874061121E+02  0.63874061121E+02  0.00000000000E+00 0.  1.
         25    1    1    2    0    0 -0.77304786665E+02  0.21900430592E+03  0.12082742989E+04  0.12367257972E+04  0.12500000000E+03 0.  0.
         25    1    1    2    0    0  0.77304786665E+02 -0.21900430592E+03  0.30063507774E+03  0.39993170170E+03  0.12500000000E+03 0.  0.
</event>
<event>
 4    0  0.2222207E-002  0.2431077E+03  0.7546771E-02  0.1117740E+00
         21   -1    0    0  502  501  0.00000000000E+00  0.00000000000E+00  0.44201590496E+03  0.44201590496E+03  0.00000000000E+00 0. -1.
         21   -1    0    0  501  502 -0.00000000000E+00 -0.00000000000E+00 -0.13370869561E+03  0.13370869561E+03  0.00000000000E+00 0. -1.
         25    1    1    2    0    0 -0.13544629226E+03 -0.72671307268E+02 -0.12671491452E+02  0.19852552401E+03  0.12500000000E+03 0.  0.
         25    1    1    2    0    0  0.13544629226E+03  0.72671307268E+02  0.32097870081E+03  0.37719907656E+03  0.12500000000E+03 0.  0.
</event>
<event>
 4    0  0.2222207E-002  0.1827906E+03  0.7546771E-02  0.1165129E+00
         21   -1    0    0  502  501  0.00000000000E+00  0.00000000000E+00  0.97198581712E+02  0.97198581712E+02  0.00000000000E+00 0.  1.
         21   -1    0    0  501  502 -0.00000000000E+00 -0.00000000000E+00 -0.34375410993E+03  0.34375410993E+03  0.00000000000E+00 0.  1.
         25    1    1    2    0    0 -0.12403640001E+03 -0.43405070246E+02 -0.95815674096E+02  0.20512111557E+03  0.12500000000E+03 0.  0.
         25    1    1    2    0    0  0.12403640001E+03  0.43405070246E+02 -0.15073985412E+03  0.23583157607E+03  0.12500000000E+03 0.  0.
</event>
<event>
 4    0  0.2222207E-002  0.2838639E+03  0.7546771E-02  0.1093597E+00
         21   -1    0    0  502  501  0.00000000000E+00  0.00000000000E+00  0.13025715406E+04  0.13025715406E+04  0.00000000000E+00 0. -1.
         21   -1    0    0  501  502 -0.00000000000E+00 -0.00000000000E+00 -0.61861262835E+02  0.61861262835E+02  0.00000000000E+00 0. -1.
         25    1    1    2    0    0  0.21128681344E+02  0.95132268087E+02  0.54388607461E+02  0.16756995622E+03  0.12500000000E+03 0.  0.
         25    1    1    2    0    0 -0.21128681344E+02 -0.95132268087E+02  0.11863216704E+04  0.11968628473E+04  0.12500000000E+03 0.  0.
</event>
<event>
 4    0  0.2222207E-002  0.1823810E+03  0.7546771E-02  0.1165518E+00
         21   -1    0    0  502  501  0.00000000000E+00  0.00000000000E+00  0.32859220549E+02  0.32859220549E+02  0.00000000000E+00 0. -1.
         21   -1    0    0  501  502 -0.00000000000E+00 -0.00000000000E+00 -0.10122832010E+04  0.10122832010E+04  0.00000000000E+00 0. -1.
         25    1    1    2    0    0  0.13268509305E+03 -0.42715766039E+00 -0.50600140169E+03  0.53783634583E+03  0.12500000000E+03 0.  0.
         25    1    1    2    0    0 -0.13268509305E+03  0.42715766039E+00 -0.47342257875E+03  0.50730607571E+03  0.12500000000E+03 0.  0.
</event>
<event>
 4    0  0.2222207E-002  0.2713126E+03  0.7546771E-02  0.1100531E+00
         21   -1    0    0  502  501  0.00000000000E+00  0.00000000000E+00  0.84403791394E+03  0.84403791394E+03  0.00000000000E+00 0. -1.
         21   -1    0    0  501  502 -0.00000000000E+00 -0.00000000000E+00 -0.87212342716E+02  0.87212342716E+02  0.00000000000E+00 0. -1.
         25    1    1    2    0    0  0.53530451416E+02 -0.19143509551E+03  0.14515793182E+03  0.27605928746E+03  0.12500000000E+03 0.  0.
         25    1    1    2    0    0 -0.53530451416E+02  0.19143509551E+03  0.61166763941E+03  0.65519096920E+03  0.12500000000E+03 0.  0.
</event>
<event>
 4    0  0.2222207E-002  0.3158766E+03  0.7546771E-02  0.1077563E+00
         21   -1    0    0  502  501  0.00000000000E+00  0.00000000000E+00  0.10683380650E+03  0.10683380650E+03  0.00000000000E+00 0. -1.
         21   -1    0    0  501  502 -0.00000000000E+00 -0.00000000000E+00 -0.93395575747E+03  0.93395575747E+03  0.00000000000E+00 0. -1.
         25    1    1    2    0    0  0.14254912354E+03 -0.15832995179E+03 -0.73792455827E+03  0.77816854212E+03  0.12500000000E+03 0.  0.
         25    1    1    2    0    0 -0.14254912354E+03  0.15832995179E+03 -0.89197392698E+02  0.26262102185E+03  0.12500000000E+03 0.  0.
</event>
<event>
 4    0  0.2222207E-002  0.2324722E+03  0.7546771E-02  0.1124912E+00
         21   -1    0    0  502  501  0.00000000000E+00  0.00000000000E+00  0.65331083586E+02  0.65331083586E+02  0.00000000000E+00 0.  1.
         21   -1    0    0  501  502 -0.00000000000E+00 -0.00000000000E+00 -0.82722253866E+03  0.82722253866E+03  0.00000000000E+00 0.  1.
         25    1    1    2    0    0 -0.93860875113E+02 -0.50094963322E+02 -0.64929308229E+02  0.17652247532E+03  0.12500000000E+03 0.  0.
         25    1    1    2    0    0  0.93860875113E+02  0.50094963322E+02 -0.69696214684E+03  0.71603114692E+03  0.12500000000E+03 0.  0.
</event>
<event>
 4    0  0.2222207E-002  0.2032475E+03  0.7546771E-02  0.1147028E+00
         21   -1    0    0  502  501  0.00000000000E+00  0.00000000000E+00  0.71336421476E+03  0.71336421476E+03  0.00000000000E+00 0. -1.
         21   -1    0    0  501  502 -0.00000000000E+00 -0.00000000000E+00 -0.57908054518E+02  0.57908054518E+02  0.00000000000E+00 0. -1.
         25    1    1    2    0    0 -0.11851748391E+03  0.10435703263E+03  0.37961174731E+03  0.42972882490E+03  0.12500000000E+03 0.  0.
         25    1    1    2    0    0  0.11851748391E+03 -0.10435703263E+03  0.27584441293E+03  0.34154344438E+03  0.12500000000E+03 0.  0.
</event>
<event>
 4    0  0.2222207E-002  0.1754130E+03  0.7546771E-02  0.1172318E+00
         21   -1    0    0  502  501  0.00000000000E+00  0.00000000000E+00  0.13156658688E+03  0.13156658688E+03  0.00000000000E+00 0. -1.
         21   -1    0    0  501  502 -0.00000000000E+00 -0.00000000000E+00 -0.23387177576E+03  0.23387177576E+03  0.00000000000E+00 0. -1.
         25    1    1    2    0    0  0.17288705384E+01 -0.97409539619E+02  0.27166185585E+02  0.16079368471E+03  0.12500000000E+03 0.  0.
         25    1    1    2    0    0 -0.17288705384E+01  0.97409539619E+02 -0.12947137446E+03  0.20464467793E+03  0.12500000000E+03 0.  0.
</event>
<event>
 4    0  0.2222207E-002  0.2543418E+03  0.7546771E-02  0.1110591E+00
         21   -1    0    0  502  501  0.00000000000E+00  0.00000000000E+00  0.97708622913E+02  0.97708622913E+02  0.00000000000E+00 0.  1.
         21   -1    0    0  501  502 -0.00000000000E+00 -0.00000000000E+00 -0.66206781854E+03  0.66206781854E+03  0.00000000000E+00 0.  1.
         25    1    1    2    0    0 -0.16057014408E+03  0.14357539998E+03 -0.35932971736E+03  0.43719505078E+03  0.12500000000E+03 0.  0.
         25    1    1    2    0    0  0.16057014408E+03 -0.14357539998E+03 -0.20502947827E+03  0.32258139067E+03  0.12500000000E+03 0.  0.
</event>
<event>
 4    0  0.2222207E-002  0.2014383E+03  0.7546771E-02  0.1148531E+00
         21   -1    0    0  502  501  0.00000000000E+00  0.00000000000E+00  0.27444776244E+03  0.27444776244E+03  0.00000000000E+00 0.  1.
         21   -1    0    0  501  502 -0.00000000000E+00 -0.00000000000E+00 -0.14785107993E+03  0.14785107993E+03  0.00000000000E+00 0.  1.
         25    1    1    2    0    0 -0.11157168573E+03  0.11080179293E+03  0.79095362019E+02  0.21588504966E+03  0.12500000000E+03 0.  0.
         25    1    1    2    0    0  0.11157168573E+03 -0.11080179293E+03  0.47501320495E+02  0.20641379271E+03  0.12500000000E+03 0.  0.
</event>
<event>
 4    0  0.2222207E-002  0.1657773E+03  0.7546771E-02  0.1182324E+00
         21   -1    0    0  502  501  0.00000000000E+00  0.00000000000E+00  0.10826081352E+03  0.10826081352E+03  0.00000000000E+00 0. -1.
         21   -1    0    0  501  502 -0.00000000000E+00 -0.00000000000E+00 -0.25385106005E+03  0.25385106005E+03  0.00000000000E+00 0. -1.
         25    1    1    2    0    0  0.62603723763E+02  0.73555923809E+02 -0.12770197299E+03  0.20313171604E+03  0.12500000000E+03 0.  0.
         25    1    1    2    0    0 -0.62603723763E+02 -0.73555923809E+02 -0.17888273545E+02  0.15898015753E+03  0.12500000000E+03 0.  0.
</event>
<event>
 4    0  0.2222207E-002  0.2555809E+03  0.7546771E-02  0.1109828E+00
         21   -1    0    0  502  501  0.00000000000E+00  0.00000000000E+00  0.78843274992E+02  0.78843274992E+02  0.00000000000E+00 0. -1.
         21   -1    0    0  501  502 -0.00000000000E+00 -0.00000000000E+00 -0.82849907783E+03  0.82849907783E+03  0.00000000000E+00 0. -1.
         25    1    1    2    0    0  0.34920228945E+02 -0.21058766878E+03 -0.48890210618E+03  0.54792048516E+03  0.12500000000E+03 0.  0.
         25    1    1    2    0    0 -0.34920228945E+02  0.21058766878E+03 -0.26075369666E+03  0.35942186766E+03  0.12500000000E+03 0.  0.
</event>
<event>
 4    0  0.2222207E-002  0.4176132E+03  0.7546771E-02  0.1037846E+00
         21   -1    0    0  502  501  0.00000000000E+00  0.00000000000E+00  0.22156022245E+03  0.22156022245E+03  0.00000000000E+00 0.  1.
         21   -1    0    0  501  502 -0.00000000000E+00 -0.00000000000E+00 -0.78714852208E+03  0.78714852208E+03  0.00000000000E+00 0.  1.
         25    1    1    2    0    0  0.38084581651E+03 -0.11562785248E+03 -0.25980119182E+03  0.49146209975E+03  0.12500000000E+03 0.  0.
         25    1    1    2    0    0 -0.38084581651E+03  0.11562785248E+03 -0.30578710782E+03  0.51724664477E+03  0.12500000000E+03 0.  0.
</event>
<event>
 4    0  0.2222207E-002  0.3145786E+03  0.7546771E-02  0.1078172E+00
         21   -1    0    0  502  501  0.00000000000E+00  0.00000000000E+00  0.23865711801E+03  0.23865711801E+03  0.00000000000E+00 0.  1.
         21   -1    0    0  501  502 -0.00000000000E+00 -0.00000000000E+00 -0.41465227853E+03  0.41465227853E+03  0.00000000000E+00 0.  1.
         25    1    1    2    0    0  0.24562044878E+01  0.18835810044E+03  0.13914588728E+03  0.26546447011E+03  0.12500000000E+03 0.  0.
         25    1    1    2    0    0 -0.24562044878E+01 -0.18835810044E+03 -0.31514104781E+03  0.38784492643E+03  0.12500000000E+03 0.  0.
</event>
<event>
 4    0  0.2222207E-002  0.2224631E+03  0.7546771E-02  0.1132060E+00
         21   -1    0    0  502  501  0.00000000000E+00  0.00000000000E+00  0.18028622357E+02  0.18028622357E+02  0.00000000000E+00 0.  1.
         21   -1    0    0  501  502 -0.00000000000E+00 -0.00000000000E+00 -0.27450699489E+04  0.27450699489E+04  0.00000000000E+00 0.  1.
         25    1    1    2    0    0  0.14135936234E+03  0.10294691771E+03 -0.17194217407E+04  0.17328060075E+04  0.12500000000E+03 0.  0.
         25    1    1    2    0    0 -0.14135936234E+03 -0.10294691771E+03 -0.10076195858E+04  0.10302925638E+04  0.12500000000E+03 0.  0.
</event>
<event>
 4    0  0.2222207E-002  0.2855101E+03  0.7546771E-02  0.1092717E+00
         21   -1    0    0  502  501  0.00000000000E+00  0.00000000000E+00  0.28147882593E+03  0.28147882593E+03  0.00000000000E+00 0.  1.
         21   -1    0    0  501  502 -0.00000000000E+00 -0.00000000000E+00 -0.28959910923E+03  0.28959910923E+03  0.00000000000E+00 0.  1.
         25    1    1    2    0    0  0.34643023238E+02 -0.21054875962E+03  0.13864310072E+03  0.28350983866E+03  0.12500000000E+03 0.  0.
         25    1    1    2    0    0 -0.34643023238E+02  0.21054875962E+03 -0.14676338403E+03  0.28756809651E+03  0.12500000000E+03 0.  0.
</event>
<event>
 4    0  0.2222207E-002  0.1923541E+03  0.7546771E-02  0.1156355E+00
         21   -1    0    0  502  501  0.00000000000E+00  0.00000000000E+00  0.51671552667E+03  0.51671552667E+03  0.00000000000E+00 0. -1.
         21   -1    0    0  501  502 -0.00000000000E+00 -0.00000000000E+00 -0.71606301792E+02  0.71606301792E+02  0.00000000000E+00 0. -1.
         25    1    1    2    0    0  0.12721250290E+03  0.33339596145E+02  0.12486636420E+03  0.22025248801E+03  0.12500000000E+03 0.  0.
         25    1    1    2    0    0 -0.12721250290E+03 -0.33339596145E+02  0.32024286068E+03  0.36806934046E+03  0.12500000000E+03 0.  0.
</event>
<event>
 4    0  0.2222207E-002  0.1554409E+03  0.7546771E-02  0.1193942E+00
         21   -1    0    0  502  501  0.00000000000E+00  0.00000000000E+00  0.34355198682E+03  0.34355198682E+03  0.00000000000E+00 0.  1.
         21   -1    0    0  501  502 -0.00000000000E+00 -0.00000000000E+00 -0.70329638538E+02  0.70329638538E+02  0.00000000000E+00 0.  1.
         25    1    1    2    0    0  0.12568361191E+02 -0.42436846140E+02  0.28634761186E+02  0.13566060283E+03  0.12500000000E+03 0.  0.
         25    1    1    2    0    0 -0.12568361191E+02  0.42436846140E+02  0.24458758710E+03  0.27822102253E+03  0.12500000000E+03 0.  0.
</event>
<event>
 4    0  0.2222207E-002  0.1749827E+03  0.7546771E-02  0.1172749E+00
         21   -1    0    0  502  501  0.00000000000E+00  0.00000000000E+00  0.19248366154E+04  0.19248366154E+04  0.00000000000E+00 0. -1.
         21   -1    0    0  501  502 -0.00000000000E+00 -0.00000000000E+00 -0.15907302966E+02  0.15907302966E+02  0.00000000000E+00 0. -1.
         25    1    1    2    0    0  0.51735402696E+02 -0.19157138461E+02  0.15606905096E+04  0.15666599550E+04  0.12500000000E+03 0.  0.
         25    1    1    2    0    0 -0.51735402696E+02  0.19157138461E+02  0.34823880279E+03  0.37408396332E+03  0.12500000000E+03 0.  0.
</event>
<event>
 4    0  0.2222207E-002  0.1790554E+03  0.7546771E-02  0.1168720E+00
         21   -1    0    0  502  501  0.00000000000E+00  0.00000000000E+00  0.46316610740E+03  0.46316610740E+03  0.00000000000E+00 0. -1.
         21   -1    0    0  501  502 -0.00000000000E+00 -0.00000000000E+00 -0.69220999556E+02  0.69220999556E+02  0.00000000000E+00 0. -1.
         25    1    1    2    0    0  0.11590408353E+03  0.32411619187E+02  0.13129753627E+03  0.21759667430E+03  0.12500000000E+03 0.  0.
         25    1    1    2    0    0 -0.11590408353E+03 -0.32411619187E+02  0.26264757158E+03  0.31479043266E+03  0.12500000000E+03 0.  0.
</event>
<event>
 4    0  0.2222207E-002  0.1772548E+03  0.7546771E-02  0.1170487E+00
         21   -1    0    0  502  501  0.00000000000E+00  0.00000000000E+00  0.77499782215E+02  0.77499782215E+02  0.00000000000E+00 0.  1.
         21   -1    0    0  501  502 -0.00000000000E+00 -0.00000000000E+00 -0.40541119494E+03  0.40541119494E+03  0.00000000000E+00 0.  1.
         25    1    1    2    0    0 -0.39303550852E+02 -0.43572877038E+02 -0.31534268853E+03  0.34425190767E+03  0.12500000000E+03 0.  0.
         25    1    1    2    0    0  0.39303550852E+02  0.43572877038E+02 -0.12568724193E+02  0.13865906949E+03  0.12500000000E+03 0.  0.
</event>
<event>
 4    0  0.2222207E-002  0.2318019E+03  0.7546771E-02  0.1125378E+00
         21   -1    0    0  502  501  0.00000000000E+00  0.00000000000E+00  0.87665794753E+02  0.87665794753E+02  0.00000000000E+00 0. -1.
         21   -1    0    0  501  502 -0.00000000000E+00 -0.00000000000E+00 -0.61291975941E+03  0.61291975941E+03  0.00000000000E+00 0. -1.
         25    1    1    2    0    0  0.98171190059E+02 -0.91402969635E+02 -0.48301190718E+02  0.18960509076E+03  0.12500000000E+03 0.  0.
         25    1    1    2    0    0 -0.98171190059E+02  0.91402969635E+02 -0.47695277394E+03  0.51098046341E+03  0.12500000000E+03 0.  0.
</event>
<event>
 4    0  0.2222207E-002  0.3818647E+03  0.7546771E-02  0.1050247E+00
         21   -1    0    0  502  501  0.00000000000E+00  0.00000000000E+00  0.78557237692E+03  0.78557237692E+03  0.00000000000E+00 0. -1.
         21   -1    0    0  501  502 -0.00000000000E+00 -0.00000000000E+00 -0.18562340902E+03  0.18562340902E+03  0.00000000000E+00 0. -1.
         25    1    1    2    0    0 -0.93626796613E+02 -0.26447344738E+03  0.11437755343E+02  0.30735647653E+03  0.12500000000E+03 0.  0.
         25    1    1    2    0    0  0.93626796613E+02  0.26447344738E+03  0.58851121255E+03  0.66383930941E+03  0.12500000000E+03 0.  0.
</event>
<event>
 4    0  0.2222207E-002  0.2328863E+03  0.7546771E-02  0.1124625E+00
         21   -1    0    0  502  501  0.00000000000E+00  0.00000000000E+00  0.11609047755E+04  0.11609047755E+04  0.00000000000E+00 0. -1.
         21   -1    0    0  501  502 -0.00000000000E+00 -0.00000000000E+00 -0.46718742136E+02  0.46718742136E+02  0.00000000000E+00 0. -1.
         25    1    1    2    0    0  0.41121274484E+02 -0.75771685703E+02  0.10149045416E+04  0.10262010213E+04  0.12500000000E+03 0.  0.
         25    1    1    2    0    0 -0.41121274484E+02  0.75771685703E+02  0.99281491774E+02  0.18142249634E+03  0.12500000000E+03 0.  0.
</event>
<event>
 4    0  0.2222207E-002  0.1915658E+03  0.7546771E-02  0.1157057E+00
         21   -1    0    0  502  501  0.00000000000E+00  0.00000000000E+00  0.70264445341E+03  0.70264445341E+03  0.00000000000E+00 0. -1.
         21   -1    0    0  501  502 -0.00000000000E+00 -0.00000000000E+00 -0.52227632714E+02  0.52227632714E+02  0.00000000000E+00 0. -1.
         25    1    1    2    0    0 -0.49936435818E+02 -0.96375822934E+02  0.51511723953E+03  0.54106627813E+03  0.12500000000E+03 0.  0.
         25    1    1    2    0    0  0.49936435818E+02  0.96375822934E+02  0.13529958117E+03  0.21380580800E+03  0.12500000000E+03 0.  0.
</event>
<event>
 4    0  0.2222207E-002  0.2530075E+03  0.7546771E-02  0.1111419E+00
         21   -1    0    0  502  501  0.00000000000E+00  0.00000000000E+00  0.13368161803E+04  0.13368161803E+04  0.00000000000E+00 0.  1.
         21   -1    0    0  501  502 -0.00000000000E+00 -0.00000000000E+00 -0.47884518948E+02  0.47884518948E+02  0.00000000000E+00 0.  1.
         25    1    1    2    0    0  0.18217607346E+03 -0.24184807054E+02  0.97528338220E+03  0.10002878097E+04  0.12500000000E+03 0.  0.
         25    1    1    2    0    0 -0.18217607346E+03  0.24184807054E+02  0.31364827912E+03  0.38441288952E+03  0.12500000000E+03 0.  0.
</event>
<event>
 4    0  0.2222207E-002  0.1908797E+03  0.7546771E-02  0.1157670E+00
         21   -1    0    0  502  501  0.00000000000E+00  0.00000000000E+00  0.41070886145E+03  0.41070886145E+03  0.00000000000E+00 0.  1.
         21   -1    0    0  501  502 -0.00000000000E+00 -0.00000000000E+00 -0.88712592034E+02  0.88712592034E+02  0.00000000000E+00 0.  1.
         25    1    1    2    0    0  0.66455840599E+02  0.90096484415E+02  0.41984850207E+02  0.17297827291E+03  0.12500000000E+03 0.  0.
         25    1    1    2    0    0 -0.66455840599E+02 -0.90096484415E+02  0.28001141921E+03  0.32644318057E+03  0.12500000000E+03 0.  0.
</event>
<event>
 4    0  0.2222207E-002  0.1911050E+03  0.7546771E-02  0.1157468E+00
         21   -1    0    0  502  501  0.00000000000E+00  0.00000000000E+00  0.15550716027E+03  0.15550716027E+03  0.00000000000E+00 0.  1.
         21   -1    0    0  501  502 -0.00000000000E+00 -0.00000000000E+00 -0.23485181491E+03  0.23485181491E+03  0.00000000000E+00 0.  1.
         25    1    1    2    0    0  0.10095470656E+03  0.49675915537E+02  0.53018279997E+02  0.17633912604E+03  0.12500000000E+03 0.  0.
         25    1    1    2    0    0 -0.10095470656E+03 -0.49675915537E+02 -0.13236293463E+03  0.21401984914E+03  0.12500000000E+03 0.  0.
</event>
<event>
 4    0  0.2222207E-002  0.2436624E+03  0.7546771E-02  0.1117377E+00
         21   -1    0    0  502  501  0.00000000000E+00  0.00000000000E+00  0.77988523539E+02  0.77988523539E+02  0.00000000000E+00 0.  1.
         21   -1    0    0  501  502 -0.00000000000E+00 -0.00000000000E+00 -0.76128341487E+03  0.76128341487E+03  0.00000000000E+00 0.  1.
         25    1    1    2    0    0  0.10616723858E+03  0.16150886126E+03 -0.20398136562E+03  0.30755486069E+03  0.12500000000E+03 0.  0.
         25    1    1    2    0    0 -0.10616723858E+03 -0.16150886126E+03 -0.47931352571E+03  0.53171707772E+03  0.12500000000E+03 0.  0.
</event>
<event>
 4    0  0.2222207E-002  0.2267662E+03  0.7546771E-02  0.1128937E+00
         21   -1    0    0  502  501  0.00000000000E+00  0.00000000000E+00  0.53300268969E+03  0.53300268969E+03  0.00000000000E+00 0. -1.
         21   -1    0    0  501  502 -0.00000000000E+00 -0.00000000000E+00 -0.96477793272E+02  0.96477793272E+02  0.00000000000E+00 0. -1.
         25    1    1    2    0    0  0.11164111379E+03  0.13784463456E+03  0.12689945294E+03  0.25138288073E+03  0.12500000000E+03 0.  0.
         25    1    1    2    0    0 -0.11164111379E+03 -0.13784463456E+03  0.30962544347E+03  0.37809760223E+03  0.12500000000E+03 0.  0.
</event>
<event>
 4    0  0.2222207E-002  0.1759818E+03  0.7546771E-02  0.1171750E+00
         21   -1    0    0  502  501  0.00000000000E+00  0.00000000000E+00  0.11261050371E+03  0.11261050371E+03  0.00000000000E+00 0.  1.
         21   -1    0    0  501  502 -0.00000000000E+00 -0.00000000000E+00 -0.27501500940E+03  0.27501500940E+03  0.00000000000E+00 0. -1.
         25    1    1    2    0    0  0.23985359015E+01 -0.12353065092E+03 -0.71413229237E+02  0.18971142296E+03  0.12500000000E+03 0.  0.
         25    1    1    2    0    0 -0.23985359015E+01  0.12353065092E+03 -0.90991276459E+02  0.19791409016E+03  0.12500000000E+03 0.  0.
</event>
<event>
 4    0  0.2222207E-002  0.2052973E+03  0.7546771E-02  0.1145345E+00
         21   -1    0    0  502  501  0.00000000000E+00  0.00000000000E+00  0.32453581535E+03  0.32453581535E+03  0.00000000000E+00 0.  1.
         21   -1    0    0  501  502 -0.00000000000E+00 -0.00000000000E+00 -0.12986848162E+03  0.12986848162E+03  0.00000000000E+00 0.  1.
         25    1    1    2    0    0  0.11079218664E+03 -0.11205975167E+03  0.51842080272E+02  0.20771349944E+03  0.12500000000E+03 0.  0.
         25    1    1    2    0    0 -0.11079218664E+03  0.11205975167E+03  0.14282525346E+03  0.24669079753E+03  0.12500000000E+03 0.  0.
</event>
<event>
 4    0  0.2222207E-002  0.2733451E+03  0.7546771E-02  0.1099380E+00
         21   -1    0    0  502  501  0.00000000000E+00  0.00000000000E+00  0.78628381637E+03  0.78628381637E+03  0.00000000000E+00 0.  1.
         21   -1    0    0  501  502 -0.00000000000E+00 -0.00000000000E+00 -0.95026161529E+02  0.95026161529E+02  0.00000000000E+00 0.  1.
         25    1    1    2    0    0  0.15584591778E+03  0.38993597187E+02  0.51521582607E+02  0.20997124609E+03  0.12500000000E+03 0.  0.
         25    1    1    2    0    0 -0.15584591778E+03 -0.38993597187E+02  0.63973607224E+03  0.67133873181E+03  0.12500000000E+03 0.  0.
</event>
<event>
 4    0  0.2222207E-002  0.1552545E+03  0.7546771E-02  0.1194161E+00
         21   -1    0    0  502  501  0.00000000000E+00  0.00000000000E+00  0.31580084623E+03  0.31580084623E+03  0.00000000000E+00 0. -1.
         21   -1    0    0  501  502 -0.00000000000E+00 -0.00000000000E+00 -0.76326457113E+02  0.76326457113E+02  0.00000000000E+00 0. -1.
         25    1    1    2    0    0 -0.59857313427E+02  0.24948221360E+02  0.20229388338E+03  0.24648149418E+03  0.12500000000E+03 0.  0.
         25    1    1    2    0    0  0.59857313427E+02 -0.24948221360E+02  0.37180505736E+02  0.14564580916E+03  0.12500000000E+03 0.  0.
</event>
<event>
 4    0  0.2222207E-002  0.2926342E+03  0.7546771E-02  0.1088982E+00
         21   -1    0    0  502  501  0.00000000000E+00  0.00000000000E+00  0.53009073239E+03  0.53009073239E+03  0.00000000000E+00 0.  1.
         21   -1    0    0  501  502 -0.00000000000E+00 -0.00000000000E+00 -0.16154739093E+03  0.16154739093E+03  0.00000000000E+00 0.  1.
         25    1    1    2    0    0  0.12187633606E+03  0.23301590450E+03  0.21891760508E+03  0.36428034652E+03  0.12500000000E+03 0.  0.
         25    1    1    2    0    0 -0.12187633606E+03 -0.23301590450E+03  0.14962573638E+03  0.32735777680E+03  0.12500000000E+03 0.  0.
</event>
<event>
 4    0  0.2222207E-002  0.2773850E+03  0.7546771E-02  0.1097126E+00
         21   -1    0    0  502  501  0.00000000000E+00  0.00000000000E+00  0.11989077136E+04  0.11989077136E+04  0.00000000000E+00 0.  1.
         21   -1    0    0  501  502 -0.00000000000E+00 -0.00000000000E+00 -0.64177124429E+02  0.64177124429E+02  0.00000000000E+00 0.  1.
         25    1    1    2    0    0 -0.81966843447E+02 -0.66850533063E+01  0.10991472572E+04  0.11092848807E+04  0.12500000000E+03 0.  0.
         25    1    1    2    0    0  0.81966843447E+02  0.66850533063E+01  0.35583331876E+02  0.15379995731E+03  0.12500000000E+03 0.  0.
</event>
<event>
 4    0  0.2222207E-002  0.2931267E+03  0.7546771E-02  0.1088728E+00
         21   -1    0    0  502  501  0.00000000000E+00  0.00000000000E+00  0.21782355040E+04  0.21782355040E+04  0.00000000000E+00 0. -1.
         21   -1    0    0  501  502 -0.00000000000E+00 -0.00000000000E+00 -0.39446278251E+02  0.39446278251E+02  0.00000000000E+00 0. -1.
         25    1    1    2    0    0  0.32007485512E+02 -0.32936056817E+02  0.20571991738E+04  0.20615049609E+04  0.12500000000E+03 0.  0.
         25    1    1    2    0    0 -0.32007485512E+02  0.32936056817E+02  0.81590051982E+02  0.15617682142E+03  0.12500000000E+03 0.  0.
</event>
<event>
 4    0  0.2222207E-002  0.1700386E+03  0.7546771E-02  0.1177808E+00
         21   -1    0    0  502  501  0.00000000000E+00  0.00000000000E+00  0.21756526443E+03  0.21756526443E+03  0.00000000000E+00 0. -1.
         21   -1    0    0  501  502 -0.00000000000E+00 -0.00000000000E+00 -0.13289403536E+03  0.13289403536E+03  0.00000000000E+00 0. -1.
         25    1    1    2    0    0 -0.88834800886E+02 -0.58366141199E+02  0.88305713584E+02  0.18633606022E+03  0.12500000000E+03 0.  0.
         25    1    1    2    0    0  0.88834800886E+02  0.58366141199E+02 -0.36344845146E+01  0.16412323956E+03  0.12500000000E+03 0.  0.
</event>
<event>
 4    0  0.2222207E-002  0.1797068E+03  0.7546771E-02  0.1168087E+00
         21   -1    0    0  502  501  0.00000000000E+00  0.00000000000E+00  0.21158040780E+03  0.21158040780E+03  0.00000000000E+00 0. -1.
         21   -1    0    0  501  502 -0.00000000000E+00 -0.00000000000E+00 -0.15263485590E+03  0.15263485590E+03  0.00000000000E+00 0. -1.
         25    1    1    2    0    0 -0.24198911013E+02  0.34124769087E+02 -0.94304261246E+02  0.16207523206E+03  0.12500000000E+03 0.  0.
         25    1    1    2    0    0  0.24198911013E+02 -0.34124769087E+02  0.15324981315E+03  0.20214003164E+03  0.12500000000E+03 0.  0.
</event>
<event>
 4    0  0.2222207E-002  0.2004991E+03  0.7546771E-02  0.1149319E+00
         21   -1    0    0  502  501  0.00000000000E+00  0.00000000000E+00  0.12128023207E+03  0.12128023207E+03  0.00000000000E+00 0.  1.
         21   -1    0    0  501  502 -0.00000000000E+00 -0.00000000000E+00 -0.33146266930E+03  0.33146266930E+03  0.00000000000E+00 0.  1.
         25    1    1    2    0    0 -0.41514910074E+02  0.34499616910E+02 -0.27126028087E+03  0.30351416985E+03  0.12500000000E+03 0.  0.
         25    1    1    2    0    0  0.41514910074E+02 -0.34499616910E+02  0.61077843638E+02  0.14922873151E+03  0.12500000000E+03 0.  0.
</event>
<event>
 4    0  0.2222207E-002  0.2675358E+03  0.7546771E-02  0.1102698E+00
         21   -1    0    0  502  501  0.00000000000E+00  0.00000000000E+00  0.14666284957E+03  0.14666284957E+03  0.00000000000E+00 0.  1.
         21   -1    0    0  501  502 -0.00000000000E+00 -0.00000000000E+00 -0.48802689271E+03  0.48802689271E+03  0.00000000000E+00 0.  1.
         25    1    1    2    0    0  0.10405730150E+03 -0.99635862341E+02  0.51849321905E+02  0.19765773256E+03  0.12500000000E+03 0.  0.
         25    1    1    2    0    0 -0.10405730150E+03  0.99635862341E+02 -0.39321336505E+03  0.43703200971E+03  0.12500000000E+03 0.  0.
</event>
<event>
 4    0  0.2222207E-002  0.2152523E+03  0.7546771E-02  0.1137473E+00
         21   -1    0    0  502  501  0.00000000000E+00  0.00000000000E+00  0.25379209481E+03  0.25379209481E+03  0.00000000000E+00 0.  1.
         21   -1    0    0  501  502 -0.00000000000E+00 -0.00000000000E+00 -0.18256497786E+03  0.18256497786E+03  0.00000000000E+00 0.  1.
         25    1    1    2    0    0 -0.10174065066E+03 -0.92494748086E+02 -0.74500829375E+02  0.20020442552E+03  0.12500000000E+03 0.  0.
         25    1    1    2    0    0  0.10174065066E+03  0.92494748086E+02  0.14572794632E+03  0.23615264716E+03  0.12500000000E+03 0.  0.
</event>
<event>
 4    0  0.2222207E-002  0.2389113E+03  0.7546771E-02  0.1120520E+00
         21   -1    0    0  502  501  0.00000000000E+00  0.00000000000E+00  0.22534025288E+03  0.22534025288E+03  0.00000000000E+00 0. -1.
         21   -1    0    0  501  502 -0.00000000000E+00 -0.00000000000E+00 -0.25329976446E+03  0.25329976446E+03  0.00000000000E+00 0. -1.
         25    1    1    2    0    0  0.16762135313E+03  0.11278448611E+03  0.11289861421E+02  0.23784389692E+03  0.12500000000E+03 0.  0.
         25    1    1    2    0    0 -0.16762135313E+03 -0.11278448611E+03 -0.39249373000E+02  0.24079612043E+03  0.12500000000E+03 0.  0.
</event>
<event>
 4    0  0.2222207E-002  0.2743035E+03  0.7546771E-02  0.1098842E+00
         21   -1    0    0  502  501  0.00000000000E+00  0.00000000000E+00  0.25532175446E+03  0.25532175446E+03  0.00000000000E+00 0.  1.
         21   -1    0    0  501  502 -0.00000000000E+00 -0.00000000000E+00 -0.29469643670E+03  0.29469643670E+03  0.00000000000E+00 0.  1.
         25    1    1    2    0    0 -0.12039523093E+02  0.19321810367E+03  0.12948795817E+03  0.26432993968E+03  0.12500000000E+03 0.  0.
         25    1    1    2    0    0  0.12039523093E+02 -0.19321810367E+03 -0.16886264040E+03  0.28568825147E+03  0.12500000000E+03 0.  0.
</event>
<event>
 4    0  0.2222207E-002  0.2136665E+03  0.7546771E-02  0.1138695E+00
         21   -1    0    0  502  501  0.00000000000E+00  0.00000000000E+00  0.31062635238E+02  0.31062635238E+02  0.00000000000E+00 0.  1.
         21   -1    0    0  501  502 -0.00000000000E+00 -0.00000000000E+00 -0.14697202990E+04  0.14697202990E+04  0.00000000000E+00 0.  1.
         25    1    1    2    0    0 -0.94039018921E+02 -0.44429171985E+02 -0.23255471635E+03  0.28376748316E+03  0.12500000000E+03 0.  0.
         25    1    1    2    0    0  0.94039018921E+02  0.44429171985E+02 -0.12061029474E+04  0.12170154511E+04  0.12500000000E+03 0.  0.
</event>
<event>
 4    0  0.2222207E-002  0.2328655E+03  0.7546771E-02  0.1124639E+00
         21   -1    0    0  502  501  0.00000000000E+00  0.00000000000E+00  0.87254059970E+03  0.87254059970E+03  0.00000000000E+00 0.  1.
         21   -1    0    0  501  502 -0.00000000000E+00 -0.00000000000E+00 -0.62147652551E+02  0.62147652551E+02  0.00000000000E+00 0.  1.
         25    1    1    2    0    0  0.17500567823E+02 -0.17711075932E+03  0.23816443620E+03  0.32252409152E+03  0.12500000000E+03 0.  0.
         25    1    1    2    0    0 -0.17500567823E+02  0.17711075932E+03  0.57222851094E+03  0.61216416073E+03  0.12500000000E+03 0.  0.
</event>
<event>
 4    0  0.2222207E-002  0.1327148E+03  0.7546771E-02  0.1223482E+00
         21   -1    0    0  502  501  0.00000000000E+00  0.00000000000E+00  0.30469486431E+03  0.30469486431E+03  0.00000000000E+00 0.  1.
         21   -1    0    0  501  502 -0.00000000000E+00 -0.00000000000E+00 -0.57806105904E+02  0.57806105904E+02  0.00000000000E+00 0.  1.
         25    1    1    2    0    0  0.26525257998E+02  0.23080734727E+02  0.16089369000E+03  0.20675611021E+03  0.12500000000E+03 0.  0.
         25    1    1    2    0    0 -0.26525257998E+02 -0.23080734727E+02  0.85995068406E+02  0.15574486000E+03  0.12500000000E+03 0.  0.
</event>
<event>
 4    0  0.2222207E-002  0.2194852E+03  0.7546771E-02  0.1134267E+00
         21   -1    0    0  502  501  0.00000000000E+00  0.00000000000E+00  0.66525275378E+03  0.66525275378E+03  0.00000000000E+00 0.  1.
         21   -1    0    0  501  502 -0.00000000000E+00 -0.00000000000E+00 -0.72414184575E+02  0.72414184575E+02  0.00000000000E+00 0.  1.
         25    1    1    2    0    0 -0.79238675513E+02 -0.96119999872E+02  0.51572206302E+03  0.54507987337E+03  0.12500000000E+03 0.  0.
         25    1    1    2    0    0  0.79238675513E+02  0.96119999872E+02  0.77116506190E+02  0.19258706499E+03  0.12500000000E+03 0.  0.
</event>
<event>
 4    0  0.2222207E-002  0.1915864E+03  0.7546771E-02  0.1157038E+00
         21   -1    0    0  502  501  0.00000000000E+00  0.00000000000E+00  0.18269751639E+03  0.18269751639E+03  0.00000000000E+00 0. -1.
         21   -1    0    0  501  502 -0.00000000000E+00 -0.00000000000E+00 -0.20090782725E+03  0.20090782725E+03  0.00000000000E+00 0. -1.
         25    1    1    2    0    0  0.28362768451E+02  0.35396242501E+02 -0.14718479340E+03  0.19835751568E+03  0.12500000000E+03 0.  0.
         25    1    1    2    0    0 -0.28362768451E+02 -0.35396242501E+02  0.12897448254E+03  0.18524782796E+03  0.12500000000E+03 0.  0.
</event>
<event>
 4    0  0.2222207E-002  0.2081457E+03  0.7546771E-02  0.1143043E+00
         21   -1    0    0  502  501  0.00000000000E+00  0.00000000000E+00  0.29195810084E+02  0.29195810084E+02  0.00000000000E+00 0. -1.
         21   -1    0    0  501  502 -0.00000000000E+00 -0.00000000000E+00 -0.14839325829E+04  0.14839325829E+04  0.00000000000E+00 0. -1.
         25    1    1    2    0    0  0.92313617167E+02 -0.22519014678E+02 -0.23070884784E+03  0.27907074803E+03  0.12500000000E+03 0.  0.
         25    1    1    2    0    0 -0.92313617167E+02  0.22519014678E+02 -0.12240279250E+04  0.12340576449E+04  0.12500000000E+03 0.  0.
</event>
<event>
 4    0  0.2222207E-002  0.1922384E+03  0.7546771E-02  0.1156458E+00
         21   -1    0    0  502  501  0.00000000000E+00  0.00000000000E+00  0.30308247389E+02  0.30308247389E+02  0.00000000000E+00 0. -1.
         21   -1    0    0  501  502 -0.00000000000E+00 -0.00000000000E+00 -0.12193250001E+04  0.12193250001E+04  0.00000000000E+00 0. -1.
         25    1    1    2    0    0 -0.22974551067E+02  0.11806226189E+03 -0.32522876687E+03  0.36859907552E+03  0.12500000000E+03 0.  0.
         25    1    1    2    0    0  0.22974551067E+02 -0.11806226189E+03 -0.86378798581E+03  0.88103417194E+03  0.12500000000E+03 0.  0.
</event>
<event>
 4    0  0.2222207E-002  0.2365323E+03  0.7546771E-02  0.1122125E+00
         21   -1    0    0  502  501  0.00000000000E+00  0.00000000000E+00  0.19289959977E+03  0.19289959977E+03  0.00000000000E+00 0. -1.
         21   -1    0    0  501  502 -0.00000000000E+00 -0.00000000000E+00 -0.29003441807E+03  0.29003441807E+03  0.00000000000E+00 0. -1.
         25    1    1    2    0    0 -0.85909244075E+02  0.17333919869E+03 -0.10350127841E+03  0.25251611959E+03  0.12500000000E+03 0.  0.
         25    1    1    2    0    0  0.85909244075E+02 -0.17333919869E+03  0.63664601080E+01  0.23041789825E+03  0.12500000000E+03 0.  0.
</event>
<event>
 4    0  0.2222207E-002  0.2540894E+03  0.7546771E-02  0.1110747E+00
         21   -1    0    0  502  501  0.00000000000E+00  0.00000000000E+00  0.29239685974E+03  0.29239685974E+03  0.00000000000E+00 0.  1.
         21   -1    0    0  501  502 -0.00000000000E+00 -0.00000000000E+00 -0.22080072900E+03  0.22080072900E+03  0.00000000000E+00 0.  1.
         25    1    1    2    0    0 -0.16332676178E+03 -0.14156009981E+03  0.83396836751E+02  0.26323929295E+03  0.12500000000E+03 0.  0.
         25    1    1    2    0    0  0.16332676178E+03  0.14156009981E+03 -0.11800706007E+02  0.24995829579E+03  0.12500000000E+03 0.  0.
</event>
<event>
 4    0  0.2222207E-002  0.3032953E+03  0.7546771E-02  0.1083605E+00
         21   -1    0    0  502  501  0.00000000000E+00  0.00000000000E+00  0.49794227737E+03  0.49794227737E+03  0.00000000000E+00 0.  1.
         21   -1    0    0  501  502 -0.00000000000E+00 -0.00000000000E+00 -0.18473638135E+03  0.18473638135E+03  0.00000000000E+00 0.  1.
         25    1    1    2    0    0 -0.23679497756E+03  0.11679747363E+03  0.64829611741E+02  0.29923467346E+03  0.12500000000E+03 0.  0.
         25    1    1    2    0    0  0.23679497756E+03 -0.11679747363E+03  0.24837628428E+03  0.38344398526E+03  0.12500000000E+03 0.  0.
</event>
<event>
 4    0  0.2222207E-002  0.2199407E+03  0.7546771E-02  0.1133927E+00
         21   -1    0    0  502  501  0.00000000000E+00  0.00000000000E+00  0.34227909555E+03  0.34227909555E+03  0.00000000000E+00 0.  1.
         21   -1    0    0  501  502 -0.00000000000E+00 -0.00000000000E+00 -0.14132891203E+03  0.14132891203E+03  0.00000000000E+00 0.  1.
         25    1    1    2    0    0  0.57439370329E+02 -0.55863903265E+02 -0.77916321107E+02  0.16767829331E+03  0.12500000000E+03 0.  0.
         25    1    1    2    0    0 -0.57439370329E+02  0.55863903265E+02  0.27886650463E+03  0.31592971427E+03  0.12500000000E+03 0.  0.
</event>
<event>
 4    0  0.2222207E-002  0.3268603E+03  0.7546771E-02  0.1072535E+00
         21   -1    0    0  502  501  0.00000000000E+00  0.00000000000E+00  0.10567583671E+04  0.10567583671E+04  0.00000000000E+00 0. -1.
         21   -1    0    0  501  502 -0.00000000000E+00 -0.00000000000E+00 -0.10109939068E+03  0.10109939068E+03  0.00000000000E+00 0. -1.
         25    1    1    2    0    0  0.47443053699E+02 -0.43452144560E+01 -0.50395262838E+02  0.14294896554E+03  0.12500000000E+03 0.  0.
         25    1    1    2    0    0 -0.47443053699E+02  0.43452144560E+01  0.10060542392E+04  0.10149087922E+04  0.12500000000E+03 0.  0.
</event>
<event>
 4    0  0.2222207E-002  0.2046237E+03  0.7546771E-02  0.1145896E+00
         21   -1    0    0  502  501  0.00000000000E+00  0.00000000000E+00  0.28743034603E+03  0.28743034603E+03  0.00000000000E+00 0.  1.
         21   -1    0    0  501  502 -0.00000000000E+00 -0.00000000000E+00 -0.14567311699E+03  0.14567311699E+03  0.00000000000E+00 0.  1.
         25    1    1    2    0    0 -0.85333688639E+02 -0.53441464696E+02 -0.63437176454E+02  0.17258940849E+03  0.12500000000E+03 0.  0.
         25    1    1    2    0    0  0.85333688639E+02  0.53441464696E+02  0.20519440550E+03  0.26051405454E+03  0.12500000000E+03 0.  0.
</event>
<event>
 4    0  0.2222207E-002  0.2228632E+03  0.7546771E-02  0.1131766E+00
         21   -1    0    0  502  501  0.00000000000E+00  0.00000000000E+00  0.87948020843E+03  0.87948020843E+03  0.00000000000E+00 0.  1.
         21   -1    0    0  501  502 -0.00000000000E+00 -0.00000000000E+00 -0.56474268705E+02  0.56474268705E+02  0.00000000000E+00 0.  1.
         25    1    1    2    0    0 -0.53899694840E+02 -0.16646860653E+03  0.28859449986E+03  0.35990104114E+03  0.12500000000E+03 0.  0.
         25    1    1    2    0    0  0.53899694840E+02  0.16646860653E+03  0.53441143987E+03  0.57605343600E+03  0.12500000000E+03 0.  0.
</event>
<event>
 4    0  0.2222207E-002  0.2790913E+03  0.7546771E-02  0.1096186E+00
         21   -1    0    0  502  501  0.00000000000E+00  0.00000000000E+00  0.31653277571E+03  0.31653277571E+03  0.00000000000E+00 0.  1.
         21   -1    0    0  501  502 -0.00000000000E+00 -0.00000000000E+00 -0.24607865488E+03  0.24607865488E+03  0.00000000000E+00 0.  1.
         25    1    1    2    0    0  0.11971205446E+03 -0.18149752617E+03  0.15865120954E+03  0.29676174666E+03  0.12500000000E+03 0.  0.
         25    1    1    2    0    0 -0.11971205446E+03  0.18149752617E+03 -0.88197088705E+02  0.26584968393E+03  0.12500000000E+03 0.  0.
</event>
<event>
 4    0  0.2222207E-002  0.2533546E+03  0.7546771E-02  0.1111203E+00
         21   -1    0    0  502  501  0.00000000000E+00  0.00000000000E+00  0.89784659619E+02  0.89784659619E+02  0.00000000000E+00 0.  1.
         21   -1    0    0  501  502 -0.00000000000E+00 -0.00000000000E+00 -0.71491660709E+03  0.71491660709E+03  0.00000000000E+00 0.  1.
         25    1    1    2    0    0  0.14059962291E+03 -0.13370562632E+03 -0.47850532032E+03  0.53126056700E+03  0.12500000000E+03 0.  0.
         25    1    1    2    0    0 -0.14059962291E+03  0.13370562632E+03 -0.14662662716E+03  0.27344069972E+03  0.12500000000E+03 0.  0.
</event>
<event>
 4    0  0.2222207E-002  0.1908921E+03  0.7546771E-02  0.1157659E+00
         21   -1    0    0  502  501  0.00000000000E+00  0.00000000000E+00  0.38471262246E+03  0.38471262246E+03  0.00000000000E+00 0.  1.
         21   -1    0    0  501  502 -0.00000000000E+00 -0.00000000000E+00 -0.94719492292E+02  0.94719492292E+02  0.00000000000E+00 0.  1.
         25    1    1    2    0    0  0.38138223916E+02 -0.11618457752E+02 -0.29122156350E+02  0.13439721974E+03  0.12500000000E+03 0.  0.
         25    1    1    2    0    0 -0.38138223916E+02  0.11618457752E+02  0.31911528652E+03  0.34503489501E+03  0.12500000000E+03 0.  0.
</event>
