<event>
 4    0  0.2250660E-002  0.1526820E+03  0.7546771E-02  0.1197216E+00
         21   -1    0    0  502  501  0.00000000000E+00  0.00000000000E+00  0.35626981705E+03  0.35626981705E+03  0.00000000000E+00 0.  1.
         21   -1    0    0  501  502 -0.00000000000E+00 -0.00000000000E+00 -0.65432953102E+02  0.65432953102E+02  0.00000000000E+00 0.  1.
         25    1    1    2    0    0 -0.51428605133E+02  0.11659877273E+01  0.47373176894E+02  0.14323225490E+03  0.12500000000E+03 0.  0.
         25    1    1    2    0    0  0.51428605133E+02 -0.11659877273E+01  0.24346368705E+03  0.27847051525E+03  0.12500000000E+03 0.  0.
</event>
<event>
 4    0  0.2250660E-002  0.2387006E+03  0.7546771E-02  0.1120661E+00
         21   -1    0    0  502  501  0.00000000000E+00  0.00000000000E+00  0.23903670109E+03  0.23903670109E+03  0.00000000000E+00 0.  1.
         21   -1    0    0  501  502 -0.00000000000E+00 -0.00000000000E+00 -0.23836499579E+03  0.23836499579E+03  0.00000000000E+00 0.  1.
         25    1    1    2    0    0  0.10303247689E+03 -0.17159656474E+03  0.36279036723E+02  0.23875142058E+03  0.12500000000E+03 0.  0.
         25    1    1    2    0    0 -0.10303247689E+03  0.17159656474E+03 -0.35607331428E+02  0.23865027629E+03  0.12500000000E+03 0.  0.
</event>
<event>
 4    0  0.2250660E-002  0.2393752E+03  0.7546771E-02  0.1120210E+00
         21   -1    0    0  502  501  0.00000000000E+00  0.00000000000E+00  0.15815512668E+03  0.15815512668E+03  0.00000000000E+00 0.  1.
         21   -1    0    0  501  502 -0.00000000000E+00 -0.00000000000E+00 -0.36230548868E+03  0.36230548868E+03  0.00000000000E+00 0.  1.
         25    1    1    2    0    0  0.16236057039E+03  0.12357342785E+03 -0.10929645945E+03  0.26306284979E+03  0.12500000000E+03 0.  0.
         25    1    1    2    0    0 -0.16236057039E+03 -0.12357342785E+03 -0.94853902552E+02  0.25739776557E+03  0.12500000000E+03 0.  0.
</event>
<event>
 4    0  0.2250660E-002  0.1845917E+03  0.7546771E-02  0.1163432E+00
         21   -1    0    0  502  501  0.00000000000E+00  0.00000000000E+00  0.22538217106E+04  0.22538217106E+04  0.00000000000E+00 0.  1.
         21   -1    0    0  501  502 -0.00000000000E+00 -0.00000000000E+00 -0.15118357767E+02  0.15118357767E+02  0.00000000000E+00 0.  1.
         25    1    1    2    0    0 -0.86446789255E+01 -0.13274231849E+03  0.12880914525E+04  0.13009611230E+04  0.12500000000E+03 0.  0.
         25    1    1    2    0    0  0.86446789255E+01  0.13274231849E+03  0.95061190036E+03  0.96797894538E+03  0.12500000000E+03 0.  0.
</event>
<event>
 4    0  0.2250660E-002  0.1830783E+03  0.7546771E-02  0.1164857E+00
         21   -1    0    0  502  501  0.00000000000E+00  0.00000000000E+00  0.88253764668E+03  0.88253764668E+03  0.00000000000E+00 0. -1.
         21   -1    0    0  501  502 -0.00000000000E+00 -0.00000000000E+00 -0.37978727812E+02  0.37978727812E+02  0.00000000000E+00 0. -1.
         25    1    1    2    0    0 -0.68873724789E+02  0.12354834990E+02  0.13567915258E+03  0.19730703069E+03  0.12500000000E+03 0.  0.
         25    1    1    2    0    0  0.68873724789E+02 -0.12354834990E+02  0.70887976629E+03  0.72320934380E+03  0.12500000000E+03 0.  0.
</event>
<event>
 4    0  0.2250660E-002  0.1652351E+03  0.7546771E-02  0.1182910E+00
         21   -1    0    0  502  501  0.00000000000E+00  0.00000000000E+00  0.49900816827E+02  0.49900816827E+02  0.00000000000E+00 0.  1.
         21   -1    0    0  501  502 -0.00000000000E+00 -0.00000000000E+00 -0.54713840843E+03  0.54713840843E+03  0.00000000000E+00 0.  1.
         25    1    1    2    0    0 -0.49327983037E+02  0.82476845919E+02 -0.33789606790E+03  0.37287321267E+03  0.12500000000E+03 0.  0.
         25    1    1    2    0    0  0.49327983037E+02 -0.82476845919E+02 -0.15934152370E+03  0.22416601258E+03  0.12500000000E+03 0.  0.
</event>
<event>
 4    0  0.2250660E-002  0.2180317E+03  0.7546771E-02  0.1135359E+00
         21   -1    0    0  502  501  0.00000000000E+00  0.00000000000E+00  0.48011202524E+03  0.48011202524E+03  0.00000000000E+00 0.  1.
         21   -1    0    0  501  502 -0.00000000000E+00 -0.00000000000E+00 -0.99014019490E+02  0.99014019490E+02  0.00000000000E+00 0.  1.
         25    1    1    2    0    0 -0.21279279319E+02  0.10628003144E+03  0.37913868621E+03  0.41366580254E+03  0.12500000000E+03 0.  0.
         25    1    1    2    0    0  0.21279279319E+02 -0.10628003144E+03  0.19593195384E+01  0.16546024219E+03  0.12500000000E+03 0.  0.
</event>
<event>
 4    0  0.2250660E-002  0.2172720E+03  0.7546771E-02  0.1135933E+00
         21   -1    0    0  502  501  0.00000000000E+00  0.00000000000E+00  0.31469411610E+02  0.31469411610E+02  0.00000000000E+00 0. -1.
         21   -1    0    0  501  502 -0.00000000000E+00 -0.00000000000E+00 -0.15000950792E+04  0.15000950792E+04  0.00000000000E+00 0. -1.
         25    1    1    2    0    0  0.12752536949E+02 -0.19562463721E+02 -0.13552390597E+04  0.13611918403E+04  0.12500000000E+03 0.  0.
         25    1    1    2    0    0 -0.12752536949E+02  0.19562463721E+02 -0.11338660785E+03  0.17037265046E+03  0.12500000000E+03 0.  0.
</event>
<event>
 4    0  0.2250660E-002  0.2183226E+03  0.7546771E-02  0.1135140E+00
         21   -1    0    0  502  501  0.00000000000E+00  0.00000000000E+00  0.72956698339E+02  0.72956698339E+02  0.00000000000E+00 0.  1.
         21   -1    0    0  501  502 -0.00000000000E+00 -0.00000000000E+00 -0.65332964790E+03  0.65332964790E+03  0.00000000000E+00 0.  1.
         25    1    1    2    0    0 -0.75247488973E+02  0.91007056383E+02 -0.66436976481E+02  0.18434570988E+03  0.12500000000E+03 0.  0.
         25    1    1    2    0    0  0.75247488973E+02 -0.91007056383E+02 -0.51393597308E+03  0.54194063636E+03  0.12500000000E+03 0.  0.
</event>
<event>
 4    0  0.2250660E-002  0.2020284E+03  0.7546771E-02  0.1148039E+00
         21   -1    0    0  502  501  0.00000000000E+00  0.00000000000E+00  0.36624877405E+03  0.36624877405E+03  0.00000000000E+00 0. -1.
         21   -1    0    0  501  502 -0.00000000000E+00 -0.00000000000E+00 -0.11144193443E+03  0.11144193443E+03  0.00000000000E+00 0. -1.
         25    1    1    2    0    0  0.28244544331E+02 -0.25478661278E+02  0.30957358962E+03  0.33601744576E+03  0.12500000000E+03 0.  0.
         25    1    1    2    0    0 -0.28244544331E+02  0.25478661278E+02 -0.54766749997E+02  0.14167326272E+03  0.12500000000E+03 0.  0.
</event>
<event>
 4    0  0.2250660E-002  0.4361491E+03  0.7546771E-02  0.1031935E+00
         21   -1    0    0  502  501  0.00000000000E+00  0.00000000000E+00  0.22294785532E+03  0.22294785532E+03  0.00000000000E+00 0. -1.
         21   -1    0    0  501  502 -0.00000000000E+00 -0.00000000000E+00 -0.85323099278E+03  0.85323099278E+03  0.00000000000E+00 0. -1.
         25    1    1    2    0    0 -0.29478988313E+03 -0.23117102566E+02 -0.67938515962E+03  0.75141511213E+03  0.12500000000E+03 0.  0.
         25    1    1    2    0    0  0.29478988313E+03  0.23117102566E+02  0.49102022157E+02  0.32476373598E+03  0.12500000000E+03 0.  0.
</event>
<event>
 4    0  0.2250660E-002  0.2047821E+03  0.7546771E-02  0.1145766E+00
         21   -1    0    0  502  501  0.00000000000E+00  0.00000000000E+00  0.43288305277E+02  0.43288305277E+02  0.00000000000E+00 0.  1.
         21   -1    0    0  501  502 -0.00000000000E+00 -0.00000000000E+00 -0.96875410393E+03  0.96875410393E+03  0.00000000000E+00 0.  1.
         25    1    1    2    0    0 -0.15810799342E+03  0.29447731751E+02 -0.41058221736E+03  0.45833182706E+03  0.12500000000E+03 0.  0.
         25    1    1    2    0    0  0.15810799342E+03 -0.29447731751E+02 -0.51488358130E+03  0.55371058214E+03  0.12500000000E+03 0.  0.
</event>
<event>
 4    0  0.2250660E-002  0.1872865E+03  0.7546771E-02  0.1160932E+00
         21   -1    0    0  502  501  0.00000000000E+00  0.00000000000E+00  0.13915316184E+03  0.13915316184E+03  0.00000000000E+00 0.  1.
         21   -1    0    0  501  502 -0.00000000000E+00 -0.00000000000E+00 -0.25206935266E+03  0.25206935266E+03  0.00000000000E+00 0.  1.
         25    1    1    2    0    0  0.15242744830E+02  0.70290639453E+01 -0.20106620762E+03  0.23734862304E+03  0.12500000000E+03 0.  0.
         25    1    1    2    0    0 -0.15242744830E+02 -0.70290639453E+01  0.88150016804E+02  0.15387389146E+03  0.12500000000E+03 0.  0.
</event>
<event>
 4    0  0.2250660E-002  0.2547954E+03  0.7546771E-02  0.1110311E+00
         21   -1    0    0  502  501  0.00000000000E+00  0.00000000000E+00  0.38868578271E+03  0.38868578271E+03  0.00000000000E+00 0.  1.
         21   -1    0    0  501  502 -0.00000000000E+00 -0.00000000000E+00 -0.16702621421E+03  0.16702621421E+03  0.00000000000E+00 0.  1.
         25    1    1    2    0    0  0.82667323172E+02  0.18884563326E+01  0.33553297423E+03  0.36748446142E+03  0.12500000000E+03 0.  0.
         25    1    1    2    0    0 -0.82667323172E+02 -0.18884563326E+01 -0.11387340574E+03  0.18822753550E+03  0.12500000000E+03 0.  0.
</event>
<event>
 4    0  0.2250660E-002  0.1742659E+03  0.7546771E-02  0.1173471E+00
         21   -1    0    0  502  501  0.00000000000E+00  0.00000000000E+00  0.31001453520E+02  0.31001453520E+02  0.00000000000E+00 0. -1.
         21   -1    0    0  501  502 -0.00000000000E+00 -0.00000000000E+00 -0.97958655160E+03  0.97958655160E+03  0.00000000000E+00 0. -1.
         25    1    1    2    0    0  0.92127177887E+02 -0.47046575138E+02 -0.65865537806E+03  0.67834556399E+03  0.12500000000E+03 0.  0.
         25    1    1    2    0    0 -0.92127177887E+02  0.47046575138E+02 -0.28992972002E+03  0.33224244113E+03  0.12500000000E+03 0.  0.
</event>
<event>
 4    0  0.2250660E-002  0.2681322E+03  0.7546771E-02  0.1102353E+00
         21   -1    0    0  502  501  0.00000000000E+00  0.00000000000E+00  0.29389157887E+03  0.29389157887E+03  0.00000000000E+00 0. -1.
         21   -1    0    0  501  502 -0.00000000000E+00 -0.00000000000E+00 -0.24463070022E+03  0.24463070022E+03  0.00000000000E+00 0. -1.
         25    1    1    2    0    0  0.17158198814E+03  0.12068303454E+03 -0.86583876318E+02  0.25908790230E+03  0.12500000000E+03 0.  0.
         25    1    1    2    0    0 -0.17158198814E+03 -0.12068303454E+03  0.13584475497E+03  0.27943437679E+03  0.12500000000E+03 0.  0.
</event>
<event>
 4    0  0.2250660E-002  0.1810217E+03  0.7546771E-02  0.1166818E+00
         21   -1    0    0  502  501  0.00000000000E+00  0.00000000000E+00  0.24607568884E+03  0.24607568884E+03  0.00000000000E+00 0.  1.
         21   -1    0    0  501  502 -0.00000000000E+00 -0.00000000000E+00 -0.13316573142E+03  0.13316573142E+03  0.00000000000E+00 0.  1.
         25    1    1    2    0    0  0.43343751766E+02  0.11806372485E+03  0.18309117006E+02  0.17826370272E+03  0.12500000000E+03 0.  0.
         25    1    1    2    0    0 -0.43343751766E+02 -0.11806372485E+03  0.94600840414E+02  0.20097771754E+03  0.12500000000E+03 0.  0.
</event>
<event>
 4    0  0.2250660E-002  0.1846307E+03  0.7546771E-02  0.1163395E+00
         21   -1    0    0  502  501  0.00000000000E+00  0.00000000000E+00  0.21524815788E+03  0.21524815788E+03  0.00000000000E+00 0. -1.
         21   -1    0    0  501  502 -0.00000000000E+00 -0.00000000000E+00 -0.15836826534E+03  0.15836826534E+03  0.00000000000E+00 0. -1.
         25    1    1    2    0    0  0.39594750047E+02  0.10366699594E+03  0.10777962193E+03  0.19888699601E+03  0.12500000000E+03 0.  0.
         25    1    1    2    0    0 -0.39594750047E+02 -0.10366699594E+03 -0.50899729389E+02  0.17472942720E+03  0.12500000000E+03 0.  0.
</event>
<event>
 4    0  0.2250660E-002  0.2490491E+03  0.7546771E-02  0.1113907E+00
         21   -1    0    0  502  501  0.00000000000E+00  0.00000000000E+00  0.28752287396E+04  0.28752287396E+04  0.00000000000E+00 0.  1.
         21   -1    0    0  501  502 -0.00000000000E+00 -0.00000000000E+00 -0.21572351722E+02  0.21572351722E+02  0.00000000000E+00 0.  1.
         25    1    1    2    0    0  0.85177131993E+02  0.12617131223E+03  0.23131509417E+04  0.23215224795E+04  0.12500000000E+03 0.  0.
         25    1    1    2    0    0 -0.85177131993E+02 -0.12617131223E+03  0.54050544618E+03  0.57527861180E+03  0.12500000000E+03 0.  0.
</event>
<event>
 4    0  0.2250660E-002  0.2397932E+03  0.7546771E-02  0.1119931E+00
         21   -1    0    0  502  501  0.00000000000E+00  0.00000000000E+00  0.81139827981E+03  0.81139827981E+03  0.00000000000E+00 0.  1.
         21   -1    0    0  501  502 -0.00000000000E+00 -0.00000000000E+00 -0.70866274180E+02  0.70866274180E+02  0.00000000000E+00 0.  1.
         25    1    1    2    0    0  0.64430086904E+02 -0.13789064704E+03  0.11862750416E+03  0.22991857555E+03  0.12500000000E+03 0.  0.
         25    1    1    2    0    0 -0.64430086904E+02  0.13789064704E+03  0.62190450147E+03  0.65234597844E+03  0.12500000000E+03 0.  0.
</event>
<event>
 4    0  0.2250660E-002  0.2422919E+03  0.7546771E-02  0.1118275E+00
         21   -1    0    0  502  501  0.00000000000E+00  0.00000000000E+00  0.53481379032E+02  0.53481379032E+02  0.00000000000E+00 0. -1.
         21   -1    0    0  501  502 -0.00000000000E+00 -0.00000000000E+00 -0.10976786006E+04  0.10976786006E+04  0.00000000000E+00 0. -1.
         25    1    1    2    0    0  0.17441011664E+02 -0.19224949126E+03 -0.34092683361E+03  0.41124221774E+03  0.12500000000E+03 0.  0.
         25    1    1    2    0    0 -0.17441011664E+02  0.19224949126E+03 -0.70327038791E+03  0.73991776184E+03  0.12500000000E+03 0.  0.
</event>
<event>
 4    0  0.2250660E-002  0.2456041E+03  0.7546771E-02  0.1116115E+00
         21   -1    0    0  502  501  0.00000000000E+00  0.00000000000E+00  0.42742251626E+03  0.42742251626E+03  0.00000000000E+00 0.  1.
         21   -1    0    0  501  502 -0.00000000000E+00 -0.00000000000E+00 -0.14112819133E+03  0.14112819133E+03  0.00000000000E+00 0. -1.
         25    1    1    2    0    0  0.21767750173E+02 -0.20440463613E+03  0.20033610971E+03  0.31307291015E+03  0.12500000000E+03 0.  0.
         25    1    1    2    0    0 -0.21767750173E+02  0.20440463613E+03  0.85958215219E+02  0.25547779743E+03  0.12500000000E+03 0.  0.
</event>
<event>
 4    0  0.2250660E-002  0.1915982E+03  0.7546771E-02  0.1157028E+00
         21   -1    0    0  502  501  0.00000000000E+00  0.00000000000E+00  0.19933486922E+04  0.19933486922E+04  0.00000000000E+00 0. -1.
         21   -1    0    0  501  502 -0.00000000000E+00 -0.00000000000E+00 -0.18416184402E+02  0.18416184402E+02  0.00000000000E+00 0. -1.
         25    1    1    2    0    0 -0.11553814938E+03 -0.25862335681E+02  0.54612771423E+03  0.57262413904E+03  0.12500000000E+03 0.  0.
         25    1    1    2    0    0  0.11553814938E+03  0.25862335681E+02  0.14288047936E+04  0.14391407376E+04  0.12500000000E+03 0.  0.
</event>
<event>
 4    0  0.2250660E-002  0.2169017E+03  0.7546771E-02  0.1136214E+00
         21   -1    0    0  502  501  0.00000000000E+00  0.00000000000E+00  0.51269621162E+02  0.51269621162E+02  0.00000000000E+00 0. -1.
         21   -1    0    0  501  502 -0.00000000000E+00 -0.00000000000E+00 -0.91762604307E+03  0.91762604307E+03  0.00000000000E+00 0. -1.
         25    1    1    2    0    0 -0.10724625189E+03  0.40454833662E+02 -0.73517872225E+03  0.75448731318E+03  0.12500000000E+03 0.  0.
         25    1    1    2    0    0  0.10724625189E+03 -0.40454833662E+02 -0.13117769966E+03  0.21440835105E+03  0.12500000000E+03 0.  0.
</event>
<event>
 4    0  0.2250660E-002  0.1825451E+03  0.7546771E-02  0.1165362E+00
         21   -1    0    0  502  501  0.00000000000E+00  0.00000000000E+00  0.84191736322E+02  0.84191736322E+02  0.00000000000E+00 0. -1.
         21   -1    0    0  501  502 -0.00000000000E+00 -0.00000000000E+00 -0.39579554198E+03  0.39579554198E+03  0.00000000000E+00 0. -1.
         25    1    1    2    0    0  0.11799353225E+03 -0.14183030826E+02 -0.77203847918E+02  0.18896842633E+03  0.12500000000E+03 0.  0.
         25    1    1    2    0    0 -0.11799353225E+03  0.14183030826E+02 -0.23439995774E+03  0.29101885197E+03  0.12500000000E+03 0.  0.
</event>
<event>
 4    0  0.2250660E-002  0.2600463E+03  0.7546771E-02  0.1107115E+00
         21   -1    0    0  502  501  0.00000000000E+00  0.00000000000E+00  0.63738633777E+03  0.63738633777E+03  0.00000000000E+00 0.  1.
         21   -1    0    0  501  502 -0.00000000000E+00 -0.00000000000E+00 -0.10609591511E+03  0.10609591511E+03  0.00000000000E+00 0.  1.
         25    1    1    2    0    0 -0.80943408334E+02  0.14652292924E+03  0.48700510700E+03  0.52992431384E+03  0.12500000000E+03 0.  0.
         25    1    1    2    0    0  0.80943408334E+02 -0.14652292924E+03  0.44285315659E+02  0.21355793904E+03  0.12500000000E+03 0.  0.
</event>
<event>
 4    0  0.2250660E-002  0.2268669E+03  0.7546771E-02  0.1128865E+00
         21   -1    0    0  502  501  0.00000000000E+00  0.00000000000E+00  0.71202163144E+02  0.71202163144E+02  0.00000000000E+00 0.  1.
         21   -1    0    0  501  502 -0.00000000000E+00 -0.00000000000E+00 -0.72285141018E+03  0.72285141018E+03  0.00000000000E+00 0.  1.
         25    1    1    2    0    0 -0.88020910877E+02 -0.15890061580E+03 -0.41919392469E+03  0.47365138335E+03  0.12500000000E+03 0.  0.
         25    1    1    2    0    0  0.88020910877E+02  0.15890061580E+03 -0.23245532235E+03  0.32040218997E+03  0.12500000000E+03 0.  0.
</event>
<event>
 4    0  0.2250660E-002  0.2367169E+03  0.7546771E-02  0.1121999E+00
         21   -1    0    0  502  501  0.00000000000E+00  0.00000000000E+00  0.86125715479E+03  0.86125715479E+03  0.00000000000E+00 0.  1.
         21   -1    0    0  501  502 -0.00000000000E+00 -0.00000000000E+00 -0.65061753136E+02  0.65061753136E+02  0.00000000000E+00 0.  1.
         25    1    1    2    0    0  0.96758191833E+02 -0.14014759903E+03  0.18913171961E+03  0.28354771126E+03  0.12500000000E+03 0.  0.
         25    1    1    2    0    0 -0.96758191833E+02  0.14014759903E+03  0.60706368205E+03  0.64277119667E+03  0.12500000000E+03 0.  0.
</event>
<event>
 4    0  0.2250660E-002  0.2433761E+03  0.7546771E-02  0.1117564E+00
         21   -1    0    0  502  501  0.00000000000E+00  0.00000000000E+00  0.86401187788E+02  0.86401187788E+02  0.00000000000E+00 0. -1.
         21   -1    0    0  501  502 -0.00000000000E+00 -0.00000000000E+00 -0.68554515558E+03  0.68554515558E+03  0.00000000000E+00 0. -1.
         25    1    1    2    0    0  0.18985972748E+03  0.53768545658E+02 -0.40793917623E+03  0.47008206105E+03  0.12500000000E+03 0.  0.
         25    1    1    2    0    0 -0.18985972748E+03 -0.53768545658E+02 -0.19120479157E+03  0.30186428232E+03  0.12500000000E+03 0.  0.
</event>
<event>
 4    0  0.2250660E-002  0.1784498E+03  0.7546771E-02  0.1169312E+00
         21   -1    0    0  502  501  0.00000000000E+00  0.00000000000E+00  0.16926469798E+03  0.16926469798E+03  0.00000000000E+00 0. -1.
         21   -1    0    0  501  502 -0.00000000000E+00 -0.00000000000E+00 -0.18813326233E+03  0.18813326233E+03  0.00000000000E+00 0. -1.
         25    1    1    2    0    0 -0.44675952379E+02  0.94550938339E+02  0.63354911253E+02  0.17485612784E+03  0.12500000000E+03 0.  0.
         25    1    1    2    0    0  0.44675952379E+02 -0.94550938339E+02 -0.82223475607E+02  0.18254183247E+03  0.12500000000E+03 0.  0.
</event>
<event>
 4    0  0.2250660E-002  0.2933612E+03  0.7546771E-02  0.1088607E+00
         21   -1    0    0  502  501  0.00000000000E+00  0.00000000000E+00  0.95533451224E+03  0.95533451224E+03  0.00000000000E+00 0. -1.
         21   -1    0    0  501  502 -0.00000000000E+00 -0.00000000000E+00 -0.90084451359E+02  0.90084451359E+02  0.00000000000E+00 0. -1.
         25    1    1    2    0    0  0.63619400206E+02 -0.45778206813E+02  0.88441709866E+03  0.89663910059E+03  0.12500000000E+03 0.  0.
         25    1    1    2    0    0 -0.63619400206E+02  0.45778206813E+02 -0.19167037776E+02  0.14877986301E+03  0.12500000000E+03 0.  0.
</event>
<event>
 4    0  0.2250660E-002  0.1386896E+03  0.7546771E-02  0.1215103E+00
         21   -1    0    0  502  501  0.00000000000E+00  0.00000000000E+00  0.53538600529E+02  0.53538600529E+02  0.00000000000E+00 0.  1.
         21   -1    0    0  501  502 -0.00000000000E+00 -0.00000000000E+00 -0.35926974018E+03  0.35926974018E+03  0.00000000000E+00 0.  1.
         25    1    1    2    0    0  0.16193136294E+02 -0.47307110076E+02 -0.20244043467E+03  0.24311994964E+03  0.12500000000E+03 0.  0.
         25    1    1    2    0    0 -0.16193136294E+02  0.47307110076E+02 -0.10329070499E+03  0.16968839107E+03  0.12500000000E+03 0.  0.
</event>
<event>
 4    0  0.2250660E-002  0.1503474E+03  0.7546771E-02  0.1200047E+00
         21   -1    0    0  502  501  0.00000000000E+00  0.00000000000E+00  0.40213209633E+03  0.40213209633E+03  0.00000000000E+00 0. -1.
         21   -1    0    0  501  502 -0.00000000000E+00 -0.00000000000E+00 -0.56211222824E+02  0.56211222824E+02  0.00000000000E+00 0. -1.
         25    1    1    2    0    0  0.13953016422E+02 -0.16773631220E+02  0.50037828068E+02  0.13639950736E+03  0.12500000000E+03 0.  0.
         25    1    1    2    0    0 -0.13953016422E+02  0.16773631220E+02  0.29588304544E+03  0.32194381179E+03  0.12500000000E+03 0.  0.
</event>
<event>
 4    0  0.2250660E-002  0.2006733E+03  0.7546771E-02  0.1149172E+00
         21   -1    0    0  502  501  0.00000000000E+00  0.00000000000E+00  0.29293656760E+02  0.29293656760E+02  0.00000000000E+00 0.  1.
         21   -1    0    0  501  502 -0.00000000000E+00 -0.00000000000E+00 -0.13746921617E+04  0.13746921617E+04  0.00000000000E+00 0.  1.
         25    1    1    2    0    0 -0.30290626058E+02 -0.12156094404E+03 -0.34175185431E+03  0.38485570681E+03  0.12500000000E+03 0.  0.
         25    1    1    2    0    0  0.30290626058E+02  0.12156094404E+03 -0.10036466507E+04  0.10191301117E+04  0.12500000000E+03 0.  0.
</event>
<event>
 4    0  0.2250660E-002  0.1653513E+03  0.7546771E-02  0.1182784E+00
         21   -1    0    0  502  501  0.00000000000E+00  0.00000000000E+00  0.89097052881E+03  0.89097052881E+03  0.00000000000E+00 0. -1.
         21   -1    0    0  501  502 -0.00000000000E+00 -0.00000000000E+00 -0.30686812670E+02  0.30686812670E+02  0.00000000000E+00 0. -1.
         25    1    1    2    0    0  0.22165847554E+02 -0.70178676706E+02  0.65134484001E+03  0.66730163500E+03  0.12500000000E+03 0.  0.
         25    1    1    2    0    0 -0.22165847554E+02  0.70178676706E+02  0.20893887613E+03  0.25435570648E+03  0.12500000000E+03 0.  0.
</event>
<event>
 4    0  0.2250660E-002  0.2624442E+03  0.7546771E-02  0.1105684E+00
         21   -1    0    0  502  501  0.00000000000E+00  0.00000000000E+00  0.77754196978E+03  0.77754196978E+03  0.00000000000E+00 0. -1.
         21   -1    0    0  501  502 -0.00000000000E+00 -0.00000000000E+00 -0.88582928726E+02  0.88582928726E+02  0.00000000000E+00 0. -1.
         25    1    1    2    0    0 -0.14384174183E+03 -0.26931663838E+02  0.50054922352E+02  0.19886240585E+03  0.12500000000E+03 0.  0.
         25    1    1    2    0    0  0.14384174183E+03  0.26931663838E+02  0.63890411870E+03  0.66726249265E+03  0.12500000000E+03 0.  0.
</event>
<event>
 4    0  0.2250660E-002  0.1703135E+03  0.7546771E-02  0.1177521E+00
         21   -1    0    0  502  501  0.00000000000E+00  0.00000000000E+00  0.10467598273E+02  0.10467598273E+02  0.00000000000E+00 0. -1.
         21   -1    0    0  501  502 -0.00000000000E+00 -0.00000000000E+00 -0.27710933813E+04  0.27710933813E+04  0.00000000000E+00 0. -1.
         25    1    1    2    0    0  0.30409523808E+02 -0.62607994556E+02 -0.62579939201E+03  0.64194577588E+03  0.12500000000E+03 0.  0.
         25    1    1    2    0    0 -0.30409523808E+02  0.62607994556E+02 -0.21348263910E+04  0.21396152037E+04  0.12500000000E+03 0.  0.
</event>
<event>
 4    0  0.2250660E-002  0.2236487E+03  0.7546771E-02  0.1131192E+00
         21   -1    0    0  502  501  0.00000000000E+00  0.00000000000E+00  0.15312311043E+03  0.15312311043E+03  0.00000000000E+00 0.  1.
         21   -1    0    0  501  502 -0.00000000000E+00 -0.00000000000E+00 -0.32665714386E+03  0.32665714386E+03  0.00000000000E+00 0.  1.
         25    1    1    2    0    0 -0.13069608280E+03  0.12253594209E+03 -0.13817713601E+03  0.25848490106E+03  0.12500000000E+03 0.  0.
         25    1    1    2    0    0  0.13069608280E+03 -0.12253594209E+03 -0.35356897419E+02  0.22129535322E+03  0.12500000000E+03 0.  0.
</event>
<event>
 4    0  0.2250660E-002  0.1857457E+03  0.7546771E-02  0.1162355E+00
         21   -1    0    0  502  501  0.00000000000E+00  0.00000000000E+00  0.79945374191E+02  0.79945374191E+02  0.00000000000E+00 0. -1.
         21   -1    0    0  501  502 -0.00000000000E+00 -0.00000000000E+00 -0.43156303236E+03  0.43156303236E+03  0.00000000000E+00 0. -1.
         25    1    1    2    0    0 -0.39330673810E+02  0.11813186666E+03 -0.95824649674E+02  0.20077201824E+03  0.12500000000E+03 0.  0.
         25    1    1    2    0    0  0.39330673810E+02 -0.11813186666E+03 -0.25579300850E+03  0.31073638831E+03  0.12500000000E+03 0.  0.
</event>
<event>
 4    0  0.2250660E-002  0.3100921E+03  0.7546771E-02  0.1080302E+00
         21   -1    0    0  502  501  0.00000000000E+00  0.00000000000E+00  0.22875730761E+03  0.22875730761E+03  0.00000000000E+00 0.  1.
         21   -1    0    0  501  502 -0.00000000000E+00 -0.00000000000E+00 -0.42034560387E+03  0.42034560387E+03  0.00000000000E+00 0.  1.
         25    1    1    2    0    0  0.18298112512E+02 -0.13653777194E+03 -0.35546522855E+03  0.40119560416E+03  0.12500000000E+03 0.  0.
         25    1    1    2    0    0 -0.18298112512E+02  0.13653777194E+03  0.16387693228E+03  0.24790730732E+03  0.12500000000E+03 0.  0.
</event>
<event>
 4    0  0.2250660E-002  0.2316210E+03  0.7546771E-02  0.1125504E+00
         21   -1    0    0  502  501  0.00000000000E+00  0.00000000000E+00  0.77245833354E+03  0.77245833354E+03  0.00000000000E+00 0. -1.
         21   -1    0    0  501  502 -0.00000000000E+00 -0.00000000000E+00 -0.69451345090E+02  0.69451345090E+02  0.00000000000E+00 0. -1.
         25    1    1    2    0    0 -0.10215583860E+03 -0.16562411903E+03  0.37421090511E+03  0.43991586203E+03  0.12500000000E+03 0.  0.
         25    1    1    2    0    0  0.10215583860E+03  0.16562411903E+03  0.32879608334E+03  0.40199381660E+03  0.12500000000E+03 0.  0.
</event>
<event>
 4    0  0.2250660E-002  0.2523647E+03  0.7546771E-02  0.1111819E+00
         21   -1    0    0  502  501  0.00000000000E+00  0.00000000000E+00  0.92451601236E+02  0.92451601236E+02  0.00000000000E+00 0.  1.
         21   -1    0    0  501  502 -0.00000000000E+00 -0.00000000000E+00 -0.68887868444E+03  0.68887868444E+03  0.00000000000E+00 0.  1.
         25    1    1    2    0    0 -0.15740468104E+03 -0.14797926702E+03 -0.35590376673E+03  0.43470287353E+03  0.12500000000E+03 0.  0.
         25    1    1    2    0    0  0.15740468104E+03  0.14797926702E+03 -0.24052331647E+03  0.34662741214E+03  0.12500000000E+03 0.  0.
</event>
<event>
 4    0  0.2250660E-002  0.2127430E+03  0.7546771E-02  0.1139412E+00
         21   -1    0    0  502  501  0.00000000000E+00  0.00000000000E+00  0.16660007525E+04  0.16660007525E+04  0.00000000000E+00 0. -1.
         21   -1    0    0  501  502 -0.00000000000E+00 -0.00000000000E+00 -0.27166606274E+02  0.27166606274E+02  0.00000000000E+00 0. -1.
         25    1    1    2    0    0 -0.32145867970E+02  0.10246937027E+03  0.28402864758E+03  0.32837570147E+03  0.12500000000E+03 0.  0.
         25    1    1    2    0    0  0.32145867970E+02 -0.10246937027E+03  0.13548054987E+04  0.13647916573E+04  0.12500000000E+03 0.  0.
</event>
<event>
 4    0  0.2250660E-002  0.2074795E+03  0.7546771E-02  0.1143578E+00
         21   -1    0    0  502  501  0.00000000000E+00  0.00000000000E+00  0.95883727933E+02  0.95883727933E+02  0.00000000000E+00 0.  1.
         21   -1    0    0  501  502 -0.00000000000E+00 -0.00000000000E+00 -0.44895784383E+03  0.44895784383E+03  0.00000000000E+00 0.  1.
         25    1    1    2    0    0  0.16048892702E+02 -0.10281563145E+02 -0.39252260031E+03  0.41238606821E+03  0.12500000000E+03 0.  0.
         25    1    1    2    0    0 -0.16048892702E+02  0.10281563145E+02  0.39448484420E+02  0.13245550355E+03  0.12500000000E+03 0.  0.
</event>
<event>
 4    0  0.2250660E-002  0.2624061E+03  0.7546771E-02  0.1105706E+00
         21   -1    0    0  502  501  0.00000000000E+00  0.00000000000E+00  0.67444510939E+03  0.67444510939E+03  0.00000000000E+00 0.  1.
         21   -1    0    0  501  502 -0.00000000000E+00 -0.00000000000E+00 -0.10209423927E+03  0.10209423927E+03  0.00000000000E+00 0.  1.
         25    1    1    2    0    0 -0.13106128251E+03 -0.18092353541E+03  0.20089850159E+03  0.32541603123E+03  0.12500000000E+03 0.  0.
         25    1    1    2    0    0  0.13106128251E+03  0.18092353541E+03  0.37145236853E+03  0.45112331743E+03  0.12500000000E+03 0.  0.
</event>
<event>
 4    0  0.2250660E-002  0.2581989E+03  0.7546771E-02  0.1108230E+00
         21   -1    0    0  502  501  0.00000000000E+00  0.00000000000E+00  0.10896785421E+03  0.10896785421E+03  0.00000000000E+00 0. -1.
         21   -1    0    0  501  502 -0.00000000000E+00 -0.00000000000E+00 -0.61180107968E+03  0.61180107968E+03  0.00000000000E+00 0. -1.
         25    1    1    2    0    0 -0.57774670016E+02  0.21788463664E+03 -0.27258549012E+03  0.37515260468E+03  0.12500000000E+03 0.  0.
         25    1    1    2    0    0  0.57774670016E+02 -0.21788463664E+03 -0.23024773535E+03  0.34561632920E+03  0.12500000000E+03 0.  0.
</event>
<event>
 4    0  0.2250660E-002  0.2898424E+03  0.7546771E-02  0.1090431E+00
         21   -1    0    0  502  501  0.00000000000E+00  0.00000000000E+00  0.10899008806E+04  0.10899008806E+04  0.00000000000E+00 0. -1.
         21   -1    0    0  501  502 -0.00000000000E+00 -0.00000000000E+00 -0.77079133150E+02  0.77079133150E+02  0.00000000000E+00 0. -1.
         25    1    1    2    0    0 -0.16669956180E+03 -0.19813463315E+03  0.43278598862E+03  0.51959098212E+03  0.12500000000E+03 0.  0.
         25    1    1    2    0    0  0.16669956180E+03  0.19813463315E+03  0.58003575887E+03  0.64738903167E+03  0.12500000000E+03 0.  0.
</event>
<event>
 4    0  0.2250660E-002  0.1651354E+03  0.7546771E-02  0.1183018E+00
         21   -1    0    0  502  501  0.00000000000E+00  0.00000000000E+00  0.90167383971E+03  0.90167383971E+03  0.00000000000E+00 0.  1.
         21   -1    0    0  501  502 -0.00000000000E+00 -0.00000000000E+00 -0.30243420600E+02  0.30243420600E+02  0.00000000000E+00 0.  1.
         25    1    1    2    0    0 -0.54179781991E+02  0.80616769409E+02  0.30306074643E+03  0.34191421192E+03  0.12500000000E+03 0.  0.
         25    1    1    2    0    0  0.54179781991E+02 -0.80616769409E+02  0.56836967268E+03  0.59000304839E+03  0.12500000000E+03 0.  0.
</event>
<event>
 4    0  0.2250660E-002  0.2114311E+03  0.7546771E-02  0.1140438E+00
         21   -1    0    0  502  501  0.00000000000E+00  0.00000000000E+00  0.26084670981E+02  0.26084670981E+02  0.00000000000E+00 0.  1.
         21   -1    0    0  501  502 -0.00000000000E+00 -0.00000000000E+00 -0.17137689393E+04  0.17137689393E+04  0.00000000000E+00 0.  1.
         25    1    1    2    0    0  0.15345078801E+03 -0.21601427250E+02 -0.11366447967E+04  0.11539498082E+04  0.12500000000E+03 0.  0.
         25    1    1    2    0    0 -0.15345078801E+03  0.21601427250E+02 -0.55103947164E+03  0.58590380210E+03  0.12500000000E+03 0.  0.
</event>
<event>
 4    0  0.2250660E-002  0.2026059E+03  0.7546771E-02  0.1147559E+00
         21   -1    0    0  502  501  0.00000000000E+00  0.00000000000E+00  0.43005313137E+03  0.43005313137E+03  0.00000000000E+00 0.  1.
         21   -1    0    0  501  502 -0.00000000000E+00 -0.00000000000E+00 -0.95451327510E+02  0.95451327510E+02  0.00000000000E+00 0.  1.
         25    1    1    2    0    0 -0.13123378604E+03 -0.89677846649E+02  0.18369069051E+03  0.27318801687E+03  0.12500000000E+03 0.  0.
         25    1    1    2    0    0  0.13123378604E+03  0.89677846649E+02  0.15091111335E+03  0.25231644202E+03  0.12500000000E+03 0.  0.
</event>
<event>
 4    0  0.2250660E-002  0.2989830E+03  0.7546771E-02  0.1085750E+00
         21   -1    0    0  502  501  0.00000000000E+00  0.00000000000E+00  0.36293612950E+03  0.36293612950E+03  0.00000000000E+00 0. -1.
         21   -1    0    0  501  502 -0.00000000000E+00 -0.00000000000E+00 -0.24629904899E+03  0.24629904899E+03  0.00000000000E+00 0. -1.
         25    1    1    2    0    0 -0.18169378973E+03  0.32404212992E+02  0.26133022240E+03  0.34348384443E+03  0.12500000000E+03 0.  0.
         25    1    1    2    0    0  0.18169378973E+03 -0.32404212992E+02 -0.14469314189E+03  0.26575133406E+03  0.12500000000E+03 0.  0.
</event>
<event>
 4    0  0.2250660E-002  0.1803335E+03  0.7546771E-02  0.1167481E+00
         21   -1    0    0  502  501  0.00000000000E+00  0.00000000000E+00  0.10696634492E+03  0.10696634492E+03  0.00000000000E+00 0. -1.
         21   -1    0    0  501  502 -0.00000000000E+00 -0.00000000000E+00 -0.30402246714E+03  0.30402246714E+03  0.00000000000E+00 0. -1.
         25    1    1    2    0    0  0.11492972270E+03 -0.45615231043E+02 -0.14418846838E+03  0.22738712557E+03  0.12500000000E+03 0.  0.
         25    1    1    2    0    0 -0.11492972270E+03  0.45615231043E+02 -0.52867653839E+02  0.18360168650E+03  0.12500000000E+03 0.  0.
</event>
<event>
 4    0  0.2250660E-002  0.2303844E+03  0.7546771E-02  0.1126370E+00
         21   -1    0    0  502  501  0.00000000000E+00  0.00000000000E+00  0.33163172273E+02  0.33163172273E+02  0.00000000000E+00 0. -1.
         21   -1    0    0  501  502 -0.00000000000E+00 -0.00000000000E+00 -0.16004786430E+04  0.16004786430E+04  0.00000000000E+00 0. -1.
         25    1    1    2    0    0 -0.17881910833E+03  0.20971466800E+02 -0.53205737633E+03  0.57543559816E+03  0.12500000000E+03 0.  0.
         25    1    1    2    0    0  0.17881910833E+03 -0.20971466800E+02 -0.10352580944E+04  0.10582062171E+04  0.12500000000E+03 0.  0.
</event>
<event>
 4    0  0.2250660E-002  0.2445604E+03  0.7546771E-02  0.1116792E+00
         21   -1    0    0  502  501  0.00000000000E+00  0.00000000000E+00  0.13467846380E+03  0.13467846380E+03  0.00000000000E+00 0. -1.
         21   -1    0    0  501  502 -0.00000000000E+00 -0.00000000000E+00 -0.44409303025E+03  0.44409303025E+03  0.00000000000E+00 0. -1.
         25    1    1    2    0    0  0.86918594425E+02  0.18935653693E+03 -0.18762798815E+03  0.30698534505E+03  0.12500000000E+03 0.  0.
         25    1    1    2    0    0 -0.86918594425E+02 -0.18935653693E+03 -0.12178657830E+03  0.27178614900E+03  0.12500000000E+03 0.  0.
</event>
<event>
 4    0  0.2250660E-002  0.3406953E+03  0.7546771E-02  0.1066500E+00
         21   -1    0    0  502  501  0.00000000000E+00  0.00000000000E+00  0.89163117730E+02  0.89163117730E+02  0.00000000000E+00 0.  1.
         21   -1    0    0  501  502 -0.00000000000E+00 -0.00000000000E+00 -0.13018086566E+04  0.13018086566E+04  0.00000000000E+00 0.  1.
         25    1    1    2    0    0  0.30502989400E+03 -0.30702697624E+02 -0.77042705930E+03  0.83855157598E+03  0.12500000000E+03 0.  0.
         25    1    1    2    0    0 -0.30502989400E+03  0.30702697624E+02 -0.44221847959E+03  0.55242019837E+03  0.12500000000E+03 0.  0.
</event>
<event>
 4    0  0.2250660E-002  0.2791404E+03  0.7546771E-02  0.1096159E+00
         21   -1    0    0  502  501  0.00000000000E+00  0.00000000000E+00  0.94078989736E+02  0.94078989736E+02  0.00000000000E+00 0.  1.
         21   -1    0    0  501  502 -0.00000000000E+00 -0.00000000000E+00 -0.82823340637E+03  0.82823340637E+03  0.00000000000E+00 0.  1.
         25    1    1    2    0    0 -0.21214747251E+03  0.73959352869E+02 -0.18748224433E+03  0.31819982386E+03  0.12500000000E+03 0.  0.
         25    1    1    2    0    0  0.21214747251E+03 -0.73959352869E+02 -0.54667217230E+03  0.60411257224E+03  0.12500000000E+03 0.  0.
</event>
<event>
 4    0  0.2250660E-002  0.3506041E+03  0.7546771E-02  0.1062367E+00
         21   -1    0    0  502  501  0.00000000000E+00  0.00000000000E+00  0.11166991393E+04  0.11166991393E+04  0.00000000000E+00 0. -1.
         21   -1    0    0  501  502 -0.00000000000E+00 -0.00000000000E+00 -0.11007729788E+03  0.11007729788E+03  0.00000000000E+00 0. -1.
         25    1    1    2    0    0  0.43240325419E+02 -0.11749294684E+03 -0.26258451087E+02  0.17885419915E+03  0.12500000000E+03 0.  0.
         25    1    1    2    0    0 -0.43240325419E+02  0.11749294684E+03  0.10328802925E+04  0.10479222380E+04  0.12500000000E+03 0.  0.
</event>
<event>
 4    0  0.2250660E-002  0.1818446E+03  0.7546771E-02  0.1166030E+00
         21   -1    0    0  502  501  0.00000000000E+00  0.00000000000E+00  0.19774082076E+03  0.19774082076E+03  0.00000000000E+00 0.  1.
         21   -1    0    0  501  502 -0.00000000000E+00 -0.00000000000E+00 -0.16722627800E+03  0.16722627800E+03  0.00000000000E+00 0.  1.
         25    1    1    2    0    0 -0.91644113771E+02  0.79871932840E+02  0.67055417908E+02  0.18681434184E+03  0.12500000000E+03 0.  0.
         25    1    1    2    0    0  0.91644113771E+02 -0.79871932840E+02 -0.36540875151E+02  0.17815275693E+03  0.12500000000E+03 0.  0.
</event>
<event>
 4    0  0.2250660E-002  0.3005247E+03  0.7546771E-02  0.1084979E+00
         21   -1    0    0  502  501  0.00000000000E+00  0.00000000000E+00  0.30571731991E+03  0.30571731991E+03  0.00000000000E+00 0. -1.
         21   -1    0    0  501  502 -0.00000000000E+00 -0.00000000000E+00 -0.29542022518E+03  0.29542022518E+03  0.00000000000E+00 0. -1.
         25    1    1    2    0    0 -0.65285681961E+02 -0.23459756959E+03 -0.11893351048E+03  0.29844332769E+03  0.12500000000E+03 0.  0.
         25    1    1    2    0    0  0.65285681961E+02  0.23459756959E+03  0.12923060521E+03  0.30269421740E+03  0.12500000000E+03 0.  0.
</event>
<event>
 4    0  0.2250660E-002  0.2685503E+03  0.7546771E-02  0.1102112E+00
         21   -1    0    0  502  501  0.00000000000E+00  0.00000000000E+00  0.74954749385E+02  0.74954749385E+02  0.00000000000E+00 0.  1.
         21   -1    0    0  501  502 -0.00000000000E+00 -0.00000000000E+00 -0.96217066462E+03  0.96217066462E+03  0.00000000000E+00 0.  1.
         25    1    1    2    0    0 -0.21894950171E+03 -0.92443990759E+02 -0.43766091194E+03  0.51347526675E+03  0.12500000000E+03 0.  0.
         25    1    1    2    0    0  0.21894950171E+03  0.92443990759E+02 -0.44955500330E+03  0.52365014726E+03  0.12500000000E+03 0.  0.
</event>
<event>
 4    0  0.2250660E-002  0.2723193E+03  0.7546771E-02  0.1099960E+00
         21   -1    0    0  502  501  0.00000000000E+00  0.00000000000E+00  0.13394876384E+04  0.13394876384E+04  0.00000000000E+00 0. -1.
         21   -1    0    0  501  502 -0.00000000000E+00 -0.00000000000E+00 -0.55362794187E+02  0.55362794187E+02  0.00000000000E+00 0. -1.
         25    1    1    2    0    0  0.20204846711E+03  0.20162182869E+02  0.97894302086E+03  0.10075636629E+04  0.12500000000E+03 0.  0.
         25    1    1    2    0    0 -0.20204846711E+03 -0.20162182869E+02  0.30518182336E+03  0.38728676971E+03  0.12500000000E+03 0.  0.
</event>
<event>
 4    0  0.2250660E-002  0.1944152E+03  0.7546771E-02  0.1154538E+00
         21   -1    0    0  502  501  0.00000000000E+00  0.00000000000E+00  0.73151713296E+03  0.73151713296E+03  0.00000000000E+00 0.  1.
         21   -1    0    0  501  502 -0.00000000000E+00 -0.00000000000E+00 -0.51669684770E+02  0.51669684770E+02  0.00000000000E+00 0.  1.
         25    1    1    2    0    0 -0.13129773465E+03  0.69559723197E+02  0.32033200846E+03  0.37458676680E+03  0.12500000000E+03 0.  0.
         25    1    1    2    0    0  0.13129773465E+03 -0.69559723197E+02  0.35951543973E+03  0.40860005093E+03  0.12500000000E+03 0.  0.
</event>
<event>
 4    0  0.2250660E-002  0.2030368E+03  0.7546771E-02  0.1147202E+00
         21   -1    0    0  502  501  0.00000000000E+00  0.00000000000E+00  0.36473608235E+02  0.36473608235E+02  0.00000000000E+00 0. -1.
         21   -1    0    0  501  502 -0.00000000000E+00 -0.00000000000E+00 -0.11302399188E+04  0.11302399188E+04  0.00000000000E+00 0. -1.
         25    1    1    2    0    0 -0.83233471287E+02 -0.11744482855E+03 -0.74754872419E+03  0.77147598377E+03  0.12500000000E+03 0.  0.
         25    1    1    2    0    0  0.83233471287E+02  0.11744482855E+03 -0.34621758642E+03  0.39523754331E+03  0.12500000000E+03 0.  0.
</event>
<event>
 4    0  0.2250660E-002  0.1978019E+03  0.7546771E-02  0.1151607E+00
         21   -1    0    0  502  501  0.00000000000E+00  0.00000000000E+00  0.27752467347E+02  0.27752467347E+02  0.00000000000E+00 0.  1.
         21   -1    0    0  501  502 -0.00000000000E+00 -0.00000000000E+00 -0.14098062570E+04  0.14098062570E+04  0.00000000000E+00 0.  1.
         25    1    1    2    0    0  0.12843292214E+03 -0.81648357647E+02 -0.62410785969E+03  0.65444410787E+03  0.12500000000E+03 0.  0.
         25    1    1    2    0    0 -0.12843292214E+03  0.81648357647E+02 -0.75794592992E+03  0.78311461643E+03  0.12500000000E+03 0.  0.
</event>
<event>
 4    0  0.2250660E-002  0.2339585E+03  0.7546771E-02  0.1123884E+00
         21   -1    0    0  502  501  0.00000000000E+00  0.00000000000E+00  0.12391277494E+03  0.12391277494E+03  0.00000000000E+00 0.  1.
         21   -1    0    0  501  502 -0.00000000000E+00 -0.00000000000E+00 -0.44173492815E+03  0.44173492815E+03  0.00000000000E+00 0.  1.
         25    1    1    2    0    0 -0.44758759823E+02  0.14743578227E+03 -0.90366983541E+01  0.19861348996E+03  0.12500000000E+03 0.  0.
         25    1    1    2    0    0  0.44758759823E+02 -0.14743578227E+03 -0.30878545486E+03  0.36703421313E+03  0.12500000000E+03 0.  0.
</event>
<event>
 4    0  0.2250660E-002  0.1833534E+03  0.7546771E-02  0.1164597E+00
         21   -1    0    0  502  501  0.00000000000E+00  0.00000000000E+00  0.42613771340E+02  0.42613771340E+02  0.00000000000E+00 0.  1.
         21   -1    0    0  501  502 -0.00000000000E+00 -0.00000000000E+00 -0.78891059955E+03  0.78891059955E+03  0.00000000000E+00 0.  1.
         25    1    1    2    0    0 -0.40628004857E+02  0.12714390792E+03 -0.34295956697E+03  0.38866756062E+03  0.12500000000E+03 0.  0.
         25    1    1    2    0    0  0.40628004857E+02 -0.12714390792E+03 -0.40333726123E+03  0.44285681027E+03  0.12500000000E+03 0.  0.
</event>
<event>
 4    0  0.2250660E-002  0.2567576E+03  0.7546771E-02  0.1109107E+00
         21   -1    0    0  502  501  0.00000000000E+00  0.00000000000E+00  0.38125692284E+03  0.38125692284E+03  0.00000000000E+00 0. -1.
         21   -1    0    0  501  502 -0.00000000000E+00 -0.00000000000E+00 -0.17291353954E+03  0.17291353954E+03  0.00000000000E+00 0. -1.
         25    1    1    2    0    0  0.93227643782E+02  0.20133839216E+03  0.68855567009E+02  0.26380794307E+03  0.12500000000E+03 0.  0.
         25    1    1    2    0    0 -0.93227643782E+02 -0.20133839216E+03  0.13948781629E+03  0.29036251930E+03  0.12500000000E+03 0.  0.
</event>
<event>
 4    0  0.2250660E-002  0.2676085E+03  0.7546771E-02  0.1102656E+00
         21   -1    0    0  502  501  0.00000000000E+00  0.00000000000E+00  0.48059794502E+03  0.48059794502E+03  0.00000000000E+00 0. -1.
         21   -1    0    0  501  502 -0.00000000000E+00 -0.00000000000E+00 -0.14901089278E+03  0.14901089278E+03  0.00000000000E+00 0. -1.
         25    1    1    2    0    0  0.74493024611E+02 -0.11472226060E+03  0.39292249222E+03  0.43442317236E+03  0.12500000000E+03 0.  0.
         25    1    1    2    0    0 -0.74493024611E+02  0.11472226060E+03 -0.61335439980E+02  0.19518566543E+03  0.12500000000E+03 0.  0.
</event>
<event>
 4    0  0.2250660E-002  0.2692556E+03  0.7546771E-02  0.1101706E+00
         21   -1    0    0  502  501  0.00000000000E+00  0.00000000000E+00  0.85654364330E+03  0.85654364330E+03  0.00000000000E+00 0.  1.
         21   -1    0    0  501  502 -0.00000000000E+00 -0.00000000000E+00 -0.84640838929E+02  0.84640838929E+02  0.00000000000E+00 0.  1.
         25    1    1    2    0    0 -0.22013470410E+03  0.91073069176E+02  0.40509553409E+03  0.48629310464E+03  0.12500000000E+03 0.  0.
         25    1    1    2    0    0  0.22013470410E+03 -0.91073069176E+02  0.36680727028E+03  0.45489137759E+03  0.12500000000E+03 0.  0.
</event>
<event>
 4    0  0.2250660E-002  0.2683495E+03  0.7546771E-02  0.1102228E+00
         21   -1    0    0  502  501  0.00000000000E+00  0.00000000000E+00  0.30165878255E+03  0.30165878255E+03  0.00000000000E+00 0.  1.
         21   -1    0    0  501  502 -0.00000000000E+00 -0.00000000000E+00 -0.23871830552E+03  0.23871830552E+03  0.00000000000E+00 0.  1.
         25    1    1    2    0    0  0.71921107445E+02 -0.36925094849E+02 -0.19333180469E+03  0.24400470288E+03  0.12500000000E+03 0.  0.
         25    1    1    2    0    0 -0.71921107445E+02  0.36925094849E+02  0.25627228172E+03  0.29637238519E+03  0.12500000000E+03 0.  0.
</event>
<event>
 4    0  0.2250660E-002  0.1697235E+03  0.7546771E-02  0.1178137E+00
         21   -1    0    0  502  501  0.00000000000E+00  0.00000000000E+00  0.87205013524E+03  0.87205013524E+03  0.00000000000E+00 0.  1.
         21   -1    0    0  501  502 -0.00000000000E+00 -0.00000000000E+00 -0.33032569101E+02  0.33032569101E+02  0.00000000000E+00 0.  1.
         25    1    1    2    0    0 -0.13729949238E+02  0.73379503266E+02  0.18693999527E+03  0.23694857002E+03  0.12500000000E+03 0.  0.
         25    1    1    2    0    0  0.13729949238E+02 -0.73379503266E+02  0.65207757088E+03  0.66813413432E+03  0.12500000000E+03 0.  0.
</event>
<event>
 4    0  0.2250660E-002  0.2085104E+03  0.7546771E-02  0.1142751E+00
         21   -1    0    0  502  501  0.00000000000E+00  0.00000000000E+00  0.13780171103E+03  0.13780171103E+03  0.00000000000E+00 0.  1.
         21   -1    0    0  501  502 -0.00000000000E+00 -0.00000000000E+00 -0.31550111283E+03  0.31550111283E+03  0.00000000000E+00 0.  1.
         25    1    1    2    0    0 -0.12250841789E+03 -0.70288813415E+02  0.77821208197E+01  0.18877073700E+03  0.12500000000E+03 0.  0.
         25    1    1    2    0    0  0.12250841789E+03  0.70288813415E+02 -0.18548152262E+03  0.26453208686E+03  0.12500000000E+03 0.  0.
</event>
<event>
 4    0  0.2250660E-002  0.1857402E+03  0.7546771E-02  0.1162360E+00
         21   -1    0    0  502  501  0.00000000000E+00  0.00000000000E+00  0.37302675689E+02  0.37302675689E+02  0.00000000000E+00 0. -1.
         21   -1    0    0  501  502 -0.00000000000E+00 -0.00000000000E+00 -0.92485086407E+03  0.92485086407E+03  0.00000000000E+00 0. -1.
         25    1    1    2    0    0  0.98719982122E+01 -0.10168994524E+03 -0.20588218519E+03  0.26163099107E+03  0.12500000000E+03 0.  0.
         25    1    1    2    0    0 -0.98719982122E+01  0.10168994524E+03 -0.68166600319E+03  0.70052254869E+03  0.12500000000E+03 0.  0.
</event>
<event>
 4    0  0.2250660E-002  0.3572274E+03  0.7546771E-02  0.1059687E+00
         21   -1    0    0  502  501  0.00000000000E+00  0.00000000000E+00  0.11884848916E+03  0.11884848916E+03  0.00000000000E+00 0. -1.
         21   -1    0    0  501  502 -0.00000000000E+00 -0.00000000000E+00 -0.10737319254E+04  0.10737319254E+04  0.00000000000E+00 0. -1.
         25    1    1    2    0    0  0.21090264279E+03  0.19296317141E+03 -0.76786495788E+03  0.82882827159E+03  0.12500000000E+03 0.  0.
         25    1    1    2    0    0 -0.21090264279E+03 -0.19296317141E+03 -0.18701847834E+03  0.36375214295E+03  0.12500000000E+03 0.  0.
</event>
<event>
 4    0  0.2250660E-002  0.1852737E+03  0.7546771E-02  0.1162795E+00
         21   -1    0    0  502  501  0.00000000000E+00  0.00000000000E+00  0.39923320493E+03  0.39923320493E+03  0.00000000000E+00 0.  1.
         21   -1    0    0  501  502 -0.00000000000E+00 -0.00000000000E+00 -0.85980716990E+02  0.85980716990E+02  0.00000000000E+00 0.  1.
         25    1    1    2    0    0  0.12937875980E+03  0.31133919173E+02  0.19789314027E+03  0.26924873142E+03  0.12500000000E+03 0.  0.
         25    1    1    2    0    0 -0.12937875980E+03 -0.31133919173E+02  0.11535934767E+03  0.21596519049E+03  0.12500000000E+03 0.  0.
</event>
<event>
 4    0  0.2250660E-002  0.2761268E+03  0.7546771E-02  0.1097823E+00
         21   -1    0    0  502  501  0.00000000000E+00  0.00000000000E+00  0.57025071763E+02  0.57025071763E+02  0.00000000000E+00 0.  1.
         21   -1    0    0  501  502 -0.00000000000E+00 -0.00000000000E+00 -0.13370613436E+04  0.13370613436E+04  0.00000000000E+00 0.  1.
         25    1    1    2    0    0 -0.21723141471E+02 -0.21739154321E+03 -0.35341676428E+03  0.43388868067E+03  0.12500000000E+03 0.  0.
         25    1    1    2    0    0  0.21723141471E+02  0.21739154321E+03 -0.92661950756E+03  0.96019773470E+03  0.12500000000E+03 0.  0.
</event>
<event>
 4    0  0.2250660E-002  0.4287942E+03  0.7546771E-02  0.1034242E+00
         21   -1    0    0  502  501  0.00000000000E+00  0.00000000000E+00  0.11049524780E+04  0.11049524780E+04  0.00000000000E+00 0.  1.
         21   -1    0    0  501  502 -0.00000000000E+00 -0.00000000000E+00 -0.16640036864E+03  0.16640036864E+03  0.00000000000E+00 0.  1.
         25    1    1    2    0    0 -0.95266839356E+02  0.89664392199E+02  0.10455830870E+04  0.10611241519E+04  0.12500000000E+03 0.  0.
         25    1    1    2    0    0  0.95266839356E+02 -0.89664392199E+02 -0.10703097766E+03  0.21022869473E+03  0.12500000000E+03 0.  0.
</event>
<event>
 4    0  0.2250660E-002  0.1843801E+03  0.7546771E-02  0.1163630E+00
         21   -1    0    0  502  501  0.00000000000E+00  0.00000000000E+00  0.19415639059E+04  0.19415639059E+04  0.00000000000E+00 0.  1.
         21   -1    0    0  501  502 -0.00000000000E+00 -0.00000000000E+00 -0.17509607148E+02  0.17509607148E+02  0.00000000000E+00 0.  1.
         25    1    1    2    0    0 -0.79900172742E+01 -0.63228510022E+02  0.32652585718E+03  0.35539530140E+03  0.12500000000E+03 0.  0.
         25    1    1    2    0    0  0.79900172742E+01  0.63228510022E+02  0.15975284415E+04  0.16036782116E+04  0.12500000000E+03 0.  0.
</event>
<event>
 4    0  0.2250660E-002  0.1817974E+03  0.7546771E-02  0.1166075E+00
         21   -1    0    0  502  501  0.00000000000E+00  0.00000000000E+00  0.50789026327E+02  0.50789026327E+02  0.00000000000E+00 0. -1.
         21   -1    0    0  501  502 -0.00000000000E+00 -0.00000000000E+00 -0.65073670018E+03  0.65073670018E+03  0.00000000000E+00 0. -1.
         25    1    1    2    0    0 -0.28382592087E+02 -0.45773404637E+02 -0.67445054736E+02  0.15190329659E+03  0.12500000000E+03 0.  0.
         25    1    1    2    0    0  0.28382592087E+02  0.45773404637E+02 -0.53250261911E+03  0.54962242992E+03  0.12500000000E+03 0.  0.
</event>
<event>
 4    0  0.2250660E-002  0.2141548E+03  0.7546771E-02  0.1138317E+00
         21   -1    0    0  502  501  0.00000000000E+00  0.00000000000E+00  0.31704280365E+03  0.31704280365E+03  0.00000000000E+00 0. -1.
         21   -1    0    0  501  502 -0.00000000000E+00 -0.00000000000E+00 -0.14465646851E+03  0.14465646851E+03  0.00000000000E+00 0. -1.
         25    1    1    2    0    0 -0.34113253948E+02 -0.28775728293E+02  0.26735897049E+03  0.29849217030E+03  0.12500000000E+03 0.  0.
         25    1    1    2    0    0  0.34113253948E+02  0.28775728293E+02 -0.94972635345E+02  0.16320710186E+03  0.12500000000E+03 0.  0.
</event>
<event>
 4    0  0.2250660E-002  0.2342428E+03  0.7546771E-02  0.1123689E+00
         21   -1    0    0  502  501  0.00000000000E+00  0.00000000000E+00  0.33743015560E+02  0.33743015560E+02  0.00000000000E+00 0.  1.
         21   -1    0    0  501  502 -0.00000000000E+00 -0.00000000000E+00 -0.16261052058E+04  0.16261052058E+04  0.00000000000E+00 0.  1.
         25    1    1    2    0    0  0.10663612745E+03 -0.26838876759E+02 -0.13800049811E+04  0.13900109125E+04  0.12500000000E+03 0.  0.
         25    1    1    2    0    0 -0.10663612745E+03  0.26838876759E+02 -0.21235720914E+03  0.26983730886E+03  0.12500000000E+03 0.  0.
</event>
<event>
 4    0  0.2250660E-002  0.2061579E+03  0.7546771E-02  0.1144645E+00
         21   -1    0    0  502  501  0.00000000000E+00  0.00000000000E+00  0.41274345028E+03  0.41274345028E+03  0.00000000000E+00 0. -1.
         21   -1    0    0  501  502 -0.00000000000E+00 -0.00000000000E+00 -0.10297213426E+03  0.10297213426E+03  0.00000000000E+00 0. -1.
         25    1    1    2    0    0 -0.10700337476E+02  0.12774287896E+03  0.28270597317E+03  0.33463473760E+03  0.12500000000E+03 0.  0.
         25    1    1    2    0    0  0.10700337476E+02 -0.12774287896E+03  0.27065342852E+02  0.18108084695E+03  0.12500000000E+03 0.  0.
</event>
<event>
 4    0  0.2250660E-002  0.1963807E+03  0.7546771E-02  0.1152829E+00
         21   -1    0    0  502  501  0.00000000000E+00  0.00000000000E+00  0.10086660325E+04  0.10086660325E+04  0.00000000000E+00 0.  1.
         21   -1    0    0  501  502 -0.00000000000E+00 -0.00000000000E+00 -0.38234055912E+02  0.38234055912E+02  0.00000000000E+00 0.  1.
         25    1    1    2    0    0  0.68971262659E+02  0.72027127341E+01  0.12629985765E+03  0.19075001490E+03  0.12500000000E+03 0.  0.
         25    1    1    2    0    0 -0.68971262659E+02 -0.72027127341E+01  0.84413211893E+03  0.85615007350E+03  0.12500000000E+03 0.  0.
</event>
<event>
 4    0  0.2250660E-002  0.2403640E+03  0.7546771E-02  0.1119551E+00
         21   -1    0    0  502  501  0.00000000000E+00  0.00000000000E+00  0.17040588984E+03  0.17040588984E+03  0.00000000000E+00 0. -1.
         21   -1    0    0  501  502 -0.00000000000E+00 -0.00000000000E+00 -0.33904247959E+03  0.33904247959E+03  0.00000000000E+00 0. -1.
         25    1    1    2    0    0 -0.85525919074E+02 -0.90992331989E+02 -0.25701277537E+03  0.31188916945E+03  0.12500000000E+03 0.  0.
         25    1    1    2    0    0  0.85525919074E+02  0.90992331989E+02  0.88376185626E+02  0.19755919999E+03  0.12500000000E+03 0.  0.
</event>
<event>
 4    0  0.2250660E-002  0.4299827E+03  0.7546771E-02  0.1033865E+00
         21   -1    0    0  502  501  0.00000000000E+00  0.00000000000E+00  0.65836579932E+03  0.65836579932E+03  0.00000000000E+00 0.  1.
         21   -1    0    0  501  502 -0.00000000000E+00 -0.00000000000E+00 -0.28082427602E+03  0.28082427602E+03  0.00000000000E+00 0.  1.
         25    1    1    2    0    0 -0.30174747370E+03  0.26301458374E+03  0.84979244754E+02  0.42787227204E+03  0.12500000000E+03 0.  0.
         25    1    1    2    0    0  0.30174747370E+03 -0.26301458374E+03  0.29256227854E+03  0.51131780330E+03  0.12500000000E+03 0.  0.
</event>
<event>
 4    0  0.2250660E-002  0.1999645E+03  0.7546771E-02  0.1149769E+00
         21   -1    0    0  502  501  0.00000000000E+00  0.00000000000E+00  0.57256731146E+03  0.57256731146E+03  0.00000000000E+00 0. -1.
         21   -1    0    0  501  502 -0.00000000000E+00 -0.00000000000E+00 -0.69835984700E+02  0.69835984700E+02  0.00000000000E+00 0. -1.
         25    1    1    2    0    0 -0.91787219772E+01  0.50151988061E+02  0.14409729740E+02  0.13576491135E+03  0.12500000000E+03 0.  0.
         25    1    1    2    0    0  0.91787219772E+01 -0.50151988061E+02  0.48832159702E+03  0.50663838481E+03  0.12500000000E+03 0.  0.
</event>
<event>
 4    0  0.2250660E-002  0.2549268E+03  0.7546771E-02  0.1110230E+00
         21   -1    0    0  502  501  0.00000000000E+00  0.00000000000E+00  0.14394511142E+03  0.14394511142E+03  0.00000000000E+00 0. -1.
         21   -1    0    0  501  502 -0.00000000000E+00 -0.00000000000E+00 -0.45147528898E+03  0.45147528898E+03  0.00000000000E+00 0. -1.
         25    1    1    2    0    0  0.13592811779E+03  0.16443417640E+03 -0.22620430450E+03  0.33512451261E+03  0.12500000000E+03 0.  0.
         25    1    1    2    0    0 -0.13592811779E+03 -0.16443417640E+03 -0.81325873064E+02  0.26029588780E+03  0.12500000000E+03 0.  0.
</event>
<event>
 4    0  0.2250660E-002  0.2032536E+03  0.7546771E-02  0.1147023E+00
         21   -1    0    0  502  501  0.00000000000E+00  0.00000000000E+00  0.16398980413E+03  0.16398980413E+03  0.00000000000E+00 0.  1.
         21   -1    0    0  501  502 -0.00000000000E+00 -0.00000000000E+00 -0.25191827375E+03  0.25191827375E+03  0.00000000000E+00 0.  1.
         25    1    1    2    0    0 -0.95187964422E+02 -0.11326996160E+03 -0.10700237489E+03  0.22128113567E+03  0.12500000000E+03 0.  0.
         25    1    1    2    0    0  0.95187964422E+02  0.11326996160E+03  0.19073905276E+02  0.19462694221E+03  0.12500000000E+03 0.  0.
</event>
<event>
 4    0  0.2250660E-002  0.1801755E+03  0.7546771E-02  0.1167633E+00
         21   -1    0    0  502  501  0.00000000000E+00  0.00000000000E+00  0.22974624898E+02  0.22974624898E+02  0.00000000000E+00 0. -1.
         21   -1    0    0  501  502 -0.00000000000E+00 -0.00000000000E+00 -0.14130023283E+04  0.14130023283E+04  0.00000000000E+00 0. -1.
         25    1    1    2    0    0  0.83176771784E+02  0.54933899115E+01 -0.10913030080E+04  0.11015969353E+04  0.12500000000E+03 0.  0.
         25    1    1    2    0    0 -0.83176771784E+02 -0.54933899115E+01 -0.29872469544E+03  0.33438001789E+03  0.12500000000E+03 0.  0.
</event>
<event>
 4    0  0.2250660E-002  0.1773193E+03  0.7546771E-02  0.1170423E+00
         21   -1    0    0  502  501  0.00000000000E+00  0.00000000000E+00  0.46754418194E+03  0.46754418194E+03  0.00000000000E+00 0.  1.
         21   -1    0    0  501  502 -0.00000000000E+00 -0.00000000000E+00 -0.67249511736E+02  0.67249511736E+02  0.00000000000E+00 0.  1.
         25    1    1    2    0    0  0.99626939814E+02  0.68434608488E+02  0.25256611476E+03  0.30663245931E+03  0.12500000000E+03 0.  0.
         25    1    1    2    0    0 -0.99626939814E+02 -0.68434608488E+02  0.14772855544E+03  0.22816123437E+03  0.12500000000E+03 0.  0.
</event>
<event>
 4    0  0.2250660E-002  0.1924487E+03  0.7546771E-02  0.1156271E+00
         21   -1    0    0  502  501  0.00000000000E+00  0.00000000000E+00  0.10060945410E+03  0.10060945410E+03  0.00000000000E+00 0. -1.
         21   -1    0    0  501  502 -0.00000000000E+00 -0.00000000000E+00 -0.36812148727E+03  0.36812148727E+03  0.00000000000E+00 0. -1.
         25    1    1    2    0    0  0.21692862293E+02  0.50063456103E+02  0.31590547931E+02  0.13999961654E+03  0.12500000000E+03 0.  0.
         25    1    1    2    0    0 -0.21692862293E+02 -0.50063456103E+02 -0.29910258110E+03  0.32873132484E+03  0.12500000000E+03 0.  0.
</event>
<event>
 4    0  0.2250660E-002  0.2671258E+03  0.7546771E-02  0.1102936E+00
         21   -1    0    0  502  501  0.00000000000E+00  0.00000000000E+00  0.29016301946E+03  0.29016301946E+03  0.00000000000E+00 0.  1.
         21   -1    0    0  501  502 -0.00000000000E+00 -0.00000000000E+00 -0.24591751609E+03  0.24591751609E+03  0.00000000000E+00 0.  1.
         25    1    1    2    0    0 -0.14946530454E+03 -0.69621955256E+01  0.20534805176E+03  0.28316280086E+03  0.12500000000E+03 0.  0.
         25    1    1    2    0    0  0.14946530454E+03  0.69621955256E+01 -0.16110254839E+03  0.25291773470E+03  0.12500000000E+03 0.  0.
</event>
<event>
 4    0  0.2250660E-002  0.1862785E+03  0.7546771E-02  0.1161861E+00
         21   -1    0    0  502  501  0.00000000000E+00  0.00000000000E+00  0.26756163111E+03  0.26756163111E+03  0.00000000000E+00 0.  1.
         21   -1    0    0  501  502 -0.00000000000E+00 -0.00000000000E+00 -0.12968855887E+03  0.12968855887E+03  0.00000000000E+00 0.  1.
         25    1    1    2    0    0 -0.72614975945E+02 -0.11597382223E+03  0.48936455852E+02  0.19168369489E+03  0.12500000000E+03 0.  0.
         25    1    1    2    0    0  0.72614975945E+02  0.11597382223E+03  0.88936616386E+02  0.20556649510E+03  0.12500000000E+03 0.  0.
</event>
<event>
 4    0  0.2250660E-002  0.2490159E+03  0.7546771E-02  0.1113928E+00
         21   -1    0    0  502  501  0.00000000000E+00  0.00000000000E+00  0.44810331271E+03  0.44810331271E+03  0.00000000000E+00 0.  1.
         21   -1    0    0  501  502 -0.00000000000E+00 -0.00000000000E+00 -0.13838088865E+03  0.13838088865E+03  0.00000000000E+00 0.  1.
         25    1    1    2    0    0  0.11574247330E+03  0.11503430529E+03 -0.10652759743E+02  0.20583413908E+03  0.12500000000E+03 0.  0.
         25    1    1    2    0    0 -0.11574247330E+03 -0.11503430529E+03  0.32037518380E+03  0.38065006228E+03  0.12500000000E+03 0.  0.
</event>
<event>
 4    0  0.2250660E-002  0.2530825E+03  0.7546771E-02  0.1111372E+00
         21   -1    0    0  502  501  0.00000000000E+00  0.00000000000E+00  0.83484990655E+02  0.83484990655E+02  0.00000000000E+00 0. -1.
         21   -1    0    0  501  502 -0.00000000000E+00 -0.00000000000E+00 -0.76721256814E+03  0.76721256814E+03  0.00000000000E+00 0. -1.
         25    1    1    2    0    0  0.16922783555E+03  0.35030617691E+02 -0.11289392963E+03  0.24131979581E+03  0.12500000000E+03 0.  0.
         25    1    1    2    0    0 -0.16922783555E+03 -0.35030617691E+02 -0.57083364785E+03  0.60937776299E+03  0.12500000000E+03 0.  0.
</event>
<event>
 4    0  0.2250660E-002  0.2135185E+03  0.7546771E-02  0.1138810E+00
         21   -1    0    0  502  501  0.00000000000E+00  0.00000000000E+00  0.38056959313E+03  0.38056959313E+03  0.00000000000E+00 0.  1.
         21   -1    0    0  501  502 -0.00000000000E+00 -0.00000000000E+00 -0.11979448003E+03  0.11979448003E+03  0.00000000000E+00 0.  1.
         25    1    1    2    0    0 -0.14981636802E+02 -0.15750693545E+02  0.33161037497E+03  0.35505348129E+03  0.12500000000E+03 0.  0.
         25    1    1    2    0    0  0.14981636802E+02  0.15750693545E+02 -0.70835261867E+02  0.14531059188E+03  0.12500000000E+03 0.  0.
</event>
<event>
 4    0  0.2250660E-002  0.2014074E+03  0.7546771E-02  0.1148557E+00
         21   -1    0    0  502  501  0.00000000000E+00  0.00000000000E+00  0.16081872683E+02  0.16081872683E+02  0.00000000000E+00 0. -1.
         21   -1    0    0  501  502 -0.00000000000E+00 -0.00000000000E+00 -0.25224011033E+04  0.25224011033E+04  0.00000000000E+00 0. -1.
         25    1    1    2    0    0 -0.11162122995E+03 -0.39809784515E+02 -0.19109670018E+04  0.19187141527E+04  0.12500000000E+03 0.  0.
         25    1    1    2    0    0  0.11162122995E+03  0.39809784515E+02 -0.59535222879E+03  0.61976882323E+03  0.12500000000E+03 0.  0.
</event>
<event>
 4    0  0.2250660E-002  0.2046192E+03  0.7546771E-02  0.1145899E+00
         21   -1    0    0  502  501  0.00000000000E+00  0.00000000000E+00  0.12499441231E+03  0.12499441231E+03  0.00000000000E+00 0. -1.
         21   -1    0    0  501  502 -0.00000000000E+00 -0.00000000000E+00 -0.33496722944E+03  0.33496722944E+03  0.00000000000E+00 0. -1.
         25    1    1    2    0    0  0.88752872588E+02  0.12883181631E+03 -0.57709541976E+02  0.20839889760E+03  0.12500000000E+03 0.  0.
         25    1    1    2    0    0 -0.88752872588E+02 -0.12883181631E+03 -0.15226327515E+03  0.25156274415E+03  0.12500000000E+03 0.  0.
</event>
<event>
 4    0  0.2250660E-002  0.1834163E+03  0.7546771E-02  0.1164537E+00
         21   -1    0    0  502  501  0.00000000000E+00  0.00000000000E+00  0.30650369978E+02  0.30650369978E+02  0.00000000000E+00 0.  1.
         21   -1    0    0  501  502 -0.00000000000E+00 -0.00000000000E+00 -0.10975902037E+04  0.10975902037E+04  0.00000000000E+00 0.  1.
         25    1    1    2    0    0 -0.90241096962E+02 -0.94167196946E+02 -0.63100316733E+03  0.65635425933E+03  0.12500000000E+03 0.  0.
         25    1    1    2    0    0  0.90241096962E+02  0.94167196946E+02 -0.43593666637E+03  0.47188631433E+03  0.12500000000E+03 0.  0.
</event>
<event>
 4    0  0.2250660E-002  0.2591849E+03  0.7546771E-02  0.1107634E+00
         21   -1    0    0  502  501  0.00000000000E+00  0.00000000000E+00  0.41891623268E+02  0.41891623268E+02  0.00000000000E+00 0. -1.
         21   -1    0    0  501  502 -0.00000000000E+00 -0.00000000000E+00 -0.16035854099E+04  0.16035854099E+04  0.00000000000E+00 0. -1.
         25    1    1    2    0    0 -0.79385968310E+02 -0.12964743939E+03 -0.13161825681E+04  0.13308163446E+04  0.12500000000E+03 0.  0.
         25    1    1    2    0    0  0.79385968310E+02  0.12964743939E+03 -0.24551121857E+03  0.31466068860E+03  0.12500000000E+03 0.  0.
</event>
<event>
 4    0  0.2250660E-002  0.1572095E+03  0.7546771E-02  0.1191884E+00
         21   -1    0    0  502  501  0.00000000000E+00  0.00000000000E+00  0.21611166199E+03  0.21611166199E+03  0.00000000000E+00 0. -1.
         21   -1    0    0  501  502 -0.00000000000E+00 -0.00000000000E+00 -0.11436143787E+03  0.11436143787E+03  0.00000000000E+00 0. -1.
         25    1    1    2    0    0  0.94116663209E+01 -0.83382710825E+02  0.98447412424E+02  0.17988370949E+03  0.12500000000E+03 0.  0.
         25    1    1    2    0    0 -0.94116663209E+01  0.83382710825E+02  0.33028116924E+01  0.15058939037E+03  0.12500000000E+03 0.  0.
</event>
<event>
 4    0  0.2250660E-002  0.3357316E+03  0.7546771E-02  0.1068629E+00
         21   -1    0    0  502  501  0.00000000000E+00  0.00000000000E+00  0.13026634110E+03  0.13026634110E+03  0.00000000000E+00 0. -1.
         21   -1    0    0  501  502 -0.00000000000E+00 -0.00000000000E+00 -0.86527134272E+03  0.86527134272E+03  0.00000000000E+00 0. -1.
         25    1    1    2    0    0  0.91369657726E+02  0.20777316558E+03 -0.68401253507E+03  0.73144805067E+03  0.12500000000E+03 0.  0.
         25    1    1    2    0    0 -0.91369657726E+02 -0.20777316558E+03 -0.50992466548E+02  0.26408963314E+03  0.12500000000E+03 0.  0.
</event>
<event>
 4    0  0.2250660E-002  0.2865885E+03  0.7546771E-02  0.1092144E+00
         21   -1    0    0  502  501  0.00000000000E+00  0.00000000000E+00  0.42605822097E+03  0.42605822097E+03  0.00000000000E+00 0.  1.
         21   -1    0    0  501  502 -0.00000000000E+00 -0.00000000000E+00 -0.19277411147E+03  0.19277411147E+03  0.00000000000E+00 0.  1.
         25    1    1    2    0    0  0.17985656099E+02 -0.78929594774E+02 -0.14771781870E+03  0.20975919221E+03  0.12500000000E+03 0.  0.
         25    1    1    2    0    0 -0.17985656099E+02  0.78929594774E+02  0.38100192820E+03  0.40907314022E+03  0.12500000000E+03 0.  0.
</event>
<event>
 4    0  0.2250660E-002  0.2007975E+03  0.7546771E-02  0.1149068E+00
         21   -1    0    0  502  501  0.00000000000E+00  0.00000000000E+00  0.80271298573E+02  0.80271298573E+02  0.00000000000E+00 0.  1.
         21   -1    0    0  501  502 -0.00000000000E+00 -0.00000000000E+00 -0.50229219339E+03  0.50229219339E+03  0.00000000000E+00 0.  1.
         25    1    1    2    0    0  0.79354643531E+02  0.13548100073E+03 -0.20156626914E+03  0.28444019031E+03  0.12500000000E+03 0.  0.
         25    1    1    2    0    0 -0.79354643531E+02 -0.13548100073E+03 -0.22045462568E+03  0.29812330166E+03  0.12500000000E+03 0.  0.
</event>
<event>
 4    0  0.2250660E-002  0.3146423E+03  0.7546771E-02  0.1078142E+00
         21   -1    0    0  502  501  0.00000000000E+00  0.00000000000E+00  0.31147282231E+03  0.31147282231E+03  0.00000000000E+00 0. -1.
         21   -1    0    0  501  502 -0.00000000000E+00 -0.00000000000E+00 -0.31784405762E+03  0.31784405762E+03  0.00000000000E+00 0.  1.
         25    1    1    2    0    0 -0.21179010733E+03  0.18612091355E+03  0.59097118759E+02  0.31402788645E+03  0.12500000000E+03 0.  0.
         25    1    1    2    0    0  0.21179010733E+03 -0.18612091355E+03 -0.65468354064E+02  0.31528899348E+03  0.12500000000E+03 0.  0.
</event>
<event>
 4    0  0.2250660E-002  0.2791034E+03  0.7546771E-02  0.1096180E+00
         21   -1    0    0  502  501  0.00000000000E+00  0.00000000000E+00  0.65026412378E+02  0.65026412378E+02  0.00000000000E+00 0. -1.
         21   -1    0    0  501  502 -0.00000000000E+00 -0.00000000000E+00 -0.11979551664E+04  0.11979551664E+04  0.00000000000E+00 0. -1.
         25    1    1    2    0    0 -0.20650416561E+03 -0.36802523201E+02 -0.87233267146E+03  0.90586295091E+03  0.12500000000E+03 0.  0.
         25    1    1    2    0    0  0.20650416561E+03  0.36802523201E+02 -0.26059608258E+03  0.35711862789E+03  0.12500000000E+03 0.  0.
</event>
<event>
 4    0  0.2250660E-002  0.2778879E+03  0.7546771E-02  0.1096848E+00
         21   -1    0    0  502  501  0.00000000000E+00  0.00000000000E+00  0.18004045362E+04  0.18004045362E+04  0.00000000000E+00 0. -1.
         21   -1    0    0  501  502 -0.00000000000E+00 -0.00000000000E+00 -0.42891297484E+02  0.42891297484E+02  0.00000000000E+00 0. -1.
         25    1    1    2    0    0  0.93902897877E+02  0.21723520776E+03  0.63083425316E+03  0.68526326669E+03  0.12500000000E+03 0.  0.
         25    1    1    2    0    0 -0.93902897877E+02 -0.21723520776E+03  0.11266789855E+04  0.11580325670E+04  0.12500000000E+03 0.  0.
</event>
<event>
 4    0  0.2250660E-002  0.1993260E+03  0.7546771E-02  0.1150309E+00
         21   -1    0    0  502  501  0.00000000000E+00  0.00000000000E+00  0.13416899887E+03  0.13416899887E+03  0.00000000000E+00 0.  1.
         21   -1    0    0  501  502 -0.00000000000E+00 -0.00000000000E+00 -0.29612558374E+03  0.29612558374E+03  0.00000000000E+00 0.  1.
         25    1    1    2    0    0  0.14907351551E+02 -0.46487496199E+02  0.78105998909E+02  0.15527029175E+03  0.12500000000E+03 0.  0.
         25    1    1    2    0    0 -0.14907351551E+02  0.46487496199E+02 -0.24006258378E+03  0.27502429086E+03  0.12500000000E+03 0.  0.
</event>
<event>
 4    0  0.2250660E-002  0.1982139E+03  0.7546771E-02  0.1151255E+00
         21   -1    0    0  502  501  0.00000000000E+00  0.00000000000E+00  0.16430440891E+03  0.16430440891E+03  0.00000000000E+00 0.  1.
         21   -1    0    0  501  502 -0.00000000000E+00 -0.00000000000E+00 -0.23912168552E+03  0.23912168552E+03  0.00000000000E+00 0.  1.
         25    1    1    2    0    0  0.15108056343E+03  0.23142430013E+02 -0.55118102868E+02  0.20499735115E+03  0.12500000000E+03 0.  0.
         25    1    1    2    0    0 -0.15108056343E+03 -0.23142430013E+02 -0.19699173744E+02  0.19842874328E+03  0.12500000000E+03 0.  0.
</event>
<event>
 4    0  0.2250660E-002  0.1967395E+03  0.7546771E-02  0.1152519E+00
         21   -1    0    0  502  501  0.00000000000E+00  0.00000000000E+00  0.36122877096E+02  0.36122877096E+02  0.00000000000E+00 0. -1.
         21   -1    0    0  501  502 -0.00000000000E+00 -0.00000000000E+00 -0.10715207679E+04  0.10715207679E+04  0.00000000000E+00 0. -1.
         25    1    1    2    0    0 -0.97236933125E+02  0.10640514999E+03 -0.38256903346E+03  0.42750572215E+03  0.12500000000E+03 0.  0.
         25    1    1    2    0    0  0.97236933125E+02 -0.10640514999E+03 -0.65282885731E+03  0.68013792281E+03  0.12500000000E+03 0.  0.
</event>
<event>
 4    0  0.2250660E-002  0.4497032E+03  0.7546771E-02  0.1027811E+00
         21   -1    0    0  502  501  0.00000000000E+00  0.00000000000E+00  0.14689393721E+04  0.14689393721E+04  0.00000000000E+00 0. -1.
         21   -1    0    0  501  502 -0.00000000000E+00 -0.00000000000E+00 -0.13767275385E+03  0.13767275385E+03  0.00000000000E+00 0. -1.
         25    1    1    2    0    0  0.33630027112E+03  0.25185337697E+03  0.84497610111E+03  0.95191260486E+03  0.12500000000E+03 0.  0.
         25    1    1    2    0    0 -0.33630027112E+03 -0.25185337697E+03  0.48629051715E+03  0.65469952109E+03  0.12500000000E+03 0.  0.
</event>
<event>
 4    0  0.2250660E-002  0.1979271E+03  0.7546771E-02  0.1151500E+00
         21   -1    0    0  502  501  0.00000000000E+00  0.00000000000E+00  0.21796853764E+04  0.21796853764E+04  0.00000000000E+00 0.  1.
         21   -1    0    0  501  502 -0.00000000000E+00 -0.00000000000E+00 -0.17972840376E+02  0.17972840376E+02  0.00000000000E+00 0.  1.
         25    1    1    2    0    0  0.84561989928E+02  0.10071255988E+03  0.64173273608E+03  0.66688803739E+03  0.12500000000E+03 0.  0.
         25    1    1    2    0    0 -0.84561989928E+02 -0.10071255988E+03  0.15199797999E+04  0.15307701794E+04  0.12500000000E+03 0.  0.
</event>
<event>
 4    0  0.2250660E-002  0.2796005E+03  0.7546771E-02  0.1095907E+00
         21   -1    0    0  502  501  0.00000000000E+00  0.00000000000E+00  0.92454321364E+03  0.92454321364E+03  0.00000000000E+00 0.  1.
         21   -1    0    0  501  502 -0.00000000000E+00 -0.00000000000E+00 -0.84556796408E+02  0.84556796408E+02  0.00000000000E+00 0.  1.
         25    1    1    2    0    0 -0.11268313874E+03 -0.15680311599E+03  0.70683383014E+03  0.74331942688E+03  0.12500000000E+03 0.  0.
         25    1    1    2    0    0  0.11268313874E+03  0.15680311599E+03  0.13315258709E+03  0.26578058317E+03  0.12500000000E+03 0.  0.
</event>
<event>
 4    0  0.2250660E-002  0.3270415E+03  0.7546771E-02  0.1072453E+00
         21   -1    0    0  502  501  0.00000000000E+00  0.00000000000E+00  0.46509848689E+03  0.46509848689E+03  0.00000000000E+00 0.  1.
         21   -1    0    0  501  502 -0.00000000000E+00 -0.00000000000E+00 -0.22996454837E+03  0.22996454837E+03  0.00000000000E+00 0.  1.
         25    1    1    2    0    0 -0.14255021743E+03 -0.20400948402E+03 -0.64611257699E+02  0.28590216627E+03  0.12500000000E+03 0.  0.
         25    1    1    2    0    0  0.14255021743E+03  0.20400948402E+03  0.29974519622E+03  0.40916086899E+03  0.12500000000E+03 0.  0.
</event>
<event>
 4    0  0.2250660E-002  0.2396435E+03  0.7546771E-02  0.1120031E+00
         21   -1    0    0  502  501  0.00000000000E+00  0.00000000000E+00  0.30383169687E+03  0.30383169687E+03  0.00000000000E+00 0.  1.
         21   -1    0    0  501  502 -0.00000000000E+00 -0.00000000000E+00 -0.18901589484E+03  0.18901589484E+03  0.00000000000E+00 0.  1.
         25    1    1    2    0    0 -0.15777192656E+03  0.98632809973E+02  0.14456208769E+03  0.26672759365E+03  0.12500000000E+03 0.  0.
         25    1    1    2    0    0  0.15777192656E+03 -0.98632809973E+02 -0.29746285658E+02  0.22611999807E+03  0.12500000000E+03 0.  0.
</event>
<event>
 4    0  0.2250660E-002  0.2665506E+03  0.7546771E-02  0.1103270E+00
         21   -1    0    0  502  501  0.00000000000E+00  0.00000000000E+00  0.16023512238E+03  0.16023512238E+03  0.00000000000E+00 0.  1.
         21   -1    0    0  501  502 -0.00000000000E+00 -0.00000000000E+00 -0.44340596653E+03  0.44340596653E+03  0.00000000000E+00 0.  1.
         25    1    1    2    0    0 -0.35009340976E+02 -0.14673703984E+03 -0.34624046336E+03  0.39782517678E+03  0.12500000000E+03 0.  0.
         25    1    1    2    0    0  0.35009340976E+02  0.14673703984E+03  0.63069619205E+02  0.20581591212E+03  0.12500000000E+03 0.  0.
</event>
<event>
 4    0  0.2250660E-002  0.2761908E+03  0.7546771E-02  0.1097788E+00
         21   -1    0    0  502  501  0.00000000000E+00  0.00000000000E+00  0.40561867084E+03  0.40561867084E+03  0.00000000000E+00 0.  1.
         21   -1    0    0  501  502 -0.00000000000E+00 -0.00000000000E+00 -0.18806173075E+03  0.18806173075E+03  0.00000000000E+00 0.  1.
         25    1    1    2    0    0  0.31581709845E+01 -0.17449089742E+03 -0.77993623006E+02  0.22839669997E+03  0.12500000000E+03 0.  0.
         25    1    1    2    0    0 -0.31581709845E+01  0.17449089742E+03  0.29555056310E+03  0.36528370163E+03  0.12500000000E+03 0.  0.
</event>
<event>
 4    0  0.2250660E-002  0.2975114E+03  0.7546771E-02  0.1086491E+00
         21   -1    0    0  502  501  0.00000000000E+00  0.00000000000E+00  0.84033741157E+03  0.84033741157E+03  0.00000000000E+00 0. -1.
         21   -1    0    0  501  502 -0.00000000000E+00 -0.00000000000E+00 -0.10533033576E+03  0.10533033576E+03  0.00000000000E+00 0. -1.
         25    1    1    2    0    0 -0.11109276981E+03 -0.18559563214E+03  0.11074144601E+03  0.27326911651E+03  0.12500000000E+03 0.  0.
         25    1    1    2    0    0  0.11109276981E+03  0.18559563214E+03  0.62426562981E+03  0.67239863082E+03  0.12500000000E+03 0.  0.
</event>
<event>
 4    0  0.2250660E-002  0.2202050E+03  0.7546771E-02  0.1133730E+00
         21   -1    0    0  502  501  0.00000000000E+00  0.00000000000E+00  0.78331073939E+03  0.78331073939E+03  0.00000000000E+00 0.  1.
         21   -1    0    0  501  502 -0.00000000000E+00 -0.00000000000E+00 -0.61904215997E+02  0.61904215997E+02  0.00000000000E+00 0.  1.
         25    1    1    2    0    0 -0.17565536556E+03  0.27220951336E+02  0.29232504850E+03  0.36424541400E+03  0.12500000000E+03 0.  0.
         25    1    1    2    0    0  0.17565536556E+03 -0.27220951336E+02  0.42908147490E+03  0.48096954139E+03  0.12500000000E+03 0.  0.
</event>
<event>
 4    0  0.2250660E-002  0.1751333E+03  0.7546771E-02  0.1172598E+00
         21   -1    0    0  502  501  0.00000000000E+00  0.00000000000E+00  0.18878708917E+03  0.18878708917E+03  0.00000000000E+00 0.  1.
         21   -1    0    0  501  502 -0.00000000000E+00 -0.00000000000E+00 -0.16246709284E+03  0.16246709284E+03  0.00000000000E+00 0.  1.
         25    1    1    2    0    0  0.25234616168E+02  0.10226132457E+03 -0.49886356559E+02  0.17090293423E+03  0.12500000000E+03 0.  0.
         25    1    1    2    0    0 -0.25234616168E+02 -0.10226132457E+03  0.76206352894E+02  0.18035124779E+03  0.12500000000E+03 0.  0.
</event>
<event>
 4    0  0.2250660E-002  0.1966675E+03  0.7546771E-02  0.1152581E+00
         21   -1    0    0  502  501  0.00000000000E+00  0.00000000000E+00  0.12417714298E+03  0.12417714298E+03  0.00000000000E+00 0.  1.
         21   -1    0    0  501  502 -0.00000000000E+00 -0.00000000000E+00 -0.31147533869E+03  0.31147533869E+03  0.00000000000E+00 0.  1.
         25    1    1    2    0    0  0.53825417145E+02 -0.12544489443E+03 -0.20017349528E+02  0.18617006030E+03  0.12500000000E+03 0.  0.
         25    1    1    2    0    0 -0.53825417145E+02  0.12544489443E+03 -0.16728084618E+03  0.24948242136E+03  0.12500000000E+03 0.  0.
</event>
<event>
 4    0  0.2250660E-002  0.2085006E+03  0.7546771E-02  0.1142759E+00
         21   -1    0    0  502  501  0.00000000000E+00  0.00000000000E+00  0.12423127314E+04  0.12423127314E+04  0.00000000000E+00 0. -1.
         21   -1    0    0  501  502 -0.00000000000E+00 -0.00000000000E+00 -0.34993213617E+02  0.34993213617E+02  0.00000000000E+00 0. -1.
         25    1    1    2    0    0 -0.23516632543E+02  0.14150232228E+03  0.34246057422E+03  0.39176547080E+03  0.12500000000E+03 0.  0.
         25    1    1    2    0    0  0.23516632543E+02 -0.14150232228E+03  0.86485894360E+03  0.88554047426E+03  0.12500000000E+03 0.  0.
</event>
<event>
 4    0  0.2250660E-002  0.2105296E+03  0.7546771E-02  0.1141147E+00
         21   -1    0    0  502  501  0.00000000000E+00  0.00000000000E+00  0.26890583124E+04  0.26890583124E+04  0.00000000000E+00 0.  1.
         21   -1    0    0  501  502 -0.00000000000E+00 -0.00000000000E+00 -0.16482611583E+02  0.16482611583E+02  0.00000000000E+00 0.  1.
         25    1    1    2    0    0  0.12437896991E+03  0.51249457312E+02  0.67470260183E+03  0.69924619123E+03  0.12500000000E+03 0.  0.
         25    1    1    2    0    0 -0.12437896991E+03 -0.51249457312E+02  0.19978730990E+04  0.20062947328E+04  0.12500000000E+03 0.  0.
</event>
<event>
 4    0  0.2250660E-002  0.3160696E+03  0.7546771E-02  0.1077473E+00
         21   -1    0    0  502  501  0.00000000000E+00  0.00000000000E+00  0.17286538794E+03  0.17286538794E+03  0.00000000000E+00 0. -1.
         21   -1    0    0  501  502 -0.00000000000E+00 -0.00000000000E+00 -0.57790613311E+03  0.57790613311E+03  0.00000000000E+00 0. -1.
         25    1    1    2    0    0  0.44075518105E+01  0.28572680262E+03 -0.14177795883E+03  0.34261526799E+03  0.12500000000E+03 0.  0.
         25    1    1    2    0    0 -0.44075518105E+01 -0.28572680262E+03 -0.26326278634E+03  0.40815625307E+03  0.12500000000E+03 0.  0.
</event>
<event>
 4    0  0.2250660E-002  0.2042381E+03  0.7546771E-02  0.1146212E+00
         21   -1    0    0  502  501  0.00000000000E+00  0.00000000000E+00  0.21447342726E+03  0.21447342726E+03  0.00000000000E+00 0.  1.
         21   -1    0    0  501  502 -0.00000000000E+00 -0.00000000000E+00 -0.19449129493E+03  0.19449129493E+03  0.00000000000E+00 0.  1.
         25    1    1    2    0    0 -0.10362626473E+03  0.86402315473E+02 -0.78909549940E+02  0.20013865177E+03  0.12500000000E+03 0.  0.
         25    1    1    2    0    0  0.10362626473E+03 -0.86402315473E+02  0.98891682276E+02  0.20882607042E+03  0.12500000000E+03 0.  0.
</event>
<event>
 4    0  0.2250660E-002  0.2809883E+03  0.7546771E-02  0.1095150E+00
         21   -1    0    0  502  501  0.00000000000E+00  0.00000000000E+00  0.77119170553E+03  0.77119170553E+03  0.00000000000E+00 0.  1.
         21   -1    0    0  501  502 -0.00000000000E+00 -0.00000000000E+00 -0.10237973970E+03  0.10237973970E+03  0.00000000000E+00 0.  1.
         25    1    1    2    0    0 -0.21602155226E+03  0.76729475174E+02  0.17303598404E+03  0.31323980459E+03  0.12500000000E+03 0.  0.
         25    1    1    2    0    0  0.21602155226E+03 -0.76729475174E+02  0.49577598178E+03  0.56033164065E+03  0.12500000000E+03 0.  0.
</event>
<event>
 4    0  0.2250660E-002  0.2747122E+03  0.7546771E-02  0.1098613E+00
         21   -1    0    0  502  501  0.00000000000E+00  0.00000000000E+00  0.76230158939E+02  0.76230158939E+02  0.00000000000E+00 0. -1.
         21   -1    0    0  501  502 -0.00000000000E+00 -0.00000000000E+00 -0.98998623745E+03  0.98998623745E+03  0.00000000000E+00 0. -1.
         25    1    1    2    0    0 -0.14751078193E+03  0.46190704004E+02 -0.82482019337E+03  0.84843760131E+03  0.12500000000E+03 0.  0.
         25    1    1    2    0    0  0.14751078193E+03 -0.46190704004E+02 -0.88935885140E+02  0.21777879508E+03  0.12500000000E+03 0.  0.
</event>
<event>
 4    0  0.2250660E-002  0.2776453E+03  0.7546771E-02  0.1096982E+00
         21   -1    0    0  502  501  0.00000000000E+00  0.00000000000E+00  0.76061571427E+02  0.76061571427E+02  0.00000000000E+00 0.  1.
         21   -1    0    0  501  502 -0.00000000000E+00 -0.00000000000E+00 -0.10134805864E+04  0.10134805864E+04  0.00000000000E+00 0.  1.
         25    1    1    2    0    0 -0.45329303754E+02 -0.11673446774E+03 -0.48889886277E+02  0.18356716133E+03  0.12500000000E+03 0.  0.
         25    1    1    2    0    0  0.45329303754E+02  0.11673446774E+03 -0.88852912867E+03  0.90597499647E+03  0.12500000000E+03 0.  0.
</event>
<event>
 4    0  0.2250660E-002  0.2558806E+03  0.7546771E-02  0.1109644E+00
         21   -1    0    0  502  501  0.00000000000E+00  0.00000000000E+00  0.18942643580E+03  0.18942643580E+03  0.00000000000E+00 0. -1.
         21   -1    0    0  501  502 -0.00000000000E+00 -0.00000000000E+00 -0.34564799762E+03  0.34564799762E+03  0.00000000000E+00 0. -1.
         25    1    1    2    0    0 -0.53557217058E+02  0.21381330668E+03 -0.11530319664E+03  0.27839599992E+03  0.12500000000E+03 0.  0.
         25    1    1    2    0    0  0.53557217058E+02 -0.21381330668E+03 -0.40918365180E+02  0.25667843350E+03  0.12500000000E+03 0.  0.
</event>
<event>
 4    0  0.2250660E-002  0.2357392E+03  0.7546771E-02  0.1122664E+00
         21   -1    0    0  502  501  0.00000000000E+00  0.00000000000E+00  0.50175753311E+03  0.50175753311E+03  0.00000000000E+00 0.  1.
         21   -1    0    0  501  502 -0.00000000000E+00 -0.00000000000E+00 -0.11075661894E+03  0.11075661894E+03  0.00000000000E+00 0.  1.
         25    1    1    2    0    0  0.22381181781E+01 -0.19933414008E+03  0.17672540006E+03  0.29427194158E+03  0.12500000000E+03 0.  0.
         25    1    1    2    0    0 -0.22381181781E+01  0.19933414008E+03  0.21427551411E+03  0.31824221047E+03  0.12500000000E+03 0.  0.
</event>
<event>
 4    0  0.2250660E-002  0.2021594E+03  0.7546771E-02  0.1147930E+00
         21   -1    0    0  502  501  0.00000000000E+00  0.00000000000E+00  0.52327499219E+02  0.52327499219E+02  0.00000000000E+00 0.  1.
         21   -1    0    0  501  502 -0.00000000000E+00 -0.00000000000E+00 -0.78101200029E+03  0.78101200029E+03  0.00000000000E+00 0.  1.
         25    1    1    2    0    0 -0.12525488847E+03  0.93000205660E+02 -0.42636648590E+03  0.47090466725E+03  0.12500000000E+03 0.  0.
         25    1    1    2    0    0  0.12525488847E+03 -0.93000205660E+02 -0.30231801517E+03  0.36243483226E+03  0.12500000000E+03 0.  0.
</event>
<event>
 4    0  0.2250660E-002  0.1893180E+03  0.7546771E-02  0.1159078E+00
         21   -1    0    0  502  501  0.00000000000E+00  0.00000000000E+00  0.34042260263E+02  0.34042260263E+02  0.00000000000E+00 0.  1.
         21   -1    0    0  501  502 -0.00000000000E+00 -0.00000000000E+00 -0.10528476682E+04  0.10528476682E+04  0.00000000000E+00 0.  1.
         25    1    1    2    0    0  0.39637491308E+02  0.83280765511E+02 -0.82002508056E+03  0.83460945919E+03  0.12500000000E+03 0.  0.
         25    1    1    2    0    0 -0.39637491308E+02 -0.83280765511E+02 -0.19878032735E+03  0.25228046924E+03  0.12500000000E+03 0.  0.
</event>
<event>
 4    0  0.2250660E-002  0.2209469E+03  0.7546771E-02  0.1133179E+00
         21   -1    0    0  502  501  0.00000000000E+00  0.00000000000E+00  0.21226380222E+04  0.21226380222E+04  0.00000000000E+00 0. -1.
         21   -1    0    0  501  502 -0.00000000000E+00 -0.00000000000E+00 -0.22998511863E+02  0.22998511863E+02  0.00000000000E+00 0. -1.
         25    1    1    2    0    0  0.95347282652E+02 -0.57682026187E+02  0.34997707090E+03  0.38797844091E+03  0.12500000000E+03 0.  0.
         25    1    1    2    0    0 -0.95347282652E+02  0.57682026187E+02  0.17496624394E+04  0.17576580932E+04  0.12500000000E+03 0.  0.
</event>
<event>
 4    0  0.2250660E-002  0.3733285E+03  0.7546771E-02  0.1053427E+00
         21   -1    0    0  502  501  0.00000000000E+00  0.00000000000E+00  0.70170868919E+03  0.70170868919E+03  0.00000000000E+00 0. -1.
         21   -1    0    0  501  502 -0.00000000000E+00 -0.00000000000E+00 -0.19862110500E+03  0.19862110500E+03  0.00000000000E+00 0. -1.
         25    1    1    2    0    0 -0.12346732571E+03 -0.18155978279E+03 -0.79871027793E+02  0.26497644485E+03  0.12500000000E+03 0.  0.
         25    1    1    2    0    0  0.12346732571E+03  0.18155978279E+03  0.58295861198E+03  0.63535334934E+03  0.12500000000E+03 0.  0.
</event>
<event>
 4    0  0.2250660E-002  0.2926341E+03  0.7546771E-02  0.1088982E+00
         21   -1    0    0  502  501  0.00000000000E+00  0.00000000000E+00  0.85099399268E+02  0.85099399268E+02  0.00000000000E+00 0.  1.
         21   -1    0    0  501  502 -0.00000000000E+00 -0.00000000000E+00 -0.10062908123E+04  0.10062908123E+04  0.00000000000E+00 0. -1.
         25    1    1    2    0    0 -0.10781519663E+03 -0.84961228735E+02 -0.88240967185E+03  0.90172853786E+03  0.12500000000E+03 0.  0.
         25    1    1    2    0    0  0.10781519663E+03  0.84961228735E+02 -0.38781741135E+02  0.18966167366E+03  0.12500000000E+03 0.  0.
</event>
<event>
 4    0  0.2250660E-002  0.2118311E+03  0.7546771E-02  0.1140124E+00
         21   -1    0    0  502  501  0.00000000000E+00  0.00000000000E+00  0.20978130715E+03  0.20978130715E+03  0.00000000000E+00 0.  1.
         21   -1    0    0  501  502 -0.00000000000E+00 -0.00000000000E+00 -0.21390101142E+03  0.21390101142E+03  0.00000000000E+00 0.  1.
         25    1    1    2    0    0  0.70431004101E+02  0.11082210501E+03  0.10751434040E+03  0.21077570706E+03  0.12500000000E+03 0.  0.
         25    1    1    2    0    0 -0.70431004101E+02 -0.11082210501E+03 -0.11163404467E+03  0.21290661151E+03  0.12500000000E+03 0.  0.
</event>
<event>
 4    0  0.2250660E-002  0.1708679E+03  0.7546771E-02  0.1176946E+00
         21   -1    0    0  502  501  0.00000000000E+00  0.00000000000E+00  0.39161973018E+03  0.39161973018E+03  0.00000000000E+00 0.  1.
         21   -1    0    0  501  502 -0.00000000000E+00 -0.00000000000E+00 -0.74551518131E+02  0.74551518131E+02  0.00000000000E+00 0.  1.
         25    1    1    2    0    0 -0.47104410724E+02  0.10613170621E+03  0.17133663279E+03  0.24179331320E+03  0.12500000000E+03 0.  0.
         25    1    1    2    0    0  0.47104410724E+02 -0.10613170621E+03  0.14573157926E+03  0.22437793511E+03  0.12500000000E+03 0.  0.
</event>
<event>
 4    0  0.2250660E-002  0.3261079E+03  0.7546771E-02  0.1072872E+00
         21   -1    0    0  502  501  0.00000000000E+00  0.00000000000E+00  0.20311636442E+03  0.20311636442E+03  0.00000000000E+00 0.  1.
         21   -1    0    0  501  502 -0.00000000000E+00 -0.00000000000E+00 -0.52357349923E+03  0.52357349923E+03  0.00000000000E+00 0.  1.
         25    1    1    2    0    0  0.18295042532E+03 -0.23910231673E+03 -0.17022957203E+03  0.36775519464E+03  0.12500000000E+03 0.  0.
         25    1    1    2    0    0 -0.18295042532E+03  0.23910231673E+03 -0.15022756279E+03  0.35893466900E+03  0.12500000000E+03 0.  0.
</event>
<event>
 4    0  0.2250660E-002  0.1860919E+03  0.7546771E-02  0.1162034E+00
         21   -1    0    0  502  501  0.00000000000E+00  0.00000000000E+00  0.12111409773E+03  0.12111409773E+03  0.00000000000E+00 0. -1.
         21   -1    0    0  501  502 -0.00000000000E+00 -0.00000000000E+00 -0.28593040273E+03  0.28593040273E+03  0.00000000000E+00 0. -1.
         25    1    1    2    0    0 -0.39008110533E+02 -0.12152435806E+03 -0.25417802823E+02  0.18044629946E+03  0.12500000000E+03 0.  0.
         25    1    1    2    0    0  0.39008110533E+02  0.12152435806E+03 -0.13939850218E+03  0.22659820100E+03  0.12500000000E+03 0.  0.
</event>
<event>
 4    0  0.2250660E-002  0.1890008E+03  0.7546771E-02  0.1159366E+00
         21   -1    0    0  502  501  0.00000000000E+00  0.00000000000E+00  0.38052514350E+02  0.38052514350E+02  0.00000000000E+00 0.  1.
         21   -1    0    0  501  502 -0.00000000000E+00 -0.00000000000E+00 -0.93873735726E+03  0.93873735726E+03  0.00000000000E+00 0.  1.
         25    1    1    2    0    0 -0.13092285855E+02 -0.83123628781E+02 -0.74514800238E+03  0.76023120895E+03  0.12500000000E+03 0.  0.
         25    1    1    2    0    0  0.13092285855E+02  0.83123628781E+02 -0.15553684052E+03  0.21655866265E+03  0.12500000000E+03 0.  0.
</event>
<event>
 4    0  0.2250660E-002  0.2523174E+03  0.7546771E-02  0.1111849E+00
         21   -1    0    0  502  501  0.00000000000E+00  0.00000000000E+00  0.63429690608E+03  0.63429690608E+03  0.00000000000E+00 0. -1.
         21   -1    0    0  501  502 -0.00000000000E+00 -0.00000000000E+00 -0.10036947623E+03  0.10036947623E+03  0.00000000000E+00 0. -1.
         25    1    1    2    0    0  0.51398110879E+02 -0.46689142278E+00  0.57715309981E+03  0.59276697311E+03  0.12500000000E+03 0.  0.
         25    1    1    2    0    0 -0.51398110879E+02  0.46689142278E+00 -0.43225669957E+02  0.14189940921E+03  0.12500000000E+03 0.  0.
</event>
<event>
 4    0  0.2250660E-002  0.2646973E+03  0.7546771E-02  0.1104353E+00
         21   -1    0    0  502  501  0.00000000000E+00  0.00000000000E+00  0.59986012750E+03  0.59986012750E+03  0.00000000000E+00 0.  1.
         21   -1    0    0  501  502 -0.00000000000E+00 -0.00000000000E+00 -0.11680169410E+03  0.11680169410E+03  0.00000000000E+00 0.  1.
         25    1    1    2    0    0 -0.22487385628E+03  0.58062053220E+02  0.21125187290E+03  0.33792278269E+03  0.12500000000E+03 0.  0.
         25    1    1    2    0    0  0.22487385628E+03 -0.58062053220E+02  0.27180656050E+03  0.37873903891E+03  0.12500000000E+03 0.  0.
</event>
<event>
 4    0  0.2250660E-002  0.2166884E+03  0.7546771E-02  0.1136376E+00
         21   -1    0    0  502  501  0.00000000000E+00  0.00000000000E+00  0.14722227415E+03  0.14722227415E+03  0.00000000000E+00 0.  1.
         21   -1    0    0  501  502 -0.00000000000E+00 -0.00000000000E+00 -0.31893188076E+03  0.31893188076E+03  0.00000000000E+00 0.  1.
         25    1    1    2    0    0 -0.34150263428E+02 -0.16469293102E+03 -0.26559507878E+02  0.21123543613E+03  0.12500000000E+03 0.  0.
         25    1    1    2    0    0  0.34150263428E+02  0.16469293102E+03 -0.14515009874E+03  0.25491871878E+03  0.12500000000E+03 0.  0.
</event>
<event>
 4    0  0.2250660E-002  0.2566247E+03  0.7546771E-02  0.1109188E+00
         21   -1    0    0  502  501  0.00000000000E+00  0.00000000000E+00  0.33589064762E+03  0.33589064762E+03  0.00000000000E+00 0.  1.
         21   -1    0    0  501  502 -0.00000000000E+00 -0.00000000000E+00 -0.19606444467E+03  0.19606444467E+03  0.00000000000E+00 0.  1.
         25    1    1    2    0    0 -0.59975590615E+02  0.19978658811E+03 -0.15046764255E+02  0.24364555685E+03  0.12500000000E+03 0.  0.
         25    1    1    2    0    0  0.59975590615E+02 -0.19978658811E+03  0.15487296721E+03  0.28830953545E+03  0.12500000000E+03 0.  0.
</event>
<event>
 4    0  0.2250660E-002  0.1599725E+03  0.7546771E-02  0.1188728E+00
         21   -1    0    0  502  501  0.00000000000E+00  0.00000000000E+00  0.11892188555E+04  0.11892188555E+04  0.00000000000E+00 0.  1.
         21   -1    0    0  501  502 -0.00000000000E+00 -0.00000000000E+00 -0.21519339124E+02  0.21519339124E+02  0.00000000000E+00 0.  1.
         25    1    1    2    0    0 -0.24326516902E+02 -0.41558862801E+02  0.25292555104E+03  0.28620840810E+03  0.12500000000E+03 0.  0.
         25    1    1    2    0    0  0.24326516902E+02  0.41558862801E+02  0.91477396538E+03  0.92452978657E+03  0.12500000000E+03 0.  0.
</event>
<event>
 4    0  0.2250660E-002  0.1816654E+03  0.7546771E-02  0.1166201E+00
         21   -1    0    0  502  501  0.00000000000E+00  0.00000000000E+00  0.21205815893E+03  0.21205815893E+03  0.00000000000E+00 0.  1.
         21   -1    0    0  501  502 -0.00000000000E+00 -0.00000000000E+00 -0.15562862298E+03  0.15562862298E+03  0.00000000000E+00 0.  1.
         25    1    1    2    0    0  0.88833509526E+02  0.83506981888E+02  0.78940668075E+02  0.19162838390E+03  0.12500000000E+03 0.  0.
         25    1    1    2    0    0 -0.88833509526E+02 -0.83506981888E+02 -0.22511132127E+02  0.17605839801E+03  0.12500000000E+03 0.  0.
</event>
<event>
 4    0  0.2250660E-002  0.4581901E+03  0.7546771E-02  0.1025307E+00
         21   -1    0    0  502  501  0.00000000000E+00  0.00000000000E+00  0.11670445452E+03  0.11670445452E+03  0.00000000000E+00 0.  1.
         21   -1    0    0  501  502 -0.00000000000E+00 -0.00000000000E+00 -0.17988874498E+04  0.17988874498E+04  0.00000000000E+00 0.  1.
         25    1    1    2    0    0 -0.84955796450E+02 -0.43076289864E+03 -0.75908487888E+03  0.88578158456E+03  0.12500000000E+03 0.  0.
         25    1    1    2    0    0  0.84955796450E+02  0.43076289864E+03 -0.92309811641E+03  0.10298103198E+04  0.12500000000E+03 0.  0.
</event>
<event>
 4    0  0.2250660E-002  0.2061272E+03  0.7546771E-02  0.1144670E+00
         21   -1    0    0  502  501  0.00000000000E+00  0.00000000000E+00  0.87349773404E+03  0.87349773404E+03  0.00000000000E+00 0. -1.
         21   -1    0    0  501  502 -0.00000000000E+00 -0.00000000000E+00 -0.48641698748E+02  0.48641698748E+02  0.00000000000E+00 0. -1.
         25    1    1    2    0    0 -0.83139693991E+02 -0.86182365924E+02  0.16210575044E+03  0.23715582059E+03  0.12500000000E+03 0.  0.
         25    1    1    2    0    0  0.83139693991E+02  0.86182365924E+02  0.66275028485E+03  0.68498361220E+03  0.12500000000E+03 0.  0.
</event>
<event>
 4    0  0.2250660E-002  0.2589333E+03  0.7546771E-02  0.1107786E+00
         21   -1    0    0  502  501  0.00000000000E+00  0.00000000000E+00  0.88710389162E+02  0.88710389162E+02  0.00000000000E+00 0. -1.
         21   -1    0    0  501  502 -0.00000000000E+00 -0.00000000000E+00 -0.75579051954E+03  0.75579051954E+03  0.00000000000E+00 0.  1.
         25    1    1    2    0    0 -0.20331695194E+03  0.98534995544E+02 -0.30198036266E+03  0.39732111412E+03  0.12500000000E+03 0.  0.
         25    1    1    2    0    0  0.20331695194E+03 -0.98534995544E+02 -0.36509976772E+03  0.44717979458E+03  0.12500000000E+03 0.  0.
</event>
<event>
 4    0  0.2250660E-002  0.1765647E+03  0.7546771E-02  0.1171170E+00
         21   -1    0    0  502  501  0.00000000000E+00  0.00000000000E+00  0.81851719677E+02  0.81851719677E+02  0.00000000000E+00 0.  1.
         21   -1    0    0  501  502 -0.00000000000E+00 -0.00000000000E+00 -0.38087280508E+03  0.38087280508E+03  0.00000000000E+00 0.  1.
         25    1    1    2    0    0  0.43033780619E+02 -0.76513261595E+02 -0.26556314900E+03  0.30635758777E+03  0.12500000000E+03 0.  0.
         25    1    1    2    0    0 -0.43033780619E+02  0.76513261595E+02 -0.33457936395E+02  0.15636693699E+03  0.12500000000E+03 0.  0.
</event>
<event>
 4    0  0.2250660E-002  0.2735431E+03  0.7546771E-02  0.1099269E+00
         21   -1    0    0  502  501  0.00000000000E+00  0.00000000000E+00  0.61204058479E+02  0.61204058479E+02  0.00000000000E+00 0.  1.
         21   -1    0    0  501  502 -0.00000000000E+00 -0.00000000000E+00 -0.12225629572E+04  0.12225629572E+04  0.00000000000E+00 0. -1.
         25    1    1    2    0    0 -0.23297205458E+03 -0.11410959145E+02 -0.41819646700E+03  0.49489339581E+03  0.12500000000E+03 0.  0.
         25    1    1    2    0    0  0.23297205458E+03  0.11410959145E+02 -0.74316243169E+03  0.78887361984E+03  0.12500000000E+03 0.  0.
</event>
<event>
 4    0  0.2250660E-002  0.2271848E+03  0.7546771E-02  0.1128637E+00
         21   -1    0    0  502  501  0.00000000000E+00  0.00000000000E+00  0.29708338745E+03  0.29708338745E+03  0.00000000000E+00 0. -1.
         21   -1    0    0  501  502 -0.00000000000E+00 -0.00000000000E+00 -0.17373207579E+03  0.17373207579E+03  0.00000000000E+00 0. -1.
         25    1    1    2    0    0  0.52292735028E+02 -0.14255405711E+03 -0.56158108566E+02  0.20453587092E+03  0.12500000000E+03 0.  0.
         25    1    1    2    0    0 -0.52292735028E+02  0.14255405711E+03  0.17950942022E+03  0.26627959232E+03  0.12500000000E+03 0.  0.
</event>
<event>
 4    0  0.2250660E-002  0.1789323E+03  0.7546771E-02  0.1168840E+00
         21   -1    0    0  502  501  0.00000000000E+00  0.00000000000E+00  0.37535884887E+03  0.37535884887E+03  0.00000000000E+00 0.  1.
         21   -1    0    0  501  502 -0.00000000000E+00 -0.00000000000E+00 -0.85296409517E+02  0.85296409517E+02  0.00000000000E+00 0.  1.
         25    1    1    2    0    0 -0.31242353374E+02  0.32507552394E+02 -0.92163997547E+01  0.13320198058E+03  0.12500000000E+03 0.  0.
         25    1    1    2    0    0  0.31242353374E+02 -0.32507552394E+02  0.29927883911E+03  0.32745327781E+03  0.12500000000E+03 0.  0.
</event>
<event>
 4    0  0.2250660E-002  0.2349517E+03  0.7546771E-02  0.1123202E+00
         21   -1    0    0  502  501  0.00000000000E+00  0.00000000000E+00  0.28268041396E+03  0.28268041396E+03  0.00000000000E+00 0.  1.
         21   -1    0    0  501  502 -0.00000000000E+00 -0.00000000000E+00 -0.19528163279E+03  0.19528163279E+03  0.00000000000E+00 0. -1.
         25    1    1    2    0    0  0.17897989403E+03 -0.86399688147E+02  0.34682588772E+02  0.23733223663E+03  0.12500000000E+03 0.  0.
         25    1    1    2    0    0 -0.17897989403E+03  0.86399688147E+02  0.52716192403E+02  0.24062981012E+03  0.12500000000E+03 0.  0.
</event>
<event>
 4    0  0.2250660E-002  0.2139620E+03  0.7546771E-02  0.1138466E+00
         21   -1    0    0  502  501  0.00000000000E+00  0.00000000000E+00  0.15153337133E+03  0.15153337133E+03  0.00000000000E+00 0. -1.
         21   -1    0    0  501  502 -0.00000000000E+00 -0.00000000000E+00 -0.30210988555E+03  0.30210988555E+03  0.00000000000E+00 0. -1.
         25    1    1    2    0    0  0.64925782087E+02 -0.16032982346E+03 -0.91495001798E+02  0.23220108705E+03  0.12500000000E+03 0.  0.
         25    1    1    2    0    0 -0.64925782087E+02  0.16032982346E+03 -0.59081512419E+02  0.22144216984E+03  0.12500000000E+03 0.  0.
</event>
<event>
 4    0  0.2250660E-002  0.1975302E+03  0.7546771E-02  0.1151840E+00
         21   -1    0    0  502  501  0.00000000000E+00  0.00000000000E+00  0.32102298715E+03  0.32102298715E+03  0.00000000000E+00 0. -1.
         21   -1    0    0  501  502 -0.00000000000E+00 -0.00000000000E+00 -0.12154325993E+03  0.12154325993E+03  0.00000000000E+00 0. -1.
         25    1    1    2    0    0 -0.79084951002E+02  0.12332297660E+03  0.14895688262E+03  0.24346691544E+03  0.12500000000E+03 0.  0.
         25    1    1    2    0    0  0.79084951002E+02 -0.12332297660E+03  0.50522844600E+02  0.19909933164E+03  0.12500000000E+03 0.  0.
</event>
<event>
 4    0  0.2250660E-002  0.2706249E+03  0.7546771E-02  0.1100923E+00
         21   -1    0    0  502  501  0.00000000000E+00  0.00000000000E+00  0.65693200684E+03  0.65693200684E+03  0.00000000000E+00 0.  1.
         21   -1    0    0  501  502 -0.00000000000E+00 -0.00000000000E+00 -0.11148464196E+03  0.11148464196E+03  0.00000000000E+00 0. -1.
         25    1    1    2    0    0 -0.79769301993E+02  0.17309493019E+03  0.65583303408E+02  0.23717328282E+03  0.12500000000E+03 0.  0.
         25    1    1    2    0    0  0.79769301993E+02 -0.17309493019E+03  0.47986406148E+03  0.53124336598E+03  0.12500000000E+03 0.  0.
</event>
<event>
 4    0  0.2250660E-002  0.2056770E+03  0.7546771E-02  0.1145036E+00
         21   -1    0    0  502  501  0.00000000000E+00  0.00000000000E+00  0.56300161225E+03  0.56300161225E+03  0.00000000000E+00 0. -1.
         21   -1    0    0  501  502 -0.00000000000E+00 -0.00000000000E+00 -0.75138413847E+02  0.75138413847E+02  0.00000000000E+00 0. -1.
         25    1    1    2    0    0 -0.15276163986E+03 -0.30196028018E+02  0.32040578480E+03  0.37753514493E+03  0.12500000000E+03 0.  0.
         25    1    1    2    0    0  0.15276163986E+03  0.30196028018E+02  0.16745741360E+03  0.26060488117E+03  0.12500000000E+03 0.  0.
</event>
<event>
 4    0  0.2250660E-002  0.2024041E+03  0.7546771E-02  0.1147726E+00
         21   -1    0    0  502  501  0.00000000000E+00  0.00000000000E+00  0.31040566315E+03  0.31040566315E+03  0.00000000000E+00 0.  1.
         21   -1    0    0  501  502 -0.00000000000E+00 -0.00000000000E+00 -0.13198027380E+03  0.13198027380E+03  0.00000000000E+00 0.  1.
         25    1    1    2    0    0  0.55477996539E+02  0.19264657842E+02 -0.72487103484E+02  0.15597536765E+03  0.12500000000E+03 0.  0.
         25    1    1    2    0    0 -0.55477996539E+02 -0.19264657842E+02  0.25091249284E+03  0.28641056929E+03  0.12500000000E+03 0.  0.
</event>
<event>
 4    0  0.2250660E-002  0.2761939E+03  0.7546771E-02  0.1097786E+00
         21   -1    0    0  502  501  0.00000000000E+00  0.00000000000E+00  0.10698388128E+04  0.10698388128E+04  0.00000000000E+00 0.  1.
         21   -1    0    0  501  502 -0.00000000000E+00 -0.00000000000E+00 -0.71303306761E+02  0.71303306761E+02  0.00000000000E+00 0.  1.
         25    1    1    2    0    0  0.80369343332E+02  0.23265258423E+03  0.48178869023E+03  0.55527632610E+03  0.12500000000E+03 0.  0.
         25    1    1    2    0    0 -0.80369343332E+02 -0.23265258423E+03  0.51674681583E+03  0.58586579347E+03  0.12500000000E+03 0.  0.
</event>
<event>
 4    0  0.2250660E-002  0.1437448E+03  0.7546771E-02  0.1208377E+00
         21   -1    0    0  502  501  0.00000000000E+00  0.00000000000E+00  0.40316119678E+03  0.40316119678E+03  0.00000000000E+00 0. -1.
         21   -1    0    0  501  502 -0.00000000000E+00 -0.00000000000E+00 -0.51251344395E+02  0.51251344395E+02  0.00000000000E+00 0. -1.
         25    1    1    2    0    0 -0.39858759258E+02  0.28680179632E+02  0.25695750182E+03  0.28993694338E+03  0.12500000000E+03 0.  0.
         25    1    1    2    0    0  0.39858759258E+02 -0.28680179632E+02  0.94952350568E+02  0.16447559780E+03  0.12500000000E+03 0.  0.
</event>
<event>
 4    0  0.2250660E-002  0.1686266E+03  0.7546771E-02  0.1179288E+00
         21   -1    0    0  502  501  0.00000000000E+00  0.00000000000E+00  0.30518538727E+02  0.30518538727E+02  0.00000000000E+00 0.  1.
         21   -1    0    0  501  502 -0.00000000000E+00 -0.00000000000E+00 -0.93172612661E+03  0.93172612661E+03  0.00000000000E+00 0.  1.
         25    1    1    2    0    0 -0.51340211942E+02  0.96561795338E+02 -0.36742375917E+03  0.40321857160E+03  0.12500000000E+03 0.  0.
         25    1    1    2    0    0  0.51340211942E+02 -0.96561795338E+02 -0.53378382871E+03  0.55902609373E+03  0.12500000000E+03 0.  0.
</event>
<event>
 4    0  0.2250660E-002  0.3161379E+03  0.7546771E-02  0.1077441E+00
         21   -1    0    0  502  501  0.00000000000E+00  0.00000000000E+00  0.95027300349E+02  0.95027300349E+02  0.00000000000E+00 0. -1.
         21   -1    0    0  501  502 -0.00000000000E+00 -0.00000000000E+00 -0.10517310303E+04  0.10517310303E+04  0.00000000000E+00 0. -1.
         25    1    1    2    0    0 -0.32105597255E+02  0.93270550491E+02 -0.97368780101E+03  0.98662206482E+03  0.12500000000E+03 0.  0.
         25    1    1    2    0    0  0.32105597255E+02 -0.93270550491E+02  0.16984071054E+02  0.16013626583E+03  0.12500000000E+03 0.  0.
</event>
<event>
 4    0  0.2250660E-002  0.2908865E+03  0.7546771E-02  0.1089887E+00
         21   -1    0    0  502  501  0.00000000000E+00  0.00000000000E+00  0.20307281231E+03  0.20307281231E+03  0.00000000000E+00 0. -1.
         21   -1    0    0  501  502 -0.00000000000E+00 -0.00000000000E+00 -0.41667300660E+03  0.41667300660E+03  0.00000000000E+00 0. -1.
         25    1    1    2    0    0  0.16937157546E+03 -0.14458886602E+03  0.41564590888E+02  0.25873787115E+03  0.12500000000E+03 0.  0.
         25    1    1    2    0    0 -0.16937157546E+03  0.14458886602E+03 -0.25516478518E+03  0.36100794776E+03  0.12500000000E+03 0.  0.
</event>
<event>
 4    0  0.2250660E-002  0.2176268E+03  0.7546771E-02  0.1135665E+00
         21   -1    0    0  502  501  0.00000000000E+00  0.00000000000E+00  0.43882716918E+02  0.43882716918E+02  0.00000000000E+00 0. -1.
         21   -1    0    0  501  502 -0.00000000000E+00 -0.00000000000E+00 -0.10792731419E+04  0.10792731419E+04  0.00000000000E+00 0. -1.
         25    1    1    2    0    0  0.37042641407E+02  0.70891810798E+02 -0.92845618296E+03  0.94024129339E+03  0.12500000000E+03 0.  0.
         25    1    1    2    0    0 -0.37042641407E+02 -0.70891810798E+02 -0.10693424197E+03  0.18291456538E+03  0.12500000000E+03 0.  0.
</event>
<event>
 4    0  0.2250660E-002  0.3844516E+03  0.7546771E-02  0.1049301E+00
         21   -1    0    0  502  501  0.00000000000E+00  0.00000000000E+00  0.45250070987E+03  0.45250070987E+03  0.00000000000E+00 0. -1.
         21   -1    0    0  501  502 -0.00000000000E+00 -0.00000000000E+00 -0.32663605766E+03  0.32663605766E+03  0.00000000000E+00 0. -1.
         25    1    1    2    0    0  0.12710248772E+03  0.13083122846E+03 -0.25574690182E+03  0.33808775564E+03  0.12500000000E+03 0.  0.
         25    1    1    2    0    0 -0.12710248772E+03 -0.13083122846E+03  0.38161155403E+03  0.44104901189E+03  0.12500000000E+03 0.  0.
</event>
<event>
 4    0  0.2250660E-002  0.2025419E+03  0.7546771E-02  0.1147612E+00
         21   -1    0    0  502  501  0.00000000000E+00  0.00000000000E+00  0.12903130994E+03  0.12903130994E+03  0.00000000000E+00 0. -1.
         21   -1    0    0  501  502 -0.00000000000E+00 -0.00000000000E+00 -0.31793244242E+03  0.31793244242E+03  0.00000000000E+00 0. -1.
         25    1    1    2    0    0  0.84880932817E+02  0.95474457308E+02 -0.19958008788E+03  0.26791296391E+03  0.12500000000E+03 0.  0.
         25    1    1    2    0    0 -0.84880932817E+02 -0.95474457308E+02  0.10678955396E+02  0.17905078844E+03  0.12500000000E+03 0.  0.
</event>
<event>
 4    0  0.2250660E-002  0.2518930E+03  0.7546771E-02  0.1112114E+00
         21   -1    0    0  502  501  0.00000000000E+00  0.00000000000E+00  0.93089994434E+03  0.93089994434E+03  0.00000000000E+00 0. -1.
         21   -1    0    0  501  502 -0.00000000000E+00 -0.00000000000E+00 -0.68159965459E+02  0.68159965459E+02  0.00000000000E+00 0. -1.
         25    1    1    2    0    0  0.83967995064E+02  0.16898261379E+03  0.65058464474E+03  0.68883316407E+03  0.12500000000E+03 0.  0.
         25    1    1    2    0    0 -0.83967995064E+02 -0.16898261379E+03  0.21215533415E+03  0.31022674573E+03  0.12500000000E+03 0.  0.
</event>
<event>
 4    0  0.2250660E-002  0.1781612E+03  0.7546771E-02  0.1169595E+00
         21   -1    0    0  502  501  0.00000000000E+00  0.00000000000E+00  0.35964637897E+03  0.35964637897E+03  0.00000000000E+00 0. -1.
         21   -1    0    0  501  502 -0.00000000000E+00 -0.00000000000E+00 -0.88257263629E+02  0.88257263629E+02  0.00000000000E+00 0. -1.
         25    1    1    2    0    0 -0.11875693348E+03 -0.28476515642E+01  0.19198156061E+03  0.25805665653E+03  0.12500000000E+03 0.  0.
         25    1    1    2    0    0  0.11875693348E+03  0.28476515642E+01  0.79407554733E+02  0.18984698606E+03  0.12500000000E+03 0.  0.
</event>
<event>
 4    0  0.2250660E-002  0.2306848E+03  0.7546771E-02  0.1126159E+00
         21   -1    0    0  502  501  0.00000000000E+00  0.00000000000E+00  0.19055365393E+02  0.19055365393E+02  0.00000000000E+00 0. -1.
         21   -1    0    0  501  502 -0.00000000000E+00 -0.00000000000E+00 -0.27926775378E+04  0.27926775378E+04  0.00000000000E+00 0. -1.
         25    1    1    2    0    0 -0.25083605615E+02  0.83826693586E+02 -0.24412228209E+04  0.24459865010E+04  0.12500000000E+03 0.  0.
         25    1    1    2    0    0  0.25083605615E+02 -0.83826693586E+02 -0.33239935149E+03  0.36574640217E+03  0.12500000000E+03 0.  0.
</event>
<event>
 4    0  0.2250660E-002  0.2049526E+03  0.7546771E-02  0.1145626E+00
         21   -1    0    0  502  501  0.00000000000E+00  0.00000000000E+00  0.77723093326E+02  0.77723093326E+02  0.00000000000E+00 0. -1.
         21   -1    0    0  501  502 -0.00000000000E+00 -0.00000000000E+00 -0.54045161956E+03  0.54045161956E+03  0.00000000000E+00 0. -1.
         25    1    1    2    0    0 -0.65226382315E+02 -0.83249600890E+02 -0.45461159358E+02  0.16993143914E+03  0.12500000000E+03 0.  0.
         25    1    1    2    0    0  0.65226382315E+02  0.83249600890E+02 -0.41726736687E+03  0.44824327374E+03  0.12500000000E+03 0.  0.
</event>
<event>
 4    0  0.2250660E-002  0.1947793E+03  0.7546771E-02  0.1154220E+00
         21   -1    0    0  502  501  0.00000000000E+00  0.00000000000E+00  0.65340332452E+03  0.65340332452E+03  0.00000000000E+00 0. -1.
         21   -1    0    0  501  502 -0.00000000000E+00 -0.00000000000E+00 -0.58063631624E+02  0.58063631624E+02  0.00000000000E+00 0. -1.
         25    1    1    2    0    0  0.92630139279E+01  0.71566454043E+02  0.58799962434E+02  0.15585248267E+03  0.12500000000E+03 0.  0.
         25    1    1    2    0    0 -0.92630139279E+01 -0.71566454043E+02  0.53653973046E+03  0.55561447347E+03  0.12500000000E+03 0.  0.
</event>
<event>
 4    0  0.2250660E-002  0.2587103E+03  0.7546771E-02  0.1107921E+00
         21   -1    0    0  502  501  0.00000000000E+00  0.00000000000E+00  0.34351437682E+03  0.34351437682E+03  0.00000000000E+00 0. -1.
         21   -1    0    0  501  502 -0.00000000000E+00 -0.00000000000E+00 -0.19484200367E+03  0.19484200367E+03  0.00000000000E+00 0. -1.
         25    1    1    2    0    0 -0.22322656506E+03 -0.16395727857E+02  0.11048546074E+03  0.27916116541E+03  0.12500000000E+03 0.  0.
         25    1    1    2    0    0  0.22322656506E+03  0.16395727857E+02  0.38186912412E+02  0.25919521508E+03  0.12500000000E+03 0.  0.
</event>
<event>
 4    0  0.2250660E-002  0.2559128E+03  0.7546771E-02  0.1109624E+00
         21   -1    0    0  502  501  0.00000000000E+00  0.00000000000E+00  0.33875150341E+03  0.33875150341E+03  0.00000000000E+00 0.  1.
         21   -1    0    0  501  502 -0.00000000000E+00 -0.00000000000E+00 -0.19333158398E+03  0.19333158398E+03  0.00000000000E+00 0.  1.
         25    1    1    2    0    0 -0.11401829067E+03 -0.84251757662E+02 -0.10665230012E+03  0.21702129480E+03  0.12500000000E+03 0.  0.
         25    1    1    2    0    0  0.11401829067E+03  0.84251757662E+02  0.25207221955E+03  0.31506179258E+03  0.12500000000E+03 0.  0.
</event>
<event>
 4    0  0.2250660E-002  0.1495946E+03  0.7546771E-02  0.1200972E+00
         21   -1    0    0  502  501  0.00000000000E+00  0.00000000000E+00  0.26890678708E+03  0.26890678708E+03  0.00000000000E+00 0.  1.
         21   -1    0    0  501  502 -0.00000000000E+00 -0.00000000000E+00 -0.83220498544E+02  0.83220498544E+02  0.00000000000E+00 0.  1.
         25    1    1    2    0    0  0.50609579031E+02 -0.18756735214E+01  0.16671426021E+02  0.13589622543E+03  0.12500000000E+03 0.  0.
         25    1    1    2    0    0 -0.50609579031E+02  0.18756735214E+01  0.16901486251E+03  0.21623106019E+03  0.12500000000E+03 0.  0.
</event>
<event>
 4    0  0.2250660E-002  0.1772668E+03  0.7546771E-02  0.1170475E+00
         21   -1    0    0  502  501  0.00000000000E+00  0.00000000000E+00  0.96814623755E+03  0.96814623755E+03  0.00000000000E+00 0.  1.
         21   -1    0    0  501  502 -0.00000000000E+00 -0.00000000000E+00 -0.32457409983E+02  0.32457409983E+02  0.00000000000E+00 0.  1.
         25    1    1    2    0    0 -0.12084776379E+03  0.30337936510E+02  0.42113139752E+03  0.45661934517E+03  0.12500000000E+03 0.  0.
         25    1    1    2    0    0  0.12084776379E+03 -0.30337936510E+02  0.51455743004E+03  0.54398430236E+03  0.12500000000E+03 0.  0.
</event>
<event>
 4    0  0.2250660E-002  0.2528980E+03  0.7546771E-02  0.1111487E+00
         21   -1    0    0  502  501  0.00000000000E+00  0.00000000000E+00  0.43764865664E+03  0.43764865664E+03  0.00000000000E+00 0.  1.
         21   -1    0    0  501  502 -0.00000000000E+00 -0.00000000000E+00 -0.14613873609E+03  0.14613873609E+03  0.00000000000E+00 0.  1.
         25    1    1    2    0    0 -0.84981611219E+02 -0.93572278245E+02 -0.61855122605E+02  0.18822513566E+03  0.12500000000E+03 0.  0.
         25    1    1    2    0    0  0.84981611219E+02  0.93572278245E+02  0.35336504315E+03  0.39556225707E+03  0.12500000000E+03 0.  0.
</event>
<event>
 4    0  0.2250660E-002  0.1936785E+03  0.7546771E-02  0.1155185E+00
         21   -1    0    0  502  501  0.00000000000E+00  0.00000000000E+00  0.31070497824E+03  0.31070497824E+03  0.00000000000E+00 0. -1.
         21   -1    0    0  501  502 -0.00000000000E+00 -0.00000000000E+00 -0.12072978575E+03  0.12072978575E+03  0.00000000000E+00 0. -1.
         25    1    1    2    0    0 -0.38474277382E+02 -0.11716916465E+03  0.18600187715E+03  0.25579402157E+03  0.12500000000E+03 0.  0.
         25    1    1    2    0    0  0.38474277382E+02  0.11716916465E+03  0.39733153424E+01  0.17564074243E+03  0.12500000000E+03 0.  0.
</event>
<event>
 4    0  0.2250660E-002  0.1477069E+03  0.7546771E-02  0.1203319E+00
         21   -1    0    0  502  501  0.00000000000E+00  0.00000000000E+00  0.46433275163E+03  0.46433275163E+03  0.00000000000E+00 0.  1.
         21   -1    0    0  501  502 -0.00000000000E+00 -0.00000000000E+00 -0.46986395079E+02  0.46986395079E+02  0.00000000000E+00 0.  1.
         25    1    1    2    0    0  0.20954617816E+02 -0.61304010068E+02  0.28598352607E+03  0.31876143877E+03  0.12500000000E+03 0.  0.
         25    1    1    2    0    0 -0.20954617816E+02  0.61304010068E+02  0.13136283048E+03  0.19255770795E+03  0.12500000000E+03 0.  0.
</event>
<event>
 4    0  0.2250660E-002  0.2153533E+03  0.7546771E-02  0.1137395E+00
         21   -1    0    0  502  501  0.00000000000E+00  0.00000000000E+00  0.26408834428E+03  0.26408834428E+03  0.00000000000E+00 0.  1.
         21   -1    0    0  501  502 -0.00000000000E+00 -0.00000000000E+00 -0.17561190634E+03  0.17561190634E+03  0.00000000000E+00 0.  1.
         25    1    1    2    0    0 -0.55143746955E+02  0.12011048338E+03  0.16190420568E+03  0.24352686271E+03  0.12500000000E+03 0.  0.
         25    1    1    2    0    0  0.55143746955E+02 -0.12011048338E+03 -0.73427767740E+02  0.19617338790E+03  0.12500000000E+03 0.  0.
</event>
<event>
 4    0  0.2250660E-002  0.2830376E+03  0.7546771E-02  0.1094041E+00
         21   -1    0    0  502  501  0.00000000000E+00  0.00000000000E+00  0.10680404332E+03  0.10680404332E+03  0.00000000000E+00 0.  1.
         21   -1    0    0  501  502 -0.00000000000E+00 -0.00000000000E+00 -0.75006780559E+03  0.75006780559E+03  0.00000000000E+00 0.  1.
         25    1    1    2    0    0 -0.11901653487E+03 -0.21044108878E+03 -0.43922349217E+03  0.51671332816E+03  0.12500000000E+03 0.  0.
         25    1    1    2    0    0  0.11901653487E+03  0.21044108878E+03 -0.20404027010E+03  0.34015852075E+03  0.12500000000E+03 0.  0.
</event>
<event>
 4    0  0.2250660E-002  0.2392225E+03  0.7546771E-02  0.1120312E+00
         21   -1    0    0  502  501  0.00000000000E+00  0.00000000000E+00  0.11708213672E+03  0.11708213672E+03  0.00000000000E+00 0. -1.
         21   -1    0    0  501  502 -0.00000000000E+00 -0.00000000000E+00 -0.48878017566E+03  0.48878017566E+03  0.00000000000E+00 0. -1.
         25    1    1    2    0    0  0.14416219281E+03 -0.13674319068E+03 -0.24416815420E+03  0.33871009073E+03  0.12500000000E+03 0.  0.
         25    1    1    2    0    0 -0.14416219281E+03  0.13674319068E+03 -0.12752988473E+03  0.26715222165E+03  0.12500000000E+03 0.  0.
</event>
<event>
 4    0  0.2250660E-002  0.2787996E+03  0.7546771E-02  0.1096346E+00
         21   -1    0    0  502  501  0.00000000000E+00  0.00000000000E+00  0.20515192531E+03  0.20515192531E+03  0.00000000000E+00 0.  1.
         21   -1    0    0  501  502 -0.00000000000E+00 -0.00000000000E+00 -0.37888600781E+03  0.37888600781E+03  0.00000000000E+00 0.  1.
         25    1    1    2    0    0 -0.11481104725E+03 -0.72458896446E+01 -0.31841483954E+03  0.36089761640E+03  0.12500000000E+03 0.  0.
         25    1    1    2    0    0  0.11481104725E+03  0.72458896446E+01  0.14468075704E+03  0.22314031672E+03  0.12500000000E+03 0.  0.
</event>
<event>
 4    0  0.2250660E-002  0.4693938E+03  0.7546771E-02  0.1022091E+00
         21   -1    0    0  502  501  0.00000000000E+00  0.00000000000E+00  0.66033191623E+03  0.66033191623E+03  0.00000000000E+00 0.  1.
         21   -1    0    0  501  502 -0.00000000000E+00 -0.00000000000E+00 -0.33366628472E+03  0.33366628472E+03  0.00000000000E+00 0.  1.
         25    1    1    2    0    0 -0.41818262648E+03  0.25971253640E+02 -0.17455130450E+02  0.43758530218E+03  0.12500000000E+03 0.  0.
         25    1    1    2    0    0  0.41818262648E+03 -0.25971253640E+02  0.34412076197E+03  0.55641289877E+03  0.12500000000E+03 0.  0.
</event>
<event>
 4    0  0.2250660E-002  0.2278098E+03  0.7546771E-02  0.1128191E+00
         21   -1    0    0  502  501  0.00000000000E+00  0.00000000000E+00  0.18958797142E+03  0.18958797142E+03  0.00000000000E+00 0. -1.
         21   -1    0    0  501  502 -0.00000000000E+00 -0.00000000000E+00 -0.27373723397E+03  0.27373723397E+03  0.00000000000E+00 0. -1.
         25    1    1    2    0    0 -0.18044450745E+03  0.26912891747E+01  0.19822050925E+02  0.22042090874E+03  0.12500000000E+03 0.  0.
         25    1    1    2    0    0  0.18044450745E+03 -0.26912891747E+01 -0.10397131347E+03  0.24290429665E+03  0.12500000000E+03 0.  0.
</event>
<event>
 4    0  0.2250660E-002  0.2419858E+03  0.7546771E-02  0.1118477E+00
         21   -1    0    0  502  501  0.00000000000E+00  0.00000000000E+00  0.18103556484E+03  0.18103556484E+03  0.00000000000E+00 0. -1.
         21   -1    0    0  501  502 -0.00000000000E+00 -0.00000000000E+00 -0.32345654402E+03  0.32345654402E+03  0.00000000000E+00 0. -1.
         25    1    1    2    0    0 -0.70667210560E+02 -0.33291076055E+02 -0.27125896566E+03  0.30872087206E+03  0.12500000000E+03 0.  0.
         25    1    1    2    0    0  0.70667210560E+02  0.33291076055E+02  0.12883798649E+03  0.19577123679E+03  0.12500000000E+03 0.  0.
</event>
<event>
 4    0  0.2250660E-002  0.1953668E+03  0.7546771E-02  0.1153708E+00
         21   -1    0    0  502  501  0.00000000000E+00  0.00000000000E+00  0.28559435003E+03  0.28559435003E+03  0.00000000000E+00 0. -1.
         21   -1    0    0  501  502 -0.00000000000E+00 -0.00000000000E+00 -0.13364471534E+03  0.13364471534E+03  0.00000000000E+00 0. -1.
         25    1    1    2    0    0  0.97864303250E+01  0.11640773822E+03  0.17717797268E+03  0.24629975586E+03  0.12500000000E+03 0.  0.
         25    1    1    2    0    0 -0.97864303250E+01 -0.11640773822E+03 -0.25228337988E+02  0.17293930951E+03  0.12500000000E+03 0.  0.
</event>
<event>
 4    0  0.2250660E-002  0.2306108E+03  0.7546771E-02  0.1126211E+00
         21   -1    0    0  502  501  0.00000000000E+00  0.00000000000E+00  0.54113817441E+02  0.54113817441E+02  0.00000000000E+00 0.  1.
         21   -1    0    0  501  502 -0.00000000000E+00 -0.00000000000E+00 -0.98276802202E+03  0.98276802202E+03  0.00000000000E+00 0.  1.
         25    1    1    2    0    0 -0.11461725421E+03 -0.88963928020E+02 -0.75314401772E+03  0.77711170810E+03  0.12500000000E+03 0.  0.
         25    1    1    2    0    0  0.11461725421E+03  0.88963928020E+02 -0.17551018686E+03  0.25977013135E+03  0.12500000000E+03 0.  0.
</event>
<event>
 4    0  0.2250660E-002  0.2369551E+03  0.7546771E-02  0.1121838E+00
         21   -1    0    0  502  501  0.00000000000E+00  0.00000000000E+00  0.60318037050E+03  0.60318037050E+03  0.00000000000E+00 0.  1.
         21   -1    0    0  501  502 -0.00000000000E+00 -0.00000000000E+00 -0.93086120572E+02  0.93086120572E+02  0.00000000000E+00 0.  1.
         25    1    1    2    0    0 -0.81342245422E+02  0.21118452830E+02  0.52379405379E+03  0.54502088100E+03  0.12500000000E+03 0.  0.
         25    1    1    2    0    0  0.81342245422E+02 -0.21118452830E+02 -0.13699803863E+02  0.15124561007E+03  0.12500000000E+03 0.  0.
</event>
<event>
 4    0  0.2250660E-002  0.1645623E+03  0.7546771E-02  0.1183640E+00
         21   -1    0    0  502  501  0.00000000000E+00  0.00000000000E+00  0.76121198065E+03  0.76121198065E+03  0.00000000000E+00 0.  1.
         21   -1    0    0  501  502 -0.00000000000E+00 -0.00000000000E+00 -0.35575832891E+02  0.35575832891E+02  0.00000000000E+00 0.  1.
         25    1    1    2    0    0 -0.59943117406E+02  0.41431415783E+02  0.17302559547E+03  0.22554954273E+03  0.12500000000E+03 0.  0.
         25    1    1    2    0    0  0.59943117406E+02 -0.41431415783E+02  0.55261055229E+03  0.57123827081E+03  0.12500000000E+03 0.  0.
</event>
<event>
 4    0  0.2250660E-002  0.1462900E+03  0.7546771E-02  0.1205107E+00
         21   -1    0    0  502  501  0.00000000000E+00  0.00000000000E+00  0.33723980404E+03  0.33723980404E+03  0.00000000000E+00 0. -1.
         21   -1    0    0  501  502 -0.00000000000E+00 -0.00000000000E+00 -0.63458601779E+02  0.63458601779E+02  0.00000000000E+00 0. -1.
         25    1    1    2    0    0  0.10783765411E+01 -0.64722141178E+02  0.19142573002E+03  0.23761087637E+03  0.12500000000E+03 0.  0.
         25    1    1    2    0    0 -0.10783765411E+01  0.64722141178E+02  0.82355472242E+02  0.16308752945E+03  0.12500000000E+03 0.  0.
</event>
<event>
 4    0  0.2250660E-002  0.2433528E+03  0.7546771E-02  0.1117579E+00
         21   -1    0    0  502  501  0.00000000000E+00  0.00000000000E+00  0.15239756861E+03  0.15239756861E+03  0.00000000000E+00 0. -1.
         21   -1    0    0  501  502 -0.00000000000E+00 -0.00000000000E+00 -0.38859270964E+03  0.38859270964E+03  0.00000000000E+00 0. -1.
         25    1    1    2    0    0  0.25526382723E+02 -0.14060487377E+03  0.51112433124E+02  0.19661843139E+03  0.12500000000E+03 0.  0.
         25    1    1    2    0    0 -0.25526382723E+02  0.14060487377E+03 -0.28730757415E+03  0.34437184686E+03  0.12500000000E+03 0.  0.
</event>
<event>
 4    0  0.2250660E-002  0.1943962E+03  0.7546771E-02  0.1154555E+00
         21   -1    0    0  502  501  0.00000000000E+00  0.00000000000E+00  0.11395426498E+04  0.11395426498E+04  0.00000000000E+00 0.  1.
         21   -1    0    0  501  502 -0.00000000000E+00 -0.00000000000E+00 -0.33162325759E+02  0.33162325759E+02  0.00000000000E+00 0.  1.
         25    1    1    2    0    0 -0.37131669318E+02 -0.16274364069E+02  0.12110127800E+03  0.17870124601E+03  0.12500000000E+03 0.  0.
         25    1    1    2    0    0  0.37131669318E+02  0.16274364069E+02  0.98527904607E+03  0.99400372958E+03  0.12500000000E+03 0.  0.
</event>
<event>
 4    0  0.2250660E-002  0.3160044E+03  0.7546771E-02  0.1077503E+00
         21   -1    0    0  502  501  0.00000000000E+00  0.00000000000E+00  0.11113256059E+03  0.11113256059E+03  0.00000000000E+00 0. -1.
         21   -1    0    0  501  502 -0.00000000000E+00 -0.00000000000E+00 -0.89855583924E+03  0.89855583924E+03  0.00000000000E+00 0. -1.
         25    1    1    2    0    0  0.12843730532E+03  0.21994601936E+03 -0.61600820873E+03  0.67820609408E+03  0.12500000000E+03 0.  0.
         25    1    1    2    0    0 -0.12843730532E+03 -0.21994601936E+03 -0.17141506992E+03  0.33148230575E+03  0.12500000000E+03 0.  0.
</event>
<event>
 4    0  0.2250660E-002  0.1796497E+03  0.7546771E-02  0.1168143E+00
         21   -1    0    0  502  501  0.00000000000E+00  0.00000000000E+00  0.79615662384E+02  0.79615662384E+02  0.00000000000E+00 0.  1.
         21   -1    0    0  501  502 -0.00000000000E+00 -0.00000000000E+00 -0.40537250676E+03  0.40537250676E+03  0.00000000000E+00 0.  1.
         25    1    1    2    0    0 -0.57182957636E+02 -0.10949935747E+03 -0.11257170471E+03  0.20870406951E+03  0.12500000000E+03 0.  0.
         25    1    1    2    0    0  0.57182957636E+02  0.10949935747E+03 -0.21318513967E+03  0.27628409963E+03  0.12500000000E+03 0.  0.
</event>
<event>
 4    0  0.2250660E-002  0.2307122E+03  0.7546771E-02  0.1126139E+00
         21   -1    0    0  502  501  0.00000000000E+00  0.00000000000E+00  0.19839425926E+03  0.19839425926E+03  0.00000000000E+00 0.  1.
         21   -1    0    0  501  502 -0.00000000000E+00 -0.00000000000E+00 -0.26829467231E+03  0.26829467231E+03  0.00000000000E+00 0.  1.
         25    1    1    2    0    0 -0.17362096290E+03 -0.61430415504E+02  0.26448151726E+02  0.22414825325E+03  0.12500000000E+03 0.  0.
         25    1    1    2    0    0  0.17362096290E+03  0.61430415504E+02 -0.96348564777E+02  0.24254067832E+03  0.12500000000E+03 0.  0.
</event>
<event>
 4    0  0.2250660E-002  0.1994285E+03  0.7546771E-02  0.1150222E+00
         21   -1    0    0  502  501  0.00000000000E+00  0.00000000000E+00  0.72126533623E+02  0.72126533623E+02  0.00000000000E+00 0. -1.
         21   -1    0    0  501  502 -0.00000000000E+00 -0.00000000000E+00 -0.55141622460E+03  0.55141622460E+03  0.00000000000E+00 0. -1.
         25    1    1    2    0    0  0.93351874759E+02  0.10258318795E+03 -0.34917638033E+03  0.39596341694E+03  0.12500000000E+03 0.  0.
         25    1    1    2    0    0 -0.93351874759E+02 -0.10258318795E+03 -0.13011331064E+03  0.22757934128E+03  0.12500000000E+03 0.  0.
</event>
<event>
 4    0  0.2250660E-002  0.2084497E+03  0.7546771E-02  0.1142800E+00
         21   -1    0    0  502  501  0.00000000000E+00  0.00000000000E+00  0.11317198124E+04  0.11317198124E+04  0.00000000000E+00 0.  1.
         21   -1    0    0  501  502 -0.00000000000E+00 -0.00000000000E+00 -0.38394016987E+02  0.38394016987E+02  0.00000000000E+00 0.  1.
         25    1    1    2    0    0  0.86281613175E+02  0.14023451504E+03  0.47155880238E+03  0.51488148159E+03  0.12500000000E+03 0.  0.
         25    1    1    2    0    0 -0.86281613175E+02 -0.14023451504E+03  0.62176699307E+03  0.65523234784E+03  0.12500000000E+03 0.  0.
</event>
<event>
 4    0  0.2250660E-002  0.2140286E+03  0.7546771E-02  0.1138415E+00
         21   -1    0    0  502  501  0.00000000000E+00  0.00000000000E+00  0.33623571577E+03  0.33623571577E+03  0.00000000000E+00 0. -1.
         21   -1    0    0  501  502 -0.00000000000E+00 -0.00000000000E+00 -0.13623846290E+03  0.13623846290E+03  0.00000000000E+00 0. -1.
         25    1    1    2    0    0  0.48539138782E+02  0.11417951906E+03 -0.34235736694E+02  0.17941598656E+03  0.12500000000E+03 0.  0.
         25    1    1    2    0    0 -0.48539138782E+02 -0.11417951906E+03  0.23423298956E+03  0.29305819211E+03  0.12500000000E+03 0.  0.
</event>
<event>
 4    0  0.2250660E-002  0.2337945E+03  0.7546771E-02  0.1123997E+00
         21   -1    0    0  502  501  0.00000000000E+00  0.00000000000E+00  0.16997343583E+04  0.16997343583E+04  0.00000000000E+00 0. -1.
         21   -1    0    0  501  502 -0.00000000000E+00 -0.00000000000E+00 -0.32157892599E+02  0.32157892599E+02  0.00000000000E+00 0. -1.
         25    1    1    2    0    0  0.11743878409E+03 -0.15295731983E+03  0.67460487017E+03  0.71267421768E+03  0.12500000000E+03 0.  0.
         25    1    1    2    0    0 -0.11743878409E+03  0.15295731983E+03  0.99297159552E+03  0.10192180332E+04  0.12500000000E+03 0.  0.
</event>
<event>
 4    0  0.2250660E-002  0.2183928E+03  0.7546771E-02  0.1135087E+00
         21   -1    0    0  502  501  0.00000000000E+00  0.00000000000E+00  0.18028597065E+03  0.18028597065E+03  0.00000000000E+00 0.  1.
         21   -1    0    0  501  502 -0.00000000000E+00 -0.00000000000E+00 -0.26455417417E+03  0.26455417417E+03  0.00000000000E+00 0.  1.
         25    1    1    2    0    0  0.18375960843E+02  0.64915932767E+02  0.12681242935E+03  0.19041572020E+03  0.12500000000E+03 0.  0.
         25    1    1    2    0    0 -0.18375960843E+02 -0.64915932767E+02 -0.21108063287E+03  0.25442442461E+03  0.12500000000E+03 0.  0.
</event>
<event>
 4    0  0.2250660E-002  0.2555929E+03  0.7546771E-02  0.1109820E+00
         21   -1    0    0  502  501  0.00000000000E+00  0.00000000000E+00  0.79665233370E+03  0.79665233370E+03  0.00000000000E+00 0. -1.
         21   -1    0    0  501  502 -0.00000000000E+00 -0.00000000000E+00 -0.82002800392E+02  0.82002800392E+02  0.00000000000E+00 0. -1.
         25    1    1    2    0    0 -0.12826276189E+03  0.11408789088E+03  0.60183381948E+03  0.63819771952E+03  0.12500000000E+03 0.  0.
         25    1    1    2    0    0  0.12826276189E+03 -0.11408789088E+03  0.11281571382E+03  0.24045741456E+03  0.12500000000E+03 0.  0.
</event>
<event>
 4    0  0.2250660E-002  0.2225581E+03  0.7546771E-02  0.1131990E+00
         21   -1    0    0  502  501  0.00000000000E+00  0.00000000000E+00  0.11091077334E+04  0.11091077334E+04  0.00000000000E+00 0. -1.
         21   -1    0    0  501  502 -0.00000000000E+00 -0.00000000000E+00 -0.44659437154E+02  0.44659437154E+02  0.00000000000E+00 0. -1.
         25    1    1    2    0    0  0.14020961515E+03  0.94184413991E+02  0.34214150739E+03  0.40151619033E+03  0.12500000000E+03 0.  0.
         25    1    1    2    0    0 -0.14020961515E+03 -0.94184413991E+02  0.72230678883E+03  0.75225098019E+03  0.12500000000E+03 0.  0.
</event>
<event>
 4    0  0.2250660E-002  0.1985540E+03  0.7546771E-02  0.1150965E+00
         21   -1    0    0  502  501  0.00000000000E+00  0.00000000000E+00  0.89176011833E+03  0.89176011833E+03  0.00000000000E+00 0.  1.
         21   -1    0    0  501  502 -0.00000000000E+00 -0.00000000000E+00 -0.44208845131E+02  0.44208845131E+02  0.00000000000E+00 0.  1.
         25    1    1    2    0    0  0.10200935787E+03  0.10578348754E+03  0.53439307154E+03  0.56815227733E+03  0.12500000000E+03 0.  0.
         25    1    1    2    0    0 -0.10200935787E+03 -0.10578348754E+03  0.31315820166E+03  0.36781668613E+03  0.12500000000E+03 0.  0.
</event>
<event>
 4    0  0.2250660E-002  0.4366369E+03  0.7546771E-02  0.1031784E+00
         21   -1    0    0  502  501  0.00000000000E+00  0.00000000000E+00  0.10101385198E+04  0.10101385198E+04  0.00000000000E+00 0.  1.
         21   -1    0    0  501  502 -0.00000000000E+00 -0.00000000000E+00 -0.18873828586E+03  0.18873828586E+03  0.00000000000E+00 0.  1.
         25    1    1    2    0    0  0.73818785632E+02  0.41174663575E+03  0.41962973821E+03  0.60555645678E+03  0.12500000000E+03 0.  0.
         25    1    1    2    0    0 -0.73818785632E+02 -0.41174663575E+03  0.40177049575E+03  0.59332034890E+03  0.12500000000E+03 0.  0.
</event>
<event>
 4    0  0.2250660E-002  0.2421805E+03  0.7546771E-02  0.1118349E+00
         21   -1    0    0  502  501  0.00000000000E+00  0.00000000000E+00  0.92777579240E+02  0.92777579240E+02  0.00000000000E+00 0. -1.
         21   -1    0    0  501  502 -0.00000000000E+00 -0.00000000000E+00 -0.63217196215E+03  0.63217196215E+03  0.00000000000E+00 0. -1.
         25    1    1    2    0    0 -0.18863965651E+03 -0.76896986203E+02 -0.32820926494E+03  0.40601033003E+03  0.12500000000E+03 0.  0.
         25    1    1    2    0    0  0.18863965651E+03  0.76896986203E+02 -0.21118511797E+03  0.31893921136E+03  0.12500000000E+03 0.  0.
</event>
<event>
 4    0  0.2250660E-002  0.3028443E+03  0.7546771E-02  0.1083827E+00
         21   -1    0    0  502  501  0.00000000000E+00  0.00000000000E+00  0.15973723668E+03  0.15973723668E+03  0.00000000000E+00 0. -1.
         21   -1    0    0  501  502 -0.00000000000E+00 -0.00000000000E+00 -0.57415953986E+03  0.57415953986E+03  0.00000000000E+00 0. -1.
         25    1    1    2    0    0 -0.14751767235E+03 -0.17929361145E+02 -0.48879618009E+03  0.52595592146E+03  0.12500000000E+03 0.  0.
         25    1    1    2    0    0  0.14751767235E+03  0.17929361145E+02  0.74373876911E+02  0.20794085509E+03  0.12500000000E+03 0.  0.
</event>
<event>
 4    0  0.2250660E-002  0.2501280E+03  0.7546771E-02  0.1113224E+00
         21   -1    0    0  502  501  0.00000000000E+00  0.00000000000E+00  0.24176868681E+02  0.24176868681E+02  0.00000000000E+00 0.  1.
         21   -1    0    0  501  502 -0.00000000000E+00 -0.00000000000E+00 -0.25877629380E+04  0.25877629380E+04  0.00000000000E+00 0.  1.
         25    1    1    2    0    0 -0.13360372107E+03  0.17042808925E+03 -0.12474293848E+04  0.12722424132E+04  0.12500000000E+03 0.  0.
         25    1    1    2    0    0  0.13360372107E+03 -0.17042808925E+03 -0.13161566845E+04  0.13396973935E+04  0.12500000000E+03 0.  0.
</event>
<event>
 4    0  0.2250660E-002  0.1818484E+03  0.7546771E-02  0.1166026E+00
         21   -1    0    0  502  501  0.00000000000E+00  0.00000000000E+00  0.18466622800E+03  0.18466622800E+03  0.00000000000E+00 0. -1.
         21   -1    0    0  501  502 -0.00000000000E+00 -0.00000000000E+00 -0.17907358545E+03  0.17907358545E+03  0.00000000000E+00 0. -1.
         25    1    1    2    0    0  0.14634003371E+01  0.58878895383E+02  0.12102610687E+03  0.18368773613E+03  0.12500000000E+03 0.  0.
         25    1    1    2    0    0 -0.14634003371E+01 -0.58878895383E+02 -0.11543346431E+03  0.18005207731E+03  0.12500000000E+03 0.  0.
</event>
<event>
 4    0  0.2250660E-002  0.2404615E+03  0.7546771E-02  0.1119486E+00
         21   -1    0    0  502  501  0.00000000000E+00  0.00000000000E+00  0.33215498851E+03  0.33215498851E+03  0.00000000000E+00 0. -1.
         21   -1    0    0  501  502 -0.00000000000E+00 -0.00000000000E+00 -0.17408061003E+03  0.17408061003E+03  0.00000000000E+00 0. -1.
         25    1    1    2    0    0  0.15534908037E+03  0.31517080048E+02  0.21656637553E+03  0.29606191602E+03  0.12500000000E+03 0.  0.
         25    1    1    2    0    0 -0.15534908037E+03 -0.31517080048E+02 -0.58491997057E+02  0.21017368252E+03  0.12500000000E+03 0.  0.
</event>
<event>
 4    0  0.2250660E-002  0.2382514E+03  0.7546771E-02  0.1120963E+00
         21   -1    0    0  502  501  0.00000000000E+00  0.00000000000E+00  0.76174000223E+03  0.76174000223E+03  0.00000000000E+00 0.  1.
         21   -1    0    0  501  502 -0.00000000000E+00 -0.00000000000E+00 -0.74518512547E+02  0.74518512547E+02  0.00000000000E+00 0.  1.
         25    1    1    2    0    0  0.13858496057E+03  0.10484021312E+03  0.16003600115E+03  0.26727099216E+03  0.12500000000E+03 0.  0.
         25    1    1    2    0    0 -0.13858496057E+03 -0.10484021312E+03  0.52718548853E+03  0.56898752262E+03  0.12500000000E+03 0.  0.
</event>
<event>
 4    0  0.2250660E-002  0.2729751E+03  0.7546771E-02  0.1099589E+00
         21   -1    0    0  502  501  0.00000000000E+00  0.00000000000E+00  0.59696125027E+03  0.59696125027E+03  0.00000000000E+00 0. -1.
         21   -1    0    0  501  502 -0.00000000000E+00 -0.00000000000E+00 -0.12482455884E+03  0.12482455884E+03  0.00000000000E+00 0. -1.
         25    1    1    2    0    0  0.14331296483E+03  0.19387803262E+03  0.19954641364E+03  0.33700306915E+03  0.12500000000E+03 0.  0.
         25    1    1    2    0    0 -0.14331296483E+03 -0.19387803262E+03  0.27259027779E+03  0.38478273996E+03  0.12500000000E+03 0.  0.
</event>
<event>
 4    0  0.2250660E-002  0.2529427E+03  0.7546771E-02  0.1111459E+00
         21   -1    0    0  502  501  0.00000000000E+00  0.00000000000E+00  0.14396734486E+04  0.14396734486E+04  0.00000000000E+00 0.  1.
         21   -1    0    0  501  502 -0.00000000000E+00 -0.00000000000E+00 -0.44440644891E+02  0.44440644891E+02  0.00000000000E+00 0.  1.
         25    1    1    2    0    0 -0.33914187236E+02 -0.10004328170E+03  0.13181460000E+03  0.21014023671E+03  0.12500000000E+03 0.  0.
         25    1    1    2    0    0  0.33914187236E+02  0.10004328170E+03  0.12634182037E+04  0.12739738568E+04  0.12500000000E+03 0.  0.
</event>
<event>
 4    0  0.2250660E-002  0.2120107E+03  0.7546771E-02  0.1139984E+00
         21   -1    0    0  502  501  0.00000000000E+00  0.00000000000E+00  0.56289894145E+03  0.56289894145E+03  0.00000000000E+00 0.  1.
         21   -1    0    0  501  502 -0.00000000000E+00 -0.00000000000E+00 -0.79851904091E+02  0.79851904091E+02  0.00000000000E+00 0.  1.
         25    1    1    2    0    0  0.39544949904E+02 -0.16508042443E+03  0.20735129128E+03  0.29569394242E+03  0.12500000000E+03 0.  0.
         25    1    1    2    0    0 -0.39544949904E+02  0.16508042443E+03  0.27569574608E+03  0.34705690311E+03  0.12500000000E+03 0.  0.
</event>
<event>
 4    0  0.2250660E-002  0.2043724E+03  0.7546771E-02  0.1146102E+00
         21   -1    0    0  502  501  0.00000000000E+00  0.00000000000E+00  0.34478832648E+03  0.34478832648E+03  0.00000000000E+00 0.  1.
         21   -1    0    0  501  502 -0.00000000000E+00 -0.00000000000E+00 -0.12114118287E+03  0.12114118287E+03  0.00000000000E+00 0.  1.
         25    1    1    2    0    0 -0.77744270704E+02  0.52098537146E+02 -0.38473613353E+02  0.16082178996E+03  0.12500000000E+03 0.  0.
         25    1    1    2    0    0  0.77744270704E+02 -0.52098537146E+02  0.26212075697E+03  0.30510771939E+03  0.12500000000E+03 0.  0.
</event>
<event>
 4    0  0.2250660E-002  0.2258354E+03  0.7546771E-02  0.1129606E+00
         21   -1    0    0  502  501  0.00000000000E+00  0.00000000000E+00  0.98602112536E+03  0.98602112536E+03  0.00000000000E+00 0. -1.
         21   -1    0    0  501  502 -0.00000000000E+00 -0.00000000000E+00 -0.51724696417E+02  0.51724696417E+02  0.00000000000E+00 0. -1.
         25    1    1    2    0    0  0.25403468456E+01 -0.22020056256E+02  0.89627951042E+03  0.90522555037E+03  0.12500000000E+03 0.  0.
         25    1    1    2    0    0 -0.25403468456E+01  0.22020056256E+02  0.38016918519E+02  0.13252027141E+03  0.12500000000E+03 0.  0.
</event>
<event>
 4    0  0.2250660E-002  0.2137096E+03  0.7546771E-02  0.1138662E+00
         21   -1    0    0  502  501  0.00000000000E+00  0.00000000000E+00  0.16430376022E+03  0.16430376022E+03  0.00000000000E+00 0.  1.
         21   -1    0    0  501  502 -0.00000000000E+00 -0.00000000000E+00 -0.27797177091E+03  0.27797177091E+03  0.00000000000E+00 0.  1.
         25    1    1    2    0    0 -0.76179877319E+02 -0.24880156734E+02  0.10221073674E+03  0.18026211641E+03  0.12500000000E+03 0.  0.
         25    1    1    2    0    0  0.76179877319E+02  0.24880156734E+02 -0.21587874742E+03  0.26201341472E+03  0.12500000000E+03 0.  0.
</event>
<event>
 4    0  0.2250660E-002  0.2021727E+03  0.7546771E-02  0.1147919E+00
         21   -1    0    0  502  501  0.00000000000E+00  0.00000000000E+00  0.24599556567E+03  0.24599556567E+03  0.00000000000E+00 0.  1.
         21   -1    0    0  501  502 -0.00000000000E+00 -0.00000000000E+00 -0.16615671492E+03  0.16615671492E+03  0.00000000000E+00 0.  1.
         25    1    1    2    0    0  0.15250971778E+03  0.18772615243E+01 -0.55064347443E+01  0.19727660518E+03  0.12500000000E+03 0.  0.
         25    1    1    2    0    0 -0.15250971778E+03 -0.18772615243E+01  0.85345285491E+02  0.21487567541E+03  0.12500000000E+03 0.  0.
</event>
<event>
 4    0  0.2250660E-002  0.2228426E+03  0.7546771E-02  0.1131781E+00
         21   -1    0    0  502  501  0.00000000000E+00  0.00000000000E+00  0.18970216977E+03  0.18970216977E+03  0.00000000000E+00 0.  1.
         21   -1    0    0  501  502 -0.00000000000E+00 -0.00000000000E+00 -0.26177266536E+03  0.26177266536E+03  0.00000000000E+00 0.  1.
         25    1    1    2    0    0 -0.49635046825E+02  0.16122312679E+03 -0.11168675324E+03  0.23781393007E+03  0.12500000000E+03 0.  0.
         25    1    1    2    0    0  0.49635046825E+02 -0.16122312679E+03  0.39616257647E+02  0.21366090507E+03  0.12500000000E+03 0.  0.
</event>
<event>
 4    0  0.2250660E-002  0.1871836E+03  0.7546771E-02  0.1161026E+00
         21   -1    0    0  502  501  0.00000000000E+00  0.00000000000E+00  0.72575368920E+03  0.72575368920E+03  0.00000000000E+00 0.  1.
         21   -1    0    0  501  502 -0.00000000000E+00 -0.00000000000E+00 -0.48277663303E+02  0.48277663303E+02  0.00000000000E+00 0.  1.
         25    1    1    2    0    0 -0.13206288777E+03 -0.37334922227E+02  0.28902204355E+03  0.34350144745E+03  0.12500000000E+03 0.  0.
         25    1    1    2    0    0  0.13206288777E+03  0.37334922227E+02  0.38845398234E+03  0.43052990504E+03  0.12500000000E+03 0.  0.
</event>
<event>
 4    0  0.2250660E-002  0.2233652E+03  0.7546771E-02  0.1131399E+00
         21   -1    0    0  502  501  0.00000000000E+00  0.00000000000E+00  0.30433237210E+03  0.30433237210E+03  0.00000000000E+00 0.  1.
         21   -1    0    0  501  502 -0.00000000000E+00 -0.00000000000E+00 -0.16393921635E+03  0.16393921635E+03  0.00000000000E+00 0.  1.
         25    1    1    2    0    0  0.17840520476E+03 -0.48947053898E+02  0.63340594446E+02  0.23208029230E+03  0.12500000000E+03 0.  0.
         25    1    1    2    0    0 -0.17840520476E+03  0.48947053898E+02  0.77052561312E+02  0.23619129615E+03  0.12500000000E+03 0.  0.
</event>
<event>
 4    0  0.2250660E-002  0.2251008E+03  0.7546771E-02  0.1130136E+00
         21   -1    0    0  502  501  0.00000000000E+00  0.00000000000E+00  0.17737651036E+03  0.17737651036E+03  0.00000000000E+00 0. -1.
         21   -1    0    0  501  502 -0.00000000000E+00 -0.00000000000E+00 -0.28566552600E+03  0.28566552600E+03  0.00000000000E+00 0. -1.
         25    1    1    2    0    0  0.33056098796E+02 -0.18361524496E+03 -0.38274238748E+02  0.22780952834E+03  0.12500000000E+03 0.  0.
         25    1    1    2    0    0 -0.33056098796E+02  0.18361524496E+03 -0.70014776889E+02  0.23523250803E+03  0.12500000000E+03 0.  0.
</event>
<event>
 4    0  0.2250660E-002  0.2428073E+03  0.7546771E-02  0.1117937E+00
         21   -1    0    0  502  501  0.00000000000E+00  0.00000000000E+00  0.25219712946E+04  0.25219712946E+04  0.00000000000E+00 0. -1.
         21   -1    0    0  501  502 -0.00000000000E+00 -0.00000000000E+00 -0.23376708842E+02  0.23376708842E+02  0.00000000000E+00 0. -1.
         25    1    1    2    0    0  0.11900331977E+03  0.15148033310E+03  0.16627550499E+04  0.16785372911E+04  0.12500000000E+03 0.  0.
         25    1    1    2    0    0 -0.11900331977E+03 -0.15148033310E+03  0.83583953582E+03  0.86681071236E+03  0.12500000000E+03 0.  0.
</event>
<event>
 4    0  0.2250660E-002  0.2870805E+03  0.7546771E-02  0.1091883E+00
         21   -1    0    0  502  501  0.00000000000E+00  0.00000000000E+00  0.17676236031E+04  0.17676236031E+04  0.00000000000E+00 0. -1.
         21   -1    0    0  501  502 -0.00000000000E+00 -0.00000000000E+00 -0.46624858391E+02  0.46624858391E+02  0.00000000000E+00 0. -1.
         25    1    1    2    0    0 -0.41392627421E+02  0.24811948310E+03  0.67319945753E+03  0.72945125753E+03  0.12500000000E+03 0.  0.
         25    1    1    2    0    0  0.41392627421E+02 -0.24811948310E+03  0.10477992872E+04  0.10847972040E+04  0.12500000000E+03 0.  0.
</event>
<event>
 4    0  0.2250660E-002  0.2396115E+03  0.7546771E-02  0.1120052E+00
         21   -1    0    0  502  501  0.00000000000E+00  0.00000000000E+00  0.47005880083E+03  0.47005880083E+03  0.00000000000E+00 0.  1.
         21   -1    0    0  501  502 -0.00000000000E+00 -0.00000000000E+00 -0.12214146161E+03  0.12214146161E+03  0.00000000000E+00 0.  1.
         25    1    1    2    0    0 -0.97213654817E+02 -0.74538519698E+02  0.37619256115E+03  0.41491243494E+03  0.12500000000E+03 0.  0.
         25    1    1    2    0    0  0.97213654817E+02  0.74538519698E+02 -0.28275221932E+02  0.17728782749E+03  0.12500000000E+03 0.  0.
</event>
<event>
 4    0  0.2250660E-002  0.2140058E+03  0.7546771E-02  0.1138433E+00
         21   -1    0    0  502  501  0.00000000000E+00  0.00000000000E+00  0.90995705050E+02  0.90995705050E+02  0.00000000000E+00 0.  1.
         21   -1    0    0  501  502 -0.00000000000E+00 -0.00000000000E+00 -0.50330387367E+03  0.50330387367E+03  0.00000000000E+00 0.  1.
         25    1    1    2    0    0 -0.14598328174E+03  0.91009131797E+02 -0.17272262595E+03  0.27395599306E+03  0.12500000000E+03 0.  0.
         25    1    1    2    0    0  0.14598328174E+03 -0.91009131797E+02 -0.23958554266E+03  0.32034358566E+03  0.12500000000E+03 0.  0.
</event>
<event>
 4    0  0.2250660E-002  0.1855561E+03  0.7546771E-02  0.1162532E+00
         21   -1    0    0  502  501  0.00000000000E+00  0.00000000000E+00  0.18450779528E+04  0.18450779528E+04  0.00000000000E+00 0. -1.
         21   -1    0    0  501  502 -0.00000000000E+00 -0.00000000000E+00 -0.18661031875E+02  0.18661031875E+02  0.00000000000E+00 0. -1.
         25    1    1    2    0    0 -0.60799759836E+02 -0.81224987633E+02  0.13765427217E+04  0.13859253134E+04  0.12500000000E+03 0.  0.
         25    1    1    2    0    0  0.60799759836E+02  0.81224987633E+02  0.44987419920E+03  0.47781367134E+03  0.12500000000E+03 0.  0.
</event>
<event>
 4    0  0.2250660E-002  0.3088304E+03  0.7546771E-02  0.1080908E+00
         21   -1    0    0  502  501  0.00000000000E+00  0.00000000000E+00  0.38494626452E+03  0.38494626452E+03  0.00000000000E+00 0.  1.
         21   -1    0    0  501  502 -0.00000000000E+00 -0.00000000000E+00 -0.24776497300E+03  0.24776497300E+03  0.00000000000E+00 0.  1.
         25    1    1    2    0    0 -0.17491199926E+03 -0.10837528968E+03  0.26672500120E+03  0.35931412046E+03  0.12500000000E+03 0.  0.
         25    1    1    2    0    0  0.17491199926E+03  0.10837528968E+03 -0.12954370968E+03  0.27339711706E+03  0.12500000000E+03 0.  0.
</event>
<event>
 4    0  0.2250660E-002  0.1908483E+03  0.7546771E-02  0.1157698E+00
         21   -1    0    0  502  501  0.00000000000E+00  0.00000000000E+00  0.73652675200E+02  0.73652675200E+02  0.00000000000E+00 0. -1.
         21   -1    0    0  501  502 -0.00000000000E+00 -0.00000000000E+00 -0.49452482879E+03  0.49452482879E+03  0.00000000000E+00 0. -1.
         25    1    1    2    0    0  0.13904089135E+03  0.12953502150E+02 -0.26406371473E+03  0.32381292149E+03  0.12500000000E+03 0.  0.
         25    1    1    2    0    0 -0.13904089135E+03 -0.12953502150E+02 -0.15680843886E+03  0.24436458250E+03  0.12500000000E+03 0.  0.
</event>
<event>
 4    0  0.2250660E-002  0.2327346E+03  0.7546771E-02  0.1124730E+00
         21   -1    0    0  502  501  0.00000000000E+00  0.00000000000E+00  0.61255012753E+03  0.61255012753E+03  0.00000000000E+00 0.  1.
         21   -1    0    0  501  502 -0.00000000000E+00 -0.00000000000E+00 -0.88426079155E+02  0.88426079155E+02  0.00000000000E+00 0.  1.
         25    1    1    2    0    0 -0.16155229267E+03  0.64377159845E+02  0.12488899030E+03  0.24792301602E+03  0.12500000000E+03 0.  0.
         25    1    1    2    0    0  0.16155229267E+03 -0.64377159845E+02  0.39923505807E+03  0.45305319066E+03  0.12500000000E+03 0.  0.
</event>
<event>
 4    0  0.2250660E-002  0.1836134E+03  0.7546771E-02  0.1164351E+00
         21   -1    0    0  502  501  0.00000000000E+00  0.00000000000E+00  0.53228963422E+03  0.53228963422E+03  0.00000000000E+00 0. -1.
         21   -1    0    0  501  502 -0.00000000000E+00 -0.00000000000E+00 -0.63337455301E+02  0.63337455301E+02  0.00000000000E+00 0. -1.
         25    1    1    2    0    0 -0.13215272732E+03 -0.12521384548E+02  0.26955479471E+03  0.32543189113E+03  0.12500000000E+03 0.  0.
         25    1    1    2    0    0  0.13215272732E+03  0.12521384548E+02  0.19939738421E+03  0.27019519840E+03  0.12500000000E+03 0.  0.
</event>
<event>
 4    0  0.2250660E-002  0.1723304E+03  0.7546771E-02  0.1175439E+00
         21   -1    0    0  502  501  0.00000000000E+00  0.00000000000E+00  0.13098488721E+03  0.13098488721E+03  0.00000000000E+00 0. -1.
         21   -1    0    0  501  502 -0.00000000000E+00 -0.00000000000E+00 -0.22672670666E+03  0.22672670666E+03  0.00000000000E+00 0. -1.
         25    1    1    2    0    0 -0.25403426470E+02  0.40771077032E+02  0.64703571610E+02  0.14872513902E+03  0.12500000000E+03 0.  0.
         25    1    1    2    0    0  0.25403426470E+02 -0.40771077032E+02 -0.16044539105E+03  0.20898645485E+03  0.12500000000E+03 0.  0.
</event>
<event>
 4    0  0.2250660E-002  0.4621586E+03  0.7546771E-02  0.1024157E+00
         21   -1    0    0  502  501  0.00000000000E+00  0.00000000000E+00  0.10724438774E+03  0.10724438774E+03  0.00000000000E+00 0.  1.
         21   -1    0    0  501  502 -0.00000000000E+00 -0.00000000000E+00 -0.19916248826E+04  0.19916248826E+04  0.00000000000E+00 0.  1.
         25    1    1    2    0    0 -0.36465147463E+03  0.25476023428E+03 -0.92039647682E+03  0.10298680253E+04  0.12500000000E+03 0.  0.
         25    1    1    2    0    0  0.36465147463E+03 -0.25476023428E+03 -0.96398401803E+03  0.10690012451E+04  0.12500000000E+03 0.  0.
</event>
<event>
 4    0  0.2250660E-002  0.2161988E+03  0.7546771E-02  0.1136749E+00
         21   -1    0    0  502  501  0.00000000000E+00  0.00000000000E+00  0.79635292038E+02  0.79635292038E+02  0.00000000000E+00 0.  1.
         21   -1    0    0  501  502 -0.00000000000E+00 -0.00000000000E+00 -0.58694983216E+03  0.58694983216E+03  0.00000000000E+00 0.  1.
         25    1    1    2    0    0  0.60983217785E+02 -0.80972095240E+02 -0.47621193697E+03  0.50267110716E+03  0.12500000000E+03 0.  0.
         25    1    1    2    0    0 -0.60983217785E+02  0.80972095240E+02 -0.31102603150E+02  0.16391401704E+03  0.12500000000E+03 0.  0.
</event>
<event>
 4    0  0.2250660E-002  0.4296461E+03  0.7546771E-02  0.1033972E+00
         21   -1    0    0  502  501  0.00000000000E+00  0.00000000000E+00  0.26527612598E+03  0.26527612598E+03  0.00000000000E+00 0. -1.
         21   -1    0    0  501  502 -0.00000000000E+00 -0.00000000000E+00 -0.69586289323E+03  0.69586289323E+03  0.00000000000E+00 0. -1.
         25    1    1    2    0    0  0.40815757006E+03  0.12634713145E+02 -0.16260895142E+03  0.45696707656E+03  0.12500000000E+03 0.  0.
         25    1    1    2    0    0 -0.40815757006E+03 -0.12634713145E+02 -0.26797781583E+03  0.50417194265E+03  0.12500000000E+03 0.  0.
</event>
<event>
 4    0  0.2250660E-002  0.3081607E+03  0.7546771E-02  0.1081231E+00
         21   -1    0    0  502  501  0.00000000000E+00  0.00000000000E+00  0.42989651816E+03  0.42989651816E+03  0.00000000000E+00 0. -1.
         21   -1    0    0  501  502 -0.00000000000E+00 -0.00000000000E+00 -0.22089734588E+03  0.22089734588E+03  0.00000000000E+00 0. -1.
         25    1    1    2    0    0 -0.10337547435E+03 -0.20122676320E+03 -0.72693664631E+02  0.26849221181E+03  0.12500000000E+03 0.  0.
         25    1    1    2    0    0  0.10337547435E+03  0.20122676320E+03  0.28169283691E+03  0.38230165222E+03  0.12500000000E+03 0.  0.
</event>
<event>
 4    0  0.2250660E-002  0.2600777E+03  0.7546771E-02  0.1107097E+00
         21   -1    0    0  502  501  0.00000000000E+00  0.00000000000E+00  0.10039478570E+03  0.10039478570E+03  0.00000000000E+00 0.  1.
         21   -1    0    0  501  502 -0.00000000000E+00 -0.00000000000E+00 -0.67374433605E+03  0.67374433605E+03  0.00000000000E+00 0.  1.
         25    1    1    2    0    0  0.33363611480E+02  0.79461112772E+01 -0.62224622567E+03  0.63560336423E+03  0.12500000000E+03 0.  0.
         25    1    1    2    0    0 -0.33363611480E+02 -0.79461112772E+01  0.48896675325E+02  0.13853575753E+03  0.12500000000E+03 0.  0.
</event>
<event>
 4    0  0.2250660E-002  0.5625074E+03  0.7546771E-02  0.9986397E-01
         21   -1    0    0  502  501  0.00000000000E+00  0.00000000000E+00  0.96234872598E+03  0.96234872598E+03  0.00000000000E+00 0.  1.
         21   -1    0    0  501  502 -0.00000000000E+00 -0.00000000000E+00 -0.32879406144E+03  0.32879406144E+03  0.00000000000E+00 0.  1.
         25    1    1    2    0    0 -0.10622246385E+03 -0.88308260122E+02 -0.29236058853E+03  0.34667170978E+03  0.12500000000E+03 0.  0.
         25    1    1    2    0    0  0.10622246385E+03  0.88308260122E+02  0.92591525308E+03  0.94447107765E+03  0.12500000000E+03 0.  0.
</event>
<event>
 4    0  0.2250660E-002  0.2135206E+03  0.7546771E-02  0.1138808E+00
         21   -1    0    0  502  501  0.00000000000E+00  0.00000000000E+00  0.18641790070E+03  0.18641790070E+03  0.00000000000E+00 0.  1.
         21   -1    0    0  501  502 -0.00000000000E+00 -0.00000000000E+00 -0.24456357351E+03  0.24456357351E+03  0.00000000000E+00 0.  1.
         25    1    1    2    0    0 -0.16842095735E+03 -0.11987833734E+02 -0.67591757430E+02  0.22068750011E+03  0.12500000000E+03 0.  0.
         25    1    1    2    0    0  0.16842095735E+03  0.11987833734E+02  0.94460846146E+01  0.21029397411E+03  0.12500000000E+03 0.  0.
</event>
<event>
 4    0  0.2250660E-002  0.2251806E+03  0.7546771E-02  0.1130079E+00
         21   -1    0    0  502  501  0.00000000000E+00  0.00000000000E+00  0.33618247753E+03  0.33618247753E+03  0.00000000000E+00 0. -1.
         21   -1    0    0  501  502 -0.00000000000E+00 -0.00000000000E+00 -0.15082976404E+03  0.15082976404E+03  0.00000000000E+00 0. -1.
         25    1    1    2    0    0  0.14494113323E+03  0.11840585372E+03  0.84770767693E+02  0.24049732089E+03  0.12500000000E+03 0.  0.
         25    1    1    2    0    0 -0.14494113323E+03 -0.11840585372E+03  0.10058194580E+03  0.24651492068E+03  0.12500000000E+03 0.  0.
</event>
<event>
 4    0  0.2250660E-002  0.2334911E+03  0.7546771E-02  0.1124206E+00
         21   -1    0    0  502  501  0.00000000000E+00  0.00000000000E+00  0.33461692436E+03  0.33461692436E+03  0.00000000000E+00 0.  1.
         21   -1    0    0  501  502 -0.00000000000E+00 -0.00000000000E+00 -0.16292685245E+03  0.16292685245E+03  0.00000000000E+00 0.  1.
         25    1    1    2    0    0  0.11273121150E+03  0.14741259382E+03  0.15695327768E+03  0.27330958680E+03  0.12500000000E+03 0.  0.
         25    1    1    2    0    0 -0.11273121150E+03 -0.14741259382E+03  0.14736794224E+02  0.22423419001E+03  0.12500000000E+03 0.  0.
</event>
<event>
 4    0  0.2250660E-002  0.3131095E+03  0.7546771E-02  0.1078865E+00
         21   -1    0    0  502  501  0.00000000000E+00  0.00000000000E+00  0.19773016068E+03  0.19773016068E+03  0.00000000000E+00 0.  1.
         21   -1    0    0  501  502 -0.00000000000E+00 -0.00000000000E+00 -0.49581497701E+03  0.49581497701E+03  0.00000000000E+00 0.  1.
         25    1    1    2    0    0  0.21750928547E+03  0.52970381551E+01 -0.35645853047E+03  0.43591975388E+03  0.12500000000E+03 0.  0.
         25    1    1    2    0    0 -0.21750928547E+03 -0.52970381551E+01  0.58373714145E+02  0.25762538381E+03  0.12500000000E+03 0.  0.
</event>
<event>
 4    0  0.2250660E-002  0.1766406E+03  0.7546771E-02  0.1171094E+00
         21   -1    0    0  502  501  0.00000000000E+00  0.00000000000E+00  0.15058103066E+03  0.15058103066E+03  0.00000000000E+00 0. -1.
         21   -1    0    0  501  502 -0.00000000000E+00 -0.00000000000E+00 -0.20720994670E+03  0.20720994670E+03  0.00000000000E+00 0. -1.
         25    1    1    2    0    0 -0.48922636701E+01  0.12278697787E+03 -0.50417616341E+02  0.18239383821E+03  0.12500000000E+03 0.  0.
         25    1    1    2    0    0  0.48922636701E+01 -0.12278697787E+03 -0.62112996947E+01  0.17539713915E+03  0.12500000000E+03 0.  0.
</event>
<event>
 4    0  0.2250660E-002  0.2123393E+03  0.7546771E-02  0.1139727E+00
         21   -1    0    0  502  501  0.00000000000E+00  0.00000000000E+00  0.18350048099E+03  0.18350048099E+03  0.00000000000E+00 0. -1.
         21   -1    0    0  501  502 -0.00000000000E+00 -0.00000000000E+00 -0.24571031243E+03  0.24571031243E+03  0.00000000000E+00 0. -1.
         25    1    1    2    0    0  0.97265593613E+01  0.15525606438E+03 -0.10443201939E+03  0.22523343037E+03  0.12500000000E+03 0.  0.
         25    1    1    2    0    0 -0.97265593613E+01 -0.15525606438E+03  0.42222187954E+02  0.20397736305E+03  0.12500000000E+03 0.  0.
</event>
<event>
 4    0  0.2250660E-002  0.2840872E+03  0.7546771E-02  0.1093477E+00
         21   -1    0    0  502  501  0.00000000000E+00  0.00000000000E+00  0.71531781065E+03  0.71531781065E+03  0.00000000000E+00 0.  1.
         21   -1    0    0  501  502 -0.00000000000E+00 -0.00000000000E+00 -0.11282473474E+03  0.11282473474E+03  0.00000000000E+00 0.  1.
         25    1    1    2    0    0  0.16801871568E+01  0.75802670470E+02 -0.53784828143E+02  0.15577764800E+03  0.12500000000E+03 0.  0.
         25    1    1    2    0    0 -0.16801871568E+01 -0.75802670470E+02  0.65627790406E+03  0.67236489738E+03  0.12500000000E+03 0.  0.
</event>
<event>
 4    0  0.2250660E-002  0.1945750E+03  0.7546771E-02  0.1154399E+00
         21   -1    0    0  502  501  0.00000000000E+00  0.00000000000E+00  0.59768178403E+03  0.59768178403E+03  0.00000000000E+00 0. -1.
         21   -1    0    0  501  502 -0.00000000000E+00 -0.00000000000E+00 -0.63343786592E+02  0.63343786592E+02  0.00000000000E+00 0. -1.
         25    1    1    2    0    0  0.69752395715E+01  0.80064174830E+02  0.53818909786E+02  0.15805189372E+03  0.12500000000E+03 0.  0.
         25    1    1    2    0    0 -0.69752395715E+01 -0.80064174830E+02  0.48051908766E+03  0.50297367691E+03  0.12500000000E+03 0.  0.
</event>
<event>
 4    0  0.2250660E-002  0.2911483E+03  0.7546771E-02  0.1089751E+00
         21   -1    0    0  502  501  0.00000000000E+00  0.00000000000E+00  0.39366507630E+03  0.39366507630E+03  0.00000000000E+00 0.  1.
         21   -1    0    0  501  502 -0.00000000000E+00 -0.00000000000E+00 -0.21532848563E+03  0.21532848563E+03  0.00000000000E+00 0.  1.
         25    1    1    2    0    0  0.15274096282E+03 -0.25051481488E+02 -0.13314493413E+03  0.23939497057E+03  0.12500000000E+03 0.  0.
         25    1    1    2    0    0 -0.15274096282E+03  0.25051481488E+02  0.31148152480E+03  0.36959859137E+03  0.12500000000E+03 0.  0.
</event>
<event>
 4    0  0.2250660E-002  0.1771869E+03  0.7546771E-02  0.1170554E+00
         21   -1    0    0  502  501  0.00000000000E+00  0.00000000000E+00  0.94674979261E+03  0.94674979261E+03  0.00000000000E+00 0. -1.
         21   -1    0    0  501  502 -0.00000000000E+00 -0.00000000000E+00 -0.33161035634E+02  0.33161035634E+02  0.00000000000E+00 0. -1.
         25    1    1    2    0    0  0.12072931812E+02  0.11773100614E+03  0.34066108747E+03  0.38168222647E+03  0.12500000000E+03 0.  0.
         25    1    1    2    0    0 -0.12072931812E+02 -0.11773100614E+03  0.57292766951E+03  0.59822860177E+03  0.12500000000E+03 0.  0.
</event>
<event>
 4    0  0.2250660E-002  0.1845264E+03  0.7546771E-02  0.1163493E+00
         21   -1    0    0  502  501  0.00000000000E+00  0.00000000000E+00  0.15699420386E+03  0.15699420386E+03  0.00000000000E+00 0. -1.
         21   -1    0    0  501  502 -0.00000000000E+00 -0.00000000000E+00 -0.21688695568E+03  0.21688695568E+03  0.00000000000E+00 0. -1.
         25    1    1    2    0    0 -0.34529310768E+02 -0.11935560677E+03 -0.85314501137E+02  0.19581010769E+03  0.12500000000E+03 0.  0.
         25    1    1    2    0    0  0.34529310768E+02  0.11935560677E+03  0.25421749317E+02  0.17807105186E+03  0.12500000000E+03 0.  0.
</event>
<event>
 4    0  0.2250660E-002  0.2117552E+03  0.7546771E-02  0.1140184E+00
         21   -1    0    0  502  501  0.00000000000E+00  0.00000000000E+00  0.16003634988E+04  0.16003634988E+04  0.00000000000E+00 0.  1.
         21   -1    0    0  501  502 -0.00000000000E+00 -0.00000000000E+00 -0.28018794851E+02  0.28018794851E+02  0.00000000000E+00 0.  1.
         25    1    1    2    0    0  0.49366622563E+02 -0.14504864520E+03  0.49489037790E+03  0.53293307181E+03  0.12500000000E+03 0.  0.
         25    1    1    2    0    0 -0.49366622563E+02  0.14504864520E+03  0.10774543260E+04  0.10954492218E+04  0.12500000000E+03 0.  0.
</event>
<event>
 4    0  0.2250660E-002  0.1626231E+03  0.7546771E-02  0.1185767E+00
         21   -1    0    0  502  501  0.00000000000E+00  0.00000000000E+00  0.31319121158E+02  0.31319121158E+02  0.00000000000E+00 0.  1.
         21   -1    0    0  501  502 -0.00000000000E+00 -0.00000000000E+00 -0.84441343119E+03  0.84441343119E+03  0.00000000000E+00 0.  1.
         25    1    1    2    0    0  0.34293731034E+02 -0.85405353132E+02 -0.53710396271E+03  0.55908478882E+03  0.12500000000E+03 0.  0.
         25    1    1    2    0    0 -0.34293731034E+02  0.85405353132E+02 -0.27599034732E+03  0.31664776353E+03  0.12500000000E+03 0.  0.
</event>
<event>
 4    0  0.2250660E-002  0.1884642E+03  0.7546771E-02  0.1159854E+00
         21   -1    0    0  502  501  0.00000000000E+00  0.00000000000E+00  0.22360365743E+03  0.22360365743E+03  0.00000000000E+00 0.  1.
         21   -1    0    0  501  502 -0.00000000000E+00 -0.00000000000E+00 -0.15884690679E+03  0.15884690679E+03  0.00000000000E+00 0.  1.
         25    1    1    2    0    0  0.43978809769E+02 -0.11817930450E+03  0.96496465313E+02  0.20208179418E+03  0.12500000000E+03 0.  0.
         25    1    1    2    0    0 -0.43978809769E+02  0.11817930450E+03 -0.31739714674E+02  0.18036877005E+03  0.12500000000E+03 0.  0.
</event>
<event>
 4    0  0.2250660E-002  0.1959960E+03  0.7546771E-02  0.1153162E+00
         21   -1    0    0  502  501  0.00000000000E+00  0.00000000000E+00  0.10725379008E+03  0.10725379008E+03  0.00000000000E+00 0. -1.
         21   -1    0    0  501  502 -0.00000000000E+00 -0.00000000000E+00 -0.35816373463E+03  0.35816373463E+03  0.00000000000E+00 0. -1.
         25    1    1    2    0    0  0.82053187280E+01 -0.14837251750E+03 -0.93869588629E+02  0.21568085421E+03  0.12500000000E+03 0.  0.
         25    1    1    2    0    0 -0.82053187280E+01  0.14837251750E+03 -0.15704035592E+03  0.24973667050E+03  0.12500000000E+03 0.  0.
</event>
<event>
 4    0  0.2250660E-002  0.1877654E+03  0.7546771E-02  0.1160492E+00
         21   -1    0    0  502  501  0.00000000000E+00  0.00000000000E+00  0.14238605268E+04  0.14238605268E+04  0.00000000000E+00 0.  1.
         21   -1    0    0  501  502 -0.00000000000E+00 -0.00000000000E+00 -0.24760752772E+02  0.24760752772E+02  0.00000000000E+00 0.  1.
         25    1    1    2    0    0 -0.80088043772E+02  0.89305439645E+02  0.97882280146E+03  0.99403653503E+03  0.12500000000E+03 0.  0.
         25    1    1    2    0    0  0.80088043772E+02 -0.89305439645E+02  0.42027697258E+03  0.45458474456E+03  0.12500000000E+03 0.  0.
</event>
<event>
 4    0  0.2250660E-002  0.1966318E+03  0.7546771E-02  0.1152612E+00
         21   -1    0    0  502  501  0.00000000000E+00  0.00000000000E+00  0.34960742851E+02  0.34960742851E+02  0.00000000000E+00 0. -1.
         21   -1    0    0  501  502 -0.00000000000E+00 -0.00000000000E+00 -0.11059278409E+04  0.11059278409E+04  0.00000000000E+00 0. -1.
         25    1    1    2    0    0  0.86765838906E+02 -0.33098758230E+02 -0.88379692967E+03  0.89741063705E+03  0.12500000000E+03 0.  0.
         25    1    1    2    0    0 -0.86765838906E+02  0.33098758230E+02 -0.18717016837E+03  0.24347794669E+03  0.12500000000E+03 0.  0.
</event>
<event>
 4    0  0.2250660E-002  0.2382834E+03  0.7546771E-02  0.1120942E+00
         21   -1    0    0  502  501  0.00000000000E+00  0.00000000000E+00  0.38185613934E+03  0.38185613934E+03  0.00000000000E+00 0. -1.
         21   -1    0    0  501  502 -0.00000000000E+00 -0.00000000000E+00 -0.14869211961E+03  0.14869211961E+03  0.00000000000E+00 0. -1.
         25    1    1    2    0    0  0.12591172449E+03  0.15899473630E+03  0.11149127812E+03  0.26303686744E+03  0.12500000000E+03 0.  0.
         25    1    1    2    0    0 -0.12591172449E+03 -0.15899473630E+03  0.12167274162E+03  0.26751139151E+03  0.12500000000E+03 0.  0.
</event>
<event>
 4    0  0.2250660E-002  0.2200975E+03  0.7546771E-02  0.1133810E+00
         21   -1    0    0  502  501  0.00000000000E+00  0.00000000000E+00  0.44260627505E+03  0.44260627505E+03  0.00000000000E+00 0. -1.
         21   -1    0    0  501  502 -0.00000000000E+00 -0.00000000000E+00 -0.10944922715E+03  0.10944922715E+03  0.00000000000E+00 0. -1.
         25    1    1    2    0    0 -0.12424170907E+03 -0.99862043816E+02  0.27453075339E+03  0.34117526966E+03  0.12500000000E+03 0.  0.
         25    1    1    2    0    0  0.12424170907E+03  0.99862043816E+02  0.58626294499E+02  0.21088023254E+03  0.12500000000E+03 0.  0.
</event>
<event>
 4    0  0.2250660E-002  0.2087745E+03  0.7546771E-02  0.1142540E+00
         21   -1    0    0  502  501  0.00000000000E+00  0.00000000000E+00  0.15857380146E+03  0.15857380146E+03  0.00000000000E+00 0. -1.
         21   -1    0    0  501  502 -0.00000000000E+00 -0.00000000000E+00 -0.27486764099E+03  0.27486764099E+03  0.00000000000E+00 0. -1.
         25    1    1    2    0    0  0.83749028185E+02 -0.12087857759E+03  0.24483502243E+02  0.19455069294E+03  0.12500000000E+03 0.  0.
         25    1    1    2    0    0 -0.83749028185E+02  0.12087857759E+03 -0.14077734177E+03  0.23889074950E+03  0.12500000000E+03 0.  0.
</event>
<event>
 4    0  0.2250660E-002  0.2006571E+03  0.7546771E-02  0.1149186E+00
         21   -1    0    0  502  501  0.00000000000E+00  0.00000000000E+00  0.76428970652E+02  0.76428970652E+02  0.00000000000E+00 0.  1.
         21   -1    0    0  501  502 -0.00000000000E+00 -0.00000000000E+00 -0.52680641323E+03  0.52680641323E+03  0.00000000000E+00 0.  1.
         25    1    1    2    0    0  0.12953034053E+03 -0.37622235365E+02 -0.10451723823E+03  0.21152398161E+03  0.12500000000E+03 0.  0.
         25    1    1    2    0    0 -0.12953034053E+03  0.37622235365E+02 -0.34586020436E+03  0.39171140227E+03  0.12500000000E+03 0.  0.
</event>
<event>
 4    0  0.2250660E-002  0.2209587E+03  0.7546771E-02  0.1133170E+00
         21   -1    0    0  502  501  0.00000000000E+00  0.00000000000E+00  0.61973662249E+02  0.61973662249E+02  0.00000000000E+00 0.  1.
         21   -1    0    0  501  502 -0.00000000000E+00 -0.00000000000E+00 -0.78779819943E+03  0.78779819943E+03  0.00000000000E+00 0.  1.
         25    1    1    2    0    0 -0.75141441128E+02 -0.43155244581E+02 -0.67111462967E+03  0.68813404033E+03  0.12500000000E+03 0.  0.
         25    1    1    2    0    0  0.75141441128E+02  0.43155244581E+02 -0.54709907512E+02  0.16163782135E+03  0.12500000000E+03 0.  0.
</event>
<event>
 4    0  0.2250660E-002  0.2259294E+03  0.7546771E-02  0.1129538E+00
         21   -1    0    0  502  501  0.00000000000E+00  0.00000000000E+00  0.24896186805E+04  0.24896186805E+04  0.00000000000E+00 0.  1.
         21   -1    0    0  501  502 -0.00000000000E+00 -0.00000000000E+00 -0.20502772603E+02  0.20502772603E+02  0.00000000000E+00 0.  1.
         25    1    1    2    0    0  0.14241868652E+03 -0.10615447333E+03  0.88910246812E+03  0.91524862922E+03  0.12500000000E+03 0.  0.
         25    1    1    2    0    0 -0.14241868652E+03  0.10615447333E+03  0.15800134398E+04  0.15948728239E+04  0.12500000000E+03 0.  0.
</event>
<event>
 4    0  0.2250660E-002  0.1697985E+03  0.7546771E-02  0.1178058E+00
         21   -1    0    0  502  501  0.00000000000E+00  0.00000000000E+00  0.72099161596E+02  0.72099161596E+02  0.00000000000E+00 0.  1.
         21   -1    0    0  501  502 -0.00000000000E+00 -0.00000000000E+00 -0.39988719977E+03  0.39988719977E+03  0.00000000000E+00 0.  1.
         25    1    1    2    0    0 -0.67003381105E+02 -0.86666931932E+01 -0.29309681194E+03  0.32572274378E+03  0.12500000000E+03 0.  0.
         25    1    1    2    0    0  0.67003381105E+02  0.86666931932E+01 -0.34691226236E+02  0.14626361758E+03  0.12500000000E+03 0.  0.
</event>
<event>
 4    0  0.2250660E-002  0.1613774E+03  0.7546771E-02  0.1187150E+00
         21   -1    0    0  502  501  0.00000000000E+00  0.00000000000E+00  0.59312874817E+03  0.59312874817E+03  0.00000000000E+00 0.  1.
         21   -1    0    0  501  502 -0.00000000000E+00 -0.00000000000E+00 -0.43907266924E+02  0.43907266924E+02  0.00000000000E+00 0.  1.
         25    1    1    2    0    0 -0.33462563219E+01  0.14748317507E+02  0.47384134773E+03  0.49028495094E+03  0.12500000000E+03 0.  0.
         25    1    1    2    0    0  0.33462563219E+01 -0.14748317507E+02  0.75380133511E+02  0.14675106415E+03  0.12500000000E+03 0.  0.
</event>
<event>
 4    0  0.2250660E-002  0.2164217E+03  0.7546771E-02  0.1136579E+00
         21   -1    0    0  502  501  0.00000000000E+00  0.00000000000E+00  0.44466487978E+02  0.44466487978E+02  0.00000000000E+00 0.  1.
         21   -1    0    0  501  502 -0.00000000000E+00 -0.00000000000E+00 -0.10533402281E+04  0.10533402281E+04  0.00000000000E+00 0.  1.
         25    1    1    2    0    0  0.17205269678E+02  0.16383940641E+03 -0.34255285980E+03  0.40013352041E+03  0.12500000000E+03 0.  0.
         25    1    1    2    0    0 -0.17205269678E+02 -0.16383940641E+03 -0.66632088028E+03  0.69767319562E+03  0.12500000000E+03 0.  0.
</event>
<event>
 4    0  0.2250660E-002  0.1689461E+03  0.7546771E-02  0.1178951E+00
         21   -1    0    0  502  501  0.00000000000E+00  0.00000000000E+00  0.32061922879E+03  0.32061922879E+03  0.00000000000E+00 0. -1.
         21   -1    0    0  501  502 -0.00000000000E+00 -0.00000000000E+00 -0.89023940360E+02  0.89023940360E+02  0.00000000000E+00 0. -1.
         25    1    1    2    0    0 -0.58746873664E+02  0.36326865884E+02  0.63704967822E+01  0.14295600575E+03  0.12500000000E+03 0.  0.
         25    1    1    2    0    0  0.58746873664E+02 -0.36326865884E+02  0.22522479164E+03  0.26668716340E+03  0.12500000000E+03 0.  0.
</event>
<event>
 4    0  0.2250660E-002  0.4488445E+03  0.7546771E-02  0.1028067E+00
         21   -1    0    0  502  501  0.00000000000E+00  0.00000000000E+00  0.45897173295E+03  0.45897173295E+03  0.00000000000E+00 0. -1.
         21   -1    0    0  501  502 -0.00000000000E+00 -0.00000000000E+00 -0.43894080567E+03  0.43894080567E+03  0.00000000000E+00 0.  1.
         25    1    1    2    0    0 -0.32565313598E+03 -0.28091902576E+03 -0.19503884085E+02  0.44829774202E+03  0.12500000000E+03 0.  0.
         25    1    1    2    0    0  0.32565313598E+03  0.28091902576E+03  0.39534811363E+02  0.44961479659E+03  0.12500000000E+03 0.  0.
</event>
<event>
 4    0  0.2250660E-002  0.3346378E+03  0.7546771E-02  0.1069103E+00
         21   -1    0    0  502  501  0.00000000000E+00  0.00000000000E+00  0.50848737786E+03  0.50848737786E+03  0.00000000000E+00 0.  1.
         21   -1    0    0  501  502 -0.00000000000E+00 -0.00000000000E+00 -0.22022666066E+03  0.22022666066E+03  0.00000000000E+00 0.  1.
         25    1    1    2    0    0 -0.19497839252E+03 -0.18236395848E+03  0.31657631470E+03  0.43257224822E+03  0.12500000000E+03 0.  0.
         25    1    1    2    0    0  0.19497839252E+03  0.18236395848E+03 -0.28315597503E+02  0.29614179030E+03  0.12500000000E+03 0.  0.
</event>
<event>
 4    0  0.2250660E-002  0.2866739E+03  0.7546771E-02  0.1092099E+00
         21   -1    0    0  502  501  0.00000000000E+00  0.00000000000E+00  0.30910611438E+03  0.30910611438E+03  0.00000000000E+00 0. -1.
         21   -1    0    0  501  502 -0.00000000000E+00 -0.00000000000E+00 -0.26586966615E+03  0.26586966615E+03  0.00000000000E+00 0. -1.
         25    1    1    2    0    0 -0.60416568252E+02  0.14353541568E+03 -0.18464601471E+03  0.27197744028E+03  0.12500000000E+03 0.  0.
         25    1    1    2    0    0  0.60416568252E+02 -0.14353541568E+03  0.22788246295E+03  0.30299834025E+03  0.12500000000E+03 0.  0.
</event>
<event>
 4    0  0.2250660E-002  0.1543661E+03  0.7546771E-02  0.1195208E+00
         21   -1    0    0  502  501  0.00000000000E+00  0.00000000000E+00  0.27618576091E+03  0.27618576091E+03  0.00000000000E+00 0. -1.
         21   -1    0    0  501  502 -0.00000000000E+00 -0.00000000000E+00 -0.86278512032E+02  0.86278512032E+02  0.00000000000E+00 0. -1.
         25    1    1    2    0    0  0.55080260310E+01 -0.43707125103E+02  0.20392392674E+01  0.13255115855E+03  0.12500000000E+03 0.  0.
         25    1    1    2    0    0 -0.55080260310E+01  0.43707125103E+02  0.18786800961E+03  0.22991311439E+03  0.12500000000E+03 0.  0.
</event>
<event>
 4    0  0.2250660E-002  0.1588346E+03  0.7546771E-02  0.1190019E+00
         21   -1    0    0  502  501  0.00000000000E+00  0.00000000000E+00  0.66045927916E+03  0.66045927916E+03  0.00000000000E+00 0.  1.
         21   -1    0    0  501  502 -0.00000000000E+00 -0.00000000000E+00 -0.38198297077E+02  0.38198297077E+02  0.00000000000E+00 0.  1.
         25    1    1    2    0    0 -0.46195551883E+02  0.51139876858E+02  0.46436051860E+03  0.48580346566E+03  0.12500000000E+03 0.  0.
         25    1    1    2    0    0  0.46195551883E+02 -0.51139876858E+02  0.15790046349E+03  0.21285411057E+03  0.12500000000E+03 0.  0.
</event>
<event>
 4    0  0.2250660E-002  0.2188578E+03  0.7546771E-02  0.1134738E+00
         21   -1    0    0  502  501  0.00000000000E+00  0.00000000000E+00  0.98344359634E+02  0.98344359634E+02  0.00000000000E+00 0.  1.
         21   -1    0    0  501  502 -0.00000000000E+00 -0.00000000000E+00 -0.48705100052E+03  0.48705100052E+03  0.00000000000E+00 0.  1.
         25    1    1    2    0    0  0.32112679488E+02  0.13893423804E+03 -0.48217948233E+02  0.19566276400E+03  0.12500000000E+03 0.  0.
         25    1    1    2    0    0 -0.32112679488E+02 -0.13893423804E+03 -0.34048869266E+03  0.38973259616E+03  0.12500000000E+03 0.  0.
</event>
<event>
 4    0  0.2250660E-002  0.1571808E+03  0.7546771E-02  0.1191917E+00
         21   -1    0    0  502  501  0.00000000000E+00  0.00000000000E+00  0.18786713327E+03  0.18786713327E+03  0.00000000000E+00 0.  1.
         21   -1    0    0  501  502 -0.00000000000E+00 -0.00000000000E+00 -0.13150674479E+03  0.13150674479E+03  0.00000000000E+00 0.  1.
         25    1    1    2    0    0  0.12295157126E+02  0.89101223976E+02  0.60155764256E+02  0.16532971595E+03  0.12500000000E+03 0.  0.
         25    1    1    2    0    0 -0.12295157126E+02 -0.89101223976E+02 -0.37953757734E+01  0.15404416211E+03  0.12500000000E+03 0.  0.
</event>
<event>
 4    0  0.2250660E-002  0.2087478E+03  0.7546771E-02  0.1142561E+00
         21   -1    0    0  502  501  0.00000000000E+00  0.00000000000E+00  0.27041667825E+02  0.27041667825E+02  0.00000000000E+00 0. -1.
         21   -1    0    0  501  502 -0.00000000000E+00 -0.00000000000E+00 -0.16114264480E+04  0.16114264480E+04  0.00000000000E+00 0. -1.
         25    1    1    2    0    0 -0.56760572356E+02  0.52888975491E+02 -0.21099762264E+03  0.25722364406E+03  0.12500000000E+03 0.  0.
         25    1    1    2    0    0  0.56760572356E+02 -0.52888975491E+02 -0.13733871575E+04  0.13812444718E+04  0.12500000000E+03 0.  0.
</event>
<event>
 4    0  0.2250660E-002  0.4555894E+03  0.7546771E-02  0.1026068E+00
         21   -1    0    0  502  501  0.00000000000E+00  0.00000000000E+00  0.97554812672E+03  0.97554812672E+03  0.00000000000E+00 0.  1.
         21   -1    0    0  501  502 -0.00000000000E+00 -0.00000000000E+00 -0.21276418218E+03  0.21276418218E+03  0.00000000000E+00 0.  1.
         25    1    1    2    0    0 -0.35445903486E+03  0.14848826065E+03  0.65571835286E+03  0.77024770641E+03  0.12500000000E+03 0.  0.
         25    1    1    2    0    0  0.35445903486E+03 -0.14848826065E+03  0.10706559167E+03  0.41806460250E+03  0.12500000000E+03 0.  0.
</event>
<event>
 4    0  0.2250660E-002  0.1817516E+03  0.7546771E-02  0.1166119E+00
         21   -1    0    0  502  501  0.00000000000E+00  0.00000000000E+00  0.65444499846E+03  0.65444499846E+03  0.00000000000E+00 0. -1.
         21   -1    0    0  501  502 -0.00000000000E+00 -0.00000000000E+00 -0.50475810527E+02  0.50475810527E+02  0.00000000000E+00 0. -1.
         25    1    1    2    0    0 -0.75557548993E+02  0.45279200612E+02  0.11148925884E+03  0.18924588253E+03  0.12500000000E+03 0.  0.
         25    1    1    2    0    0  0.75557548993E+02 -0.45279200612E+02  0.49247992909E+03  0.51567492646E+03  0.12500000000E+03 0.  0.
</event>
<event>
 4    0  0.2250660E-002  0.2296754E+03  0.7546771E-02  0.1126868E+00
         21   -1    0    0  502  501  0.00000000000E+00  0.00000000000E+00  0.38151002664E+02  0.38151002664E+02  0.00000000000E+00 0. -1.
         21   -1    0    0  501  502 -0.00000000000E+00 -0.00000000000E+00 -0.13826843783E+04  0.13826843783E+04  0.00000000000E+00 0. -1.
         25    1    1    2    0    0 -0.95694068091E+02  0.16594091233E+03 -0.60797298325E+03  0.64957670017E+03  0.12500000000E+03 0.  0.
         25    1    1    2    0    0  0.95694068091E+02 -0.16594091233E+03 -0.73656039235E+03  0.77125868075E+03  0.12500000000E+03 0.  0.
</event>
<event>
 4    0  0.2250660E-002  0.2863249E+03  0.7546771E-02  0.1092284E+00
         21   -1    0    0  502  501  0.00000000000E+00  0.00000000000E+00  0.34034453560E+03  0.34034453560E+03  0.00000000000E+00 0. -1.
         21   -1    0    0  501  502 -0.00000000000E+00 -0.00000000000E+00 -0.24087933434E+03  0.24087933434E+03  0.00000000000E+00 0. -1.
         25    1    1    2    0    0  0.17541652186E+03 -0.13312045522E+03  0.18539366752E+03  0.31382769746E+03  0.12500000000E+03 0.  0.
         25    1    1    2    0    0 -0.17541652186E+03  0.13312045522E+03 -0.85928466261E+02  0.26739617247E+03  0.12500000000E+03 0.  0.
</event>
<event>
 4    0  0.2250660E-002  0.2768073E+03  0.7546771E-02  0.1097446E+00
         21   -1    0    0  502  501  0.00000000000E+00  0.00000000000E+00  0.58594509605E+03  0.58594509605E+03  0.00000000000E+00 0.  1.
         21   -1    0    0  501  502 -0.00000000000E+00 -0.00000000000E+00 -0.13076697928E+03  0.13076697928E+03  0.00000000000E+00 0.  1.
         25    1    1    2    0    0 -0.19660634078E+03  0.14947584612E+03  0.22702709296E+03  0.35799913791E+03  0.12500000000E+03 0.  0.
         25    1    1    2    0    0  0.19660634078E+03 -0.14947584612E+03  0.22815102381E+03  0.35871293742E+03  0.12500000000E+03 0.  0.
</event>
<event>
 4    0  0.2250660E-002  0.2220859E+03  0.7546771E-02  0.1132337E+00
         21   -1    0    0  502  501  0.00000000000E+00  0.00000000000E+00  0.85427674362E+02  0.85427674362E+02  0.00000000000E+00 0.  1.
         21   -1    0    0  501  502 -0.00000000000E+00 -0.00000000000E+00 -0.57735550871E+03  0.57735550871E+03  0.00000000000E+00 0.  1.
         25    1    1    2    0    0  0.12013114707E+03 -0.83842082112E+02 -0.41102433980E+03  0.45390196644E+03  0.12500000000E+03 0.  0.
         25    1    1    2    0    0 -0.12013114707E+03  0.83842082112E+02 -0.80903494542E+02  0.20888121663E+03  0.12500000000E+03 0.  0.
</event>
<event>
 4    0  0.2250660E-002  0.2872859E+03  0.7546771E-02  0.1091775E+00
         21   -1    0    0  502  501  0.00000000000E+00  0.00000000000E+00  0.11892867440E+03  0.11892867440E+03  0.00000000000E+00 0. -1.
         21   -1    0    0  501  502 -0.00000000000E+00 -0.00000000000E+00 -0.69397217376E+03  0.69397217376E+03  0.00000000000E+00 0.  1.
         25    1    1    2    0    0 -0.14487208110E+03 -0.14649166439E+03 -0.50879331127E+03  0.56297722975E+03  0.12500000000E+03 0.  0.
         25    1    1    2    0    0  0.14487208110E+03  0.14649166439E+03 -0.66250188089E+02  0.24992361842E+03  0.12500000000E+03 0.  0.
</event>
<event>
 4    0  0.2250660E-002  0.3672994E+03  0.7546771E-02  0.1055730E+00
         21   -1    0    0  502  501  0.00000000000E+00  0.00000000000E+00  0.44722070325E+03  0.44722070325E+03  0.00000000000E+00 0.  1.
         21   -1    0    0  501  502 -0.00000000000E+00 -0.00000000000E+00 -0.30166055058E+03  0.30166055058E+03  0.00000000000E+00 0.  1.
         25    1    1    2    0    0 -0.21295366008E+03 -0.66616993475E+02 -0.19596779181E+03  0.32220406669E+03  0.12500000000E+03 0.  0.
         25    1    1    2    0    0  0.21295366008E+03  0.66616993475E+02  0.34152794448E+03  0.42667718714E+03  0.12500000000E+03 0.  0.
</event>
<event>
 4    0  0.2250660E-002  0.1937760E+03  0.7546771E-02  0.1155099E+00
         21   -1    0    0  502  501  0.00000000000E+00  0.00000000000E+00  0.92289923394E+02  0.92289923394E+02  0.00000000000E+00 0. -1.
         21   -1    0    0  501  502 -0.00000000000E+00 -0.00000000000E+00 -0.40686047332E+03  0.40686047332E+03  0.00000000000E+00 0. -1.
         25    1    1    2    0    0 -0.87963170607E+02  0.65889197562E+02 -0.29490187218E+02  0.16903720561E+03  0.12500000000E+03 0.  0.
         25    1    1    2    0    0  0.87963170607E+02 -0.65889197562E+02 -0.28508036271E+03  0.33011319111E+03  0.12500000000E+03 0.  0.
</event>
<event>
 4    0  0.2250660E-002  0.1711730E+03  0.7546771E-02  0.1176630E+00
         21   -1    0    0  502  501  0.00000000000E+00  0.00000000000E+00  0.19133133004E+02  0.19133133004E+02  0.00000000000E+00 0.  1.
         21   -1    0    0  501  502 -0.00000000000E+00 -0.00000000000E+00 -0.15313857482E+04  0.15313857482E+04  0.00000000000E+00 0.  1.
         25    1    1    2    0    0 -0.19258341172E+02 -0.99289066529E+02 -0.49025611233E+03  0.51595082916E+03  0.12500000000E+03 0.  0.
         25    1    1    2    0    0  0.19258341172E+02  0.99289066529E+02 -0.10219965029E+04  0.10345680521E+04  0.12500000000E+03 0.  0.
</event>
<event>
 4    0  0.2250660E-002  0.2455339E+03  0.7546771E-02  0.1116160E+00
         21   -1    0    0  502  501  0.00000000000E+00  0.00000000000E+00  0.34924509243E+03  0.34924509243E+03  0.00000000000E+00 0. -1.
         21   -1    0    0  501  502 -0.00000000000E+00 -0.00000000000E+00 -0.17262053235E+03  0.17262053235E+03  0.00000000000E+00 0. -1.
         25    1    1    2    0    0 -0.15906548237E+02  0.41347065583E+02  0.30790986888E+03  0.33525525419E+03  0.12500000000E+03 0.  0.
         25    1    1    2    0    0  0.15906548237E+02 -0.41347065583E+02 -0.13128530879E+03  0.18661037059E+03  0.12500000000E+03 0.  0.
</event>
<event>
 4    0  0.2250660E-002  0.1761689E+03  0.7546771E-02  0.1171563E+00
         21   -1    0    0  502  501  0.00000000000E+00  0.00000000000E+00  0.28776216454E+04  0.28776216454E+04  0.00000000000E+00 0. -1.
         21   -1    0    0  501  502 -0.00000000000E+00 -0.00000000000E+00 -0.10785110796E+02  0.10785110796E+02  0.00000000000E+00 0. -1.
         25    1    1    2    0    0  0.51655360619E+02  0.11231429563E+03  0.13407823649E+04  0.13522592678E+04  0.12500000000E+03 0.  0.
         25    1    1    2    0    0 -0.51655360619E+02 -0.11231429563E+03  0.15260541696E+04  0.15361474883E+04  0.12500000000E+03 0.  0.
</event>
<event>
 4    0  0.2250660E-002  0.2042354E+03  0.7546771E-02  0.1146214E+00
         21   -1    0    0  502  501  0.00000000000E+00  0.00000000000E+00  0.82022259706E+02  0.82022259706E+02  0.00000000000E+00 0. -1.
         21   -1    0    0  501  502 -0.00000000000E+00 -0.00000000000E+00 -0.50854593673E+03  0.50854593673E+03  0.00000000000E+00 0. -1.
         25    1    1    2    0    0 -0.14195104005E+03  0.66346911456E+02 -0.26990847228E+03  0.33619576713E+03  0.12500000000E+03 0.  0.
         25    1    1    2    0    0  0.14195104005E+03 -0.66346911456E+02 -0.15661520474E+03  0.25437242930E+03  0.12500000000E+03 0.  0.
</event>
<event>
 4    0  0.2250660E-002  0.2088797E+03  0.7546771E-02  0.1142456E+00
         21   -1    0    0  502  501  0.00000000000E+00  0.00000000000E+00  0.28564479643E+03  0.28564479643E+03  0.00000000000E+00 0. -1.
         21   -1    0    0  501  502 -0.00000000000E+00 -0.00000000000E+00 -0.15274464474E+03  0.15274464474E+03  0.00000000000E+00 0. -1.
         25    1    1    2    0    0  0.12283182380E+03 -0.59341931284E+02  0.16817306222E+03  0.25003259908E+03  0.12500000000E+03 0.  0.
         25    1    1    2    0    0 -0.12283182380E+03  0.59341931284E+02 -0.35272910530E+02  0.18835684210E+03  0.12500000000E+03 0.  0.
</event>
<event>
 4    0  0.2250660E-002  0.3886382E+03  0.7546771E-02  0.1047786E+00
         21   -1    0    0  502  501  0.00000000000E+00  0.00000000000E+00  0.54876677642E+02  0.54876677642E+02  0.00000000000E+00 0.  1.
         21   -1    0    0  501  502 -0.00000000000E+00 -0.00000000000E+00 -0.27523470538E+04  0.27523470538E+04  0.00000000000E+00 0. -1.
         25    1    1    2    0    0 -0.23646277719E+03  0.15725954671E+03 -0.50351331742E+03  0.59143543253E+03  0.12500000000E+03 0.  0.
         25    1    1    2    0    0  0.23646277719E+03 -0.15725954671E+03 -0.21939570588E+04  0.22157882989E+04  0.12500000000E+03 0.  0.
</event>
<event>
 4    0  0.2250660E-002  0.2015256E+03  0.7546771E-02  0.1148458E+00
         21   -1    0    0  502  501  0.00000000000E+00  0.00000000000E+00  0.29607325810E+02  0.29607325810E+02  0.00000000000E+00 0. -1.
         21   -1    0    0  501  502 -0.00000000000E+00 -0.00000000000E+00 -0.13717062160E+04  0.13717062160E+04  0.00000000000E+00 0. -1.
         25    1    1    2    0    0 -0.29826998899E+01 -0.13333446725E+03 -0.37602445551E+03  0.41809851447E+03  0.12500000000E+03 0.  0.
         25    1    1    2    0    0  0.29826998899E+01  0.13333446725E+03 -0.96607443464E+03  0.98321502730E+03  0.12500000000E+03 0.  0.
</event>
<event>
 4    0  0.2250660E-002  0.1971016E+03  0.7546771E-02  0.1152208E+00
         21   -1    0    0  502  501  0.00000000000E+00  0.00000000000E+00  0.16600704998E+03  0.16600704998E+03  0.00000000000E+00 0.  1.
         21   -1    0    0  501  502 -0.00000000000E+00 -0.00000000000E+00 -0.23402037962E+03  0.23402037962E+03  0.00000000000E+00 0.  1.
         25    1    1    2    0    0 -0.41008709600E+02 -0.63122776268E+02 -0.16847038912E+03  0.22287546110E+03  0.12500000000E+03 0.  0.
         25    1    1    2    0    0  0.41008709600E+02  0.63122776268E+02  0.10045705948E+03  0.17715196851E+03  0.12500000000E+03 0.  0.
</event>
<event>
 4    0  0.2250660E-002  0.2133348E+03  0.7546771E-02  0.1138952E+00
         21   -1    0    0  502  501  0.00000000000E+00  0.00000000000E+00  0.76423628109E+03  0.76423628109E+03  0.00000000000E+00 0. -1.
         21   -1    0    0  501  502 -0.00000000000E+00 -0.00000000000E+00 -0.59551940121E+02  0.59551940121E+02  0.00000000000E+00 0. -1.
         25    1    1    2    0    0 -0.10931531078E+03  0.83265231115E+02  0.14980931487E+03  0.23864359766E+03  0.12500000000E+03 0.  0.
         25    1    1    2    0    0  0.10931531078E+03 -0.83265231115E+02  0.55487502610E+03  0.58514462355E+03  0.12500000000E+03 0.  0.
</event>
<event>
 4    0  0.2250660E-002  0.2416369E+03  0.7546771E-02  0.1118707E+00
         21   -1    0    0  502  501  0.00000000000E+00  0.00000000000E+00  0.10495005527E+03  0.10495005527E+03  0.00000000000E+00 0. -1.
         21   -1    0    0  501  502 -0.00000000000E+00 -0.00000000000E+00 -0.55634434706E+03  0.55634434706E+03  0.00000000000E+00 0. -1.
         25    1    1    2    0    0 -0.40338698107E+02  0.95762403206E+02 -0.47034641983E+03  0.49764284691E+03  0.12500000000E+03 0.  0.
         25    1    1    2    0    0  0.40338698107E+02 -0.95762403206E+02  0.18952128037E+02  0.16365155542E+03  0.12500000000E+03 0.  0.
</event>
<event>
 4    0  0.2250660E-002  0.2481072E+03  0.7546771E-02  0.1114507E+00
         21   -1    0    0  502  501  0.00000000000E+00  0.00000000000E+00  0.12231369132E+03  0.12231369132E+03  0.00000000000E+00 0.  1.
         21   -1    0    0  501  502 -0.00000000000E+00 -0.00000000000E+00 -0.50327323573E+03  0.50327323573E+03  0.00000000000E+00 0.  1.
         25    1    1    2    0    0  0.21261487314E+03 -0.18827055599E+02 -0.16614218833E+03  0.29797276561E+03  0.12500000000E+03 0.  0.
         25    1    1    2    0    0 -0.21261487314E+03  0.18827055599E+02 -0.21481735608E+03  0.32761416144E+03  0.12500000000E+03 0.  0.
</event>
<event>
 4    0  0.2250660E-002  0.1835746E+03  0.7546771E-02  0.1164388E+00
         21   -1    0    0  502  501  0.00000000000E+00  0.00000000000E+00  0.86329367004E+02  0.86329367004E+02  0.00000000000E+00 0.  1.
         21   -1    0    0  501  502 -0.00000000000E+00 -0.00000000000E+00 -0.39036106538E+03  0.39036106538E+03  0.00000000000E+00 0.  1.
         25    1    1    2    0    0  0.21546469570E+02  0.61063596024E+02  0.95681919507E+00  0.14077971663E+03  0.12500000000E+03 0.  0.
         25    1    1    2    0    0 -0.21546469570E+02 -0.61063596024E+02 -0.30498851757E+03  0.33591071576E+03  0.12500000000E+03 0.  0.
</event>
<event>
 4    0  0.2250660E-002  0.1822153E+03  0.7546771E-02  0.1165676E+00
         21   -1    0    0  502  501  0.00000000000E+00  0.00000000000E+00  0.10438624014E+04  0.10438624014E+04  0.00000000000E+00 0.  1.
         21   -1    0    0  501  502 -0.00000000000E+00 -0.00000000000E+00 -0.31807261700E+02  0.31807261700E+02  0.00000000000E+00 0.  1.
         25    1    1    2    0    0 -0.12650951131E+03  0.39625211797E+02  0.51077845057E+03  0.54230474775E+03  0.12500000000E+03 0.  0.
         25    1    1    2    0    0  0.12650951131E+03 -0.39625211797E+02  0.50127668910E+03  0.53336491532E+03  0.12500000000E+03 0.  0.
</event>
<event>
 4    0  0.2250660E-002  0.1698859E+03  0.7546771E-02  0.1177967E+00
         21   -1    0    0  502  501  0.00000000000E+00  0.00000000000E+00  0.24254273553E+02  0.24254273553E+02  0.00000000000E+00 0. -1.
         21   -1    0    0  501  502 -0.00000000000E+00 -0.00000000000E+00 -0.11899440224E+04  0.11899440224E+04  0.00000000000E+00 0. -1.
         25    1    1    2    0    0  0.11308093913E+03 -0.19027066490E+02 -0.54953204236E+03  0.57511719991E+03  0.12500000000E+03 0.  0.
         25    1    1    2    0    0 -0.11308093913E+03  0.19027066490E+02 -0.61615770644E+03  0.63908109600E+03  0.12500000000E+03 0.  0.
</event>
<event>
 4    0  0.2250660E-002  0.1647197E+03  0.7546771E-02  0.1183469E+00
         21   -1    0    0  502  501  0.00000000000E+00  0.00000000000E+00  0.42678690086E+02  0.42678690086E+02  0.00000000000E+00 0.  1.
         21   -1    0    0  501  502 -0.00000000000E+00 -0.00000000000E+00 -0.63574068542E+03  0.63574068542E+03  0.00000000000E+00 0.  1.
         25    1    1    2    0    0  0.77510435973E+02  0.35784165502E+02 -0.43029462676E+03  0.45614344236E+03  0.12500000000E+03 0.  0.
         25    1    1    2    0    0 -0.77510435973E+02 -0.35784165502E+02 -0.16276736857E+03  0.22227593315E+03  0.12500000000E+03 0.  0.
</event>
<event>
 4    0  0.2250660E-002  0.1720059E+03  0.7546771E-02  0.1175772E+00
         21   -1    0    0  502  501  0.00000000000E+00  0.00000000000E+00  0.36637482237E+02  0.36637482237E+02  0.00000000000E+00 0. -1.
         21   -1    0    0  501  502 -0.00000000000E+00 -0.00000000000E+00 -0.80753420886E+03  0.80753420886E+03  0.00000000000E+00 0. -1.
         25    1    1    2    0    0  0.84561497043E+02 -0.66941961975E+02 -0.26701993119E+03  0.31393712222E+03  0.12500000000E+03 0.  0.
         25    1    1    2    0    0 -0.84561497043E+02  0.66941961975E+02 -0.50387679544E+03  0.53023456888E+03  0.12500000000E+03 0.  0.
</event>
<event>
 4    0  0.2250660E-002  0.3009756E+03  0.7546771E-02  0.1084754E+00
         21   -1    0    0  502  501  0.00000000000E+00  0.00000000000E+00  0.51074724520E+03  0.51074724520E+03  0.00000000000E+00 0. -1.
         21   -1    0    0  501  502 -0.00000000000E+00 -0.00000000000E+00 -0.17736038908E+03  0.17736038908E+03  0.00000000000E+00 0. -1.
         25    1    1    2    0    0  0.64535187055E+02  0.97767082387E+02 -0.11618904101E+03  0.20699779230E+03  0.12500000000E+03 0.  0.
         25    1    1    2    0    0 -0.64535187055E+02 -0.97767082387E+02  0.44957589713E+03  0.48110984198E+03  0.12500000000E+03 0.  0.
</event>
<event>
 4    0  0.2250660E-002  0.2717643E+03  0.7546771E-02  0.1100274E+00
         21   -1    0    0  502  501  0.00000000000E+00  0.00000000000E+00  0.17768824235E+03  0.17768824235E+03  0.00000000000E+00 0.  1.
         21   -1    0    0  501  502 -0.00000000000E+00 -0.00000000000E+00 -0.41564847012E+03  0.41564847012E+03  0.00000000000E+00 0.  1.
         25    1    1    2    0    0  0.11147023258E+03  0.16812054364E+03 -0.26355819179E+03  0.35465201311E+03  0.12500000000E+03 0.  0.
         25    1    1    2    0    0 -0.11147023258E+03 -0.16812054364E+03  0.25597964024E+02  0.23868469936E+03  0.12500000000E+03 0.  0.
</event>
<event>
 4    0  0.2250660E-002  0.2748811E+03  0.7546771E-02  0.1098518E+00
         21   -1    0    0  502  501  0.00000000000E+00  0.00000000000E+00  0.53286083795E+02  0.53286083795E+02  0.00000000000E+00 0. -1.
         21   -1    0    0  501  502 -0.00000000000E+00 -0.00000000000E+00 -0.14179995150E+04  0.14179995150E+04  0.00000000000E+00 0.  1.
         25    1    1    2    0    0  0.76209680718E+01 -0.20979223326E+03 -0.10194308238E+04  0.10483010373E+04  0.12500000000E+03 0.  0.
         25    1    1    2    0    0 -0.76209680718E+01  0.20979223326E+03 -0.34528260744E+03  0.42298456153E+03  0.12500000000E+03 0.  0.
</event>
<event>
 4    0  0.2250660E-002  0.2348555E+03  0.7546771E-02  0.1123268E+00
         21   -1    0    0  502  501  0.00000000000E+00  0.00000000000E+00  0.73432844607E+03  0.73432844607E+03  0.00000000000E+00 0. -1.
         21   -1    0    0  501  502 -0.00000000000E+00 -0.00000000000E+00 -0.75112339274E+02  0.75112339274E+02  0.00000000000E+00 0. -1.
         25    1    1    2    0    0  0.18643285577E+03 -0.23568199814E+02  0.21766875440E+03  0.31355598606E+03  0.12500000000E+03 0.  0.
         25    1    1    2    0    0 -0.18643285577E+03  0.23568199814E+02  0.44154735240E+03  0.49588479928E+03  0.12500000000E+03 0.  0.
</event>
<event>
 4    0  0.2250660E-002  0.1656117E+03  0.7546771E-02  0.1182503E+00
         21   -1    0    0  502  501  0.00000000000E+00  0.00000000000E+00  0.87959817154E+02  0.87959817154E+02  0.00000000000E+00 0. -1.
         21   -1    0    0  501  502 -0.00000000000E+00 -0.00000000000E+00 -0.31181566620E+03  0.31181566620E+03  0.00000000000E+00 0. -1.
         25    1    1    2    0    0 -0.10055826619E+03  0.38173168428E+01 -0.62520211730E+02  0.17222169922E+03  0.12500000000E+03 0.  0.
         25    1    1    2    0    0  0.10055826619E+03 -0.38173168428E+01 -0.16133563731E+03  0.22755378413E+03  0.12500000000E+03 0.  0.
</event>
<event>
 4    0  0.2250660E-002  0.2076433E+03  0.7546771E-02  0.1143446E+00
         21   -1    0    0  502  501  0.00000000000E+00  0.00000000000E+00  0.10713011792E+03  0.10713011792E+03  0.00000000000E+00 0. -1.
         21   -1    0    0  501  502 -0.00000000000E+00 -0.00000000000E+00 -0.40246159779E+03  0.40246159779E+03  0.00000000000E+00 0. -1.
         25    1    1    2    0    0 -0.45229516723E+02 -0.15179287678E+03 -0.87501417067E+02  0.21992790777E+03  0.12500000000E+03 0.  0.
         25    1    1    2    0    0  0.45229516723E+02  0.15179287678E+03 -0.20783006280E+03  0.28966380794E+03  0.12500000000E+03 0.  0.
</event>
<event>
 4    0  0.2250660E-002  0.2126452E+03  0.7546771E-02  0.1139488E+00
         21   -1    0    0  502  501  0.00000000000E+00  0.00000000000E+00  0.76968681358E+03  0.76968681358E+03  0.00000000000E+00 0.  1.
         21   -1    0    0  501  502 -0.00000000000E+00 -0.00000000000E+00 -0.58748529217E+02  0.58748529217E+02  0.00000000000E+00 0.  1.
         25    1    1    2    0    0  0.14152240474E+03  0.85693738221E+02  0.44726931785E+03  0.49299781997E+03  0.12500000000E+03 0.  0.
         25    1    1    2    0    0 -0.14152240474E+03 -0.85693738221E+02  0.26366896652E+03  0.33543752283E+03  0.12500000000E+03 0.  0.
</event>
<event>
 4    0  0.2250660E-002  0.2106267E+03  0.7546771E-02  0.1141071E+00
         21   -1    0    0  502  501  0.00000000000E+00  0.00000000000E+00  0.93013060182E+03  0.93013060182E+03  0.00000000000E+00 0.  1.
         21   -1    0    0  501  502 -0.00000000000E+00 -0.00000000000E+00 -0.47696121114E+02  0.47696121114E+02  0.00000000000E+00 0.  1.
         25    1    1    2    0    0  0.15377499069E+03  0.35742570848E+02  0.29785715069E+03  0.35953881758E+03  0.12500000000E+03 0.  0.
         25    1    1    2    0    0 -0.15377499069E+03 -0.35742570848E+02  0.58457733001E+03  0.61828790535E+03  0.12500000000E+03 0.  0.
</event>
<event>
 4    0  0.2250660E-002  0.2204058E+03  0.7546771E-02  0.1133581E+00
         21   -1    0    0  502  501  0.00000000000E+00  0.00000000000E+00  0.41391210998E+02  0.41391210998E+02  0.00000000000E+00 0.  1.
         21   -1    0    0  501  502 -0.00000000000E+00 -0.00000000000E+00 -0.11736482245E+04  0.11736482245E+04  0.00000000000E+00 0.  1.
         25    1    1    2    0    0 -0.15701863755E+03  0.37025398470E+02 -0.33670341101E+03  0.39372569087E+03  0.12500000000E+03 0.  0.
         25    1    1    2    0    0  0.15701863755E+03 -0.37025398470E+02 -0.79555360245E+03  0.82131374458E+03  0.12500000000E+03 0.  0.
</event>
<event>
 4    0  0.2250660E-002  0.2547687E+03  0.7546771E-02  0.1110328E+00
         21   -1    0    0  502  501  0.00000000000E+00  0.00000000000E+00  0.20584617399E+04  0.20584617399E+04  0.00000000000E+00 0.  1.
         21   -1    0    0  501  502 -0.00000000000E+00 -0.00000000000E+00 -0.31531853651E+02  0.31531853651E+02  0.00000000000E+00 0.  1.
         25    1    1    2    0    0  0.85626830343E+02  0.18654465843E+03  0.66660047905E+03  0.70859866098E+03  0.12500000000E+03 0.  0.
         25    1    1    2    0    0 -0.85626830343E+02 -0.18654465843E+03  0.13603294072E+04  0.13813949326E+04  0.12500000000E+03 0.  0.
</event>
<event>
 4    0  0.2250660E-002  0.2096044E+03  0.7546771E-02  0.1141880E+00
         21   -1    0    0  502  501  0.00000000000E+00  0.00000000000E+00  0.69810538444E+02  0.69810538444E+02  0.00000000000E+00 0.  1.
         21   -1    0    0  501  502 -0.00000000000E+00 -0.00000000000E+00 -0.62933174013E+03  0.62933174013E+03  0.00000000000E+00 0.  1.
         25    1    1    2    0    0 -0.14660480682E+03  0.75708184944E+02 -0.22484347732E+03  0.30562115101E+03  0.12500000000E+03 0.  0.
         25    1    1    2    0    0  0.14660480682E+03 -0.75708184944E+02 -0.33467772437E+03  0.39352112757E+03  0.12500000000E+03 0.  0.
</event>
<event>
 4    0  0.2250660E-002  0.1760602E+03  0.7546771E-02  0.1171671E+00
         21   -1    0    0  502  501  0.00000000000E+00  0.00000000000E+00  0.26520951105E+03  0.26520951105E+03  0.00000000000E+00 0.  1.
         21   -1    0    0  501  502 -0.00000000000E+00 -0.00000000000E+00 -0.11687811590E+03  0.11687811590E+03  0.00000000000E+00 0.  1.
         25    1    1    2    0    0  0.69902629131E+02  0.15890639186E+02  0.18393468062E+03  0.23365756291E+03  0.12500000000E+03 0.  0.
         25    1    1    2    0    0 -0.69902629131E+02 -0.15890639186E+02 -0.35603285462E+02  0.14843006403E+03  0.12500000000E+03 0.  0.
</event>
<event>
 4    0  0.2250660E-002  0.2171338E+03  0.7546771E-02  0.1136038E+00
         21   -1    0    0  502  501  0.00000000000E+00  0.00000000000E+00  0.79217622791E+02  0.79217622791E+02  0.00000000000E+00 0. -1.
         21   -1    0    0  501  502 -0.00000000000E+00 -0.00000000000E+00 -0.59515930063E+03  0.59515930063E+03  0.00000000000E+00 0. -1.
         25    1    1    2    0    0  0.15064639190E+03 -0.62488733420E+02 -0.36692828679E+03  0.42054791028E+03  0.12500000000E+03 0.  0.
         25    1    1    2    0    0 -0.15064639190E+03  0.62488733420E+02 -0.14901339105E+03  0.25382901314E+03  0.12500000000E+03 0.  0.
</event>
<event>
 4    0  0.2250660E-002  0.2893466E+03  0.7546771E-02  0.1090691E+00
         21   -1    0    0  502  501  0.00000000000E+00  0.00000000000E+00  0.90020544645E+02  0.90020544645E+02  0.00000000000E+00 0. -1.
         21   -1    0    0  501  502 -0.00000000000E+00 -0.00000000000E+00 -0.93002633372E+03  0.93002633372E+03  0.00000000000E+00 0. -1.
         25    1    1    2    0    0  0.36745247588E+02 -0.71682181398E+02  0.17509134919E+02  0.14973349043E+03  0.12500000000E+03 0.  0.
         25    1    1    2    0    0 -0.36745247588E+02  0.71682181398E+02 -0.85751492399E+03  0.87031338794E+03  0.12500000000E+03 0.  0.
</event>
<event>
 4    0  0.2250660E-002  0.2313337E+03  0.7546771E-02  0.1125705E+00
         21   -1    0    0  502  501  0.00000000000E+00  0.00000000000E+00  0.68662442379E+03  0.68662442379E+03  0.00000000000E+00 0.  1.
         21   -1    0    0  501  502 -0.00000000000E+00 -0.00000000000E+00 -0.77939701545E+02  0.77939701545E+02  0.00000000000E+00 0.  1.
         25    1    1    2    0    0 -0.11821173013E+03 -0.10970200458E+03  0.48447205476E+03  0.52568689806E+03  0.12500000000E+03 0.  0.
         25    1    1    2    0    0  0.11821173013E+03  0.10970200458E+03  0.12421266749E+03  0.23887722728E+03  0.12500000000E+03 0.  0.
</event>
<event>
 4    0  0.2250660E-002  0.2719665E+03  0.7546771E-02  0.1100159E+00
         21   -1    0    0  502  501  0.00000000000E+00  0.00000000000E+00  0.30834385642E+03  0.30834385642E+03  0.00000000000E+00 0.  1.
         21   -1    0    0  501  502 -0.00000000000E+00 -0.00000000000E+00 -0.23988078659E+03  0.23988078659E+03  0.00000000000E+00 0.  1.
         25    1    1    2    0    0 -0.41232379026E+02 -0.18207461357E+03  0.18870361536E+03  0.29340301368E+03  0.12500000000E+03 0.  0.
         25    1    1    2    0    0  0.41232379026E+02  0.18207461357E+03 -0.12024054552E+03  0.25482162933E+03  0.12500000000E+03 0.  0.
</event>
<event>
 4    0  0.2250660E-002  0.1581065E+03  0.7546771E-02  0.1190851E+00
         21   -1    0    0  502  501  0.00000000000E+00  0.00000000000E+00  0.34987552693E+03  0.34987552693E+03  0.00000000000E+00 0. -1.
         21   -1    0    0  501  502 -0.00000000000E+00 -0.00000000000E+00 -0.71447313279E+02  0.71447313279E+02  0.00000000000E+00 0. -1.
         25    1    1    2    0    0  0.25545801277E+02  0.78543106871E+02  0.20651107616E+03  0.25513414545E+03  0.12500000000E+03 0.  0.
         25    1    1    2    0    0 -0.25545801277E+02 -0.78543106871E+02  0.71917137493E+02  0.16618869476E+03  0.12500000000E+03 0.  0.
</event>
<event>
 4    0  0.2250660E-002  0.2898422E+03  0.7546771E-02  0.1090432E+00
         21   -1    0    0  502  501  0.00000000000E+00  0.00000000000E+00  0.76652899696E+03  0.76652899696E+03  0.00000000000E+00 0. -1.
         21   -1    0    0  501  502 -0.00000000000E+00 -0.00000000000E+00 -0.10959595851E+03  0.10959595851E+03  0.00000000000E+00 0. -1.
         25    1    1    2    0    0  0.92166703836E+02  0.14649256344E+02 -0.40738600434E+02  0.16122634888E+03  0.12500000000E+03 0.  0.
         25    1    1    2    0    0 -0.92166703836E+02 -0.14649256344E+02  0.69767163889E+03  0.71489860660E+03  0.12500000000E+03 0.  0.
</event>
<event>
 4    0  0.2250660E-002  0.2332908E+03  0.7546771E-02  0.1124345E+00
         21   -1    0    0  502  501  0.00000000000E+00  0.00000000000E+00  0.13991783123E+03  0.13991783123E+03  0.00000000000E+00 0.  1.
         21   -1    0    0  501  502 -0.00000000000E+00 -0.00000000000E+00 -0.38897556880E+03  0.38897556880E+03  0.00000000000E+00 0.  1.
         25    1    1    2    0    0  0.19366350995E+03  0.35899529584E+02 -0.12713521294E+03  0.26567403652E+03  0.12500000000E+03 0.  0.
         25    1    1    2    0    0 -0.19366350995E+03 -0.35899529584E+02 -0.12192252463E+03  0.26321936351E+03  0.12500000000E+03 0.  0.
</event>
<event>
 4    0  0.2250660E-002  0.2108926E+03  0.7546771E-02  0.1140861E+00
         21   -1    0    0  502  501  0.00000000000E+00  0.00000000000E+00  0.43752620881E+03  0.43752620881E+03  0.00000000000E+00 0.  1.
         21   -1    0    0  501  502 -0.00000000000E+00 -0.00000000000E+00 -0.10165263767E+03  0.10165263767E+03  0.00000000000E+00 0.  1.
         25    1    1    2    0    0 -0.80052700932E+02  0.14790812983E+03  0.19833415837E+03  0.28852502174E+03  0.12500000000E+03 0.  0.
         25    1    1    2    0    0  0.80052700932E+02 -0.14790812983E+03  0.13753941277E+03  0.25065382475E+03  0.12500000000E+03 0.  0.
</event>
<event>
 4    0  0.2250660E-002  0.2027081E+03  0.7546771E-02  0.1147474E+00
         21   -1    0    0  502  501  0.00000000000E+00  0.00000000000E+00  0.99877532662E+03  0.99877532662E+03  0.00000000000E+00 0. -1.
         21   -1    0    0  501  502 -0.00000000000E+00 -0.00000000000E+00 -0.41140962247E+02  0.41140962247E+02  0.00000000000E+00 0. -1.
         25    1    1    2    0    0  0.14375118751E+03  0.69252026484E+02  0.47289477156E+03  0.51450433628E+03  0.12500000000E+03 0.  0.
         25    1    1    2    0    0 -0.14375118751E+03 -0.69252026484E+02  0.48473959281E+03  0.52541195258E+03  0.12500000000E+03 0.  0.
</event>
<event>
 4    0  0.2250660E-002  0.1849624E+03  0.7546771E-02  0.1163085E+00
         21   -1    0    0  502  501  0.00000000000E+00  0.00000000000E+00  0.12176656252E+03  0.12176656252E+03  0.00000000000E+00 0. -1.
         21   -1    0    0  501  502 -0.00000000000E+00 -0.00000000000E+00 -0.28095628807E+03  0.28095628807E+03  0.00000000000E+00 0. -1.
         25    1    1    2    0    0 -0.69043688817E+02 -0.11662519127E+03 -0.63535160063E+02  0.19501328869E+03  0.12500000000E+03 0.  0.
         25    1    1    2    0    0  0.69043688817E+02  0.11662519127E+03 -0.95654565492E+02  0.20770956190E+03  0.12500000000E+03 0.  0.
</event>
<event>
 4    0  0.2250660E-002  0.3014786E+03  0.7546771E-02  0.1084504E+00
         21   -1    0    0  502  501  0.00000000000E+00  0.00000000000E+00  0.76040625932E+03  0.76040625932E+03  0.00000000000E+00 0. -1.
         21   -1    0    0  501  502 -0.00000000000E+00 -0.00000000000E+00 -0.11952737386E+03  0.11952737386E+03  0.00000000000E+00 0.  1.
         25    1    1    2    0    0 -0.70258725804E+02 -0.25715036337E+03  0.41503686176E+03  0.50886461318E+03  0.12500000000E+03 0.  0.
         25    1    1    2    0    0  0.70258725804E+02  0.25715036337E+03  0.22584202370E+03  0.37106902000E+03  0.12500000000E+03 0.  0.
</event>
<event>
 4    0  0.2250660E-002  0.2172064E+03  0.7546771E-02  0.1135983E+00
         21   -1    0    0  502  501  0.00000000000E+00  0.00000000000E+00  0.27771948590E+03  0.27771948590E+03  0.00000000000E+00 0.  1.
         21   -1    0    0  501  502 -0.00000000000E+00 -0.00000000000E+00 -0.16987871304E+03  0.16987871304E+03  0.00000000000E+00 0.  1.
         25    1    1    2    0    0  0.16268410848E+03 -0.71139957288E+02  0.48604710441E+02  0.22251838250E+03  0.12500000000E+03 0.  0.
         25    1    1    2    0    0 -0.16268410848E+03  0.71139957288E+02  0.59236062421E+02  0.22507981644E+03  0.12500000000E+03 0.  0.
</event>
<event>
 4    0  0.2250660E-002  0.1638469E+03  0.7546771E-02  0.1184421E+00
         21   -1    0    0  502  501  0.00000000000E+00  0.00000000000E+00  0.11138675652E+03  0.11138675652E+03  0.00000000000E+00 0.  1.
         21   -1    0    0  501  502 -0.00000000000E+00 -0.00000000000E+00 -0.24101445208E+03  0.24101445208E+03  0.00000000000E+00 0.  1.
         25    1    1    2    0    0 -0.64488377874E+02 -0.73144431948E+02 -0.20318378847E+02  0.15983333609E+03  0.12500000000E+03 0.  0.
         25    1    1    2    0    0  0.64488377874E+02  0.73144431948E+02 -0.10930931671E+03  0.19256787252E+03  0.12500000000E+03 0.  0.
</event>
<event>
 4    0  0.2250660E-002  0.2095392E+03  0.7546771E-02  0.1141931E+00
         21   -1    0    0  502  501  0.00000000000E+00  0.00000000000E+00  0.88613345808E+02  0.88613345808E+02  0.00000000000E+00 0.  1.
         21   -1    0    0  501  502 -0.00000000000E+00 -0.00000000000E+00 -0.49548611527E+03  0.49548611527E+03  0.00000000000E+00 0.  1.
         25    1    1    2    0    0 -0.14792321868E+03 -0.50243358239E+02 -0.29020923747E+03  0.35249407823E+03  0.12500000000E+03 0.  0.
         25    1    1    2    0    0  0.14792321868E+03  0.50243358239E+02 -0.11666353199E+03  0.23160538286E+03  0.12500000000E+03 0.  0.
</event>
<event>
 4    0  0.2250660E-002  0.1817695E+03  0.7546771E-02  0.1166101E+00
         21   -1    0    0  502  501  0.00000000000E+00  0.00000000000E+00  0.39818257273E+03  0.39818257273E+03  0.00000000000E+00 0. -1.
         21   -1    0    0  501  502 -0.00000000000E+00 -0.00000000000E+00 -0.82977361048E+02  0.82977361048E+02  0.00000000000E+00 0. -1.
         25    1    1    2    0    0  0.71936419363E+02 -0.79128370374E+02  0.25994427632E+03  0.30762342925E+03  0.12500000000E+03 0.  0.
         25    1    1    2    0    0 -0.71936419363E+02  0.79128370374E+02  0.55260935361E+02  0.17353650453E+03  0.12500000000E+03 0.  0.
</event>
<event>
 4    0  0.2250660E-002  0.2851842E+03  0.7546771E-02  0.1092891E+00
         21   -1    0    0  502  501  0.00000000000E+00  0.00000000000E+00  0.73435050530E+03  0.73435050530E+03  0.00000000000E+00 0. -1.
         21   -1    0    0  501  502 -0.00000000000E+00 -0.00000000000E+00 -0.11075099197E+03  0.11075099197E+03  0.00000000000E+00 0. -1.
         25    1    1    2    0    0 -0.11154309418E+03  0.20279557870E+03  0.14856542152E+03  0.30210030299E+03  0.12500000000E+03 0.  0.
         25    1    1    2    0    0  0.11154309418E+03 -0.20279557870E+03  0.47503409181E+03  0.54300119427E+03  0.12500000000E+03 0.  0.
</event>
<event>
 4    0  0.2250660E-002  0.1587343E+03  0.7546771E-02  0.1190133E+00
         21   -1    0    0  502  501  0.00000000000E+00  0.00000000000E+00  0.77503658732E+02  0.77503658732E+02  0.00000000000E+00 0. -1.
         21   -1    0    0  501  502 -0.00000000000E+00 -0.00000000000E+00 -0.32510191721E+03  0.32510191721E+03  0.00000000000E+00 0. -1.
         25    1    1    2    0    0 -0.79114032594E+02 -0.13486093672E+02 -0.52841600592E+02  0.15766464293E+03  0.12500000000E+03 0.  0.
         25    1    1    2    0    0  0.79114032594E+02  0.13486093672E+02 -0.19475665788E+03  0.24494093301E+03  0.12500000000E+03 0.  0.
</event>
<event>
 4    0  0.2250660E-002  0.1787676E+03  0.7546771E-02  0.1169001E+00
         21   -1    0    0  502  501  0.00000000000E+00  0.00000000000E+00  0.41565754703E+02  0.41565754703E+02  0.00000000000E+00 0.  1.
         21   -1    0    0  501  502 -0.00000000000E+00 -0.00000000000E+00 -0.76885024632E+03  0.76885024632E+03  0.00000000000E+00 0.  1.
         25    1    1    2    0    0  0.10276015065E+03 -0.26826355618E+02 -0.52477621337E+03  0.54981303734E+03  0.12500000000E+03 0.  0.
         25    1    1    2    0    0 -0.10276015065E+03  0.26826355618E+02 -0.20250827826E+03  0.26060296368E+03  0.12500000000E+03 0.  0.
</event>
<event>
 4    0  0.2250660E-002  0.1865514E+03  0.7546771E-02  0.1161609E+00
         21   -1    0    0  502  501  0.00000000000E+00  0.00000000000E+00  0.20748203409E+03  0.20748203409E+03  0.00000000000E+00 0. -1.
         21   -1    0    0  501  502 -0.00000000000E+00 -0.00000000000E+00 -0.16773214409E+03  0.16773214409E+03  0.00000000000E+00 0. -1.
         25    1    1    2    0    0  0.10544892404E+03  0.88072838233E+02  0.37296551598E+02  0.18945272016E+03  0.12500000000E+03 0.  0.
         25    1    1    2    0    0 -0.10544892404E+03 -0.88072838233E+02  0.24533384036E+01  0.18576145802E+03  0.12500000000E+03 0.  0.
</event>
<event>
 4    0  0.2250660E-002  0.2988096E+03  0.7546771E-02  0.1085837E+00
         21   -1    0    0  502  501  0.00000000000E+00  0.00000000000E+00  0.14487043806E+04  0.14487043806E+04  0.00000000000E+00 0.  1.
         21   -1    0    0  501  502 -0.00000000000E+00 -0.00000000000E+00 -0.61632435929E+02  0.61632435929E+02  0.00000000000E+00 0.  1.
         25    1    1    2    0    0  0.15813264639E+03  0.18493239491E+02  0.13803238984E+03  0.24500178449E+03  0.12500000000E+03 0.  0.
         25    1    1    2    0    0 -0.15813264639E+03 -0.18493239491E+02  0.12490395548E+04  0.12653350320E+04  0.12500000000E+03 0.  0.
</event>
<event>
 4    0  0.2250660E-002  0.1811926E+03  0.7546771E-02  0.1166654E+00
         21   -1    0    0  502  501  0.00000000000E+00  0.00000000000E+00  0.36339383059E+03  0.36339383059E+03  0.00000000000E+00 0.  1.
         21   -1    0    0  501  502 -0.00000000000E+00 -0.00000000000E+00 -0.90344828057E+02  0.90344828057E+02  0.00000000000E+00 0.  1.
         25    1    1    2    0    0  0.10587123300E+03  0.58043278889E+02  0.72337200336E+02  0.18824295672E+03  0.12500000000E+03 0.  0.
         25    1    1    2    0    0 -0.10587123300E+03 -0.58043278889E+02  0.20071180220E+03  0.26549570193E+03  0.12500000000E+03 0.  0.
</event>
<event>
 4    0  0.2250660E-002  0.2949855E+03  0.7546771E-02  0.1087774E+00
         21   -1    0    0  502  501  0.00000000000E+00  0.00000000000E+00  0.59455224855E+03  0.59455224855E+03  0.00000000000E+00 0.  1.
         21   -1    0    0  501  502 -0.00000000000E+00 -0.00000000000E+00 -0.14635629911E+03  0.14635629911E+03  0.00000000000E+00 0.  1.
         25    1    1    2    0    0  0.71371546542E+02  0.17532960796E+03  0.46090633966E+03  0.51370616409E+03  0.12500000000E+03 0.  0.
         25    1    1    2    0    0 -0.71371546542E+02 -0.17532960796E+03 -0.12710390223E+02  0.22720238358E+03  0.12500000000E+03 0.  0.
</event>
<event>
 4    0  0.2250660E-002  0.1478387E+03  0.7546771E-02  0.1203154E+00
         21   -1    0    0  502  501  0.00000000000E+00  0.00000000000E+00  0.19084922021E+03  0.19084922021E+03  0.00000000000E+00 0.  1.
         21   -1    0    0  501  502 -0.00000000000E+00 -0.00000000000E+00 -0.11452122195E+03  0.11452122195E+03  0.00000000000E+00 0.  1.
         25    1    1    2    0    0  0.35793508069E+01  0.78813693724E+02  0.35455856317E+02  0.15200831496E+03  0.12500000000E+03 0.  0.
         25    1    1    2    0    0 -0.35793508069E+01 -0.78813693724E+02  0.40872141946E+02  0.15336212720E+03  0.12500000000E+03 0.  0.
</event>
<event>
 4    0  0.2250660E-002  0.2541259E+03  0.7546771E-02  0.1110725E+00
         21   -1    0    0  502  501  0.00000000000E+00  0.00000000000E+00  0.12624983369E+04  0.12624983369E+04  0.00000000000E+00 0. -1.
         21   -1    0    0  501  502 -0.00000000000E+00 -0.00000000000E+00 -0.51152501888E+02  0.51152501888E+02  0.00000000000E+00 0. -1.
         25    1    1    2    0    0 -0.61777362264E+02 -0.14313900541E+03  0.10114683910E+04  0.10310181974E+04  0.12500000000E+03 0.  0.
         25    1    1    2    0    0  0.61777362264E+02  0.14313900541E+03  0.19987744400E+03  0.28263264139E+03  0.12500000000E+03 0.  0.
</event>
<event>
 4    0  0.2250660E-002  0.4249863E+03  0.7546771E-02  0.1035456E+00
         21   -1    0    0  502  501  0.00000000000E+00  0.00000000000E+00  0.81613750403E+03  0.81613750403E+03  0.00000000000E+00 0. -1.
         21   -1    0    0  501  502 -0.00000000000E+00 -0.00000000000E+00 -0.22130262460E+03  0.22130262460E+03  0.00000000000E+00 0. -1.
         25    1    1    2    0    0  0.24749646298E+03 -0.22767718459E+03  0.57547141402E+03  0.67814729073E+03  0.12500000000E+03 0.  0.
         25    1    1    2    0    0 -0.24749646298E+03  0.22767718459E+03  0.19363465415E+02  0.35929283790E+03  0.12500000000E+03 0.  0.
</event>
<event>
 4    0  0.2250660E-002  0.1827693E+03  0.7546771E-02  0.1165149E+00
         21   -1    0    0  502  501  0.00000000000E+00  0.00000000000E+00  0.54077008892E+02  0.54077008892E+02  0.00000000000E+00 0. -1.
         21   -1    0    0  501  502 -0.00000000000E+00 -0.00000000000E+00 -0.61772318101E+03  0.61772318101E+03  0.00000000000E+00 0. -1.
         25    1    1    2    0    0  0.73825931158E+01 -0.13069023236E+03 -0.23514123010E+03  0.29673361389E+03  0.12500000000E+03 0.  0.
         25    1    1    2    0    0 -0.73825931158E+01  0.13069023236E+03 -0.32850494202E+03  0.37506657602E+03  0.12500000000E+03 0.  0.
</event>
<event>
 4    0  0.2250660E-002  0.2262306E+03  0.7546771E-02  0.1129321E+00
         21   -1    0    0  502  501  0.00000000000E+00  0.00000000000E+00  0.65471474804E+03  0.65471474804E+03  0.00000000000E+00 0.  1.
         21   -1    0    0  501  502 -0.00000000000E+00 -0.00000000000E+00 -0.78171916160E+02  0.78171916160E+02  0.00000000000E+00 0.  1.
         25    1    1    2    0    0 -0.46928683734E+02 -0.21986965070E+02  0.58193659227E+03  0.59746207027E+03  0.12500000000E+03 0.  0.
         25    1    1    2    0    0  0.46928683734E+02  0.21986965070E+02 -0.53937603884E+01  0.13542459393E+03  0.12500000000E+03 0.  0.
</event>
<event>
 4    0  0.2250660E-002  0.2177330E+03  0.7546771E-02  0.1135585E+00
         21   -1    0    0  502  501  0.00000000000E+00  0.00000000000E+00  0.89505121113E+03  0.89505121113E+03  0.00000000000E+00 0.  1.
         21   -1    0    0  501  502 -0.00000000000E+00 -0.00000000000E+00 -0.52966438977E+02  0.52966438977E+02  0.00000000000E+00 0.  1.
         25    1    1    2    0    0 -0.34457189565E+02  0.90188713063E+02  0.94770050398E+02  0.18419463708E+03  0.12500000000E+03 0.  0.
         25    1    1    2    0    0  0.34457189565E+02 -0.90188713063E+02  0.74731472175E+03  0.76382301302E+03  0.12500000000E+03 0.  0.
</event>
<event>
 4    0  0.2250660E-002  0.2826474E+03  0.7546771E-02  0.1094252E+00
         21   -1    0    0  502  501  0.00000000000E+00  0.00000000000E+00  0.64978156546E+02  0.64978156546E+02  0.00000000000E+00 0. -1.
         21   -1    0    0  501  502 -0.00000000000E+00 -0.00000000000E+00 -0.12294836482E+04  0.12294836482E+04  0.00000000000E+00 0. -1.
         25    1    1    2    0    0 -0.26079597049E+02  0.61190105006E+02 -0.22094523272E+02  0.14330925403E+03  0.12500000000E+03 0.  0.
         25    1    1    2    0    0  0.26079597049E+02 -0.61190105006E+02 -0.11424109683E+04  0.11511525507E+04  0.12500000000E+03 0.  0.
</event>
<event>
 4    0  0.2250660E-002  0.2869745E+03  0.7546771E-02  0.1091939E+00
         21   -1    0    0  502  501  0.00000000000E+00  0.00000000000E+00  0.18239158119E+03  0.18239158119E+03  0.00000000000E+00 0.  1.
         21   -1    0    0  501  502 -0.00000000000E+00 -0.00000000000E+00 -0.45152517868E+03  0.45152517868E+03  0.00000000000E+00 0.  1.
         25    1    1    2    0    0 -0.16775928156E+03  0.11317706061E+03  0.42760850176E+02  0.24167274134E+03  0.12500000000E+03 0.  0.
         25    1    1    2    0    0  0.16775928156E+03 -0.11317706061E+03 -0.31189444766E+03  0.39224401854E+03  0.12500000000E+03 0.  0.
</event>
<event>
 4    0  0.2250660E-002  0.2171343E+03  0.7546771E-02  0.1136038E+00
         21   -1    0    0  502  501  0.00000000000E+00  0.00000000000E+00  0.75881686316E+02  0.75881686316E+02  0.00000000000E+00 0. -1.
         21   -1    0    0  501  502 -0.00000000000E+00 -0.00000000000E+00 -0.62132675408E+03  0.62132675408E+03  0.00000000000E+00 0. -1.
         25    1    1    2    0    0 -0.27448443191E+02 -0.56573278375E+02 -0.61535216061E+01  0.14006005386E+03  0.12500000000E+03 0.  0.
         25    1    1    2    0    0  0.27448443191E+02  0.56573278375E+02 -0.53929154615E+03  0.55714838653E+03  0.12500000000E+03 0.  0.
</event>
<event>
 4    0  0.2250660E-002  0.2229302E+03  0.7546771E-02  0.1131717E+00
         21   -1    0    0  502  501  0.00000000000E+00  0.00000000000E+00  0.60052962320E+03  0.60052962320E+03  0.00000000000E+00 0. -1.
         21   -1    0    0  501  502 -0.00000000000E+00 -0.00000000000E+00 -0.82756753286E+02  0.82756753286E+02  0.00000000000E+00 0. -1.
         25    1    1    2    0    0  0.16550218361E+03  0.58492234949E+02  0.34639497265E+03  0.40795439868E+03  0.12500000000E+03 0.  0.
         25    1    1    2    0    0 -0.16550218361E+03 -0.58492234949E+02  0.17137789727E+03  0.27533197780E+03  0.12500000000E+03 0.  0.
</event>
<event>
 4    0  0.2250660E-002  0.1654243E+03  0.7546771E-02  0.1182705E+00
         21   -1    0    0  502  501  0.00000000000E+00  0.00000000000E+00  0.54380380996E+02  0.54380380996E+02  0.00000000000E+00 0. -1.
         21   -1    0    0  501  502 -0.00000000000E+00 -0.00000000000E+00 -0.50321850598E+03  0.50321850598E+03  0.00000000000E+00 0. -1.
         25    1    1    2    0    0  0.65929126168E+02 -0.85426941185E+02 -0.20792300958E+03  0.26552097821E+03  0.12500000000E+03 0.  0.
         25    1    1    2    0    0 -0.65929126168E+02  0.85426941185E+02 -0.24091511540E+03  0.29207790876E+03  0.12500000000E+03 0.  0.
</event>
<event>
 4    0  0.2250660E-002  0.3097591E+03  0.7546771E-02  0.1080461E+00
         21   -1    0    0  502  501  0.00000000000E+00  0.00000000000E+00  0.45044184372E+03  0.45044184372E+03  0.00000000000E+00 0.  1.
         21   -1    0    0  501  502 -0.00000000000E+00 -0.00000000000E+00 -0.21301456602E+03  0.21301456602E+03  0.00000000000E+00 0.  1.
         25    1    1    2    0    0 -0.28482851642E+02  0.50837100243E+02 -0.17832040153E+03  0.22543036441E+03  0.12500000000E+03 0.  0.
         25    1    1    2    0    0  0.28482851642E+02 -0.50837100243E+02  0.41574767923E+03  0.43802604533E+03  0.12500000000E+03 0.  0.
</event>
<event>
 4    0  0.2250660E-002  0.2058059E+03  0.7546771E-02  0.1144931E+00
         21   -1    0    0  502  501  0.00000000000E+00  0.00000000000E+00  0.11610578388E+03  0.11610578388E+03  0.00000000000E+00 0. -1.
         21   -1    0    0  501  502 -0.00000000000E+00 -0.00000000000E+00 -0.36480586538E+03  0.36480586538E+03  0.00000000000E+00 0. -1.
         25    1    1    2    0    0 -0.98522403091E+02 -0.42794839730E+02 -0.26836226626E+03  0.31493073551E+03  0.12500000000E+03 0.  0.
         25    1    1    2    0    0  0.98522403091E+02  0.42794839730E+02  0.19662184766E+02  0.16598091375E+03  0.12500000000E+03 0.  0.
</event>
<event>
 4    0  0.2250660E-002  0.2214538E+03  0.7546771E-02  0.1132804E+00
         21   -1    0    0  502  501  0.00000000000E+00  0.00000000000E+00  0.99871280222E+02  0.99871280222E+02  0.00000000000E+00 0.  1.
         21   -1    0    0  501  502 -0.00000000000E+00 -0.00000000000E+00 -0.49105011161E+03  0.49105011161E+03  0.00000000000E+00 0.  1.
         25    1    1    2    0    0  0.38438888033E+02  0.57797538378E+02  0.30036844500E+02  0.14610036134E+03  0.12500000000E+03 0.  0.
         25    1    1    2    0    0 -0.38438888033E+02 -0.57797538378E+02 -0.42121567589E+03  0.44482103049E+03  0.12500000000E+03 0.  0.
</event>
<event>
 4    0  0.2250660E-002  0.2851493E+03  0.7546771E-02  0.1092909E+00
         21   -1    0    0  502  501  0.00000000000E+00  0.00000000000E+00  0.11106715707E+03  0.11106715707E+03  0.00000000000E+00 0.  1.
         21   -1    0    0  501  502 -0.00000000000E+00 -0.00000000000E+00 -0.73208073025E+03  0.73208073025E+03  0.00000000000E+00 0.  1.
         25    1    1    2    0    0 -0.16070960151E+03  0.10179409532E+03 -0.56441655630E+03  0.60858907555E+03  0.12500000000E+03 0.  0.
         25    1    1    2    0    0  0.16070960151E+03 -0.10179409532E+03 -0.56597016891E+02  0.23455881177E+03  0.12500000000E+03 0.  0.
</event>
<event>
 4    0  0.2250660E-002  0.1744228E+03  0.7546771E-02  0.1173313E+00
         21   -1    0    0  502  501  0.00000000000E+00  0.00000000000E+00  0.95650872427E+02  0.95650872427E+02  0.00000000000E+00 0.  1.
         21   -1    0    0  501  502 -0.00000000000E+00 -0.00000000000E+00 -0.31806615836E+03  0.31806615836E+03  0.00000000000E+00 0.  1.
         25    1    1    2    0    0 -0.10931959657E+03  0.21270811847E+02 -0.16924806614E+03  0.23806118861E+03  0.12500000000E+03 0.  0.
         25    1    1    2    0    0  0.10931959657E+03 -0.21270811847E+02 -0.53167219795E+02  0.17565584218E+03  0.12500000000E+03 0.  0.
</event>
<event>
 4    0  0.2250660E-002  0.2206435E+03  0.7546771E-02  0.1133404E+00
         21   -1    0    0  502  501  0.00000000000E+00  0.00000000000E+00  0.42195158134E+03  0.42195158134E+03  0.00000000000E+00 0.  1.
         21   -1    0    0  501  502 -0.00000000000E+00 -0.00000000000E+00 -0.11537709627E+03  0.11537709627E+03  0.00000000000E+00 0.  1.
         25    1    1    2    0    0  0.72898899139E+01  0.12007795908E+03 -0.12717285370E+02  0.17394995860E+03  0.12500000000E+03 0.  0.
         25    1    1    2    0    0 -0.72898899139E+01 -0.12007795908E+03  0.31929177044E+03  0.36337871900E+03  0.12500000000E+03 0.  0.
</event>
<event>
 4    0  0.2250660E-002  0.1791091E+03  0.7546771E-02  0.1168668E+00
         21   -1    0    0  502  501  0.00000000000E+00  0.00000000000E+00  0.18616822088E+03  0.18616822088E+03  0.00000000000E+00 0.  1.
         21   -1    0    0  501  502 -0.00000000000E+00 -0.00000000000E+00 -0.17231757878E+03  0.17231757878E+03  0.00000000000E+00 0.  1.
         25    1    1    2    0    0  0.35936204791E+02  0.43020109517E+02  0.12239314947E+03  0.18370417435E+03  0.12500000000E+03 0.  0.
         25    1    1    2    0    0 -0.35936204791E+02 -0.43020109517E+02 -0.10854250737E+03  0.17478162530E+03  0.12500000000E+03 0.  0.
</event>
<event>
 4    0  0.2250660E-002  0.4063187E+03  0.7546771E-02  0.1041613E+00
         21   -1    0    0  502  501  0.00000000000E+00  0.00000000000E+00  0.11958148944E+03  0.11958148944E+03  0.00000000000E+00 0. -1.
         21   -1    0    0  501  502 -0.00000000000E+00 -0.00000000000E+00 -0.13806058401E+04  0.13806058401E+04  0.00000000000E+00 0.  1.
         25    1    1    2    0    0 -0.63516980717E+01  0.32529038130E+03 -0.24497148526E+03  0.42601667200E+03  0.12500000000E+03 0.  0.
         25    1    1    2    0    0  0.63516980717E+01 -0.32529038130E+03 -0.10160528653E+04  0.10741706575E+04  0.12500000000E+03 0.  0.
</event>
<event>
 4    0  0.2250660E-002  0.1993371E+03  0.7546771E-02  0.1150300E+00
         21   -1    0    0  502  501  0.00000000000E+00  0.00000000000E+00  0.11283113138E+04  0.11283113138E+04  0.00000000000E+00 0. -1.
         21   -1    0    0  501  502 -0.00000000000E+00 -0.00000000000E+00 -0.35216575150E+02  0.35216575150E+02  0.00000000000E+00 0. -1.
         25    1    1    2    0    0 -0.11427144207E+03 -0.10218570206E+03  0.47444344239E+03  0.51402476614E+03  0.12500000000E+03 0.  0.
         25    1    1    2    0    0  0.11427144207E+03  0.10218570206E+03  0.61865129627E+03  0.64950312282E+03  0.12500000000E+03 0.  0.
</event>
<event>
 4    0  0.2250660E-002  0.2408769E+03  0.7546771E-02  0.1119210E+00
         21   -1    0    0  502  501  0.00000000000E+00  0.00000000000E+00  0.50615195887E+03  0.50615195887E+03  0.00000000000E+00 0.  1.
         21   -1    0    0  501  502 -0.00000000000E+00 -0.00000000000E+00 -0.11463297392E+03  0.11463297392E+03  0.00000000000E+00 0.  1.
         25    1    1    2    0    0 -0.17169646681E+03 -0.21649874853E+02  0.33953044082E+03  0.40106647085E+03  0.12500000000E+03 0.  0.
         25    1    1    2    0    0  0.17169646681E+03  0.21649874853E+02  0.51988544119E+02  0.21971846194E+03  0.12500000000E+03 0.  0.
</event>
<event>
 4    0  0.2250660E-002  0.2187460E+03  0.7546771E-02  0.1134821E+00
         21   -1    0    0  502  501  0.00000000000E+00  0.00000000000E+00  0.34031921598E+03  0.34031921598E+03  0.00000000000E+00 0.  1.
         21   -1    0    0  501  502 -0.00000000000E+00 -0.00000000000E+00 -0.14060277404E+03  0.14060277404E+03  0.00000000000E+00 0.  1.
         25    1    1    2    0    0 -0.16285441817E+03 -0.66494187363E+02  0.13921435677E+03  0.25680474217E+03  0.12500000000E+03 0.  0.
         25    1    1    2    0    0  0.16285441817E+03  0.66494187363E+02  0.60502085174E+02  0.22411724785E+03  0.12500000000E+03 0.  0.
</event>
<event>
 4    0  0.2250660E-002  0.3391321E+03  0.7546771E-02  0.1067166E+00
         21   -1    0    0  502  501  0.00000000000E+00  0.00000000000E+00  0.13281440255E+03  0.13281440255E+03  0.00000000000E+00 0. -1.
         21   -1    0    0  501  502 -0.00000000000E+00 -0.00000000000E+00 -0.86594948331E+03  0.86594948331E+03  0.00000000000E+00 0.  1.
         25    1    1    2    0    0  0.19447144558E+03  0.24594520249E+03 -0.41490100399E+03  0.53486075654E+03  0.12500000000E+03 0.  0.
         25    1    1    2    0    0 -0.19447144558E+03 -0.24594520249E+03 -0.31823407676E+03  0.46390312932E+03  0.12500000000E+03 0.  0.
</event>
<event>
 4    0  0.2250660E-002  0.2667894E+03  0.7546771E-02  0.1103131E+00
         21   -1    0    0  502  501  0.00000000000E+00  0.00000000000E+00  0.84682749136E+03  0.84682749136E+03  0.00000000000E+00 0.  1.
         21   -1    0    0  501  502 -0.00000000000E+00 -0.00000000000E+00 -0.84050865637E+02  0.84050865637E+02  0.00000000000E+00 0.  1.
         25    1    1    2    0    0  0.70027475869E+02  0.14815820511E+03  0.85851402909E+02  0.22327150401E+03  0.12500000000E+03 0.  0.
         25    1    1    2    0    0 -0.70027475869E+02 -0.14815820511E+03  0.67692522281E+03  0.70760685299E+03  0.12500000000E+03 0.  0.
</event>
<event>
 4    0  0.2250660E-002  0.1428011E+03  0.7546771E-02  0.1209609E+00
         21   -1    0    0  502  501  0.00000000000E+00  0.00000000000E+00  0.41732662861E+02  0.41732662861E+02  0.00000000000E+00 0. -1.
         21   -1    0    0  501  502 -0.00000000000E+00 -0.00000000000E+00 -0.48863778426E+03  0.48863778426E+03  0.00000000000E+00 0. -1.
         25    1    1    2    0    0  0.31728446267E+02 -0.56519103425E+02 -0.17927048374E+03  0.22795615739E+03  0.12500000000E+03 0.  0.
         25    1    1    2    0    0 -0.31728446267E+02  0.56519103425E+02 -0.26763463766E+03  0.30241428972E+03  0.12500000000E+03 0.  0.
</event>
<event>
 4    0  0.2250660E-002  0.2940678E+03  0.7546771E-02  0.1088244E+00
         21   -1    0    0  502  501  0.00000000000E+00  0.00000000000E+00  0.69172376727E+02  0.69172376727E+02  0.00000000000E+00 0.  1.
         21   -1    0    0  501  502 -0.00000000000E+00 -0.00000000000E+00 -0.12501507090E+04  0.12501507090E+04  0.00000000000E+00 0.  1.
         25    1    1    2    0    0 -0.58868478481E+02 -0.20531514249E+03 -0.23416798405E+03  0.34070434433E+03  0.12500000000E+03 0.  0.
         25    1    1    2    0    0  0.58868478481E+02  0.20531514249E+03 -0.94681034825E+03  0.97861874142E+03  0.12500000000E+03 0.  0.
</event>
<event>
 4    0  0.2250660E-002  0.1654340E+03  0.7546771E-02  0.1182695E+00
         21   -1    0    0  502  501  0.00000000000E+00  0.00000000000E+00  0.17168995334E+03  0.17168995334E+03  0.00000000000E+00 0. -1.
         21   -1    0    0  501  502 -0.00000000000E+00 -0.00000000000E+00 -0.15940595352E+03  0.15940595352E+03  0.00000000000E+00 0. -1.
         25    1    1    2    0    0 -0.57227592951E+01  0.84761230809E+01 -0.10181562524E+03  0.16154261413E+03  0.12500000000E+03 0.  0.
         25    1    1    2    0    0  0.57227592951E+01 -0.84761230809E+01  0.11409962506E+03  0.16955329273E+03  0.12500000000E+03 0.  0.
</event>
<event>
 4    0  0.2250660E-002  0.3173542E+03  0.7546771E-02  0.1076873E+00
         21   -1    0    0  502  501  0.00000000000E+00  0.00000000000E+00  0.40461073818E+03  0.40461073818E+03  0.00000000000E+00 0.  1.
         21   -1    0    0  501  502 -0.00000000000E+00 -0.00000000000E+00 -0.24891497206E+03  0.24891497206E+03  0.00000000000E+00 0.  1.
         25    1    1    2    0    0 -0.15392165120E+02  0.13333520382E+03 -0.18881580073E+03  0.26323298033E+03  0.12500000000E+03 0.  0.
         25    1    1    2    0    0  0.15392165120E+02 -0.13333520382E+03  0.34451156686E+03  0.39029272991E+03  0.12500000000E+03 0.  0.
</event>
<event>
 4    0  0.2250660E-002  0.2098379E+03  0.7546771E-02  0.1141694E+00
         21   -1    0    0  502  501  0.00000000000E+00  0.00000000000E+00  0.44321285042E+03  0.44321285042E+03  0.00000000000E+00 0.  1.
         21   -1    0    0  501  502 -0.00000000000E+00 -0.00000000000E+00 -0.99347190314E+02  0.99347190314E+02  0.00000000000E+00 0.  1.
         25    1    1    2    0    0  0.88061279925E+02  0.13745525405E+03  0.22614164291E+03  0.30563667736E+03  0.12500000000E+03 0.  0.
         25    1    1    2    0    0 -0.88061279925E+02 -0.13745525405E+03  0.11772401720E+03  0.23692336338E+03  0.12500000000E+03 0.  0.
</event>
<event>
 4    0  0.2250660E-002  0.2113300E+03  0.7546771E-02  0.1140517E+00
         21   -1    0    0  502  501  0.00000000000E+00  0.00000000000E+00  0.15393552402E+03  0.15393552402E+03  0.00000000000E+00 0. -1.
         21   -1    0    0  501  502 -0.00000000000E+00 -0.00000000000E+00 -0.29012394907E+03  0.29012394907E+03  0.00000000000E+00 0. -1.
         25    1    1    2    0    0  0.10964269524E+03  0.96965272637E+02  0.23567471340E+02  0.19391805079E+03  0.12500000000E+03 0.  0.
         25    1    1    2    0    0 -0.10964269524E+03 -0.96965272637E+02 -0.15975589639E+03  0.25014142229E+03  0.12500000000E+03 0.  0.
</event>
<event>
 4    0  0.2250660E-002  0.1758067E+03  0.7546771E-02  0.1171924E+00
         21   -1    0    0  502  501  0.00000000000E+00  0.00000000000E+00  0.20292097798E+04  0.20292097798E+04  0.00000000000E+00 0.  1.
         21   -1    0    0  501  502 -0.00000000000E+00 -0.00000000000E+00 -0.15231542799E+02  0.15231542799E+02  0.00000000000E+00 0.  1.
         25    1    1    2    0    0 -0.79273947587E+02  0.79126166414E+02  0.13112184627E+04  0.13219168529E+04  0.12500000000E+03 0.  0.
         25    1    1    2    0    0  0.79273947587E+02 -0.79126166414E+02  0.70275977423E+03  0.72252446966E+03  0.12500000000E+03 0.  0.
</event>
<event>
 4    0  0.2250660E-002  0.3721796E+03  0.7546771E-02  0.1053863E+00
         21   -1    0    0  502  501  0.00000000000E+00  0.00000000000E+00  0.20094652871E+03  0.20094652871E+03  0.00000000000E+00 0. -1.
         21   -1    0    0  501  502 -0.00000000000E+00 -0.00000000000E+00 -0.68932593520E+03  0.68932593520E+03  0.00000000000E+00 0. -1.
         25    1    1    2    0    0  0.15525007862E+03  0.31297075913E+03 -0.27884082686E+03  0.46414490163E+03  0.12500000000E+03 0.  0.
         25    1    1    2    0    0 -0.15525007862E+03 -0.31297075913E+03 -0.20953857963E+03  0.42612756228E+03  0.12500000000E+03 0.  0.
</event>
<event>
 4    0  0.2250660E-002  0.2248595E+03  0.7546771E-02  0.1130311E+00
         21   -1    0    0  502  501  0.00000000000E+00  0.00000000000E+00  0.37086099060E+03  0.37086099060E+03  0.00000000000E+00 0. -1.
         21   -1    0    0  501  502 -0.00000000000E+00 -0.00000000000E+00 -0.13633622950E+03  0.13633622950E+03  0.00000000000E+00 0. -1.
         25    1    1    2    0    0 -0.11054078025E+03 -0.94198405842E+02 -0.15437140428E+02  0.19223919753E+03  0.12500000000E+03 0.  0.
         25    1    1    2    0    0  0.11054078025E+03  0.94198405842E+02  0.24996190153E+03  0.31495802257E+03  0.12500000000E+03 0.  0.
</event>
<event>
 4    0  0.2250660E-002  0.2007484E+03  0.7546771E-02  0.1149109E+00
         21   -1    0    0  502  501  0.00000000000E+00  0.00000000000E+00  0.38777975035E+02  0.38777975035E+02  0.00000000000E+00 0.  1.
         21   -1    0    0  501  502 -0.00000000000E+00 -0.00000000000E+00 -0.10392478338E+04  0.10392478338E+04  0.00000000000E+00 0.  1.
         25    1    1    2    0    0 -0.14085122211E+03 -0.67161801675E+02 -0.54865109258E+03  0.58394588427E+03  0.12500000000E+03 0.  0.
         25    1    1    2    0    0  0.14085122211E+03  0.67161801675E+02 -0.45181876617E+03  0.49407992454E+03  0.12500000000E+03 0.  0.
</event>
<event>
 4    0  0.2250660E-002  0.2847635E+03  0.7546771E-02  0.1093115E+00
         21   -1    0    0  502  501  0.00000000000E+00  0.00000000000E+00  0.36711465375E+03  0.36711465375E+03  0.00000000000E+00 0. -1.
         21   -1    0    0  501  502 -0.00000000000E+00 -0.00000000000E+00 -0.22088535083E+03  0.22088535083E+03  0.00000000000E+00 0. -1.
         25    1    1    2    0    0 -0.19534605401E+03  0.10411173610E+03  0.20559636811E+03  0.32694678617E+03  0.12500000000E+03 0.  0.
         25    1    1    2    0    0  0.19534605401E+03 -0.10411173610E+03 -0.59367065188E+02  0.26105321841E+03  0.12500000000E+03 0.  0.
</event>
<event>
 4    0  0.2250660E-002  0.2373480E+03  0.7546771E-02  0.1121572E+00
         21   -1    0    0  502  501  0.00000000000E+00  0.00000000000E+00  0.21586907975E+03  0.21586907975E+03  0.00000000000E+00 0.  1.
         21   -1    0    0  501  502 -0.00000000000E+00 -0.00000000000E+00 -0.26096403568E+03  0.26096403568E+03  0.00000000000E+00 0.  1.
         25    1    1    2    0    0 -0.62208349489E+01 -0.12508965504E+03  0.13635112524E+03  0.22338923416E+03  0.12500000000E+03 0.  0.
         25    1    1    2    0    0  0.62208349489E+01  0.12508965504E+03 -0.18144608117E+03  0.25344388128E+03  0.12500000000E+03 0.  0.
</event>
<event>
 4    0  0.2250660E-002  0.2801088E+03  0.7546771E-02  0.1095630E+00
         21   -1    0    0  502  501  0.00000000000E+00  0.00000000000E+00  0.36388080825E+03  0.36388080825E+03  0.00000000000E+00 0.  1.
         21   -1    0    0  501  502 -0.00000000000E+00 -0.00000000000E+00 -0.21562259013E+03  0.21562259013E+03  0.00000000000E+00 0.  1.
         25    1    1    2    0    0 -0.11043697405E+03  0.16426301963E+03  0.23323325091E+03  0.33045637259E+03  0.12500000000E+03 0.  0.
         25    1    1    2    0    0  0.11043697405E+03 -0.16426301963E+03 -0.84975032787E+02  0.24904702579E+03  0.12500000000E+03 0.  0.
</event>
<event>
 4    0  0.2250660E-002  0.2683015E+03  0.7546771E-02  0.1102256E+00
         21   -1    0    0  502  501  0.00000000000E+00  0.00000000000E+00  0.43524119184E+03  0.43524119184E+03  0.00000000000E+00 0.  1.
         21   -1    0    0  501  502 -0.00000000000E+00 -0.00000000000E+00 -0.16539263474E+03  0.16539263474E+03  0.00000000000E+00 0.  1.
         25    1    1    2    0    0 -0.10740562998E+03 -0.34534165425E+02 -0.98883964661E+02  0.19527318403E+03  0.12500000000E+03 0.  0.
         25    1    1    2    0    0  0.10740562998E+03  0.34534165425E+02  0.36873252176E+03  0.40536064256E+03  0.12500000000E+03 0.  0.
</event>
<event>
 4    0  0.2250660E-002  0.1699424E+03  0.7546771E-02  0.1177908E+00
         21   -1    0    0  502  501  0.00000000000E+00  0.00000000000E+00  0.20968067450E+03  0.20968067450E+03  0.00000000000E+00 0.  1.
         21   -1    0    0  501  502 -0.00000000000E+00 -0.00000000000E+00 -0.13773521807E+03  0.13773521807E+03  0.00000000000E+00 0.  1.
         25    1    1    2    0    0 -0.31167109413E+02  0.68849847314E+02  0.12475185239E+03  0.19209298493E+03  0.12500000000E+03 0.  0.
         25    1    1    2    0    0  0.31167109413E+02 -0.68849847314E+02 -0.52806395959E+02  0.15532290764E+03  0.12500000000E+03 0.  0.
</event>
<event>
 4    0  0.2250660E-002  0.2224069E+03  0.7546771E-02  0.1132101E+00
         21   -1    0    0  502  501  0.00000000000E+00  0.00000000000E+00  0.16420924876E+03  0.16420924876E+03  0.00000000000E+00 0. -1.
         21   -1    0    0  501  502 -0.00000000000E+00 -0.00000000000E+00 -0.30123059734E+03  0.30123059734E+03  0.00000000000E+00 0. -1.
         25    1    1    2    0    0  0.59357914990E+01  0.55083615930E+02 -0.25205960962E+03  0.28675509615E+03  0.12500000000E+03 0.  0.
         25    1    1    2    0    0 -0.59357914990E+01 -0.55083615930E+02  0.11503826104E+03  0.17868474996E+03  0.12500000000E+03 0.  0.
</event>
<event>
 4    0  0.2250660E-002  0.2135141E+03  0.7546771E-02  0.1138813E+00
         21   -1    0    0  502  501  0.00000000000E+00  0.00000000000E+00  0.27823240507E+02  0.27823240507E+02  0.00000000000E+00 0.  1.
         21   -1    0    0  501  502 -0.00000000000E+00 -0.00000000000E+00 -0.16384960571E+04  0.16384960571E+04  0.00000000000E+00 0. -1.
         25    1    1    2    0    0 -0.17150612692E+03 -0.23074582227E+02 -0.78949455641E+03  0.81784683317E+03  0.12500000000E+03 0.  0.
         25    1    1    2    0    0  0.17150612692E+03  0.23074582227E+02 -0.82117826017E+03  0.84847246443E+03  0.12500000000E+03 0.  0.
</event>
<event>
 4    0  0.2250660E-002  0.1954607E+03  0.7546771E-02  0.1153626E+00
         21   -1    0    0  502  501  0.00000000000E+00  0.00000000000E+00  0.77973786165E+02  0.77973786165E+02  0.00000000000E+00 0.  1.
         21   -1    0    0  501  502 -0.00000000000E+00 -0.00000000000E+00 -0.48997080118E+03  0.48997080118E+03  0.00000000000E+00 0.  1.
         25    1    1    2    0    0 -0.12750842098E+03 -0.21628958053E+02 -0.94843086679E+02  0.20333819203E+03  0.12500000000E+03 0.  0.
         25    1    1    2    0    0  0.12750842098E+03  0.21628958053E+02 -0.31715392834E+03  0.36460639532E+03  0.12500000000E+03 0.  0.
</event>
<event>
 4    0  0.2250660E-002  0.3800060E+03  0.7546771E-02  0.1050932E+00
         21   -1    0    0  502  501  0.00000000000E+00  0.00000000000E+00  0.55838148401E+03  0.55838148401E+03  0.00000000000E+00 0. -1.
         21   -1    0    0  501  502 -0.00000000000E+00 -0.00000000000E+00 -0.25861272125E+03  0.25861272125E+03  0.00000000000E+00 0. -1.
         25    1    1    2    0    0  0.10985125421E+02  0.27989577350E+03  0.39101753800E+03  0.49697286850E+03  0.12500000000E+03 0.  0.
         25    1    1    2    0    0 -0.10985125421E+02 -0.27989577350E+03 -0.91248775232E+02  0.32002133676E+03  0.12500000000E+03 0.  0.
</event>
<event>
 4    0  0.2250660E-002  0.2257210E+03  0.7546771E-02  0.1129688E+00
         21   -1    0    0  502  501  0.00000000000E+00  0.00000000000E+00  0.70007804916E+03  0.70007804916E+03  0.00000000000E+00 0.  1.
         21   -1    0    0  501  502 -0.00000000000E+00 -0.00000000000E+00 -0.72777585386E+02  0.72777585386E+02  0.00000000000E+00 0.  1.
         25    1    1    2    0    0 -0.12560311606E+03 -0.11507874040E+03  0.44959548305E+03  0.49676992425E+03  0.12500000000E+03 0.  0.
         25    1    1    2    0    0  0.12560311606E+03  0.11507874040E+03  0.17770498072E+03  0.27608571030E+03  0.12500000000E+03 0.  0.
</event>
<event>
 4    0  0.2250660E-002  0.1939729E+03  0.7546771E-02  0.1154926E+00
         21   -1    0    0  502  501  0.00000000000E+00  0.00000000000E+00  0.38950373023E+02  0.38950373023E+02  0.00000000000E+00 0.  1.
         21   -1    0    0  501  502 -0.00000000000E+00 -0.00000000000E+00 -0.96598530222E+03  0.96598530222E+03  0.00000000000E+00 0.  1.
         25    1    1    2    0    0 -0.99059774531E-02 -0.88153034489E+02 -0.15451461795E+03  0.21741831741E+03  0.12500000000E+03 0.  0.
         25    1    1    2    0    0  0.99059774531E-02  0.88153034489E+02 -0.77252031125E+03  0.78751735782E+03  0.12500000000E+03 0.  0.
</event>
<event>
 4    0  0.2250660E-002  0.1555350E+03  0.7546771E-02  0.1193832E+00
         21   -1    0    0  502  501  0.00000000000E+00  0.00000000000E+00  0.59997013505E+03  0.59997013505E+03  0.00000000000E+00 0.  1.
         21   -1    0    0  501  502 -0.00000000000E+00 -0.00000000000E+00 -0.40320567474E+02  0.40320567474E+02  0.00000000000E+00 0.  1.
         25    1    1    2    0    0  0.18263807291E+02 -0.55098019381E+02  0.42820846612E+03  0.44984091505E+03  0.12500000000E+03 0.  0.
         25    1    1    2    0    0 -0.18263807291E+02  0.55098019381E+02  0.13144110145E+03  0.19044978747E+03  0.12500000000E+03 0.  0.
</event>
<event>
 4    0  0.2250660E-002  0.1896852E+03  0.7546771E-02  0.1158746E+00
         21   -1    0    0  502  501  0.00000000000E+00  0.00000000000E+00  0.19891296009E+03  0.19891296009E+03  0.00000000000E+00 0. -1.
         21   -1    0    0  501  502 -0.00000000000E+00 -0.00000000000E+00 -0.18088543513E+03  0.18088543513E+03  0.00000000000E+00 0. -1.
         25    1    1    2    0    0 -0.11791797714E+03 -0.80293758532E+02  0.70827660276E+01  0.18980754086E+03  0.12500000000E+03 0.  0.
         25    1    1    2    0    0  0.11791797714E+03  0.80293758532E+02  0.10944758930E+02  0.18999085436E+03  0.12500000000E+03 0.  0.
</event>
<event>
 4    0  0.2250660E-002  0.1909013E+03  0.7546771E-02  0.1157651E+00
         21   -1    0    0  502  501  0.00000000000E+00  0.00000000000E+00  0.19528329152E+03  0.19528329152E+03  0.00000000000E+00 0. -1.
         21   -1    0    0  501  502 -0.00000000000E+00 -0.00000000000E+00 -0.18661764308E+03  0.18661764308E+03  0.00000000000E+00 0. -1.
         25    1    1    2    0    0 -0.48501409888E+02  0.18317352525E+02 -0.13035100965E+03  0.18789437959E+03  0.12500000000E+03 0.  0.
         25    1    1    2    0    0  0.48501409888E+02 -0.18317352525E+02  0.13901665808E+03  0.19400655501E+03  0.12500000000E+03 0.  0.
</event>
<event>
 4    0  0.2250660E-002  0.1730865E+03  0.7546771E-02  0.1174667E+00
         21   -1    0    0  502  501  0.00000000000E+00  0.00000000000E+00  0.37268503825E+03  0.37268503825E+03  0.00000000000E+00 0. -1.
         21   -1    0    0  501  502 -0.00000000000E+00 -0.00000000000E+00 -0.80386735103E+02  0.80386735103E+02  0.00000000000E+00 0. -1.
         25    1    1    2    0    0 -0.11064171928E+03 -0.68395348550E+01  0.86954783318E+02  0.18834676430E+03  0.12500000000E+03 0.  0.
         25    1    1    2    0    0  0.11064171928E+03  0.68395348550E+01  0.20534351983E+03  0.26472500905E+03  0.12500000000E+03 0.  0.
</event>
<event>
 4    0  0.2250660E-002  0.1984903E+03  0.7546771E-02  0.1151019E+00
         21   -1    0    0  502  501  0.00000000000E+00  0.00000000000E+00  0.24685945273E+03  0.24685945273E+03  0.00000000000E+00 0. -1.
         21   -1    0    0  501  502 -0.00000000000E+00 -0.00000000000E+00 -0.15959856420E+03  0.15959856420E+03  0.00000000000E+00 0.  1.
         25    1    1    2    0    0  0.83275456401E+02  0.10210821049E+03  0.12562044576E+03  0.22083112254E+03  0.12500000000E+03 0.  0.
         25    1    1    2    0    0 -0.83275456401E+02 -0.10210821049E+03 -0.38359557227E+02  0.18562689439E+03  0.12500000000E+03 0.  0.
</event>
<event>
 4    0  0.2250660E-002  0.1950696E+03  0.7546771E-02  0.1153967E+00
         21   -1    0    0  502  501  0.00000000000E+00  0.00000000000E+00  0.40567911796E+03  0.40567911796E+03  0.00000000000E+00 0.  1.
         21   -1    0    0  501  502 -0.00000000000E+00 -0.00000000000E+00 -0.93798612692E+02  0.93798612692E+02  0.00000000000E+00 0.  1.
         25    1    1    2    0    0 -0.45572684691E+02  0.17061369545E+02  0.33726336791E+03  0.36295941819E+03  0.12500000000E+03 0.  0.
         25    1    1    2    0    0  0.45572684691E+02 -0.17061369545E+02 -0.25382862642E+02  0.13651831246E+03  0.12500000000E+03 0.  0.
</event>
<event>
 4    0  0.2250660E-002  0.1981335E+03  0.7546771E-02  0.1151323E+00
         21   -1    0    0  502  501  0.00000000000E+00  0.00000000000E+00  0.38859213702E+03  0.38859213702E+03  0.00000000000E+00 0. -1.
         21   -1    0    0  501  502 -0.00000000000E+00 -0.00000000000E+00 -0.10102334080E+03  0.10102334080E+03  0.00000000000E+00 0. -1.
         25    1    1    2    0    0 -0.96807092479E+02 -0.10231206211E+03  0.67693915577E+02  0.20011705928E+03  0.12500000000E+03 0.  0.
         25    1    1    2    0    0  0.96807092479E+02  0.10231206211E+03  0.21987488064E+03  0.28949841855E+03  0.12500000000E+03 0.  0.
</event>
<event>
 4    0  0.2250660E-002  0.1923344E+03  0.7546771E-02  0.1156373E+00
         21   -1    0    0  502  501  0.00000000000E+00  0.00000000000E+00  0.59904501246E+03  0.59904501246E+03  0.00000000000E+00 0. -1.
         21   -1    0    0  501  502 -0.00000000000E+00 -0.00000000000E+00 -0.61752461226E+02  0.61752461226E+02  0.00000000000E+00 0. -1.
         25    1    1    2    0    0 -0.92806913033E+02  0.64706442394E+02  0.10964248292E+03  0.20111320408E+03  0.12500000000E+03 0.  0.
         25    1    1    2    0    0  0.92806913033E+02 -0.64706442394E+02  0.42765006832E+03  0.45968426961E+03  0.12500000000E+03 0.  0.
</event>
<event>
 4    0  0.2250660E-002  0.2248136E+03  0.7546771E-02  0.1130344E+00
         21   -1    0    0  502  501  0.00000000000E+00  0.00000000000E+00  0.88425449667E+02  0.88425449667E+02  0.00000000000E+00 0.  1.
         21   -1    0    0  501  502 -0.00000000000E+00 -0.00000000000E+00 -0.57156796288E+03  0.57156796288E+03  0.00000000000E+00 0.  1.
         25    1    1    2    0    0 -0.17531168537E+03  0.43600151494E+02 -0.17146624117E+03  0.27867693141E+03  0.12500000000E+03 0.  0.
         25    1    1    2    0    0  0.17531168537E+03 -0.43600151494E+02 -0.31167627205E+03  0.38131648114E+03  0.12500000000E+03 0.  0.
</event>
<event>
 4    0  0.2250660E-002  0.2078445E+03  0.7546771E-02  0.1143284E+00
         21   -1    0    0  502  501  0.00000000000E+00  0.00000000000E+00  0.13002299634E+03  0.13002299634E+03  0.00000000000E+00 0.  1.
         21   -1    0    0  501  502 -0.00000000000E+00 -0.00000000000E+00 -0.33224367308E+03  0.33224367308E+03  0.00000000000E+00 0.  1.
         25    1    1    2    0    0  0.15057589875E+03  0.67912760746E+02 -0.82203090975E+02  0.22286227254E+03  0.12500000000E+03 0.  0.
         25    1    1    2    0    0 -0.15057589875E+03 -0.67912760746E+02 -0.12001758576E+03  0.23940439688E+03  0.12500000000E+03 0.  0.
</event>
<event>
 4    0  0.2250660E-002  0.1763395E+03  0.7546771E-02  0.1171393E+00
         21   -1    0    0  502  501  0.00000000000E+00  0.00000000000E+00  0.78626531464E+02  0.78626531464E+02  0.00000000000E+00 0.  1.
         21   -1    0    0  501  502 -0.00000000000E+00 -0.00000000000E+00 -0.39548505989E+03  0.39548505989E+03  0.00000000000E+00 0.  1.
         25    1    1    2    0    0  0.19885030012E+02  0.93954995941E+02 -0.26468680724E+03  0.30806989728E+03  0.12500000000E+03 0.  0.
         25    1    1    2    0    0 -0.19885030012E+02 -0.93954995941E+02 -0.52171721186E+02  0.16604169408E+03  0.12500000000E+03 0.  0.
</event>
<event>
 4    0  0.2250660E-002  0.3135024E+03  0.7546771E-02  0.1078679E+00
         21   -1    0    0  502  501  0.00000000000E+00  0.00000000000E+00  0.22491151753E+03  0.22491151753E+03  0.00000000000E+00 0. -1.
         21   -1    0    0  501  502 -0.00000000000E+00 -0.00000000000E+00 -0.43698859568E+03  0.43698859568E+03  0.00000000000E+00 0. -1.
         25    1    1    2    0    0 -0.21090119821E+03  0.18603395380E+03 -0.16912055878E+03  0.35116194380E+03  0.12500000000E+03 0.  0.
         25    1    1    2    0    0  0.21090119821E+03 -0.18603395380E+03 -0.42956519368E+02  0.31073816941E+03  0.12500000000E+03 0.  0.
</event>
<event>
 4    0  0.2250660E-002  0.1628179E+03  0.7546771E-02  0.1185552E+00
         21   -1    0    0  502  501  0.00000000000E+00  0.00000000000E+00  0.13094565885E+02  0.13094565885E+02  0.00000000000E+00 0. -1.
         21   -1    0    0  501  502 -0.00000000000E+00 -0.00000000000E+00 -0.20244795979E+04  0.20244795979E+04  0.00000000000E+00 0. -1.
         25    1    1    2    0    0 -0.20688924332E+02 -0.10205021785E+03 -0.96494707052E+03  0.97856534143E+03  0.12500000000E+03 0.  0.
         25    1    1    2    0    0  0.20688924332E+02  0.10205021785E+03 -0.10464379615E+04  0.10590088224E+04  0.12500000000E+03 0.  0.
</event>
<event>
 4    0  0.2250660E-002  0.3653440E+03  0.7546771E-02  0.1056488E+00
         21   -1    0    0  502  501  0.00000000000E+00  0.00000000000E+00  0.90841950105E+03  0.90841950105E+03  0.00000000000E+00 0.  1.
         21   -1    0    0  501  502 -0.00000000000E+00 -0.00000000000E+00 -0.14693234238E+03  0.14693234238E+03  0.00000000000E+00 0.  1.
         25    1    1    2    0    0  0.20885259407E+03 -0.21486767900E+03  0.62270028284E+03  0.70225933086E+03  0.12500000000E+03 0.  0.
         25    1    1    2    0    0 -0.20885259407E+03  0.21486767900E+03  0.13878687583E+03  0.35309251257E+03  0.12500000000E+03 0.  0.
</event>
<event>
 4    0  0.2250660E-002  0.2562109E+03  0.7546771E-02  0.1109441E+00
         21   -1    0    0  502  501  0.00000000000E+00  0.00000000000E+00  0.16300860907E+03  0.16300860907E+03  0.00000000000E+00 0.  1.
         21   -1    0    0  501  502 -0.00000000000E+00 -0.00000000000E+00 -0.40270278249E+03  0.40270278249E+03  0.00000000000E+00 0.  1.
         25    1    1    2    0    0  0.97427941758E+02 -0.19736016600E+03 -0.76022751255E+02  0.26428715002E+03  0.12500000000E+03 0.  0.
         25    1    1    2    0    0 -0.97427941758E+02  0.19736016600E+03 -0.16367142217E+03  0.30142424155E+03  0.12500000000E+03 0.  0.
</event>
<event>
 4    0  0.2250660E-002  0.1844361E+03  0.7546771E-02  0.1163578E+00
         21   -1    0    0  502  501  0.00000000000E+00  0.00000000000E+00  0.74790473209E+03  0.74790473209E+03  0.00000000000E+00 0.  1.
         21   -1    0    0  501  502 -0.00000000000E+00 -0.00000000000E+00 -0.45482633030E+02  0.45482633030E+02  0.00000000000E+00 0.  1.
         25    1    1    2    0    0 -0.91757232296E+02 -0.43586881463E+02  0.54445796889E+03  0.56778401334E+03  0.12500000000E+03 0.  0.
         25    1    1    2    0    0  0.91757232296E+02  0.43586881463E+02  0.15796413017E+03  0.22560335178E+03  0.12500000000E+03 0.  0.
</event>
<event>
 4    0  0.2250660E-002  0.2411238E+03  0.7546771E-02  0.1119046E+00
         21   -1    0    0  502  501  0.00000000000E+00  0.00000000000E+00  0.11380470867E+03  0.11380470867E+03  0.00000000000E+00 0. -1.
         21   -1    0    0  501  502 -0.00000000000E+00 -0.00000000000E+00 -0.51088115529E+03  0.51088115529E+03  0.00000000000E+00 0. -1.
         25    1    1    2    0    0 -0.11626305837E+03 -0.16879243874E+03 -0.22772546383E+03  0.33089556206E+03  0.12500000000E+03 0.  0.
         25    1    1    2    0    0  0.11626305837E+03  0.16879243874E+03 -0.16935098279E+03  0.29379030190E+03  0.12500000000E+03 0.  0.
</event>
<event>
 4    0  0.2250660E-002  0.1723979E+03  0.7546771E-02  0.1175370E+00
         21   -1    0    0  502  501  0.00000000000E+00  0.00000000000E+00  0.98483963867E+03  0.98483963867E+03  0.00000000000E+00 0.  1.
         21   -1    0    0  501  502 -0.00000000000E+00 -0.00000000000E+00 -0.30178559031E+02  0.30178559031E+02  0.00000000000E+00 0.  1.
         25    1    1    2    0    0  0.46545125371E+02  0.89519121473E+02  0.29311396908E+03  0.33424679606E+03  0.12500000000E+03 0.  0.
         25    1    1    2    0    0 -0.46545125371E+02 -0.89519121473E+02  0.66154711056E+03  0.68077140164E+03  0.12500000000E+03 0.  0.
</event>
<event>
 4    0  0.2250660E-002  0.2080032E+03  0.7546771E-02  0.1143157E+00
         21   -1    0    0  502  501  0.00000000000E+00  0.00000000000E+00  0.18623712844E+03  0.18623712844E+03  0.00000000000E+00 0. -1.
         21   -1    0    0  501  502 -0.00000000000E+00 -0.00000000000E+00 -0.23231320118E+03  0.23231320118E+03  0.00000000000E+00 0. -1.
         25    1    1    2    0    0 -0.95587701511E+02 -0.11424337506E+03  0.51249681516E+02  0.20109720854E+03  0.12500000000E+03 0.  0.
         25    1    1    2    0    0  0.95587701511E+02  0.11424337506E+03 -0.97325754263E+02  0.21745312108E+03  0.12500000000E+03 0.  0.
</event>
<event>
 4    0  0.2250660E-002  0.2036737E+03  0.7546771E-02  0.1146676E+00
         21   -1    0    0  502  501  0.00000000000E+00  0.00000000000E+00  0.31374707479E+02  0.31374707479E+02  0.00000000000E+00 0. -1.
         21   -1    0    0  501  502 -0.00000000000E+00 -0.00000000000E+00 -0.13221786702E+04  0.13221786702E+04  0.00000000000E+00 0. -1.
         25    1    1    2    0    0  0.15169013005E+03  0.11739605055E+02 -0.81838981616E+03  0.84174497627E+03  0.12500000000E+03 0.  0.
         25    1    1    2    0    0 -0.15169013005E+03 -0.11739605055E+02 -0.47241414654E+03  0.51180840138E+03  0.12500000000E+03 0.  0.
</event>
<event>
 4    0  0.2250660E-002  0.1669685E+03  0.7546771E-02  0.1181047E+00
         21   -1    0    0  502  501  0.00000000000E+00  0.00000000000E+00  0.13698999650E+03  0.13698999650E+03  0.00000000000E+00 0.  1.
         21   -1    0    0  501  502 -0.00000000000E+00 -0.00000000000E+00 -0.20350750604E+03  0.20350750604E+03  0.00000000000E+00 0.  1.
         25    1    1    2    0    0  0.73374527954E+02 -0.70632480508E+02  0.10960539985E+02  0.16161034030E+03  0.12500000000E+03 0.  0.
         25    1    1    2    0    0 -0.73374527954E+02  0.70632480508E+02 -0.77478049522E+02  0.17888716224E+03  0.12500000000E+03 0.  0.
</event>
<event>
 4    0  0.2250660E-002  0.2195083E+03  0.7546771E-02  0.1134250E+00
         21   -1    0    0  502  501  0.00000000000E+00  0.00000000000E+00  0.17699627546E+03  0.17699627546E+03  0.00000000000E+00 0. -1.
         21   -1    0    0  501  502 -0.00000000000E+00 -0.00000000000E+00 -0.27223117297E+03  0.27223117297E+03  0.00000000000E+00 0. -1.
         25    1    1    2    0    0 -0.14049580333E+03 -0.10852335718E+03 -0.80656397424E+02  0.23161788414E+03  0.12500000000E+03 0.  0.
         25    1    1    2    0    0  0.14049580333E+03  0.10852335718E+03 -0.14578500087E+02  0.21760956429E+03  0.12500000000E+03 0.  0.
</event>
<event>
 4    0  0.2250660E-002  0.2789120E+03  0.7546771E-02  0.1096285E+00
         21   -1    0    0  502  501  0.00000000000E+00  0.00000000000E+00  0.30626121127E+03  0.30626121127E+03  0.00000000000E+00 0.  1.
         21   -1    0    0  501  502 -0.00000000000E+00 -0.00000000000E+00 -0.25400499649E+03  0.25400499649E+03  0.00000000000E+00 0.  1.
         25    1    1    2    0    0  0.18438185837E+03  0.19390653916E+02 -0.14131777738E+03  0.26451537074E+03  0.12500000000E+03 0.  0.
         25    1    1    2    0    0 -0.18438185837E+03 -0.19390653916E+02  0.19357399216E+03  0.29575083701E+03  0.12500000000E+03 0.  0.
</event>
<event>
 4    0  0.2250660E-002  0.2538271E+03  0.7546771E-02  0.1110910E+00
         21   -1    0    0  502  501  0.00000000000E+00  0.00000000000E+00  0.57119597447E+02  0.57119597447E+02  0.00000000000E+00 0.  1.
         21   -1    0    0  501  502 -0.00000000000E+00 -0.00000000000E+00 -0.11279529383E+04  0.11279529383E+04  0.00000000000E+00 0.  1.
         25    1    1    2    0    0 -0.21475809116E+03  0.18436541306E+02 -0.42243819036E+03  0.49044874191E+03  0.12500000000E+03 0.  0.
         25    1    1    2    0    0  0.21475809116E+03 -0.18436541306E+02 -0.64839515051E+03  0.69462379385E+03  0.12500000000E+03 0.  0.
</event>
<event>
 4    0  0.2250660E-002  0.1389847E+03  0.7546771E-02  0.1214702E+00
         21   -1    0    0  502  501  0.00000000000E+00  0.00000000000E+00  0.21853802887E+02  0.21853802887E+02  0.00000000000E+00 0. -1.
         21   -1    0    0  501  502 -0.00000000000E+00 -0.00000000000E+00 -0.88390811070E+03  0.88390811070E+03  0.00000000000E+00 0. -1.
         25    1    1    2    0    0 -0.56995408831E+02 -0.16703682102E+02 -0.47278981687E+03  0.49262835947E+03  0.12500000000E+03 0.  0.
         25    1    1    2    0    0  0.56995408831E+02  0.16703682102E+02 -0.38926449094E+03  0.41313355411E+03  0.12500000000E+03 0.  0.
</event>
<event>
 4    0  0.2250660E-002  0.2345732E+03  0.7546771E-02  0.1123462E+00
         21   -1    0    0  502  501  0.00000000000E+00  0.00000000000E+00  0.23600669625E+03  0.23600669625E+03  0.00000000000E+00 0. -1.
         21   -1    0    0  501  502 -0.00000000000E+00 -0.00000000000E+00 -0.23314849424E+03  0.23314849424E+03  0.00000000000E+00 0. -1.
         25    1    1    2    0    0 -0.11417740490E+03 -0.74141835323E+01 -0.16077180043E+03  0.23358942981E+03  0.12500000000E+03 0.  0.
         25    1    1    2    0    0  0.11417740490E+03  0.74141835323E+01  0.16363000244E+03  0.23556576068E+03  0.12500000000E+03 0.  0.
</event>
<event>
 4    0  0.2250660E-002  0.2604292E+03  0.7546771E-02  0.1106886E+00
         21   -1    0    0  502  501  0.00000000000E+00  0.00000000000E+00  0.41282928074E+02  0.41282928074E+02  0.00000000000E+00 0.  1.
         21   -1    0    0  501  502 -0.00000000000E+00 -0.00000000000E+00 -0.16428911679E+04  0.16428911679E+04  0.00000000000E+00 0.  1.
         25    1    1    2    0    0  0.10620823488E+03  0.19041023488E+03 -0.58002466419E+03  0.63213120297E+03  0.12500000000E+03 0.  0.
         25    1    1    2    0    0 -0.10620823488E+03 -0.19041023488E+03 -0.10215835756E+04  0.10520428930E+04  0.12500000000E+03 0.  0.
</event>
<event>
 4    0  0.2250660E-002  0.2035794E+03  0.7546771E-02  0.1146754E+00
         21   -1    0    0  502  501  0.00000000000E+00  0.00000000000E+00  0.84569244074E+02  0.84569244074E+02  0.00000000000E+00 0.  1.
         21   -1    0    0  501  502 -0.00000000000E+00 -0.00000000000E+00 -0.49006655504E+03  0.49006655504E+03  0.00000000000E+00 0.  1.
         25    1    1    2    0    0  0.52323395649E+02  0.13163544259E+02  0.10864328127E+02  0.13657983107E+03  0.12500000000E+03 0.  0.
         25    1    1    2    0    0 -0.52323395649E+02 -0.13163544259E+02 -0.41636163910E+03  0.43805596805E+03  0.12500000000E+03 0.  0.
</event>
<event>
 4    0  0.2250660E-002  0.2551372E+03  0.7546771E-02  0.1110101E+00
         21   -1    0    0  502  501  0.00000000000E+00  0.00000000000E+00  0.58158836946E+02  0.58158836946E+02  0.00000000000E+00 0.  1.
         21   -1    0    0  501  502 -0.00000000000E+00 -0.00000000000E+00 -0.11192623287E+04  0.11192623287E+04  0.00000000000E+00 0.  1.
         25    1    1    2    0    0  0.19108515060E+03  0.10244920386E+03 -0.41609262207E+03  0.48555889889E+03  0.12500000000E+03 0.  0.
         25    1    1    2    0    0 -0.19108515060E+03 -0.10244920386E+03 -0.64501086966E+03  0.69186226674E+03  0.12500000000E+03 0.  0.
</event>
<event>
 4    0  0.2250660E-002  0.1922330E+03  0.7546771E-02  0.1156463E+00
         21   -1    0    0  502  501  0.00000000000E+00  0.00000000000E+00  0.16964907516E+03  0.16964907516E+03  0.00000000000E+00 0.  1.
         21   -1    0    0  501  502 -0.00000000000E+00 -0.00000000000E+00 -0.21782337308E+03  0.21782337308E+03  0.00000000000E+00 0.  1.
         25    1    1    2    0    0 -0.57559620350E+02 -0.12918422627E+03 -0.60798073798E+02  0.19830047905E+03  0.12500000000E+03 0.  0.
         25    1    1    2    0    0  0.57559620350E+02  0.12918422627E+03  0.12623775879E+02  0.18917196920E+03  0.12500000000E+03 0.  0.
</event>
<event>
 4    0  0.2250660E-002  0.1736619E+03  0.7546771E-02  0.1174082E+00
         21   -1    0    0  502  501  0.00000000000E+00  0.00000000000E+00  0.12189592984E+03  0.12189592984E+03  0.00000000000E+00 0.  1.
         21   -1    0    0  501  502 -0.00000000000E+00 -0.00000000000E+00 -0.24741158393E+03  0.24741158393E+03  0.00000000000E+00 0.  1.
         25    1    1    2    0    0  0.11313323022E+03  0.24213769036E+02 -0.98785007861E+02  0.19689822795E+03  0.12500000000E+03 0.  0.
         25    1    1    2    0    0 -0.11313323022E+03 -0.24213769036E+02 -0.26730646227E+02  0.17240928583E+03  0.12500000000E+03 0.  0.
</event>
<event>
 4    0  0.2250660E-002  0.1647886E+03  0.7546771E-02  0.1183394E+00
         21   -1    0    0  502  501  0.00000000000E+00  0.00000000000E+00  0.82705980294E+03  0.82705980294E+03  0.00000000000E+00 0.  1.
         21   -1    0    0  501  502 -0.00000000000E+00 -0.00000000000E+00 -0.32833498137E+02  0.32833498137E+02  0.00000000000E+00 0.  1.
         25    1    1    2    0    0 -0.97717557654E+02 -0.20913755233E+01  0.51312696897E+03  0.53710090412E+03  0.12500000000E+03 0.  0.
         25    1    1    2    0    0  0.97717557654E+02  0.20913755233E+01  0.28109933583E+03  0.32279239695E+03  0.12500000000E+03 0.  0.
</event>
<event>
 4    0  0.2250660E-002  0.1672866E+03  0.7546771E-02  0.1180707E+00
         21   -1    0    0  502  501  0.00000000000E+00  0.00000000000E+00  0.19338294593E+03  0.19338294593E+03  0.00000000000E+00 0. -1.
         21   -1    0    0  501  502 -0.00000000000E+00 -0.00000000000E+00 -0.14471194966E+03  0.14471194966E+03  0.00000000000E+00 0. -1.
         25    1    1    2    0    0  0.10018075717E+03  0.42508780300E+02  0.13664788137E+01  0.16574090556E+03  0.12500000000E+03 0.  0.
         25    1    1    2    0    0 -0.10018075717E+03 -0.42508780300E+02  0.47304517457E+02  0.17235399004E+03  0.12500000000E+03 0.  0.
</event>
<event>
 4    0  0.2250660E-002  0.2318561E+03  0.7546771E-02  0.1125340E+00
         21   -1    0    0  502  501  0.00000000000E+00  0.00000000000E+00  0.24071132804E+03  0.24071132804E+03  0.00000000000E+00 0. -1.
         21   -1    0    0  501  502 -0.00000000000E+00 -0.00000000000E+00 -0.22332673022E+03  0.22332673022E+03  0.00000000000E+00 0. -1.
         25    1    1    2    0    0 -0.15745972836E+03  0.66001046207E+02 -0.86150701360E+02  0.22846585631E+03  0.12500000000E+03 0.  0.
         25    1    1    2    0    0  0.15745972836E+03 -0.66001046207E+02  0.10353529919E+03  0.23557220195E+03  0.12500000000E+03 0.  0.
</event>
<event>
 4    0  0.2250660E-002  0.2058231E+03  0.7546771E-02  0.1144917E+00
         21   -1    0    0  502  501  0.00000000000E+00  0.00000000000E+00  0.10865694865E+03  0.10865694865E+03  0.00000000000E+00 0. -1.
         21   -1    0    0  501  502 -0.00000000000E+00 -0.00000000000E+00 -0.38987967758E+03  0.38987967758E+03  0.00000000000E+00 0. -1.
         25    1    1    2    0    0  0.72540307533E+02  0.13907630817E+03 -0.84667565581E+02  0.21771061612E+03  0.12500000000E+03 0.  0.
         25    1    1    2    0    0 -0.72540307533E+02 -0.13907630817E+03 -0.19655516336E+03  0.28082601011E+03  0.12500000000E+03 0.  0.
</event>
<event>
 4    0  0.2250660E-002  0.2454774E+03  0.7546771E-02  0.1116197E+00
         21   -1    0    0  502  501  0.00000000000E+00  0.00000000000E+00  0.17963846043E+03  0.17963846043E+03  0.00000000000E+00 0.  1.
         21   -1    0    0  501  502 -0.00000000000E+00 -0.00000000000E+00 -0.33544682658E+03  0.33544682658E+03  0.00000000000E+00 0.  1.
         25    1    1    2    0    0 -0.51623211778E+01 -0.16303191091E+03 -0.21877226382E+03  0.30015388878E+03  0.12500000000E+03 0.  0.
         25    1    1    2    0    0  0.51623211778E+01  0.16303191091E+03  0.62963897669E+02  0.21493139823E+03  0.12500000000E+03 0.  0.
</event>
<event>
 4    0  0.2250660E-002  0.2460649E+03  0.7546771E-02  0.1115817E+00
         21   -1    0    0  502  501  0.00000000000E+00  0.00000000000E+00  0.18407123318E+03  0.18407123318E+03  0.00000000000E+00 0.  1.
         21   -1    0    0  501  502 -0.00000000000E+00 -0.00000000000E+00 -0.32893762546E+03  0.32893762546E+03  0.00000000000E+00 0.  1.
         25    1    1    2    0    0 -0.13880672384E+03  0.14186363648E+03  0.50882190422E+01  0.23461348621E+03  0.12500000000E+03 0.  0.
         25    1    1    2    0    0  0.13880672384E+03 -0.14186363648E+03 -0.14995461132E+03  0.27839537244E+03  0.12500000000E+03 0.  0.
</event>
<event>
 4    0  0.2250660E-002  0.2400318E+03  0.7546771E-02  0.1119772E+00
         21   -1    0    0  502  501  0.00000000000E+00  0.00000000000E+00  0.43921640463E+03  0.43921640463E+03  0.00000000000E+00 0.  1.
         21   -1    0    0  501  502 -0.00000000000E+00 -0.00000000000E+00 -0.13117738788E+03  0.13117738788E+03  0.00000000000E+00 0.  1.
         25    1    1    2    0    0 -0.10476596984E+03 -0.14549681515E+03  0.27191156109E+03  0.34886405477E+03  0.12500000000E+03 0.  0.
         25    1    1    2    0    0  0.10476596984E+03  0.14549681515E+03  0.36127455663E+02  0.22152973775E+03  0.12500000000E+03 0.  0.
</event>
<event>
 4    0  0.2250660E-002  0.2200523E+03  0.7546771E-02  0.1133844E+00
         21   -1    0    0  502  501  0.00000000000E+00  0.00000000000E+00  0.14595125743E+03  0.14595125743E+03  0.00000000000E+00 0.  1.
         21   -1    0    0  501  502 -0.00000000000E+00 -0.00000000000E+00 -0.33177528183E+03  0.33177528183E+03  0.00000000000E+00 0.  1.
         25    1    1    2    0    0 -0.15688479723E+03  0.49332177680E+02 -0.17523376577E+03  0.27088443297E+03  0.12500000000E+03 0.  0.
         25    1    1    2    0    0  0.15688479723E+03 -0.49332177680E+02 -0.10590258625E+02  0.20684210629E+03  0.12500000000E+03 0.  0.
</event>
<event>
 4    0  0.2250660E-002  0.2471344E+03  0.7546771E-02  0.1115129E+00
         21   -1    0    0  502  501  0.00000000000E+00  0.00000000000E+00  0.47097973193E+03  0.47097973193E+03  0.00000000000E+00 0. -1.
         21   -1    0    0  501  502 -0.00000000000E+00 -0.00000000000E+00 -0.12967736717E+03  0.12967736717E+03  0.00000000000E+00 0. -1.
         25    1    1    2    0    0 -0.11004298159E+03 -0.17953232331E+03  0.21112260948E+03  0.32332502091E+03  0.12500000000E+03 0.  0.
         25    1    1    2    0    0  0.11004298159E+03  0.17953232331E+03  0.13017975528E+03  0.27733207819E+03  0.12500000000E+03 0.  0.
</event>
<event>
 4    0  0.2250660E-002  0.1738097E+03  0.7546771E-02  0.1173932E+00
         21   -1    0    0  502  501  0.00000000000E+00  0.00000000000E+00  0.83101746031E+02  0.83101746031E+02  0.00000000000E+00 0. -1.
         21   -1    0    0  501  502 -0.00000000000E+00 -0.00000000000E+00 -0.36352783769E+03  0.36352783769E+03  0.00000000000E+00 0. -1.
         25    1    1    2    0    0 -0.11582107711E+03  0.32502563430E+02 -0.12650333679E+03  0.21470685306E+03  0.12500000000E+03 0.  0.
         25    1    1    2    0    0  0.11582107711E+03 -0.32502563430E+02 -0.15392275487E+03  0.23192273066E+03  0.12500000000E+03 0.  0.
</event>
<event>
 4    0  0.2250660E-002  0.1862749E+03  0.7546771E-02  0.1161865E+00
         21   -1    0    0  502  501  0.00000000000E+00  0.00000000000E+00  0.29266939778E+03  0.29266939778E+03  0.00000000000E+00 0. -1.
         21   -1    0    0  501  502 -0.00000000000E+00 -0.00000000000E+00 -0.11855817529E+03  0.11855817529E+03  0.00000000000E+00 0. -1.
         25    1    1    2    0    0 -0.11309383568E+03 -0.79265850924E+02  0.86787560431E+02  0.20550029547E+03  0.12500000000E+03 0.  0.
         25    1    1    2    0    0  0.11309383568E+03  0.79265850924E+02  0.87323662064E+02  0.20572727760E+03  0.12500000000E+03 0.  0.
</event>
<event>
 4    0  0.2250660E-002  0.2600998E+03  0.7546771E-02  0.1107083E+00
         21   -1    0    0  502  501  0.00000000000E+00  0.00000000000E+00  0.11614118541E+03  0.11614118541E+03  0.00000000000E+00 0.  1.
         21   -1    0    0  501  502 -0.00000000000E+00 -0.00000000000E+00 -0.58249714103E+03  0.58249714103E+03  0.00000000000E+00 0.  1.
         25    1    1    2    0    0  0.20061970790E+03 -0.10500345375E+03 -0.27002951737E+03  0.37391835038E+03  0.12500000000E+03 0.  0.
         25    1    1    2    0    0 -0.20061970790E+03  0.10500345375E+03 -0.19632643825E+03  0.32471997607E+03  0.12500000000E+03 0.  0.
</event>
<event>
 4    0  0.2250660E-002  0.2010878E+03  0.7546771E-02  0.1148824E+00
         21   -1    0    0  502  501  0.00000000000E+00  0.00000000000E+00  0.74416262686E+02  0.74416262686E+02  0.00000000000E+00 0. -1.
         21   -1    0    0  501  502 -0.00000000000E+00 -0.00000000000E+00 -0.54337981950E+03  0.54337981950E+03  0.00000000000E+00 0. -1.
         25    1    1    2    0    0  0.51303280169E+02 -0.57900986396E+02 -0.44525580369E+03  0.46889474458E+03  0.12500000000E+03 0.  0.
         25    1    1    2    0    0 -0.51303280169E+02  0.57900986396E+02 -0.23707753130E+02  0.14890133760E+03  0.12500000000E+03 0.  0.
</event>
<event>
 4    0  0.2250660E-002  0.2009700E+03  0.7546771E-02  0.1148923E+00
         21   -1    0    0  502  501  0.00000000000E+00  0.00000000000E+00  0.56790174601E+03  0.56790174601E+03  0.00000000000E+00 0. -1.
         21   -1    0    0  501  502 -0.00000000000E+00 -0.00000000000E+00 -0.71119577256E+02  0.71119577256E+02  0.00000000000E+00 0. -1.
         25    1    1    2    0    0 -0.65621653279E+02  0.72804129203E+02  0.44412448524E+03  0.47167594914E+03  0.12500000000E+03 0.  0.
         25    1    1    2    0    0  0.65621653279E+02 -0.72804129203E+02  0.52657683514E+02  0.16734537413E+03  0.12500000000E+03 0.  0.
</event>
<event>
 4    0  0.2250660E-002  0.3584833E+03  0.7546771E-02  0.1059186E+00
         21   -1    0    0  502  501  0.00000000000E+00  0.00000000000E+00  0.89451454194E+02  0.89451454194E+02  0.00000000000E+00 0.  1.
         21   -1    0    0  501  502 -0.00000000000E+00 -0.00000000000E+00 -0.14366479331E+04  0.14366479331E+04  0.00000000000E+00 0. -1.
         25    1    1    2    0    0 -0.17926515940E+03 -0.17995542292E+03 -0.20548506408E+03  0.34981289738E+03  0.12500000000E+03 0.  0.
         25    1    1    2    0    0  0.17926515940E+03  0.17995542292E+03 -0.11417114148E+04  0.11762864899E+04  0.12500000000E+03 0.  0.
</event>
<event>
 4    0  0.2250660E-002  0.2126882E+03  0.7546771E-02  0.1139455E+00
         21   -1    0    0  502  501  0.00000000000E+00  0.00000000000E+00  0.81704739547E+03  0.81704739547E+03  0.00000000000E+00 0.  1.
         21   -1    0    0  501  502 -0.00000000000E+00 -0.00000000000E+00 -0.55365515281E+02  0.55365515281E+02  0.00000000000E+00 0.  1.
         25    1    1    2    0    0  0.53890143485E+02  0.16263726954E+03  0.41366982975E+03  0.46486853739E+03  0.12500000000E+03 0.  0.
         25    1    1    2    0    0 -0.53890143485E+02 -0.16263726954E+03  0.34801205044E+03  0.40754437337E+03  0.12500000000E+03 0.  0.
</event>
<event>
 4    0  0.2250660E-002  0.2125194E+03  0.7546771E-02  0.1139586E+00
         21   -1    0    0  502  501  0.00000000000E+00  0.00000000000E+00  0.42569488188E+02  0.42569488188E+02  0.00000000000E+00 0. -1.
         21   -1    0    0  501  502 -0.00000000000E+00 -0.00000000000E+00 -0.10609597050E+04  0.10609597050E+04  0.00000000000E+00 0. -1.
         25    1    1    2    0    0  0.10344403981E+03 -0.11091538445E+03 -0.71910445780E+03  0.74547911648E+03  0.12500000000E+03 0.  0.
         25    1    1    2    0    0 -0.10344403981E+03  0.11091538445E+03 -0.29928575900E+03  0.35805007669E+03  0.12500000000E+03 0.  0.
</event>
<event>
 4    0  0.2250660E-002  0.1892974E+03  0.7546771E-02  0.1159097E+00
         21   -1    0    0  502  501  0.00000000000E+00  0.00000000000E+00  0.23049725985E+03  0.23049725985E+03  0.00000000000E+00 0. -1.
         21   -1    0    0  501  502 -0.00000000000E+00 -0.00000000000E+00 -0.15546175631E+03  0.15546175631E+03  0.00000000000E+00 0. -1.
         25    1    1    2    0    0  0.13126610023E+03 -0.48893232971E+02  0.12814790046E+02  0.18817692777E+03  0.12500000000E+03 0.  0.
         25    1    1    2    0    0 -0.13126610023E+03  0.48893232971E+02  0.62220713493E+02  0.19778208839E+03  0.12500000000E+03 0.  0.
</event>
<event>
 4    0  0.2250660E-002  0.3780101E+03  0.7546771E-02  0.1051672E+00
         21   -1    0    0  502  501  0.00000000000E+00  0.00000000000E+00  0.98583815721E+03  0.98583815721E+03  0.00000000000E+00 0. -1.
         21   -1    0    0  501  502 -0.00000000000E+00 -0.00000000000E+00 -0.14494432886E+03  0.14494432886E+03  0.00000000000E+00 0. -1.
         25    1    1    2    0    0  0.29923873437E+03  0.15216079647E+03  0.60098725769E+03  0.69964806298E+03  0.12500000000E+03 0.  0.
         25    1    1    2    0    0 -0.29923873437E+03 -0.15216079647E+03  0.23990657066E+03  0.43113442309E+03  0.12500000000E+03 0.  0.
</event>
<event>
 4    0  0.2250660E-002  0.1625739E+03  0.7546771E-02  0.1185821E+00
         21   -1    0    0  502  501  0.00000000000E+00  0.00000000000E+00  0.49699292391E+02  0.49699292391E+02  0.00000000000E+00 0. -1.
         21   -1    0    0  501  502 -0.00000000000E+00 -0.00000000000E+00 -0.53180366591E+03  0.53180366591E+03  0.00000000000E+00 0. -1.
         25    1    1    2    0    0  0.45724394225E+02  0.42910052209E+02 -0.92782296457E+02  0.16782594360E+03  0.12500000000E+03 0.  0.
         25    1    1    2    0    0 -0.45724394225E+02 -0.42910052209E+02 -0.38932207706E+03  0.41367701470E+03  0.12500000000E+03 0.  0.
</event>
<event>
 4    0  0.2250660E-002  0.2051471E+03  0.7546771E-02  0.1145468E+00
         21   -1    0    0  502  501  0.00000000000E+00  0.00000000000E+00  0.45972502567E+03  0.45972502567E+03  0.00000000000E+00 0.  1.
         21   -1    0    0  501  502 -0.00000000000E+00 -0.00000000000E+00 -0.91544616578E+02  0.91544616578E+02  0.00000000000E+00 0.  1.
         25    1    1    2    0    0  0.81486567299E+02 -0.67079089299E+02  0.35039612648E+03  0.38670674977E+03  0.12500000000E+03 0.  0.
         25    1    1    2    0    0 -0.81486567299E+02  0.67079089299E+02  0.17784282616E+02  0.16456289247E+03  0.12500000000E+03 0.  0.
</event>
<event>
 4    0  0.2250660E-002  0.3671203E+03  0.7546771E-02  0.1055800E+00
         21   -1    0    0  502  501  0.00000000000E+00  0.00000000000E+00  0.90301024732E+03  0.90301024732E+03  0.00000000000E+00 0.  1.
         21   -1    0    0  501  502 -0.00000000000E+00 -0.00000000000E+00 -0.14925332519E+03  0.14925332519E+03  0.00000000000E+00 0.  1.
         25    1    1    2    0    0 -0.17434836947E+03  0.29303705336E+03  0.45384463489E+03  0.58126415785E+03  0.12500000000E+03 0.  0.
         25    1    1    2    0    0  0.17434836947E+03 -0.29303705336E+03  0.29991228724E+03  0.47099941467E+03  0.12500000000E+03 0.  0.
</event>
<event>
 4    0  0.2250660E-002  0.1927819E+03  0.7546771E-02  0.1155976E+00
         21   -1    0    0  502  501  0.00000000000E+00  0.00000000000E+00  0.17808087190E+03  0.17808087190E+03  0.00000000000E+00 0. -1.
         21   -1    0    0  501  502 -0.00000000000E+00 -0.00000000000E+00 -0.20869651456E+03  0.20869651456E+03  0.00000000000E+00 0. -1.
         25    1    1    2    0    0 -0.37765905715E+02 -0.12867851983E+03  0.44507307596E+02  0.18865398361E+03  0.12500000000E+03 0.  0.
         25    1    1    2    0    0  0.37765905715E+02  0.12867851983E+03 -0.75122950255E+02  0.19812340285E+03  0.12500000000E+03 0.  0.
</event>
<event>
 4    0  0.2250660E-002  0.2069425E+03  0.7546771E-02  0.1144010E+00
         21   -1    0    0  502  501  0.00000000000E+00  0.00000000000E+00  0.79261547551E+02  0.79261547551E+02  0.00000000000E+00 0.  1.
         21   -1    0    0  501  502 -0.00000000000E+00 -0.00000000000E+00 -0.54030215491E+03  0.54030215491E+03  0.00000000000E+00 0.  1.
         25    1    1    2    0    0 -0.96437061189E+02  0.67528932513E+02 -0.57625085005E+02  0.18112402910E+03  0.12500000000E+03 0.  0.
         25    1    1    2    0    0  0.96437061189E+02 -0.67528932513E+02 -0.40341552235E+03  0.43843967335E+03  0.12500000000E+03 0.  0.
</event>
<event>
 4    0  0.2250660E-002  0.2306215E+03  0.7546771E-02  0.1126203E+00
         21   -1    0    0  502  501  0.00000000000E+00  0.00000000000E+00  0.74488385763E+03  0.74488385763E+03  0.00000000000E+00 0.  1.
         21   -1    0    0  501  502 -0.00000000000E+00 -0.00000000000E+00 -0.71402116883E+02  0.71402116883E+02  0.00000000000E+00 0.  1.
         25    1    1    2    0    0 -0.88473907693E+02  0.17243249469E+03  0.33820741669E+03  0.40935297027E+03  0.12500000000E+03 0.  0.
         25    1    1    2    0    0  0.88473907693E+02 -0.17243249469E+03  0.33527432406E+03  0.40693300424E+03  0.12500000000E+03 0.  0.
</event>
<event>
 4    0  0.2250660E-002  0.1678639E+03  0.7546771E-02  0.1180094E+00
         21   -1    0    0  502  501  0.00000000000E+00  0.00000000000E+00  0.72766971108E+02  0.72766971108E+02  0.00000000000E+00 0.  1.
         21   -1    0    0  501  502 -0.00000000000E+00 -0.00000000000E+00 -0.38724007047E+03  0.38724007047E+03  0.00000000000E+00 0.  1.
         25    1    1    2    0    0 -0.15347844317E+02 -0.10885472960E+03 -0.12758306863E+03  0.20973160917E+03  0.12500000000E+03 0.  0.
         25    1    1    2    0    0  0.15347844317E+02  0.10885472960E+03 -0.18689003073E+03  0.25027543241E+03  0.12500000000E+03 0.  0.
</event>
<event>
 4    0  0.2250660E-002  0.1850215E+03  0.7546771E-02  0.1163030E+00
         21   -1    0    0  502  501  0.00000000000E+00  0.00000000000E+00  0.32129069923E+03  0.32129069923E+03  0.00000000000E+00 0.  1.
         21   -1    0    0  501  502 -0.00000000000E+00 -0.00000000000E+00 -0.10654827924E+03  0.10654827924E+03  0.00000000000E+00 0.  1.
         25    1    1    2    0    0 -0.26310510864E+02  0.70388367643E+02 -0.24257540958E+02  0.14785193125E+03  0.12500000000E+03 0.  0.
         25    1    1    2    0    0  0.26310510864E+02 -0.70388367643E+02  0.23899996095E+03  0.27998704723E+03  0.12500000000E+03 0.  0.
</event>
<event>
 4    0  0.2250660E-002  0.2553708E+03  0.7546771E-02  0.1109957E+00
         21   -1    0    0  502  501  0.00000000000E+00  0.00000000000E+00  0.18833375235E+04  0.18833375235E+04  0.00000000000E+00 0. -1.
         21   -1    0    0  501  502 -0.00000000000E+00 -0.00000000000E+00 -0.34626964950E+02  0.34626964950E+02  0.00000000000E+00 0. -1.
         25    1    1    2    0    0  0.19811577517E+03 -0.70694041348E+02  0.64989390246E+03  0.69443112855E+03  0.12500000000E+03 0.  0.
         25    1    1    2    0    0 -0.19811577517E+03  0.70694041348E+02  0.11988166561E+04  0.12235333599E+04  0.12500000000E+03 0.  0.
</event>
<event>
 4    0  0.2250660E-002  0.2311500E+03  0.7546771E-02  0.1125833E+00
         21   -1    0    0  502  501  0.00000000000E+00  0.00000000000E+00  0.50851811155E+03  0.50851811155E+03  0.00000000000E+00 0. -1.
         21   -1    0    0  501  502 -0.00000000000E+00 -0.00000000000E+00 -0.10507068117E+03  0.10507068117E+03  0.00000000000E+00 0. -1.
         25    1    1    2    0    0  0.48547512702E+02  0.75069820518E+02  0.43089295061E+03  0.45747794901E+03  0.12500000000E+03 0.  0.
         25    1    1    2    0    0 -0.48547512702E+02 -0.75069820518E+02 -0.27445520228E+02  0.15611084371E+03  0.12500000000E+03 0.  0.
</event>
<event>
 4    0  0.2250660E-002  0.2015154E+03  0.7546771E-02  0.1148467E+00
         21   -1    0    0  502  501  0.00000000000E+00  0.00000000000E+00  0.92886040546E+02  0.92886040546E+02  0.00000000000E+00 0.  1.
         21   -1    0    0  501  502 -0.00000000000E+00 -0.00000000000E+00 -0.43718558201E+03  0.43718558201E+03  0.00000000000E+00 0.  1.
         25    1    1    2    0    0  0.22075485320E+01 -0.77250255009E+02  0.91922585563E+01  0.14724799756E+03  0.12500000000E+03 0.  0.
         25    1    1    2    0    0 -0.22075485320E+01  0.77250255009E+02 -0.35349180002E+03  0.38282362499E+03  0.12500000000E+03 0.  0.
</event>
<event>
 4    0  0.2250660E-002  0.2318815E+03  0.7546771E-02  0.1125322E+00
         21   -1    0    0  502  501  0.00000000000E+00  0.00000000000E+00  0.30748182948E+03  0.30748182948E+03  0.00000000000E+00 0. -1.
         21   -1    0    0  501  502 -0.00000000000E+00 -0.00000000000E+00 -0.17486889921E+03  0.17486889921E+03  0.00000000000E+00 0. -1.
         25    1    1    2    0    0 -0.92372969575E+02 -0.11673072980E+03  0.19780644794E+03  0.27732872126E+03  0.12500000000E+03 0.  0.
         25    1    1    2    0    0  0.92372969575E+02  0.11673072980E+03 -0.65193517671E+02  0.20502200744E+03  0.12500000000E+03 0.  0.
</event>
<event>
 4    0  0.2250660E-002  0.4045130E+03  0.7546771E-02  0.1042228E+00
         21   -1    0    0  502  501  0.00000000000E+00  0.00000000000E+00  0.24965351881E+03  0.24965351881E+03  0.00000000000E+00 0. -1.
         21   -1    0    0  501  502 -0.00000000000E+00 -0.00000000000E+00 -0.65543150779E+03  0.65543150779E+03  0.00000000000E+00 0. -1.
         25    1    1    2    0    0  0.17989949927E+03 -0.10874726301E+03 -0.56335058615E+03  0.61414874417E+03  0.12500000000E+03 0.  0.
         25    1    1    2    0    0 -0.17989949927E+03  0.10874726301E+03  0.15757259718E+03  0.29093628242E+03  0.12500000000E+03 0.  0.
</event>
<event>
 4    0  0.2250660E-002  0.1855264E+03  0.7546771E-02  0.1162559E+00
         21   -1    0    0  502  501  0.00000000000E+00  0.00000000000E+00  0.62195839421E+02  0.62195839421E+02  0.00000000000E+00 0.  1.
         21   -1    0    0  501  502 -0.00000000000E+00 -0.00000000000E+00 -0.55341381480E+03  0.55341381480E+03  0.00000000000E+00 0.  1.
         25    1    1    2    0    0 -0.20406506558E+02  0.12811873181E+03 -0.31913869115E+03  0.36647692853E+03  0.12500000000E+03 0.  0.
         25    1    1    2    0    0  0.20406506558E+02 -0.12811873181E+03 -0.17207928422E+03  0.24913272569E+03  0.12500000000E+03 0.  0.
</event>
<event>
 4    0  0.2250660E-002  0.3640555E+03  0.7546771E-02  0.1056990E+00
         21   -1    0    0  502  501  0.00000000000E+00  0.00000000000E+00  0.79054617285E+02  0.79054617285E+02  0.00000000000E+00 0.  1.
         21   -1    0    0  501  502 -0.00000000000E+00 -0.00000000000E+00 -0.16765166858E+04  0.16765166858E+04  0.00000000000E+00 0.  1.
         25    1    1    2    0    0  0.30794617232E+03 -0.78504873714E+02 -0.11029306659E+04  0.11545886341E+04  0.12500000000E+03 0.  0.
         25    1    1    2    0    0 -0.30794617232E+03  0.78504873714E+02 -0.49453140270E+03  0.60098266906E+03  0.12500000000E+03 0.  0.
</event>
<event>
 4    0  0.2250660E-002  0.2571753E+03  0.7546771E-02  0.1108852E+00
         21   -1    0    0  502  501  0.00000000000E+00  0.00000000000E+00  0.21109059106E+03  0.21109059106E+03  0.00000000000E+00 0. -1.
         21   -1    0    0  501  502 -0.00000000000E+00 -0.00000000000E+00 -0.31332103805E+03  0.31332103805E+03  0.00000000000E+00 0. -1.
         25    1    1    2    0    0 -0.14834870585E+03  0.14721608054E+03 -0.13540157762E+03  0.27863686066E+03  0.12500000000E+03 0.  0.
         25    1    1    2    0    0  0.14834870585E+03 -0.14721608054E+03  0.33171130631E+02  0.24577476845E+03  0.12500000000E+03 0.  0.
</event>
<event>
 4    0  0.2250660E-002  0.2081916E+03  0.7546771E-02  0.1143006E+00
         21   -1    0    0  502  501  0.00000000000E+00  0.00000000000E+00  0.12784014652E+04  0.12784014652E+04  0.00000000000E+00 0. -1.
         21   -1    0    0  501  502 -0.00000000000E+00 -0.00000000000E+00 -0.33904646246E+02  0.33904646246E+02  0.00000000000E+00 0. -1.
         25    1    1    2    0    0  0.13563763559E+03  0.91753327293E+02  0.71693042419E+03  0.74594267501E+03  0.12500000000E+03 0.  0.
         25    1    1    2    0    0 -0.13563763559E+03 -0.91753327293E+02  0.52756639478E+03  0.56636343646E+03  0.12500000000E+03 0.  0.
</event>
<event>
 4    0  0.2250660E-002  0.3611869E+03  0.7546771E-02  0.1058115E+00
         21   -1    0    0  502  501  0.00000000000E+00  0.00000000000E+00  0.11773436038E+03  0.11773436038E+03  0.00000000000E+00 0.  1.
         21   -1    0    0  501  502 -0.00000000000E+00 -0.00000000000E+00 -0.11080533863E+04  0.11080533863E+04  0.00000000000E+00 0.  1.
         25    1    1    2    0    0 -0.24487940794E+03  0.21103640455E+03 -0.66761439228E+03  0.75222088861E+03  0.12500000000E+03 0.  0.
         25    1    1    2    0    0  0.24487940794E+03 -0.21103640455E+03 -0.32270463363E+03  0.47356685805E+03  0.12500000000E+03 0.  0.
</event>
<event>
 4    0  0.2250660E-002  0.1952064E+03  0.7546771E-02  0.1153848E+00
         21   -1    0    0  502  501  0.00000000000E+00  0.00000000000E+00  0.11156501324E+03  0.11156501324E+03  0.00000000000E+00 0.  1.
         21   -1    0    0  501  502 -0.00000000000E+00 -0.00000000000E+00 -0.34155443635E+03  0.34155443635E+03  0.00000000000E+00 0.  1.
         25    1    1    2    0    0 -0.58675562842E+02 -0.11791092074E+03 -0.19816094713E+03  0.26877233465E+03  0.12500000000E+03 0.  0.
         25    1    1    2    0    0  0.58675562842E+02  0.11791092074E+03 -0.31828475990E+02  0.18434711494E+03  0.12500000000E+03 0.  0.
</event>
<event>
 4    0  0.2250660E-002  0.2392865E+03  0.7546771E-02  0.1120269E+00
         21   -1    0    0  502  501  0.00000000000E+00  0.00000000000E+00  0.40926514304E+03  0.40926514304E+03  0.00000000000E+00 0. -1.
         21   -1    0    0  501  502 -0.00000000000E+00 -0.00000000000E+00 -0.13990449930E+03  0.13990449930E+03  0.00000000000E+00 0. -1.
         25    1    1    2    0    0  0.11510856709E+03  0.80067140785E+02 -0.35416469997E+02  0.19115453329E+03  0.12500000000E+03 0.  0.
         25    1    1    2    0    0 -0.11510856709E+03 -0.80067140785E+02  0.30477711374E+03  0.35801510905E+03  0.12500000000E+03 0.  0.
</event>
<event>
 4    0  0.2250660E-002  0.2167280E+03  0.7546771E-02  0.1136346E+00
         21   -1    0    0  502  501  0.00000000000E+00  0.00000000000E+00  0.14444837611E+03  0.14444837611E+03  0.00000000000E+00 0.  1.
         21   -1    0    0  501  502 -0.00000000000E+00 -0.00000000000E+00 -0.32517529956E+03  0.32517529956E+03  0.00000000000E+00 0.  1.
         25    1    1    2    0    0 -0.10376096253E+03 -0.13146853090E+03 -0.28164830661E+02  0.21087572086E+03  0.12500000000E+03 0.  0.
         25    1    1    2    0    0  0.10376096253E+03  0.13146853090E+03 -0.15256209280E+03  0.25874795481E+03  0.12500000000E+03 0.  0.
</event>
<event>
 4    0  0.2250660E-002  0.1807221E+03  0.7546771E-02  0.1167106E+00
         21   -1    0    0  502  501  0.00000000000E+00  0.00000000000E+00  0.36530440126E+03  0.36530440126E+03  0.00000000000E+00 0.  1.
         21   -1    0    0  501  502 -0.00000000000E+00 -0.00000000000E+00 -0.89406164658E+02  0.89406164658E+02  0.00000000000E+00 0.  1.
         25    1    1    2    0    0  0.33647590748E+02 -0.96204286047E+02  0.24052392127E+03  0.28959313134E+03  0.12500000000E+03 0.  0.
         25    1    1    2    0    0 -0.33647590748E+02  0.96204286047E+02  0.35374315337E+02  0.16511743458E+03  0.12500000000E+03 0.  0.
</event>
<event>
 4    0  0.2250660E-002  0.1783371E+03  0.7546771E-02  0.1169422E+00
         21   -1    0    0  502  501  0.00000000000E+00  0.00000000000E+00  0.62523346693E+02  0.62523346693E+02  0.00000000000E+00 0.  1.
         21   -1    0    0  501  502 -0.00000000000E+00 -0.00000000000E+00 -0.50867617236E+03  0.50867617236E+03  0.00000000000E+00 0.  1.
         25    1    1    2    0    0  0.11941186385E+03  0.29785649897E+01 -0.29308551552E+03  0.34028250687E+03  0.12500000000E+03 0.  0.
         25    1    1    2    0    0 -0.11941186385E+03 -0.29785649897E+01 -0.15306731015E+03  0.23091701218E+03  0.12500000000E+03 0.  0.
</event>
<event>
 4    0  0.2250660E-002  0.3149309E+03  0.7546771E-02  0.1078006E+00
         21   -1    0    0  502  501  0.00000000000E+00  0.00000000000E+00  0.15586953042E+03  0.15586953042E+03  0.00000000000E+00 0.  1.
         21   -1    0    0  501  502 -0.00000000000E+00 -0.00000000000E+00 -0.63631103895E+03  0.63631103895E+03  0.00000000000E+00 0.  1.
         25    1    1    2    0    0 -0.25372065498E+03  0.14766402806E+02 -0.41342043591E+03  0.50113239193E+03  0.12500000000E+03 0.  0.
         25    1    1    2    0    0  0.25372065498E+03 -0.14766402806E+02 -0.67021072619E+02  0.29104817744E+03  0.12500000000E+03 0.  0.
</event>
<event>
 4    0  0.2250660E-002  0.2314795E+03  0.7546771E-02  0.1125603E+00
         21   -1    0    0  502  501  0.00000000000E+00  0.00000000000E+00  0.27292327331E+03  0.27292327331E+03  0.00000000000E+00 0. -1.
         21   -1    0    0  501  502 -0.00000000000E+00 -0.00000000000E+00 -0.19632908917E+03  0.19632908917E+03  0.00000000000E+00 0. -1.
         25    1    1    2    0    0  0.15607349518E+03 -0.10840585490E+03 -0.52640005729E+01  0.22751587851E+03  0.12500000000E+03 0.  0.
         25    1    1    2    0    0 -0.15607349518E+03  0.10840585490E+03  0.81858184721E+02  0.24173648396E+03  0.12500000000E+03 0.  0.
</event>
<event>
 4    0  0.2250660E-002  0.1917520E+03  0.7546771E-02  0.1156891E+00
         21   -1    0    0  502  501  0.00000000000E+00  0.00000000000E+00  0.16391020672E+03  0.16391020672E+03  0.00000000000E+00 0.  1.
         21   -1    0    0  501  502 -0.00000000000E+00 -0.00000000000E+00 -0.22432303017E+03  0.22432303017E+03  0.00000000000E+00 0.  1.
         25    1    1    2    0    0 -0.14657165864E+02  0.39711713306E+02  0.11062045203E+03  0.17220260478E+03  0.12500000000E+03 0.  0.
         25    1    1    2    0    0  0.14657165864E+02 -0.39711713306E+02 -0.17103327549E+03  0.21603063211E+03  0.12500000000E+03 0.  0.
</event>
<event>
 4    0  0.2250660E-002  0.1839901E+03  0.7546771E-02  0.1163996E+00
         21   -1    0    0  502  501  0.00000000000E+00  0.00000000000E+00  0.43677408141E+02  0.43677408141E+02  0.00000000000E+00 0.  1.
         21   -1    0    0  501  502 -0.00000000000E+00 -0.00000000000E+00 -0.77505398979E+03  0.77505398979E+03  0.00000000000E+00 0.  1.
         25    1    1    2    0    0  0.56349104023E+02 -0.54145135893E+02 -0.12073905142E+03  0.19055139937E+03  0.12500000000E+03 0.  0.
         25    1    1    2    0    0 -0.56349104023E+02  0.54145135893E+02 -0.61063753023E+03  0.62817999856E+03  0.12500000000E+03 0.  0.
</event>
<event>
 4    0  0.2250660E-002  0.2319133E+03  0.7546771E-02  0.1125300E+00
         21   -1    0    0  502  501  0.00000000000E+00  0.00000000000E+00  0.13806683981E+03  0.13806683981E+03  0.00000000000E+00 0. -1.
         21   -1    0    0  501  502 -0.00000000000E+00 -0.00000000000E+00 -0.38954899799E+03  0.38954899799E+03  0.00000000000E+00 0. -1.
         25    1    1    2    0    0  0.11056181534E+03 -0.13963445779E+03 -0.34475440869E+02  0.22030717836E+03  0.12500000000E+03 0.  0.
         25    1    1    2    0    0 -0.11056181534E+03  0.13963445779E+03 -0.21700671730E+03  0.30730865944E+03  0.12500000000E+03 0.  0.
</event>
<event>
 4    0  0.2250660E-002  0.2795994E+03  0.7546771E-02  0.1095908E+00
         21   -1    0    0  502  501  0.00000000000E+00  0.00000000000E+00  0.13111659514E+03  0.13111659514E+03  0.00000000000E+00 0. -1.
         21   -1    0    0  501  502 -0.00000000000E+00 -0.00000000000E+00 -0.59623116410E+03  0.59623116410E+03  0.00000000000E+00 0. -1.
         25    1    1    2    0    0  0.13487448619E+03 -0.68336091527E+02  0.26571513365E+02  0.19796967887E+03  0.12500000000E+03 0.  0.
         25    1    1    2    0    0 -0.13487448619E+03  0.68336091527E+02 -0.49168608232E+03  0.52937808037E+03  0.12500000000E+03 0.  0.
</event>
<event>
 4    0  0.2250660E-002  0.4023436E+03  0.7546771E-02  0.1042971E+00
         21   -1    0    0  502  501  0.00000000000E+00  0.00000000000E+00  0.13903304159E+03  0.13903304159E+03  0.00000000000E+00 0.  1.
         21   -1    0    0  501  502 -0.00000000000E+00 -0.00000000000E+00 -0.11643303928E+04  0.11643303928E+04  0.00000000000E+00 0.  1.
         25    1    1    2    0    0  0.21116181173E+03  0.20558989301E+03 -0.11789376585E+03  0.34114579708E+03  0.12500000000E+03 0.  0.
         25    1    1    2    0    0 -0.21116181173E+03 -0.20558989301E+03 -0.90740358540E+03  0.96221763736E+03  0.12500000000E+03 0.  0.
</event>
<event>
 4    0  0.2250660E-002  0.1475754E+03  0.7546771E-02  0.1203484E+00
         21   -1    0    0  502  501  0.00000000000E+00  0.00000000000E+00  0.11566840343E+02  0.11566840343E+02  0.00000000000E+00 0.  1.
         21   -1    0    0  501  502 -0.00000000000E+00 -0.00000000000E+00 -0.18828402696E+04  0.18828402696E+04  0.00000000000E+00 0.  1.
         25    1    1    2    0    0  0.45339698226E+02 -0.41970478737E+02 -0.62539953998E+03  0.64075486259E+03  0.12500000000E+03 0.  0.
         25    1    1    2    0    0 -0.45339698226E+02  0.41970478737E+02 -0.12458738893E+04  0.12536522474E+04  0.12500000000E+03 0.  0.
</event>
<event>
 4    0  0.2250660E-002  0.1685402E+03  0.7546771E-02  0.1179379E+00
         21   -1    0    0  502  501  0.00000000000E+00  0.00000000000E+00  0.52800018993E+02  0.52800018993E+02  0.00000000000E+00 0.  1.
         21   -1    0    0  501  502 -0.00000000000E+00 -0.00000000000E+00 -0.53798858563E+03  0.53798858563E+03  0.00000000000E+00 0.  1.
         25    1    1    2    0    0 -0.10893134722E+03  0.30034035350E+02 -0.24884661466E+03  0.30052906567E+03  0.12500000000E+03 0.  0.
         25    1    1    2    0    0  0.10893134722E+03 -0.30034035350E+02 -0.23634195198E+03  0.29025953895E+03  0.12500000000E+03 0.  0.
</event>
<event>
 4    0  0.2250660E-002  0.2038689E+03  0.7546771E-02  0.1146515E+00
         21   -1    0    0  502  501  0.00000000000E+00  0.00000000000E+00  0.73354244726E+02  0.73354244726E+02  0.00000000000E+00 0.  1.
         21   -1    0    0  501  502 -0.00000000000E+00 -0.00000000000E+00 -0.56660007047E+03  0.56660007047E+03  0.00000000000E+00 0.  1.
         25    1    1    2    0    0  0.20509482365E+02 -0.51705832291E+02 -0.48384127334E+03  0.50281359343E+03  0.12500000000E+03 0.  0.
         25    1    1    2    0    0 -0.20509482365E+02  0.51705832291E+02 -0.94045524105E+01  0.13714072176E+03  0.12500000000E+03 0.  0.
</event>
<event>
 4    0  0.2250660E-002  0.3364134E+03  0.7546771E-02  0.1068334E+00
         21   -1    0    0  502  501  0.00000000000E+00  0.00000000000E+00  0.35432558896E+03  0.35432558896E+03  0.00000000000E+00 0. -1.
         21   -1    0    0  501  502 -0.00000000000E+00 -0.00000000000E+00 -0.31940676713E+03  0.31940676713E+03  0.00000000000E+00 0. -1.
         25    1    1    2    0    0 -0.22290912120E+03 -0.17618020040E+03  0.14732995644E+03  0.34359722844E+03  0.12500000000E+03 0.  0.
         25    1    1    2    0    0  0.22290912120E+03  0.17618020040E+03 -0.11241113461E+03  0.33013512766E+03  0.12500000000E+03 0.  0.
</event>
<event>
 4    0  0.2250660E-002  0.2060443E+03  0.7546771E-02  0.1144737E+00
         21   -1    0    0  502  501  0.00000000000E+00  0.00000000000E+00  0.29062518672E+02  0.29062518672E+02  0.00000000000E+00 0. -1.
         21   -1    0    0  501  502 -0.00000000000E+00 -0.00000000000E+00 -0.14607902109E+04  0.14607902109E+04  0.00000000000E+00 0. -1.
         25    1    1    2    0    0 -0.22281935048E+02 -0.13224205519E+03 -0.10558777920E+04  0.10716750242E+04  0.12500000000E+03 0.  0.
         25    1    1    2    0    0  0.22281935048E+02  0.13224205519E+03 -0.37584990020E+03  0.41817770537E+03  0.12500000000E+03 0.  0.
</event>
<event>
 4    0  0.2250660E-002  0.1941373E+03  0.7546771E-02  0.1154782E+00
         21   -1    0    0  502  501  0.00000000000E+00  0.00000000000E+00  0.16261528477E+03  0.16261528477E+03  0.00000000000E+00 0.  1.
         21   -1    0    0  501  502 -0.00000000000E+00 -0.00000000000E+00 -0.23176974369E+03  0.23176974369E+03  0.00000000000E+00 0.  1.
         25    1    1    2    0    0 -0.77984263539E+02  0.12147163048E+03  0.10083891497E+01  0.19095266225E+03  0.12500000000E+03 0.  0.
         25    1    1    2    0    0  0.77984263539E+02 -0.12147163048E+03 -0.70162848073E+02  0.20343236621E+03  0.12500000000E+03 0.  0.
</event>
<event>
 4    0  0.2250660E-002  0.1943729E+03  0.7546771E-02  0.1154575E+00
         21   -1    0    0  502  501  0.00000000000E+00  0.00000000000E+00  0.38295029296E+03  0.38295029296E+03  0.00000000000E+00 0.  1.
         21   -1    0    0  501  502 -0.00000000000E+00 -0.00000000000E+00 -0.98657252104E+02  0.98657252104E+02  0.00000000000E+00 0.  1.
         25    1    1    2    0    0  0.12301989794E+02  0.13465611446E+03  0.21923816928E+03  0.28631098998E+03  0.12500000000E+03 0.  0.
         25    1    1    2    0    0 -0.12301989794E+02 -0.13465611446E+03  0.65054871578E+02  0.19529655509E+03  0.12500000000E+03 0.  0.
</event>
<event>
 4    0  0.2250660E-002  0.2667913E+03  0.7546771E-02  0.1103130E+00
         21   -1    0    0  502  501  0.00000000000E+00  0.00000000000E+00  0.57717619848E+02  0.57717619848E+02  0.00000000000E+00 0. -1.
         21   -1    0    0  501  502 -0.00000000000E+00 -0.00000000000E+00 -0.12332035232E+04  0.12332035232E+04  0.00000000000E+00 0. -1.
         25    1    1    2    0    0  0.63465456797E+02 -0.14780659167E+02 -0.39739583868E+02  0.14646011955E+03  0.12500000000E+03 0.  0.
         25    1    1    2    0    0 -0.63465456797E+02  0.14780659167E+02 -0.11357463195E+04  0.11444610235E+04  0.12500000000E+03 0.  0.
</event>
<event>
 4    0  0.2250660E-002  0.1805852E+03  0.7546771E-02  0.1167238E+00
         21   -1    0    0  502  501  0.00000000000E+00  0.00000000000E+00  0.15504160537E+03  0.15504160537E+03  0.00000000000E+00 0.  1.
         21   -1    0    0  501  502 -0.00000000000E+00 -0.00000000000E+00 -0.21033725381E+03  0.21033725381E+03  0.00000000000E+00 0.  1.
         25    1    1    2    0    0  0.11273588972E+03 -0.52890719364E+02 -0.66556554584E+02  0.18857779292E+03  0.12500000000E+03 0.  0.
         25    1    1    2    0    0 -0.11273588972E+03  0.52890719364E+02  0.11260906147E+02  0.17680106626E+03  0.12500000000E+03 0.  0.
</event>
<event>
 4    0  0.2250660E-002  0.1664366E+03  0.7546771E-02  0.1181616E+00
         21   -1    0    0  502  501  0.00000000000E+00  0.00000000000E+00  0.25427121456E+03  0.25427121456E+03  0.00000000000E+00 0.  1.
         21   -1    0    0  501  502 -0.00000000000E+00 -0.00000000000E+00 -0.10894326027E+03  0.10894326027E+03  0.00000000000E+00 0.  1.
         25    1    1    2    0    0  0.19806931693E+02 -0.66264159007E+02 -0.20518436722E+02  0.14432345463E+03  0.12500000000E+03 0.  0.
         25    1    1    2    0    0 -0.19806931693E+02  0.66264159007E+02  0.16584639101E+03  0.21889102020E+03  0.12500000000E+03 0.  0.
</event>
<event>
 4    0  0.2250660E-002  0.3223741E+03  0.7546771E-02  0.1074562E+00
         21   -1    0    0  502  501  0.00000000000E+00  0.00000000000E+00  0.10467518223E+04  0.10467518223E+04  0.00000000000E+00 0. -1.
         21   -1    0    0  501  502 -0.00000000000E+00 -0.00000000000E+00 -0.99283379130E+02  0.99283379130E+02  0.00000000000E+00 0. -1.
         25    1    1    2    0    0 -0.12974655852E+03 -0.14911619108E+03  0.86812236060E+03  0.89907243360E+03  0.12500000000E+03 0.  0.
         25    1    1    2    0    0  0.12974655852E+03  0.14911619108E+03  0.79346082618E+02  0.24696276788E+03  0.12500000000E+03 0.  0.
</event>
<event>
 4    0  0.2250660E-002  0.2898772E+03  0.7546771E-02  0.1090413E+00
         21   -1    0    0  502  501  0.00000000000E+00  0.00000000000E+00  0.39438330612E+03  0.39438330612E+03  0.00000000000E+00 0.  1.
         21   -1    0    0  501  502 -0.00000000000E+00 -0.00000000000E+00 -0.21306382964E+03  0.21306382964E+03  0.00000000000E+00 0.  1.
         25    1    1    2    0    0 -0.66629822626E+02 -0.23686889636E+03  0.18353586178E+03  0.33144655661E+03  0.12500000000E+03 0.  0.
         25    1    1    2    0    0  0.66629822626E+02  0.23686889636E+03 -0.22163852895E+01  0.27600057915E+03  0.12500000000E+03 0.  0.
</event>
<event>
 4    0  0.2250660E-002  0.1902110E+03  0.7546771E-02  0.1158271E+00
         21   -1    0    0  502  501  0.00000000000E+00  0.00000000000E+00  0.81028445903E+03  0.81028445903E+03  0.00000000000E+00 0. -1.
         21   -1    0    0  501  502 -0.00000000000E+00 -0.00000000000E+00 -0.44651244985E+02  0.44651244985E+02  0.00000000000E+00 0. -1.
         25    1    1    2    0    0 -0.12256952175E+03  0.55924455549E+02  0.27261974056E+03  0.32878162256E+03  0.12500000000E+03 0.  0.
         25    1    1    2    0    0  0.12256952175E+03 -0.55924455549E+02  0.49301347349E+03  0.52615408145E+03  0.12500000000E+03 0.  0.
</event>
<event>
 4    0  0.2250660E-002  0.2565815E+03  0.7546771E-02  0.1109215E+00
         21   -1    0    0  502  501  0.00000000000E+00  0.00000000000E+00  0.91732709498E+03  0.91732709498E+03  0.00000000000E+00 0. -1.
         21   -1    0    0  501  502 -0.00000000000E+00 -0.00000000000E+00 -0.71767301735E+02  0.71767301735E+02  0.00000000000E+00 0. -1.
         25    1    1    2    0    0  0.69740895931E+02 -0.93406990090E+02  0.79162503032E+03  0.80986656122E+03  0.12500000000E+03 0.  0.
         25    1    1    2    0    0 -0.69740895931E+02  0.93406990090E+02  0.53934762928E+02  0.17922783549E+03  0.12500000000E+03 0.  0.
</event>
<event>
 4    0  0.2250660E-002  0.2325776E+03  0.7546771E-02  0.1124839E+00
         21   -1    0    0  502  501  0.00000000000E+00  0.00000000000E+00  0.10805800737E+03  0.10805800737E+03  0.00000000000E+00 0. -1.
         21   -1    0    0  501  502 -0.00000000000E+00 -0.00000000000E+00 -0.50058620317E+03  0.50058620317E+03  0.00000000000E+00 0. -1.
         25    1    1    2    0    0 -0.75731887086E+02 -0.55843530068E+02 -0.42143417019E+03  0.44953929570E+03  0.12500000000E+03 0.  0.
         25    1    1    2    0    0  0.75731887086E+02  0.55843530068E+02  0.28905974384E+02  0.15910491484E+03  0.12500000000E+03 0.  0.
</event>
<event>
 4    0  0.2250660E-002  0.1827447E+03  0.7546771E-02  0.1165173E+00
         21   -1    0    0  502  501  0.00000000000E+00  0.00000000000E+00  0.99501722507E+02  0.99501722507E+02  0.00000000000E+00 0. -1.
         21   -1    0    0  501  502 -0.00000000000E+00 -0.00000000000E+00 -0.33562869502E+03  0.33562869502E+03  0.00000000000E+00 0. -1.
         25    1    1    2    0    0  0.16435868774E+02  0.12795950562E+03 -0.78098499992E+02  0.19587789197E+03  0.12500000000E+03 0.  0.
         25    1    1    2    0    0 -0.16435868774E+02 -0.12795950562E+03 -0.15802847252E+03  0.23925252556E+03  0.12500000000E+03 0.  0.
</event>
<event>
 4    0  0.2250660E-002  0.1502736E+03  0.7546771E-02  0.1200137E+00
         21   -1    0    0  502  501  0.00000000000E+00  0.00000000000E+00  0.70920994458E+03  0.70920994458E+03  0.00000000000E+00 0.  1.
         21   -1    0    0  501  502 -0.00000000000E+00 -0.00000000000E+00 -0.31841299352E+02  0.31841299352E+02  0.00000000000E+00 0.  1.
         25    1    1    2    0    0  0.37403286903E+02  0.23213122736E+02  0.16399856099E+03  0.21085156615E+03  0.12500000000E+03 0.  0.
         25    1    1    2    0    0 -0.37403286903E+02 -0.23213122736E+02  0.51337008424E+03  0.53019967779E+03  0.12500000000E+03 0.  0.
</event>
<event>
 4    0  0.2250660E-002  0.2016183E+03  0.7546771E-02  0.1148381E+00
         21   -1    0    0  502  501  0.00000000000E+00  0.00000000000E+00  0.58892122534E+02  0.58892122534E+02  0.00000000000E+00 0.  1.
         21   -1    0    0  501  502 -0.00000000000E+00 -0.00000000000E+00 -0.69024376243E+03  0.69024376243E+03  0.00000000000E+00 0.  1.
         25    1    1    2    0    0  0.55835395504E+02  0.21420994261E+02 -0.58775725771E+03  0.60387088386E+03  0.12500000000E+03 0.  0.
         25    1    1    2    0    0 -0.55835395504E+02 -0.21420994261E+02 -0.43594382182E+02  0.14526500110E+03  0.12500000000E+03 0.  0.
</event>
<event>
 4    0  0.2250660E-002  0.1873850E+03  0.7546771E-02  0.1160841E+00
         21   -1    0    0  502  501  0.00000000000E+00  0.00000000000E+00  0.12718068877E+02  0.12718068877E+02  0.00000000000E+00 0. -1.
         21   -1    0    0  501  502 -0.00000000000E+00 -0.00000000000E+00 -0.27608870649E+04  0.27608870649E+04  0.00000000000E+00 0. -1.
         25    1    1    2    0    0  0.86034059599E+02 -0.32651446741E+01 -0.56081468727E+03  0.58099107914E+03  0.12500000000E+03 0.  0.
         25    1    1    2    0    0 -0.86034059599E+02  0.32651446741E+01 -0.21873543087E+04  0.21926140546E+04  0.12500000000E+03 0.  0.
</event>
<event>
 4    0  0.2250660E-002  0.2055728E+03  0.7546771E-02  0.1145121E+00
         21   -1    0    0  502  501  0.00000000000E+00  0.00000000000E+00  0.70628799588E+03  0.70628799588E+03  0.00000000000E+00 0. -1.
         21   -1    0    0  501  502 -0.00000000000E+00 -0.00000000000E+00 -0.59834177600E+02  0.59834177600E+02  0.00000000000E+00 0. -1.
         25    1    1    2    0    0  0.27710396877E+02 -0.76018531033E+02  0.58733151803E+03  0.60591253100E+03  0.12500000000E+03 0.  0.
         25    1    1    2    0    0 -0.27710396877E+02  0.76018531033E+02  0.59122300249E+02  0.16020964248E+03  0.12500000000E+03 0.  0.
</event>
<event>
 4    0  0.2250660E-002  0.1994658E+03  0.7546771E-02  0.1150191E+00
         21   -1    0    0  502  501  0.00000000000E+00  0.00000000000E+00  0.28387191087E+03  0.28387191087E+03  0.00000000000E+00 0. -1.
         21   -1    0    0  501  502 -0.00000000000E+00 -0.00000000000E+00 -0.14015685622E+03  0.14015685622E+03  0.00000000000E+00 0. -1.
         25    1    1    2    0    0  0.32690642334E+02  0.23269387343E+02  0.23147638448E+03  0.26611362058E+03  0.12500000000E+03 0.  0.
         25    1    1    2    0    0 -0.32690642334E+02 -0.23269387343E+02 -0.87761329840E+02  0.15791514651E+03  0.12500000000E+03 0.  0.
</event>
<event>
 4    0  0.2250660E-002  0.2200241E+03  0.7546771E-02  0.1133865E+00
         21   -1    0    0  502  501  0.00000000000E+00  0.00000000000E+00  0.21229425842E+03  0.21229425842E+03  0.00000000000E+00 0. -1.
         21   -1    0    0  501  502 -0.00000000000E+00 -0.00000000000E+00 -0.22803535496E+03  0.22803535496E+03  0.00000000000E+00 0. -1.
         25    1    1    2    0    0 -0.85556930449E+02  0.13457399226E+03  0.77948218694E+02  0.21709691969E+03  0.12500000000E+03 0.  0.
         25    1    1    2    0    0  0.85556930449E+02 -0.13457399226E+03 -0.93689315233E+02  0.22323269369E+03  0.12500000000E+03 0.  0.
</event>
<event>
 4    0  0.2250660E-002  0.2445761E+03  0.7546771E-02  0.1116781E+00
         21   -1    0    0  502  501  0.00000000000E+00  0.00000000000E+00  0.12003333259E+03  0.12003333259E+03  0.00000000000E+00 0.  1.
         21   -1    0    0  501  502 -0.00000000000E+00 -0.00000000000E+00 -0.49834044665E+03  0.49834044665E+03  0.00000000000E+00 0.  1.
         25    1    1    2    0    0  0.16046363413E+03 -0.13547190044E+03 -0.17707748694E+03  0.30179902264E+03  0.12500000000E+03 0.  0.
         25    1    1    2    0    0 -0.16046363413E+03  0.13547190044E+03 -0.20122962712E+03  0.31657475660E+03  0.12500000000E+03 0.  0.
</event>
<event>
 4    0  0.2250660E-002  0.1664776E+03  0.7546771E-02  0.1181572E+00
         21   -1    0    0  502  501  0.00000000000E+00  0.00000000000E+00  0.85680423613E+03  0.85680423613E+03  0.00000000000E+00 0.  1.
         21   -1    0    0  501  502 -0.00000000000E+00 -0.00000000000E+00 -0.32346703682E+02  0.32346703682E+02  0.00000000000E+00 0.  1.
         25    1    1    2    0    0  0.70441740023E+02 -0.82128841332E+02  0.46446434061E+03  0.49301045528E+03  0.12500000000E+03 0.  0.
         25    1    1    2    0    0 -0.70441740023E+02  0.82128841332E+02  0.35999319184E+03  0.39614048454E+03  0.12500000000E+03 0.  0.
</event>
<event>
 4    0  0.2250660E-002  0.1739614E+03  0.7546771E-02  0.1173779E+00
         21   -1    0    0  502  501  0.00000000000E+00  0.00000000000E+00  0.11185992048E+03  0.11185992048E+03  0.00000000000E+00 0. -1.
         21   -1    0    0  501  502 -0.00000000000E+00 -0.00000000000E+00 -0.27053992781E+03  0.27053992781E+03  0.00000000000E+00 0. -1.
         25    1    1    2    0    0  0.84609337217E+02  0.18935780454E+02 -0.17208340979E+03  0.22968457425E+03  0.12500000000E+03 0.  0.
         25    1    1    2    0    0 -0.84609337217E+02 -0.18935780454E+02  0.13403402452E+02  0.15271527403E+03  0.12500000000E+03 0.  0.
</event>
<event>
 4    0  0.2250660E-002  0.2481092E+03  0.7546771E-02  0.1114506E+00
         21   -1    0    0  502  501  0.00000000000E+00  0.00000000000E+00  0.21327252296E+03  0.21327252296E+03  0.00000000000E+00 0.  1.
         21   -1    0    0  501  502 -0.00000000000E+00 -0.00000000000E+00 -0.28863610915E+03  0.28863610915E+03  0.00000000000E+00 0.  1.
         25    1    1    2    0    0 -0.16631385818E+03 -0.12808609421E+03  0.60202033192E+01  0.24439228671E+03  0.12500000000E+03 0.  0.
         25    1    1    2    0    0  0.16631385818E+03  0.12808609421E+03 -0.81383789512E+02  0.25751634540E+03  0.12500000000E+03 0.  0.
</event>
<event>
 4    0  0.2250660E-002  0.1992088E+03  0.7546771E-02  0.1150408E+00
         21   -1    0    0  502  501  0.00000000000E+00  0.00000000000E+00  0.99884143630E+02  0.99884143630E+02  0.00000000000E+00 0.  1.
         21   -1    0    0  501  502 -0.00000000000E+00 -0.00000000000E+00 -0.39730176760E+03  0.39730176760E+03  0.00000000000E+00 0.  1.
         25    1    1    2    0    0  0.64413729776E+02  0.13275276471E+03 -0.89034564596E+02  0.21289569938E+03  0.12500000000E+03 0.  0.
         25    1    1    2    0    0 -0.64413729776E+02 -0.13275276471E+03 -0.20838305937E+03  0.28429021185E+03  0.12500000000E+03 0.  0.
</event>
<event>
 4    0  0.2250660E-002  0.2021301E+03  0.7546771E-02  0.1147954E+00
         21   -1    0    0  502  501  0.00000000000E+00  0.00000000000E+00  0.22187769881E+02  0.22187769881E+02  0.00000000000E+00 0. -1.
         21   -1    0    0  501  502 -0.00000000000E+00 -0.00000000000E+00 -0.18414015754E+04  0.18414015754E+04  0.00000000000E+00 0. -1.
         25    1    1    2    0    0 -0.76101375877E+02 -0.12872494327E+03 -0.66264217485E+03  0.69071063573E+03  0.12500000000E+03 0.  0.
         25    1    1    2    0    0  0.76101375877E+02  0.12872494327E+03 -0.11565716306E+04  0.11728787095E+04  0.12500000000E+03 0.  0.
</event>
<event>
 4    0  0.2250660E-002  0.1480131E+03  0.7546771E-02  0.1202936E+00
         21   -1    0    0  502  501  0.00000000000E+00  0.00000000000E+00  0.17673287018E+03  0.17673287018E+03  0.00000000000E+00 0. -1.
         21   -1    0    0  501  502 -0.00000000000E+00 -0.00000000000E+00 -0.12396044284E+03  0.12396044284E+03  0.00000000000E+00 0. -1.
         25    1    1    2    0    0  0.17857193971E+01  0.68502128759E+02  0.66853412231E+02  0.15744875092E+03  0.12500000000E+03 0.  0.
         25    1    1    2    0    0 -0.17857193971E+01 -0.68502128759E+02 -0.14080984888E+02  0.14324456211E+03  0.12500000000E+03 0.  0.
</event>
<event>
 4    0  0.2250660E-002  0.2381146E+03  0.7546771E-02  0.1121055E+00
         21   -1    0    0  502  501  0.00000000000E+00  0.00000000000E+00  0.82092920611E+03  0.82092920611E+03  0.00000000000E+00 0.  1.
         21   -1    0    0  501  502 -0.00000000000E+00 -0.00000000000E+00 -0.69066313568E+02  0.69066313568E+02  0.00000000000E+00 0.  1.
         25    1    1    2    0    0 -0.18552227037E+03  0.35864539925E+02  0.23899802063E+03  0.32931722077E+03  0.12500000000E+03 0.  0.
         25    1    1    2    0    0  0.18552227037E+03 -0.35864539925E+02  0.51286487191E+03  0.56067829891E+03  0.12500000000E+03 0.  0.
</event>
<event>
 4    0  0.2250660E-002  0.2204323E+03  0.7546771E-02  0.1133561E+00
         21   -1    0    0  502  501  0.00000000000E+00  0.00000000000E+00  0.48722757293E+03  0.48722757293E+03  0.00000000000E+00 0.  1.
         21   -1    0    0  501  502 -0.00000000000E+00 -0.00000000000E+00 -0.99728299588E+02  0.99728299588E+02  0.00000000000E+00 0.  1.
         25    1    1    2    0    0  0.37103872421E+02 -0.23669479504E+02  0.42826983968E+03  0.44830458082E+03  0.12500000000E+03 0.  0.
         25    1    1    2    0    0 -0.37103872421E+02  0.23669479504E+02 -0.40770566338E+02  0.13865129169E+03  0.12500000000E+03 0.  0.
</event>
<event>
 4    0  0.2250660E-002  0.2035294E+03  0.7546771E-02  0.1146795E+00
         21   -1    0    0  502  501  0.00000000000E+00  0.00000000000E+00  0.12145568267E+03  0.12145568267E+03  0.00000000000E+00 0.  1.
         21   -1    0    0  501  502 -0.00000000000E+00 -0.00000000000E+00 -0.34106432404E+03  0.34106432404E+03  0.00000000000E+00 0.  1.
         25    1    1    2    0    0  0.14258100687E+03  0.69682621205E+02 -0.81644848460E+02  0.21788963376E+03  0.12500000000E+03 0.  0.
         25    1    1    2    0    0 -0.14258100687E+03 -0.69682621205E+02 -0.13796379291E+03  0.24463037296E+03  0.12500000000E+03 0.  0.
</event>
<event>
 4    0  0.2250660E-002  0.2853988E+03  0.7546771E-02  0.1092776E+00
         21   -1    0    0  502  501  0.00000000000E+00  0.00000000000E+00  0.15044499930E+03  0.15044499930E+03  0.00000000000E+00 0.  1.
         21   -1    0    0  501  502 -0.00000000000E+00 -0.00000000000E+00 -0.54141049399E+03  0.54141049399E+03  0.00000000000E+00 0.  1.
         25    1    1    2    0    0 -0.97563477332E+02 -0.23689885899E+03 -0.21209317644E+03  0.35531425104E+03  0.12500000000E+03 0.  0.
         25    1    1    2    0    0  0.97563477332E+02  0.23689885899E+03 -0.17887231824E+03  0.33654124225E+03  0.12500000000E+03 0.  0.
</event>
<event>
 4    0  0.2250660E-002  0.1801477E+03  0.7546771E-02  0.1167660E+00
         21   -1    0    0  502  501  0.00000000000E+00  0.00000000000E+00  0.43418002708E+02  0.43418002708E+02  0.00000000000E+00 0.  1.
         21   -1    0    0  501  502 -0.00000000000E+00 -0.00000000000E+00 -0.74745957939E+03  0.74745957939E+03  0.00000000000E+00 0.  1.
         25    1    1    2    0    0  0.11165085087E+03  0.20003246194E+01 -0.20710741447E+03  0.26643647447E+03  0.12500000000E+03 0.  0.
         25    1    1    2    0    0 -0.11165085087E+03 -0.20003246194E+01 -0.49693416221E+03  0.52444110763E+03  0.12500000000E+03 0.  0.
</event>
<event>
 4    0  0.2250660E-002  0.3009246E+03  0.7546771E-02  0.1084779E+00
         21   -1    0    0  502  501  0.00000000000E+00  0.00000000000E+00  0.93297439566E+03  0.93297439566E+03  0.00000000000E+00 0. -1.
         21   -1    0    0  501  502 -0.00000000000E+00 -0.00000000000E+00 -0.97061207539E+02  0.97061207539E+02  0.00000000000E+00 0. -1.
         25    1    1    2    0    0 -0.18136786201E+03 -0.19191012678E+03  0.29446114502E+03  0.41479653332E+03  0.12500000000E+03 0.  0.
         25    1    1    2    0    0  0.18136786201E+03  0.19191012678E+03  0.54145204310E+03  0.61523906988E+03  0.12500000000E+03 0.  0.
</event>
<event>
 4    0  0.2250660E-002  0.1638226E+03  0.7546771E-02  0.1184447E+00
         21   -1    0    0  502  501  0.00000000000E+00  0.00000000000E+00  0.84314934584E+03  0.84314934584E+03  0.00000000000E+00 0.  1.
         21   -1    0    0  501  502 -0.00000000000E+00 -0.00000000000E+00 -0.31830470994E+02  0.31830470994E+02  0.00000000000E+00 0.  1.
         25    1    1    2    0    0 -0.54478090814E+01 -0.83928951176E+02  0.57746881437E+03  0.59679894356E+03  0.12500000000E+03 0.  0.
         25    1    1    2    0    0  0.54478090814E+01  0.83928951176E+02  0.23385006048E+03  0.27818087327E+03  0.12500000000E+03 0.  0.
</event>
<event>
 4    0  0.2250660E-002  0.2711749E+03  0.7546771E-02  0.1100609E+00
         21   -1    0    0  502  501  0.00000000000E+00  0.00000000000E+00  0.41084989051E+02  0.41084989051E+02  0.00000000000E+00 0.  1.
         21   -1    0    0  501  502 -0.00000000000E+00 -0.00000000000E+00 -0.17898467478E+04  0.17898467478E+04  0.00000000000E+00 0.  1.
         25    1    1    2    0    0  0.10729798815E+03  0.79585213851E+02 -0.15501070170E+04  0.15608662431E+04  0.12500000000E+03 0.  0.
         25    1    1    2    0    0 -0.10729798815E+03 -0.79585213851E+02 -0.19865474175E+03  0.27006549381E+03  0.12500000000E+03 0.  0.
</event>
<event>
 4    0  0.2250660E-002  0.3797577E+03  0.7546771E-02  0.1051023E+00
         21   -1    0    0  502  501  0.00000000000E+00  0.00000000000E+00  0.11315702832E+03  0.11315702832E+03  0.00000000000E+00 0. -1.
         21   -1    0    0  501  502 -0.00000000000E+00 -0.00000000000E+00 -0.12744757059E+04  0.12744757059E+04  0.00000000000E+00 0. -1.
         25    1    1    2    0    0  0.11295762553E+03  0.16058035812E+03 -0.11288968859E+04  0.11526398638E+04  0.12500000000E+03 0.  0.
         25    1    1    2    0    0 -0.11295762553E+03 -0.16058035812E+03 -0.32421791670E+02  0.23499287043E+03  0.12500000000E+03 0.  0.
</event>
<event>
 4    0  0.2250660E-002  0.3920282E+03  0.7546771E-02  0.1046576E+00
         21   -1    0    0  502  501  0.00000000000E+00  0.00000000000E+00  0.27852385512E+03  0.27852385512E+03  0.00000000000E+00 0. -1.
         21   -1    0    0  501  502 -0.00000000000E+00 -0.00000000000E+00 -0.55178789606E+03  0.55178789606E+03  0.00000000000E+00 0. -1.
         25    1    1    2    0    0  0.42739715810E+02 -0.36109740008E+03 -0.55682424350E+02  0.38851454032E+03  0.12500000000E+03 0.  0.
         25    1    1    2    0    0 -0.42739715810E+02  0.36109740008E+03 -0.21758161659E+03  0.44179721087E+03  0.12500000000E+03 0.  0.
</event>
<event>
 4    0  0.2250660E-002  0.2002222E+03  0.7546771E-02  0.1149552E+00
         21   -1    0    0  502  501  0.00000000000E+00  0.00000000000E+00  0.68695743841E+02  0.68695743841E+02  0.00000000000E+00 0.  1.
         21   -1    0    0  501  502 -0.00000000000E+00 -0.00000000000E+00 -0.58357231250E+03  0.58357231250E+03  0.00000000000E+00 0.  1.
         25    1    1    2    0    0 -0.90829441645E+02  0.21881863586E+02 -0.53114446726E+02  0.16484825712E+03  0.12500000000E+03 0.  0.
         25    1    1    2    0    0  0.90829441645E+02 -0.21881863586E+02 -0.46176212194E+03  0.48741979923E+03  0.12500000000E+03 0.  0.
</event>
<event>
 4    0  0.2250660E-002  0.2448935E+03  0.7546771E-02  0.1116575E+00
         21   -1    0    0  502  501  0.00000000000E+00  0.00000000000E+00  0.48303254549E+03  0.48303254549E+03  0.00000000000E+00 0. -1.
         21   -1    0    0  501  502 -0.00000000000E+00 -0.00000000000E+00 -0.12415896280E+03  0.12415896280E+03  0.00000000000E+00 0. -1.
         25    1    1    2    0    0  0.15795076132E+03  0.19442029947E+02  0.84590722616E+01  0.20254133265E+03  0.12500000000E+03 0.  0.
         25    1    1    2    0    0 -0.15795076132E+03 -0.19442029947E+02  0.35041451042E+03  0.40465017564E+03  0.12500000000E+03 0.  0.
</event>
<event>
 4    0  0.2250660E-002  0.2200657E+03  0.7546771E-02  0.1133834E+00
         21   -1    0    0  502  501  0.00000000000E+00  0.00000000000E+00  0.21695411662E+03  0.21695411662E+03  0.00000000000E+00 0. -1.
         21   -1    0    0  501  502 -0.00000000000E+00 -0.00000000000E+00 -0.22322181361E+03  0.22322181361E+03  0.00000000000E+00 0. -1.
         25    1    1    2    0    0 -0.12823982627E+03  0.79550122980E+02  0.97027273327E+02  0.21866176364E+03  0.12500000000E+03 0.  0.
         25    1    1    2    0    0  0.12823982627E+03 -0.79550122980E+02 -0.10329497032E+03  0.22151416659E+03  0.12500000000E+03 0.  0.
</event>
<event>
 4    0  0.2250660E-002  0.1974248E+03  0.7546771E-02  0.1151930E+00
         21   -1    0    0  502  501  0.00000000000E+00  0.00000000000E+00  0.84670133749E+02  0.84670133749E+02  0.00000000000E+00 0.  1.
         21   -1    0    0  501  502 -0.00000000000E+00 -0.00000000000E+00 -0.46033431042E+03  0.46033431042E+03  0.00000000000E+00 0.  1.
         25    1    1    2    0    0  0.20200825932E+02 -0.11747867521E+03 -0.55856100658E+02  0.18153296251E+03  0.12500000000E+03 0.  0.
         25    1    1    2    0    0 -0.20200825932E+02  0.11747867521E+03 -0.31980807601E+03  0.36347148166E+03  0.12500000000E+03 0.  0.
</event>
<event>
 4    0  0.2250660E-002  0.2481501E+03  0.7546771E-02  0.1114480E+00
         21   -1    0    0  502  501  0.00000000000E+00  0.00000000000E+00  0.26943335725E+03  0.26943335725E+03  0.00000000000E+00 0. -1.
         21   -1    0    0  501  502 -0.00000000000E+00 -0.00000000000E+00 -0.22854803488E+03  0.22854803488E+03  0.00000000000E+00 0. -1.
         25    1    1    2    0    0  0.14718068202E+03  0.14735666317E+03  0.71381997792E+02  0.25317292302E+03  0.12500000000E+03 0.  0.
         25    1    1    2    0    0 -0.14718068202E+03 -0.14735666317E+03 -0.30496675417E+02  0.24480846912E+03  0.12500000000E+03 0.  0.
</event>
<event>
 4    0  0.2250660E-002  0.2038387E+03  0.7546771E-02  0.1146540E+00
         21   -1    0    0  502  501  0.00000000000E+00  0.00000000000E+00  0.57138134493E+02  0.57138134493E+02  0.00000000000E+00 0.  1.
         21   -1    0    0  501  502 -0.00000000000E+00 -0.00000000000E+00 -0.72718884429E+03  0.72718884429E+03  0.00000000000E+00 0.  1.
         25    1    1    2    0    0 -0.13085535746E+03 -0.38619278855E+02 -0.49952245496E+03  0.53269339801E+03  0.12500000000E+03 0.  0.
         25    1    1    2    0    0  0.13085535746E+03  0.38619278855E+02 -0.17052825484E+03  0.25163358077E+03  0.12500000000E+03 0.  0.
</event>
<event>
 4    0  0.2250660E-002  0.2793734E+03  0.7546771E-02  0.1096032E+00
         21   -1    0    0  502  501  0.00000000000E+00  0.00000000000E+00  0.38314163950E+03  0.38314163950E+03  0.00000000000E+00 0. -1.
         21   -1    0    0  501  502 -0.00000000000E+00 -0.00000000000E+00 -0.20370924534E+03  0.20370924534E+03  0.00000000000E+00 0. -1.
         25    1    1    2    0    0 -0.23635036445E+03  0.69734817563E+02  0.46410586386E+02  0.28018455004E+03  0.12500000000E+03 0.  0.
         25    1    1    2    0    0  0.23635036445E+03 -0.69734817563E+02  0.13302180777E+03  0.30666633480E+03  0.12500000000E+03 0.  0.
</event>
<event>
 4    0  0.2250660E-002  0.2206580E+03  0.7546771E-02  0.1133393E+00
         21   -1    0    0  502  501  0.00000000000E+00  0.00000000000E+00  0.24977167209E+03  0.24977167209E+03  0.00000000000E+00 0. -1.
         21   -1    0    0  501  502 -0.00000000000E+00 -0.00000000000E+00 -0.19493778322E+03  0.19493778322E+03  0.00000000000E+00 0. -1.
         25    1    1    2    0    0  0.72353913524E+02  0.20199474209E+02 -0.13945178949E+03  0.20177935760E+03  0.12500000000E+03 0.  0.
         25    1    1    2    0    0 -0.72353913524E+02 -0.20199474209E+02  0.19428567835E+03  0.24293009771E+03  0.12500000000E+03 0.  0.
</event>
<event>
 4    0  0.2250660E-002  0.2617983E+03  0.7546771E-02  0.1106068E+00
         21   -1    0    0  502  501  0.00000000000E+00  0.00000000000E+00  0.21475720446E+04  0.21475720446E+04  0.00000000000E+00 0. -1.
         21   -1    0    0  501  502 -0.00000000000E+00 -0.00000000000E+00 -0.31914345353E+02  0.31914345353E+02  0.00000000000E+00 0. -1.
         25    1    1    2    0    0 -0.47054892908E+00  0.22243864270E+03  0.81389663968E+03  0.85295481197E+03  0.12500000000E+03 0.  0.
         25    1    1    2    0    0  0.47054892908E+00 -0.22243864270E+03  0.13017610596E+04  0.13265315780E+04  0.12500000000E+03 0.  0.
</event>
<event>
 4    0  0.2250660E-002  0.2179173E+03  0.7546771E-02  0.1135445E+00
         21   -1    0    0  502  501  0.00000000000E+00  0.00000000000E+00  0.56131296222E+02  0.56131296222E+02  0.00000000000E+00 0. -1.
         21   -1    0    0  501  502 -0.00000000000E+00 -0.00000000000E+00 -0.84601588923E+03  0.84601588923E+03  0.00000000000E+00 0. -1.
         25    1    1    2    0    0  0.17409140243E+03 -0.39002286790E+02 -0.40700729032E+03  0.46163722678E+03  0.12500000000E+03 0.  0.
         25    1    1    2    0    0 -0.17409140243E+03  0.39002286790E+02 -0.38287730269E+03  0.44050995867E+03  0.12500000000E+03 0.  0.
</event>
<event>
 4    0  0.2250660E-002  0.1709742E+03  0.7546771E-02  0.1176836E+00
         21   -1    0    0  502  501  0.00000000000E+00  0.00000000000E+00  0.55107613794E+03  0.55107613794E+03  0.00000000000E+00 0. -1.
         21   -1    0    0  501  502 -0.00000000000E+00 -0.00000000000E+00 -0.53045592593E+02  0.53045592593E+02  0.00000000000E+00 0. -1.
         25    1    1    2    0    0  0.10509178303E+03  0.44424236526E+02  0.29190527284E+03  0.33741885537E+03  0.12500000000E+03 0.  0.
         25    1    1    2    0    0 -0.10509178303E+03 -0.44424236526E+02  0.20612527251E+03  0.26670287516E+03  0.12500000000E+03 0.  0.
</event>
<event>
 4    0  0.2250660E-002  0.1329274E+03  0.7546771E-02  0.1223176E+00
         21   -1    0    0  502  501  0.00000000000E+00  0.00000000000E+00  0.80315462629E+03  0.80315462629E+03  0.00000000000E+00 0. -1.
         21   -1    0    0  501  502 -0.00000000000E+00 -0.00000000000E+00 -0.22000348618E+02  0.22000348618E+02  0.00000000000E+00 0. -1.
         25    1    1    2    0    0 -0.10021085353E+02  0.32521434331E+02  0.29815863621E+03  0.32508712400E+03  0.12500000000E+03 0.  0.
         25    1    1    2    0    0  0.10021085353E+02 -0.32521434331E+02  0.48299564146E+03  0.50006785091E+03  0.12500000000E+03 0.  0.
</event>
<event>
 4    0  0.2250660E-002  0.2075155E+03  0.7546771E-02  0.1143549E+00
         21   -1    0    0  502  501  0.00000000000E+00  0.00000000000E+00  0.37438598285E+03  0.37438598285E+03  0.00000000000E+00 0. -1.
         21   -1    0    0  501  502 -0.00000000000E+00 -0.00000000000E+00 -0.11502218490E+03  0.11502218490E+03  0.00000000000E+00 0. -1.
         25    1    1    2    0    0  0.15317330974E+03  0.64186487005E+01  0.20364781426E+03  0.28390261380E+03  0.12500000000E+03 0.  0.
         25    1    1    2    0    0 -0.15317330974E+03 -0.64186487005E+01  0.55715983692E+02  0.20550555396E+03  0.12500000000E+03 0.  0.
</event>
<event>
 4    0  0.2250660E-002  0.2175928E+03  0.7546771E-02  0.1135691E+00
         21   -1    0    0  502  501  0.00000000000E+00  0.00000000000E+00  0.18437383339E+04  0.18437383339E+04  0.00000000000E+00 0.  1.
         21   -1    0    0  501  502 -0.00000000000E+00 -0.00000000000E+00 -0.25679691850E+02  0.25679691850E+02  0.00000000000E+00 0.  1.
         25    1    1    2    0    0  0.14020212117E+03  0.87518020782E+02  0.62390511026E+03  0.65741815106E+03  0.12500000000E+03 0.  0.
         25    1    1    2    0    0 -0.14020212117E+03 -0.87518020782E+02  0.11941535318E+04  0.12119998747E+04  0.12500000000E+03 0.  0.
</event>
<event>
 4    0  0.2250660E-002  0.2085094E+03  0.7546771E-02  0.1142752E+00
         21   -1    0    0  502  501  0.00000000000E+00  0.00000000000E+00  0.17875596159E+03  0.17875596159E+03  0.00000000000E+00 0. -1.
         21   -1    0    0  501  502 -0.00000000000E+00 -0.00000000000E+00 -0.24321530457E+03  0.24321530457E+03  0.00000000000E+00 0. -1.
         25    1    1    2    0    0  0.20346967315E+02  0.10294070508E+03  0.99082002893E+02  0.19092676905E+03  0.12500000000E+03 0.  0.
         25    1    1    2    0    0 -0.20346967315E+02 -0.10294070508E+03 -0.16354134587E+03  0.23104449712E+03  0.12500000000E+03 0.  0.
</event>
<event>
 4    0  0.2250660E-002  0.1586086E+03  0.7546771E-02  0.1190277E+00
         21   -1    0    0  502  501  0.00000000000E+00  0.00000000000E+00  0.29977300931E+03  0.29977300931E+03  0.00000000000E+00 0. -1.
         21   -1    0    0  501  502 -0.00000000000E+00 -0.00000000000E+00 -0.83919091151E+02  0.83919091151E+02  0.00000000000E+00 0. -1.
         25    1    1    2    0    0 -0.28913456392E+02 -0.62205356750E+02  0.19195575800E+03  0.23911818709E+03  0.12500000000E+03 0.  0.
         25    1    1    2    0    0  0.28913456392E+02  0.62205356750E+02  0.23898160165E+02  0.14457391337E+03  0.12500000000E+03 0.  0.
</event>
<event>
 4    0  0.2250660E-002  0.1602423E+03  0.7546771E-02  0.1188423E+00
         21   -1    0    0  502  501  0.00000000000E+00  0.00000000000E+00  0.54736470683E+02  0.54736470683E+02  0.00000000000E+00 0. -1.
         21   -1    0    0  501  502 -0.00000000000E+00 -0.00000000000E+00 -0.46911332933E+03  0.46911332933E+03  0.00000000000E+00 0. -1.
         25    1    1    2    0    0  0.25098692876E+02 -0.38090192008E+02 -0.61247292174E+02  0.14648221022E+03  0.12500000000E+03 0.  0.
         25    1    1    2    0    0 -0.25098692876E+02  0.38090192008E+02 -0.35312956647E+03  0.37736758980E+03  0.12500000000E+03 0.  0.
</event>
<event>
 4    0  0.2250660E-002  0.2060776E+03  0.7546771E-02  0.1144710E+00
         21   -1    0    0  502  501  0.00000000000E+00  0.00000000000E+00  0.20232942673E+04  0.20232942673E+04  0.00000000000E+00 0.  1.
         21   -1    0    0  501  502 -0.00000000000E+00 -0.00000000000E+00 -0.20989527518E+02  0.20989527518E+02  0.00000000000E+00 0.  1.
         25    1    1    2    0    0 -0.15383333087E+03 -0.24563647399E+02  0.74946433994E+03  0.77562224266E+03  0.12500000000E+03 0.  0.
         25    1    1    2    0    0  0.15383333087E+03  0.24563647399E+02  0.12528403998E+04  0.12686615521E+04  0.12500000000E+03 0.  0.
</event>
<event>
 4    0  0.2250660E-002  0.2622208E+03  0.7546771E-02  0.1105816E+00
         21   -1    0    0  502  501  0.00000000000E+00  0.00000000000E+00  0.88893156612E+03  0.88893156612E+03  0.00000000000E+00 0. -1.
         21   -1    0    0  501  502 -0.00000000000E+00 -0.00000000000E+00 -0.77350977448E+02  0.77350977448E+02  0.00000000000E+00 0. -1.
         25    1    1    2    0    0 -0.22826107082E+03  0.16136050855E+02  0.35462199518E+03  0.44016502366E+03  0.12500000000E+03 0.  0.
         25    1    1    2    0    0  0.22826107082E+03 -0.16136050855E+02  0.45695859349E+03  0.52611751990E+03  0.12500000000E+03 0.  0.
</event>
<event>
 4    0  0.2250660E-002  0.2002275E+03  0.7546771E-02  0.1149547E+00
         21   -1    0    0  502  501  0.00000000000E+00  0.00000000000E+00  0.42657985228E+03  0.42657985228E+03  0.00000000000E+00 0. -1.
         21   -1    0    0  501  502 -0.00000000000E+00 -0.00000000000E+00 -0.93982490398E+02  0.93982490398E+02  0.00000000000E+00 0.  1.
         25    1    1    2    0    0 -0.36590260347E+02  0.13491408794E+03  0.25752894198E+03  0.31856995187E+03  0.12500000000E+03 0.  0.
         25    1    1    2    0    0  0.36590260347E+02 -0.13491408794E+03  0.75068419903E+02  0.20199239081E+03  0.12500000000E+03 0.  0.
</event>
<event>
 4    0  0.2250660E-002  0.2221388E+03  0.7546771E-02  0.1132298E+00
         21   -1    0    0  502  501  0.00000000000E+00  0.00000000000E+00  0.97921232278E+02  0.97921232278E+02  0.00000000000E+00 0. -1.
         21   -1    0    0  501  502 -0.00000000000E+00 -0.00000000000E+00 -0.50393215983E+03  0.50393215983E+03  0.00000000000E+00 0. -1.
         25    1    1    2    0    0 -0.15327892528E+03 -0.99025300879E+02 -0.23077534670E+03  0.31966028811E+03  0.12500000000E+03 0.  0.
         25    1    1    2    0    0  0.15327892528E+03  0.99025300879E+02 -0.17523558085E+03  0.28219310400E+03  0.12500000000E+03 0.  0.
</event>
<event>
 4    0  0.2250660E-002  0.1915610E+03  0.7546771E-02  0.1157061E+00
         21   -1    0    0  502  501  0.00000000000E+00  0.00000000000E+00  0.19817571760E+04  0.19817571760E+04  0.00000000000E+00 0. -1.
         21   -1    0    0  501  502 -0.00000000000E+00 -0.00000000000E+00 -0.18516711688E+02  0.18516711688E+02  0.00000000000E+00 0. -1.
         25    1    1    2    0    0  0.14042639548E+03 -0.23951933718E+02  0.11271872613E+04  0.11430089193E+04  0.12500000000E+03 0.  0.
         25    1    1    2    0    0 -0.14042639548E+03  0.23951933718E+02  0.83605320307E+03  0.85726496839E+03  0.12500000000E+03 0.  0.
</event>
<event>
 4    0  0.2250660E-002  0.2335879E+03  0.7546771E-02  0.1124140E+00
         21   -1    0    0  502  501  0.00000000000E+00  0.00000000000E+00  0.11094536749E+03  0.11094536749E+03  0.00000000000E+00 0.  1.
         21   -1    0    0  501  502 -0.00000000000E+00 -0.00000000000E+00 -0.49180328246E+03  0.49180328246E+03  0.00000000000E+00 0.  1.
         25    1    1    2    0    0  0.16166231307E+02  0.97382176097E+02 -0.41087394604E+03  0.44066658007E+03  0.12500000000E+03 0.  0.
         25    1    1    2    0    0 -0.16166231307E+02 -0.97382176097E+02  0.30016031073E+02  0.16208206988E+03  0.12500000000E+03 0.  0.
</event>
<event>
 4    0  0.2250660E-002  0.2093173E+03  0.7546771E-02  0.1142108E+00
         21   -1    0    0  502  501  0.00000000000E+00  0.00000000000E+00  0.30430780778E+03  0.30430780778E+03  0.00000000000E+00 0. -1.
         21   -1    0    0  501  502 -0.00000000000E+00 -0.00000000000E+00 -0.14397837800E+03  0.14397837800E+03  0.00000000000E+00 0. -1.
         25    1    1    2    0    0 -0.18630726546E+01 -0.12013720360E+03  0.20574117928E+03  0.26905548049E+03  0.12500000000E+03 0.  0.
         25    1    1    2    0    0  0.18630726546E+01  0.12013720360E+03 -0.45411749499E+02  0.17923070530E+03  0.12500000000E+03 0.  0.
</event>
<event>
 4    0  0.2250660E-002  0.1607492E+03  0.7546771E-02  0.1187854E+00
         21   -1    0    0  502  501  0.00000000000E+00  0.00000000000E+00  0.35625513582E+02  0.35625513582E+02  0.00000000000E+00 0. -1.
         21   -1    0    0  501  502 -0.00000000000E+00 -0.00000000000E+00 -0.72533139984E+03  0.72533139984E+03  0.00000000000E+00 0. -1.
         25    1    1    2    0    0  0.66562584680E+02  0.67849826587E+02 -0.26350818692E+03  0.30675029132E+03  0.12500000000E+03 0.  0.
         25    1    1    2    0    0 -0.66562584680E+02 -0.67849826587E+02 -0.42619769933E+03  0.45420662210E+03  0.12500000000E+03 0.  0.
</event>
<event>
 4    0  0.2250660E-002  0.1621382E+03  0.7546771E-02  0.1186304E+00
         21   -1    0    0  502  501  0.00000000000E+00  0.00000000000E+00  0.10958753082E+03  0.10958753082E+03  0.00000000000E+00 0. -1.
         21   -1    0    0  501  502 -0.00000000000E+00 -0.00000000000E+00 -0.23988842728E+03  0.23988842728E+03  0.00000000000E+00 0. -1.
         25    1    1    2    0    0  0.51358908153E+02  0.89559701315E+02 -0.62715949999E+02  0.17383028485E+03  0.12500000000E+03 0.  0.
         25    1    1    2    0    0 -0.51358908153E+02 -0.89559701315E+02 -0.67584946457E+02  0.17564567326E+03  0.12500000000E+03 0.  0.
</event>
<event>
 4    0  0.2250660E-002  0.2015644E+03  0.7546771E-02  0.1148426E+00
         21   -1    0    0  502  501  0.00000000000E+00  0.00000000000E+00  0.34369670062E+03  0.34369670062E+03  0.00000000000E+00 0.  1.
         21   -1    0    0  501  502 -0.00000000000E+00 -0.00000000000E+00 -0.11820948406E+03  0.11820948406E+03  0.00000000000E+00 0.  1.
         25    1    1    2    0    0  0.76103187175E+02 -0.10392222571E+03  0.76560130284E+01  0.17965282806E+03  0.12500000000E+03 0.  0.
         25    1    1    2    0    0 -0.76103187175E+02  0.10392222571E+03  0.21783120353E+03  0.28225335663E+03  0.12500000000E+03 0.  0.
</event>
<event>
 4    0  0.2250660E-002  0.3523297E+03  0.7546771E-02  0.1061663E+00
         21   -1    0    0  502  501  0.00000000000E+00  0.00000000000E+00  0.58863574921E+03  0.58863574921E+03  0.00000000000E+00 0.  1.
         21   -1    0    0  501  502 -0.00000000000E+00 -0.00000000000E+00 -0.21088800662E+03  0.21088800662E+03  0.00000000000E+00 0.  1.
         25    1    1    2    0    0 -0.60410252446E+02  0.44413167642E+02  0.55282008649E+03  0.57171406847E+03  0.12500000000E+03 0.  0.
         25    1    1    2    0    0  0.60410252446E+02 -0.44413167642E+02 -0.17507234390E+03  0.22780968737E+03  0.12500000000E+03 0.  0.
</event>
<event>
 4    0  0.2250660E-002  0.1931551E+03  0.7546771E-02  0.1155646E+00
         21   -1    0    0  502  501  0.00000000000E+00  0.00000000000E+00  0.66353831206E+02  0.66353831206E+02  0.00000000000E+00 0. -1.
         21   -1    0    0  501  502 -0.00000000000E+00 -0.00000000000E+00 -0.56227211963E+03  0.56227211963E+03  0.00000000000E+00 0. -1.
         25    1    1    2    0    0  0.14041847903E+03 -0.43969743971E+02 -0.23857992211E+03  0.30691377759E+03  0.12500000000E+03 0.  0.
         25    1    1    2    0    0 -0.14041847903E+03  0.43969743971E+02 -0.25733836632E+03  0.32171217325E+03  0.12500000000E+03 0.  0.
</event>
<event>
 4    0  0.2250660E-002  0.2117331E+03  0.7546771E-02  0.1140201E+00
         21   -1    0    0  502  501  0.00000000000E+00  0.00000000000E+00  0.85155394879E+02  0.85155394879E+02  0.00000000000E+00 0.  1.
         21   -1    0    0  501  502 -0.00000000000E+00 -0.00000000000E+00 -0.52646004510E+03  0.52646004510E+03  0.00000000000E+00 0.  1.
         25    1    1    2    0    0  0.11061011892E+03  0.93773518922E+02 -0.90041550681E+02  0.21156689748E+03  0.12500000000E+03 0.  0.
         25    1    1    2    0    0 -0.11061011892E+03 -0.93773518922E+02 -0.35126309954E+03  0.40004854250E+03  0.12500000000E+03 0.  0.
</event>
<event>
 4    0  0.2250660E-002  0.2553767E+03  0.7546771E-02  0.1109953E+00
         21   -1    0    0  502  501  0.00000000000E+00  0.00000000000E+00  0.10807689813E+03  0.10807689813E+03  0.00000000000E+00 0.  1.
         21   -1    0    0  501  502 -0.00000000000E+00 -0.00000000000E+00 -0.60343407449E+03  0.60343407449E+03  0.00000000000E+00 0.  1.
         25    1    1    2    0    0 -0.21888730140E+03  0.33087566054E+02 -0.21396059540E+03  0.33228086633E+03  0.12500000000E+03 0.  0.
         25    1    1    2    0    0  0.21888730140E+03 -0.33087566054E+02 -0.28139658096E+03  0.37923010629E+03  0.12500000000E+03 0.  0.
</event>
<event>
 4    0  0.2250660E-002  0.1786504E+03  0.7546771E-02  0.1169116E+00
         21   -1    0    0  502  501  0.00000000000E+00  0.00000000000E+00  0.78766345296E+02  0.78766345296E+02  0.00000000000E+00 0.  1.
         21   -1    0    0  501  502 -0.00000000000E+00 -0.00000000000E+00 -0.40519780728E+03  0.40519780728E+03  0.00000000000E+00 0.  1.
         25    1    1    2    0    0 -0.22082787842E+02  0.12370731311E+03 -0.13293418012E+03  0.22155731783E+03  0.12500000000E+03 0.  0.
         25    1    1    2    0    0  0.22082787842E+02 -0.12370731311E+03 -0.19349728186E+03  0.26240683475E+03  0.12500000000E+03 0.  0.
</event>
<event>
 4    0  0.2250660E-002  0.2463212E+03  0.7546771E-02  0.1115652E+00
         21   -1    0    0  502  501  0.00000000000E+00  0.00000000000E+00  0.11266889339E+03  0.11266889339E+03  0.00000000000E+00 0.  1.
         21   -1    0    0  501  502 -0.00000000000E+00 -0.00000000000E+00 -0.53851731177E+03  0.53851731177E+03  0.00000000000E+00 0.  1.
         25    1    1    2    0    0  0.39685716352E+02  0.16571204254E+03 -0.45653707201E+02  0.21620522220E+03  0.12500000000E+03 0.  0.
         25    1    1    2    0    0 -0.39685716352E+02 -0.16571204254E+03 -0.38019471118E+03  0.43498098296E+03  0.12500000000E+03 0.  0.
</event>
<event>
 4    0  0.2250660E-002  0.2464249E+03  0.7546771E-02  0.1115585E+00
         21   -1    0    0  502  501  0.00000000000E+00  0.00000000000E+00  0.11422117062E+04  0.11422117062E+04  0.00000000000E+00 0. -1.
         21   -1    0    0  501  502 -0.00000000000E+00 -0.00000000000E+00 -0.53164611703E+02  0.53164611703E+02  0.00000000000E+00 0. -1.
         25    1    1    2    0    0  0.10706270304E+03  0.16126275255E+03  0.75641493542E+03  0.79073171953E+03  0.12500000000E+03 0.  0.
         25    1    1    2    0    0 -0.10706270304E+03 -0.16126275255E+03  0.33263215906E+03  0.40464459836E+03  0.12500000000E+03 0.  0.
</event>
<event>
 4    0  0.2250660E-002  0.2165469E+03  0.7546771E-02  0.1136484E+00
         21   -1    0    0  502  501  0.00000000000E+00  0.00000000000E+00  0.27445015412E+03  0.27445015412E+03  0.00000000000E+00 0. -1.
         21   -1    0    0  501  502 -0.00000000000E+00 -0.00000000000E+00 -0.17086006883E+03  0.17086006883E+03  0.00000000000E+00 0. -1.
         25    1    1    2    0    0 -0.17593382225E+03 -0.17079202144E+02  0.46846463249E+02  0.22150395048E+03  0.12500000000E+03 0.  0.
         25    1    1    2    0    0  0.17593382225E+03  0.17079202144E+02  0.56743622046E+02  0.22380627248E+03  0.12500000000E+03 0.  0.
</event>
<event>
 4    0  0.2250660E-002  0.2385289E+03  0.7546771E-02  0.1120777E+00
         21   -1    0    0  502  501  0.00000000000E+00  0.00000000000E+00  0.45017115384E+03  0.45017115384E+03  0.00000000000E+00 0.  1.
         21   -1    0    0  501  502 -0.00000000000E+00 -0.00000000000E+00 -0.12638761224E+03  0.12638761224E+03  0.00000000000E+00 0.  1.
         25    1    1    2    0    0 -0.19062765830E+03  0.65813176804E+02  0.13226871694E+03  0.27164368543E+03  0.12500000000E+03 0.  0.
         25    1    1    2    0    0  0.19062765830E+03 -0.65813176804E+02  0.19151482466E+03  0.30491508066E+03  0.12500000000E+03 0.  0.
</event>
<event>
 4    0  0.2250660E-002  0.1776116E+03  0.7546771E-02  0.1170135E+00
         21   -1    0    0  502  501  0.00000000000E+00  0.00000000000E+00  0.18327404542E+03  0.18327404542E+03  0.00000000000E+00 0. -1.
         21   -1    0    0  501  502 -0.00000000000E+00 -0.00000000000E+00 -0.17212412944E+03  0.17212412944E+03  0.00000000000E+00 0. -1.
         25    1    1    2    0    0 -0.43635517928E+02 -0.11457254724E+03 -0.24271906675E+02  0.17676270099E+03  0.12500000000E+03 0.  0.
         25    1    1    2    0    0  0.43635517928E+02  0.11457254724E+03  0.35421822661E+02  0.17863547388E+03  0.12500000000E+03 0.  0.
</event>
<event>
 4    0  0.2250660E-002  0.2058756E+03  0.7546771E-02  0.1144874E+00
         21   -1    0    0  502  501  0.00000000000E+00  0.00000000000E+00  0.16354955079E+03  0.16354955079E+03  0.00000000000E+00 0.  1.
         21   -1    0    0  501  502 -0.00000000000E+00 -0.00000000000E+00 -0.25915541844E+03  0.25915541844E+03  0.00000000000E+00 0.  1.
         25    1    1    2    0    0  0.17724034325E+02  0.84616035705E+02  0.94764606643E+02  0.17910707849E+03  0.12500000000E+03 0.  0.
         25    1    1    2    0    0 -0.17724034325E+02 -0.84616035705E+02 -0.19037047430E+03  0.24359789075E+03  0.12500000000E+03 0.  0.
</event>
<event>
 4    0  0.2250660E-002  0.3195896E+03  0.7546771E-02  0.1075838E+00
         21   -1    0    0  502  501  0.00000000000E+00  0.00000000000E+00  0.96953160055E+03  0.96953160055E+03  0.00000000000E+00 0.  1.
         21   -1    0    0  501  502 -0.00000000000E+00 -0.00000000000E+00 -0.10534728966E+03  0.10534728966E+03  0.00000000000E+00 0.  1.
         25    1    1    2    0    0 -0.51333915267E+02 -0.28903987255E+03  0.46279364629E+03  0.56212292057E+03  0.12500000000E+03 0.  0.
         25    1    1    2    0    0  0.51333915267E+02  0.28903987255E+03  0.40139066460E+03  0.51275596964E+03  0.12500000000E+03 0.  0.
</event>
<event>
 4    0  0.2250660E-002  0.2008865E+03  0.7546771E-02  0.1148993E+00
         21   -1    0    0  502  501  0.00000000000E+00  0.00000000000E+00  0.13261903393E+03  0.13261903393E+03  0.00000000000E+00 0. -1.
         21   -1    0    0  501  502 -0.00000000000E+00 -0.00000000000E+00 -0.30429544258E+03  0.30429544258E+03  0.00000000000E+00 0. -1.
         25    1    1    2    0    0 -0.78916818321E+02  0.12882118303E+03 -0.38341863879E+02  0.19979454431E+03  0.12500000000E+03 0.  0.
         25    1    1    2    0    0  0.78916818321E+02 -0.12882118303E+03 -0.13333454477E+03  0.23711993219E+03  0.12500000000E+03 0.  0.
</event>
<event>
 4    0  0.2250660E-002  0.2065520E+03  0.7546771E-02  0.1144326E+00
         21   -1    0    0  502  501  0.00000000000E+00  0.00000000000E+00  0.23078636125E+03  0.23078636125E+03  0.00000000000E+00 0. -1.
         21   -1    0    0  501  502 -0.00000000000E+00 -0.00000000000E+00 -0.18486244861E+03  0.18486244861E+03  0.00000000000E+00 0. -1.
         25    1    1    2    0    0 -0.11325843691E+03  0.11796880892E+03  0.40232145171E+02  0.20973254138E+03  0.12500000000E+03 0.  0.
         25    1    1    2    0    0  0.11325843691E+03 -0.11796880892E+03  0.56917674750E+01  0.20591626848E+03  0.12500000000E+03 0.  0.
</event>
<event>
 4    0  0.2250660E-002  0.2530088E+03  0.7546771E-02  0.1111418E+00
         21   -1    0    0  502  501  0.00000000000E+00  0.00000000000E+00  0.87241354991E+03  0.87241354991E+03  0.00000000000E+00 0. -1.
         21   -1    0    0  501  502 -0.00000000000E+00 -0.00000000000E+00 -0.73375134821E+02  0.73375134821E+02  0.00000000000E+00 0. -1.
         25    1    1    2    0    0  0.79761691768E+02 -0.10570507242E+03  0.72782380446E+03  0.75025860885E+03  0.12500000000E+03 0.  0.
         25    1    1    2    0    0 -0.79761691768E+02  0.10570507242E+03  0.71214610626E+02  0.19553007588E+03  0.12500000000E+03 0.  0.
</event>
<event>
 4    0  0.2250660E-002  0.2562503E+03  0.7546771E-02  0.1109417E+00
         21   -1    0    0  502  501  0.00000000000E+00  0.00000000000E+00  0.42530386770E+03  0.42530386770E+03  0.00000000000E+00 0.  1.
         21   -1    0    0  501  502 -0.00000000000E+00 -0.00000000000E+00 -0.15439359783E+03  0.15439359783E+03  0.00000000000E+00 0.  1.
         25    1    1    2    0    0  0.22023491130E+03 -0.37871762120E+02  0.12405902131E+03  0.28452298201E+03  0.12500000000E+03 0.  0.
         25    1    1    2    0    0 -0.22023491130E+03  0.37871762120E+02  0.14685124856E+03  0.29517448353E+03  0.12500000000E+03 0.  0.
</event>
<event>
 4    0  0.2250660E-002  0.1533103E+03  0.7546771E-02  0.1196463E+00
         21   -1    0    0  502  501  0.00000000000E+00  0.00000000000E+00  0.20742407623E+02  0.20742407623E+02  0.00000000000E+00 0.  1.
         21   -1    0    0  501  502 -0.00000000000E+00 -0.00000000000E+00 -0.11331393278E+04  0.11331393278E+04  0.00000000000E+00 0.  1.
         25    1    1    2    0    0 -0.30072519925E+02  0.58696738442E+02 -0.77976608979E+03  0.79247070504E+03  0.12500000000E+03 0.  0.
         25    1    1    2    0    0  0.30072519925E+02 -0.58696738442E+02 -0.33263083037E+03  0.36141103037E+03  0.12500000000E+03 0.  0.
</event>
<event>
 4    0  0.2250660E-002  0.2232127E+03  0.7546771E-02  0.1131510E+00
         21   -1    0    0  502  501  0.00000000000E+00  0.00000000000E+00  0.16985955051E+03  0.16985955051E+03  0.00000000000E+00 0.  1.
         21   -1    0    0  501  502 -0.00000000000E+00 -0.00000000000E+00 -0.29332416505E+03  0.29332416505E+03  0.00000000000E+00 0.  1.
         25    1    1    2    0    0  0.11230592078E+03 -0.14432984779E+03 -0.90244548145E+02  0.23919197996E+03  0.12500000000E+03 0.  0.
         25    1    1    2    0    0 -0.11230592078E+03  0.14432984779E+03 -0.33220066391E+02  0.22399173560E+03  0.12500000000E+03 0.  0.
</event>
<event>
 4    0  0.2250660E-002  0.1973425E+03  0.7546771E-02  0.1152001E+00
         21   -1    0    0  502  501  0.00000000000E+00  0.00000000000E+00  0.16771382749E+03  0.16771382749E+03  0.00000000000E+00 0.  1.
         21   -1    0    0  501  502 -0.00000000000E+00 -0.00000000000E+00 -0.23220541668E+03  0.23220541668E+03  0.00000000000E+00 0.  1.
         25    1    1    2    0    0 -0.15672657932E+02  0.12549659124E+03 -0.11896131456E+03  0.21394349951E+03  0.12500000000E+03 0.  0.
         25    1    1    2    0    0  0.15672657932E+02 -0.12549659124E+03  0.54469725370E+02  0.18597574466E+03  0.12500000000E+03 0.  0.
</event>
<event>
 4    0  0.2250660E-002  0.2396658E+03  0.7546771E-02  0.1120016E+00
         21   -1    0    0  502  501  0.00000000000E+00  0.00000000000E+00  0.75900257519E+02  0.75900257519E+02  0.00000000000E+00 0.  1.
         21   -1    0    0  501  502 -0.00000000000E+00 -0.00000000000E+00 -0.75677865790E+03  0.75677865790E+03  0.00000000000E+00 0.  1.
         25    1    1    2    0    0 -0.83306147759E+02  0.88084554572E+02 -0.62649677828E+03  0.65024765760E+03  0.12500000000E+03 0.  0.
         25    1    1    2    0    0  0.83306147759E+02 -0.88084554572E+02 -0.54381622095E+02  0.18243125782E+03  0.12500000000E+03 0.  0.
</event>
<event>
 4    0  0.2250660E-002  0.2665193E+03  0.7546771E-02  0.1103288E+00
         21   -1    0    0  502  501  0.00000000000E+00  0.00000000000E+00  0.34584099263E+04  0.34584099263E+04  0.00000000000E+00 0.  1.
         21   -1    0    0  501  502 -0.00000000000E+00 -0.00000000000E+00 -0.20539073455E+02  0.20539073455E+02  0.00000000000E+00 0.  1.
         25    1    1    2    0    0 -0.16908928444E+03  0.14697531669E+03  0.21902383619E+04  0.22052124641E+04  0.12500000000E+03 0.  0.
         25    1    1    2    0    0  0.16908928444E+03 -0.14697531669E+03  0.12476324910E+04  0.12737365357E+04  0.12500000000E+03 0.  0.
</event>
<event>
 4    0  0.2250660E-002  0.2269393E+03  0.7546771E-02  0.1128813E+00
         21   -1    0    0  502  501  0.00000000000E+00  0.00000000000E+00  0.40766204834E+03  0.40766204834E+03  0.00000000000E+00 0. -1.
         21   -1    0    0  501  502 -0.00000000000E+00 -0.00000000000E+00 -0.12633372069E+03  0.12633372069E+03  0.00000000000E+00 0. -1.
         25    1    1    2    0    0 -0.24639672340E+02 -0.92946329986E+02 -0.51329239442E+02  0.16584880021E+03  0.12500000000E+03 0.  0.
         25    1    1    2    0    0  0.24639672340E+02  0.92946329986E+02  0.33265756709E+03  0.36814696882E+03  0.12500000000E+03 0.  0.
</event>
<event>
 4    0  0.2250660E-002  0.1912938E+03  0.7546771E-02  0.1157300E+00
         21   -1    0    0  502  501  0.00000000000E+00  0.00000000000E+00  0.83813909908E+02  0.83813909908E+02  0.00000000000E+00 0.  1.
         21   -1    0    0  501  502 -0.00000000000E+00 -0.00000000000E+00 -0.43660202715E+03  0.43660202715E+03  0.00000000000E+00 0.  1.
         25    1    1    2    0    0 -0.12148485917E+03 -0.39399750336E+02 -0.26922483435E+03  0.32313762203E+03  0.12500000000E+03 0.  0.
         25    1    1    2    0    0  0.12148485917E+03  0.39399750336E+02 -0.83563282888E+02  0.19727831503E+03  0.12500000000E+03 0.  0.
</event>
<event>
 4    0  0.2250660E-002  0.1497688E+03  0.7546771E-02  0.1200757E+00
         21   -1    0    0  502  501  0.00000000000E+00  0.00000000000E+00  0.54614104983E+02  0.54614104983E+02  0.00000000000E+00 0. -1.
         21   -1    0    0  501  502 -0.00000000000E+00 -0.00000000000E+00 -0.41071270593E+03  0.41071270593E+03  0.00000000000E+00 0. -1.
         25    1    1    2    0    0  0.64628981413E+02  0.20442530292E+02 -0.25109448628E+03  0.28856237337E+03  0.12500000000E+03 0.  0.
         25    1    1    2    0    0 -0.64628981413E+02 -0.20442530292E+02 -0.10500411466E+03  0.17676443754E+03  0.12500000000E+03 0.  0.
</event>
<event>
 4    0  0.2250660E-002  0.2151020E+03  0.7546771E-02  0.1137588E+00
         21   -1    0    0  502  501  0.00000000000E+00  0.00000000000E+00  0.26406257232E+03  0.26406257232E+03  0.00000000000E+00 0.  1.
         21   -1    0    0  501  502 -0.00000000000E+00 -0.00000000000E+00 -0.17521931734E+03  0.17521931734E+03  0.00000000000E+00 0.  1.
         25    1    1    2    0    0 -0.27708681994E+02 -0.14648955536E+03  0.13810123051E+03  0.23858732312E+03  0.12500000000E+03 0.  0.
         25    1    1    2    0    0  0.27708681994E+02  0.14648955536E+03 -0.49257975528E+02  0.20069456654E+03  0.12500000000E+03 0.  0.
</event>
<event>
 4    0  0.2250660E-002  0.2303533E+03  0.7546771E-02  0.1126391E+00
         21   -1    0    0  502  501  0.00000000000E+00  0.00000000000E+00  0.32133588738E+03  0.32133588738E+03  0.00000000000E+00 0. -1.
         21   -1    0    0  501  502 -0.00000000000E+00 -0.00000000000E+00 -0.16513138682E+03  0.16513138682E+03  0.00000000000E+00 0. -1.
         25    1    1    2    0    0 -0.14690182473E+03  0.10847476622E+03  0.10567225199E+02  0.22154816015E+03  0.12500000000E+03 0.  0.
         25    1    1    2    0    0  0.14690182473E+03 -0.10847476622E+03  0.14563727536E+03  0.26491911406E+03  0.12500000000E+03 0.  0.
</event>
<event>
 4    0  0.2250660E-002  0.3492091E+03  0.7546771E-02  0.1062940E+00
         21   -1    0    0  502  501  0.00000000000E+00  0.00000000000E+00  0.13246190314E+03  0.13246190314E+03  0.00000000000E+00 0. -1.
         21   -1    0    0  501  502 -0.00000000000E+00 -0.00000000000E+00 -0.92061954086E+03  0.92061954086E+03  0.00000000000E+00 0. -1.
         25    1    1    2    0    0 -0.18349723219E+03 -0.95765007795E+02 -0.14183182147E+02  0.24221546936E+03  0.12500000000E+03 0.  0.
         25    1    1    2    0    0  0.18349723219E+03  0.95765007795E+02 -0.77397445558E+03  0.81086597464E+03  0.12500000000E+03 0.  0.
</event>
<event>
 4    0  0.2250660E-002  0.2483182E+03  0.7546771E-02  0.1114372E+00
         21   -1    0    0  502  501  0.00000000000E+00  0.00000000000E+00  0.49703942548E+02  0.49703942548E+02  0.00000000000E+00 0. -1.
         21   -1    0    0  501  502 -0.00000000000E+00 -0.00000000000E+00 -0.12405837684E+04  0.12405837684E+04  0.00000000000E+00 0. -1.
         25    1    1    2    0    0  0.21037107836E+03  0.37204268834E+02 -0.64718986074E+03  0.69290682207E+03  0.12500000000E+03 0.  0.
         25    1    1    2    0    0 -0.21037107836E+03 -0.37204268834E+02 -0.54368996510E+03  0.59738088886E+03  0.12500000000E+03 0.  0.
</event>
<event>
 4    0  0.2250660E-002  0.2581907E+03  0.7546771E-02  0.1108235E+00
         21   -1    0    0  502  501  0.00000000000E+00  0.00000000000E+00  0.11901697995E+03  0.11901697995E+03  0.00000000000E+00 0.  1.
         21   -1    0    0  501  502 -0.00000000000E+00 -0.00000000000E+00 -0.56010858987E+03  0.56010858987E+03  0.00000000000E+00 0.  1.
         25    1    1    2    0    0  0.51973722511E+02 -0.11924267167E+03  0.22376366259E+02  0.18178499483E+03  0.12500000000E+03 0.  0.
         25    1    1    2    0    0 -0.51973722511E+02  0.11924267167E+03 -0.46346797618E+03  0.49734057498E+03  0.12500000000E+03 0.  0.
</event>
<event>
 4    0  0.2250660E-002  0.1974471E+03  0.7546771E-02  0.1151911E+00
         21   -1    0    0  502  501  0.00000000000E+00  0.00000000000E+00  0.26223939527E+03  0.26223939527E+03  0.00000000000E+00 0. -1.
         21   -1    0    0  501  502 -0.00000000000E+00 -0.00000000000E+00 -0.14866323647E+03  0.14866323647E+03  0.00000000000E+00 0. -1.
         25    1    1    2    0    0 -0.12776437448E+03  0.70538286498E+02  0.95497846085E+01  0.19239434408E+03  0.12500000000E+03 0.  0.
         25    1    1    2    0    0  0.12776437448E+03 -0.70538286498E+02  0.10402637419E+03  0.21850828766E+03  0.12500000000E+03 0.  0.
</event>
<event>
 4    0  0.2250660E-002  0.1779960E+03  0.7546771E-02  0.1169757E+00
         21   -1    0    0  502  501  0.00000000000E+00  0.00000000000E+00  0.19396591113E+02  0.19396591113E+02  0.00000000000E+00 0.  1.
         21   -1    0    0  501  502 -0.00000000000E+00 -0.00000000000E+00 -0.16334102423E+04  0.16334102423E+04  0.00000000000E+00 0.  1.
         25    1    1    2    0    0  0.45697121960E+01  0.43244394456E+02 -0.13596121273E+04  0.13660384683E+04  0.12500000000E+03 0.  0.
         25    1    1    2    0    0 -0.45697121960E+01 -0.43244394456E+02 -0.25440152380E+03  0.28676836512E+03  0.12500000000E+03 0.  0.
</event>
<event>
 4    0  0.2250660E-002  0.2040326E+03  0.7546771E-02  0.1146381E+00
         21   -1    0    0  502  501  0.00000000000E+00  0.00000000000E+00  0.61918337075E+03  0.61918337075E+03  0.00000000000E+00 0.  1.
         21   -1    0    0  501  502 -0.00000000000E+00 -0.00000000000E+00 -0.67232560671E+02  0.67232560671E+02  0.00000000000E+00 0.  1.
         25    1    1    2    0    0 -0.61220451495E+02 -0.93460019524E+02  0.80374272676E+02  0.18592402383E+03  0.12500000000E+03 0.  0.
         25    1    1    2    0    0  0.61220451495E+02  0.93460019524E+02  0.47157653740E+03  0.50049190758E+03  0.12500000000E+03 0.  0.
</event>
<event>
 4    0  0.2250660E-002  0.2806850E+03  0.7546771E-02  0.1095315E+00
         21   -1    0    0  502  501  0.00000000000E+00  0.00000000000E+00  0.23712534712E+03  0.23712534712E+03  0.00000000000E+00 0. -1.
         21   -1    0    0  501  502 -0.00000000000E+00 -0.00000000000E+00 -0.33224649746E+03  0.33224649746E+03  0.00000000000E+00 0. -1.
         25    1    1    2    0    0  0.18700762142E+03 -0.14701095264E+03 -0.12980273784E+03  0.29842557098E+03  0.12500000000E+03 0.  0.
         25    1    1    2    0    0 -0.18700762142E+03  0.14701095264E+03  0.34681587490E+02  0.27094627360E+03  0.12500000000E+03 0.  0.
</event>
<event>
 4    0  0.2250660E-002  0.1628117E+03  0.7546771E-02  0.1185558E+00
         21   -1    0    0  502  501  0.00000000000E+00  0.00000000000E+00  0.57283687135E+03  0.57283687135E+03  0.00000000000E+00 0.  1.
         21   -1    0    0  501  502 -0.00000000000E+00 -0.00000000000E+00 -0.46274363903E+02  0.46274363903E+02  0.00000000000E+00 0.  1.
         25    1    1    2    0    0  0.68419076458E+02  0.42269779589E+02  0.38961122807E+03  0.41700097521E+03  0.12500000000E+03 0.  0.
         25    1    1    2    0    0 -0.68419076458E+02 -0.42269779589E+02  0.13695127937E+03  0.20211026004E+03  0.12500000000E+03 0.  0.
</event>
<event>
 4    0  0.2250660E-002  0.2093790E+03  0.7546771E-02  0.1142059E+00
         21   -1    0    0  502  501  0.00000000000E+00  0.00000000000E+00  0.56183279556E+02  0.56183279556E+02  0.00000000000E+00 0. -1.
         21   -1    0    0  501  502 -0.00000000000E+00 -0.00000000000E+00 -0.78029545189E+03  0.78029545189E+03  0.00000000000E+00 0. -1.
         25    1    1    2    0    0  0.84856461631E+02 -0.12950816671E+03 -0.49214949951E+03  0.53085696208E+03  0.12500000000E+03 0.  0.
         25    1    1    2    0    0 -0.84856461631E+02  0.12950816671E+03 -0.23196267283E+03  0.30562176936E+03  0.12500000000E+03 0.  0.
</event>
<event>
 4    0  0.2250660E-002  0.2324301E+03  0.7546771E-02  0.1124941E+00
         21   -1    0    0  502  501  0.00000000000E+00  0.00000000000E+00  0.17399036436E+03  0.17399036436E+03  0.00000000000E+00 0.  1.
         21   -1    0    0  501  502 -0.00000000000E+00 -0.00000000000E+00 -0.31049845683E+03  0.31049845683E+03  0.00000000000E+00 0.  1.
         25    1    1    2    0    0  0.83402675513E+02  0.18691027539E+02  0.11552474999E+03  0.19046345753E+03  0.12500000000E+03 0.  0.
         25    1    1    2    0    0 -0.83402675513E+02 -0.18691027539E+02 -0.25203284246E+03  0.29402536366E+03  0.12500000000E+03 0.  0.
</event>
<event>
 4    0  0.2250660E-002  0.2068654E+03  0.7546771E-02  0.1144073E+00
         21   -1    0    0  502  501  0.00000000000E+00  0.00000000000E+00  0.50707940112E+03  0.50707940112E+03  0.00000000000E+00 0.  1.
         21   -1    0    0  501  502 -0.00000000000E+00 -0.00000000000E+00 -0.84391703333E+02  0.84391703333E+02  0.00000000000E+00 0.  1.
         25    1    1    2    0    0 -0.15433893655E+03  0.19237697459E+02  0.13333282027E+03  0.23998591063E+03  0.12500000000E+03 0.  0.
         25    1    1    2    0    0  0.15433893655E+03 -0.19237697459E+02  0.28935487752E+03  0.35148519383E+03  0.12500000000E+03 0.  0.
</event>
<event>
 4    0  0.2250660E-002  0.2296966E+03  0.7546771E-02  0.1126854E+00
         21   -1    0    0  502  501  0.00000000000E+00  0.00000000000E+00  0.10857671027E+03  0.10857671027E+03  0.00000000000E+00 0. -1.
         21   -1    0    0  501  502 -0.00000000000E+00 -0.00000000000E+00 -0.48592842230E+03  0.48592842230E+03  0.00000000000E+00 0. -1.
         25    1    1    2    0    0  0.16336956774E+03  0.77230272288E+02 -0.27530757954E+03  0.35224053426E+03  0.12500000000E+03 0.  0.
         25    1    1    2    0    0 -0.16336956774E+03 -0.77230272288E+02 -0.10204413248E+03  0.24226459832E+03  0.12500000000E+03 0.  0.
</event>
<event>
 4    0  0.2250660E-002  0.1849260E+03  0.7546771E-02  0.1163119E+00
         21   -1    0    0  502  501  0.00000000000E+00  0.00000000000E+00  0.40094118394E+02  0.40094118394E+02  0.00000000000E+00 0. -1.
         21   -1    0    0  501  502 -0.00000000000E+00 -0.00000000000E+00 -0.85293389256E+03  0.85293389256E+03  0.00000000000E+00 0. -1.
         25    1    1    2    0    0  0.74477409640E+02  0.11317787288E+03 -0.44194889500E+03  0.47885273441E+03  0.12500000000E+03 0.  0.
         25    1    1    2    0    0 -0.74477409640E+02 -0.11317787288E+03 -0.37089087916E+03  0.41417527654E+03  0.12500000000E+03 0.  0.
</event>
<event>
 4    0  0.2250660E-002  0.3280054E+03  0.7546771E-02  0.1072023E+00
         21   -1    0    0  502  501  0.00000000000E+00  0.00000000000E+00  0.57716741701E+03  0.57716741701E+03  0.00000000000E+00 0. -1.
         21   -1    0    0  501  502 -0.00000000000E+00 -0.00000000000E+00 -0.18640614346E+03  0.18640614346E+03  0.00000000000E+00 0. -1.
         25    1    1    2    0    0 -0.22040186424E+03  0.20108592829E+03  0.13216094787E+03  0.34943389712E+03  0.12500000000E+03 0.  0.
         25    1    1    2    0    0  0.22040186424E+03 -0.20108592829E+03  0.25860032568E+03  0.41413966335E+03  0.12500000000E+03 0.  0.
</event>
<event>
 4    0  0.2250660E-002  0.2038832E+03  0.7546771E-02  0.1146503E+00
         21   -1    0    0  502  501  0.00000000000E+00  0.00000000000E+00  0.11970724836E+04  0.11970724836E+04  0.00000000000E+00 0.  1.
         21   -1    0    0  501  502 -0.00000000000E+00 -0.00000000000E+00 -0.34725016996E+02  0.34725016996E+02  0.00000000000E+00 0.  1.
         25    1    1    2    0    0 -0.10171651666E+03  0.12224531402E+03  0.50396800047E+03  0.54304595760E+03  0.12500000000E+03 0.  0.
         25    1    1    2    0    0  0.10171651666E+03 -0.12224531402E+03  0.65837946615E+03  0.68875154302E+03  0.12500000000E+03 0.  0.
</event>
<event>
 4    0  0.2250660E-002  0.2304774E+03  0.7546771E-02  0.1126304E+00
         21   -1    0    0  502  501  0.00000000000E+00  0.00000000000E+00  0.45189857474E+03  0.45189857474E+03  0.00000000000E+00 0.  1.
         21   -1    0    0  501  502 -0.00000000000E+00 -0.00000000000E+00 -0.11754814858E+03  0.11754814858E+03  0.00000000000E+00 0.  1.
         25    1    1    2    0    0  0.10392352890E+03 -0.14689141774E+03  0.25555035210E+03  0.33661279079E+03  0.12500000000E+03 0.  0.
         25    1    1    2    0    0 -0.10392352890E+03  0.14689141774E+03  0.78800074066E+02  0.23283393253E+03  0.12500000000E+03 0.  0.
</event>
<event>
 4    0  0.2250660E-002  0.1919917E+03  0.7546771E-02  0.1156677E+00
         21   -1    0    0  502  501  0.00000000000E+00  0.00000000000E+00  0.11963702554E+04  0.11963702554E+04  0.00000000000E+00 0. -1.
         21   -1    0    0  501  502 -0.00000000000E+00 -0.00000000000E+00 -0.30810550219E+02  0.30810550219E+02  0.00000000000E+00 0. -1.
         25    1    1    2    0    0 -0.69349321369E+02  0.92515759112E+02  0.29930811855E+03  0.34435278987E+03  0.12500000000E+03 0.  0.
         25    1    1    2    0    0  0.69349321369E+02 -0.92515759112E+02  0.86625158667E+03  0.88282801579E+03  0.12500000000E+03 0.  0.
</event>
<event>
 4    0  0.2250660E-002  0.3043983E+03  0.7546771E-02  0.1083062E+00
         21   -1    0    0  502  501  0.00000000000E+00  0.00000000000E+00  0.55999792667E+03  0.55999792667E+03  0.00000000000E+00 0.  1.
         21   -1    0    0  501  502 -0.00000000000E+00 -0.00000000000E+00 -0.16546191401E+03  0.16546191401E+03  0.00000000000E+00 0. -1.
         25    1    1    2    0    0  0.19133132778E+03  0.18648810033E+03  0.10771455037E+03  0.31402693024E+03  0.12500000000E+03 0.  0.
         25    1    1    2    0    0 -0.19133132778E+03 -0.18648810033E+03  0.28682146229E+03  0.41143291043E+03  0.12500000000E+03 0.  0.
</event>
<event>
 4    0  0.2250660E-002  0.1826653E+03  0.7546771E-02  0.1165248E+00
         21   -1    0    0  502  501  0.00000000000E+00  0.00000000000E+00  0.59290605775E+03  0.59290605775E+03  0.00000000000E+00 0. -1.
         21   -1    0    0  501  502 -0.00000000000E+00 -0.00000000000E+00 -0.56276360639E+02  0.56276360639E+02  0.00000000000E+00 0. -1.
         25    1    1    2    0    0  0.12127785570E+03  0.88719603177E+00  0.36616927537E+03  0.40548001631E+03  0.12500000000E+03 0.  0.
         25    1    1    2    0    0 -0.12127785570E+03 -0.88719603177E+00  0.17046042174E+03  0.24370240208E+03  0.12500000000E+03 0.  0.
</event>
<event>
 4    0  0.2250660E-002  0.2816198E+03  0.7546771E-02  0.1094808E+00
         21   -1    0    0  502  501  0.00000000000E+00  0.00000000000E+00  0.76531400095E+03  0.76531400095E+03  0.00000000000E+00 0. -1.
         21   -1    0    0  501  502 -0.00000000000E+00 -0.00000000000E+00 -0.10363026658E+03  0.10363026658E+03  0.00000000000E+00 0. -1.
         25    1    1    2    0    0  0.46423966549E+02  0.24766982519E+03  0.30962303740E+03  0.41831441796E+03  0.12500000000E+03 0.  0.
         25    1    1    2    0    0 -0.46423966549E+02 -0.24766982519E+03  0.35206069696E+03  0.45062984957E+03  0.12500000000E+03 0.  0.
</event>
<event>
 4    0  0.2250660E-002  0.2080259E+03  0.7546771E-02  0.1143139E+00
         21   -1    0    0  502  501  0.00000000000E+00  0.00000000000E+00  0.96283807606E+02  0.96283807606E+02  0.00000000000E+00 0. -1.
         21   -1    0    0  501  502 -0.00000000000E+00 -0.00000000000E+00 -0.44945003363E+03  0.44945003363E+03  0.00000000000E+00 0. -1.
         25    1    1    2    0    0  0.16695263057E+02  0.86645801399E+02  0.82849157717E+01  0.15323141498E+03  0.12500000000E+03 0.  0.
         25    1    1    2    0    0 -0.16695263057E+02 -0.86645801399E+02 -0.36145114179E+03  0.39250242625E+03  0.12500000000E+03 0.  0.
</event>
<event>
 4    0  0.2250660E-002  0.5865696E+03  0.7546771E-02  0.9933668E-01
         21   -1    0    0  502  501  0.00000000000E+00  0.00000000000E+00  0.90477997279E+03  0.90477997279E+03  0.00000000000E+00 0.  1.
         21   -1    0    0  501  502 -0.00000000000E+00 -0.00000000000E+00 -0.38027349562E+03  0.38027349562E+03  0.00000000000E+00 0.  1.
         25    1    1    2    0    0 -0.53422453183E+02  0.52731233297E+03  0.23450115098E+02  0.54505702721E+03  0.12500000000E+03 0.  0.
         25    1    1    2    0    0  0.53422453183E+02 -0.52731233297E+03  0.50105636208E+03  0.73999644120E+03  0.12500000000E+03 0.  0.
</event>
<event>
 4    0  0.2250660E-002  0.2265898E+03  0.7546771E-02  0.1129063E+00
         21   -1    0    0  502  501  0.00000000000E+00  0.00000000000E+00  0.36548471000E+02  0.36548471000E+02  0.00000000000E+00 0. -1.
         21   -1    0    0  501  502 -0.00000000000E+00 -0.00000000000E+00 -0.14047902137E+04  0.14047902137E+04  0.00000000000E+00 0. -1.
         25    1    1    2    0    0  0.33551069828E+02  0.37508309281E+02 -0.10473333769E+03  0.17066522661E+03  0.12500000000E+03 0.  0.
         25    1    1    2    0    0 -0.33551069828E+02 -0.37508309281E+02 -0.12635084050E+04  0.12706734581E+04  0.12500000000E+03 0.  0.
</event>
<event>
 4    0  0.2250660E-002  0.2444526E+03  0.7546771E-02  0.1116862E+00
         21   -1    0    0  502  501  0.00000000000E+00  0.00000000000E+00  0.89637214395E+03  0.89637214395E+03  0.00000000000E+00 0.  1.
         21   -1    0    0  501  502 -0.00000000000E+00 -0.00000000000E+00 -0.66665485481E+02  0.66665485481E+02  0.00000000000E+00 0.  1.
         25    1    1    2    0    0  0.73133672560E+02  0.82002324122E+02  0.76754458491E+03  0.78538054791E+03  0.12500000000E+03 0.  0.
         25    1    1    2    0    0 -0.73133672560E+02 -0.82002324122E+02  0.62162073564E+02  0.17765708152E+03  0.12500000000E+03 0.  0.
</event>
<event>
 4    0  0.2250660E-002  0.1464000E+03  0.7546771E-02  0.1204968E+00
         21   -1    0    0  502  501  0.00000000000E+00  0.00000000000E+00  0.13091837773E+03  0.13091837773E+03  0.00000000000E+00 0. -1.
         21   -1    0    0  501  502 -0.00000000000E+00 -0.00000000000E+00 -0.16371229809E+03  0.16371229809E+03  0.00000000000E+00 0. -1.
         25    1    1    2    0    0  0.33810756419E+02 -0.42246958984E+02  0.37603991929E+02  0.14130475223E+03  0.12500000000E+03 0.  0.
         25    1    1    2    0    0 -0.33810756419E+02  0.42246958984E+02 -0.70397912289E+02  0.15332592360E+03  0.12500000000E+03 0.  0.
</event>
<event>
 4    0  0.2250660E-002  0.2524911E+03  0.7546771E-02  0.1111741E+00
         21   -1    0    0  502  501  0.00000000000E+00  0.00000000000E+00  0.42128492505E+03  0.42128492505E+03  0.00000000000E+00 0. -1.
         21   -1    0    0  501  502 -0.00000000000E+00 -0.00000000000E+00 -0.15132697760E+03  0.15132697760E+03  0.00000000000E+00 0. -1.
         25    1    1    2    0    0 -0.30627448483E+02 -0.81918225644E+02 -0.93157382667E+02  0.17875103983E+03  0.12500000000E+03 0.  0.
         25    1    1    2    0    0  0.30627448483E+02  0.81918225644E+02  0.36311533012E+03  0.39386086282E+03  0.12500000000E+03 0.  0.
</event>
<event>
 4    0  0.2250660E-002  0.2137345E+03  0.7546771E-02  0.1138642E+00
         21   -1    0    0  502  501  0.00000000000E+00  0.00000000000E+00  0.88882161503E+03  0.88882161503E+03  0.00000000000E+00 0.  1.
         21   -1    0    0  501  502 -0.00000000000E+00 -0.00000000000E+00 -0.51396610947E+02  0.51396610947E+02  0.00000000000E+00 0.  1.
         25    1    1    2    0    0  0.15474598180E+03  0.58478760742E+02  0.30460663995E+03  0.36847834325E+03  0.12500000000E+03 0.  0.
         25    1    1    2    0    0 -0.15474598180E+03 -0.58478760742E+02  0.53281836413E+03  0.57173988273E+03  0.12500000000E+03 0.  0.
</event>
<event>
 4    0  0.2250660E-002  0.2101717E+03  0.7546771E-02  0.1141430E+00
         21   -1    0    0  502  501  0.00000000000E+00  0.00000000000E+00  0.94877099637E+03  0.94877099637E+03  0.00000000000E+00 0.  1.
         21   -1    0    0  501  502 -0.00000000000E+00 -0.00000000000E+00 -0.46557244666E+02  0.46557244666E+02  0.00000000000E+00 0.  1.
         25    1    1    2    0    0  0.10952421595E+03 -0.11361531320E+03  0.30818400777E+03  0.36811190679E+03  0.12500000000E+03 0.  0.
         25    1    1    2    0    0 -0.10952421595E+03  0.11361531320E+03  0.59402974393E+03  0.62721633425E+03  0.12500000000E+03 0.  0.
</event>
<event>
 4    0  0.2250660E-002  0.4868716E+03  0.7546771E-02  0.1017264E+00
         21   -1    0    0  502  501  0.00000000000E+00  0.00000000000E+00  0.49303358903E+03  0.49303358903E+03  0.00000000000E+00 0. -1.
         21   -1    0    0  501  502 -0.00000000000E+00 -0.00000000000E+00 -0.48078652741E+03  0.48078652741E+03  0.00000000000E+00 0. -1.
         25    1    1    2    0    0  0.21238187939E+03 -0.18932440327E+02  0.42562590404E+03  0.49218584923E+03  0.12500000000E+03 0.  0.
         25    1    1    2    0    0 -0.21238187939E+03  0.18932440327E+02 -0.41337884242E+03  0.48163426721E+03  0.12500000000E+03 0.  0.
</event>
<event>
 4    0  0.2250660E-002  0.2970133E+03  0.7546771E-02  0.1086743E+00
         21   -1    0    0  502  501  0.00000000000E+00  0.00000000000E+00  0.10268913628E+04  0.10268913628E+04  0.00000000000E+00 0. -1.
         21   -1    0    0  501  502 -0.00000000000E+00 -0.00000000000E+00 -0.85906746121E+02  0.85906746121E+02  0.00000000000E+00 0. -1.
         25    1    1    2    0    0 -0.19231372119E+03  0.17520025217E+03  0.33919720988E+03  0.44537562002E+03  0.12500000000E+03 0.  0.
         25    1    1    2    0    0  0.19231372119E+03 -0.17520025217E+03  0.60178740685E+03  0.66742248895E+03  0.12500000000E+03 0.  0.
</event>
<event>
 4    0  0.2250660E-002  0.2000596E+03  0.7546771E-02  0.1149689E+00
         21   -1    0    0  502  501  0.00000000000E+00  0.00000000000E+00  0.24162429520E+03  0.24162429520E+03  0.00000000000E+00 0.  1.
         21   -1    0    0  501  502 -0.00000000000E+00 -0.00000000000E+00 -0.16564500336E+03  0.16564500336E+03  0.00000000000E+00 0.  1.
         25    1    1    2    0    0  0.10034301836E+03  0.82333637914E+02  0.12644075786E+03  0.22013590010E+03  0.12500000000E+03 0.  0.
         25    1    1    2    0    0 -0.10034301836E+03 -0.82333637914E+02 -0.50461466026E+02  0.18713339846E+03  0.12500000000E+03 0.  0.
</event>
<event>
 4    0  0.2250660E-002  0.1886599E+03  0.7546771E-02  0.1159676E+00
         21   -1    0    0  502  501  0.00000000000E+00  0.00000000000E+00  0.19584527359E+04  0.19584527359E+04  0.00000000000E+00 0.  1.
         21   -1    0    0  501  502 -0.00000000000E+00 -0.00000000000E+00 -0.18173822875E+02  0.18173822875E+02  0.00000000000E+00 0.  1.
         25    1    1    2    0    0 -0.42263636444E+02 -0.12786791798E+03  0.11943093777E+04  0.12083610011E+04  0.12500000000E+03 0.  0.
         25    1    1    2    0    0  0.42263636444E+02  0.12786791798E+03  0.74596953532E+03  0.76826555763E+03  0.12500000000E+03 0.  0.
</event>
<event>
 4    0  0.2250660E-002  0.3411390E+03  0.7546771E-02  0.1066312E+00
         21   -1    0    0  502  501  0.00000000000E+00  0.00000000000E+00  0.58295996217E+02  0.58295996217E+02  0.00000000000E+00 0. -1.
         21   -1    0    0  501  502 -0.00000000000E+00 -0.00000000000E+00 -0.19962919206E+04  0.19962919206E+04  0.00000000000E+00 0. -1.
         25    1    1    2    0    0 -0.12582231625E+03 -0.13363417954E+03 -0.18916802656E+03  0.29171714293E+03  0.12500000000E+03 0.  0.
         25    1    1    2    0    0  0.12582231625E+03  0.13363417954E+03 -0.17488278978E+04  0.17628707739E+04  0.12500000000E+03 0.  0.
</event>
<event>
 4    0  0.2250660E-002  0.1848218E+03  0.7546771E-02  0.1163216E+00
         21   -1    0    0  502  501  0.00000000000E+00  0.00000000000E+00  0.25709079740E+03  0.25709079740E+03  0.00000000000E+00 0.  1.
         21   -1    0    0  501  502 -0.00000000000E+00 -0.00000000000E+00 -0.13286788116E+03  0.13286788116E+03  0.00000000000E+00 0.  1.
         25    1    1    2    0    0  0.88324965002E+02 -0.67616186568E+02  0.14491635925E+03  0.22135717586E+03  0.12500000000E+03 0.  0.
         25    1    1    2    0    0 -0.88324965002E+02  0.67616186568E+02 -0.20693443014E+02  0.16860150270E+03  0.12500000000E+03 0.  0.
</event>
<event>
 4    0  0.2250660E-002  0.4595271E+03  0.7546771E-02  0.1024918E+00
         21   -1    0    0  502  501  0.00000000000E+00  0.00000000000E+00  0.21495564428E+03  0.21495564428E+03  0.00000000000E+00 0.  1.
         21   -1    0    0  501  502 -0.00000000000E+00 -0.00000000000E+00 -0.98236612913E+03  0.98236612913E+03  0.00000000000E+00 0.  1.
         25    1    1    2    0    0 -0.25114200050E+03  0.34129490854E+03 -0.54842078493E+03  0.70423353822E+03  0.12500000000E+03 0.  0.
         25    1    1    2    0    0  0.25114200050E+03 -0.34129490854E+03 -0.21898969992E+03  0.49308823519E+03  0.12500000000E+03 0.  0.
</event>
<event>
 4    0  0.2250660E-002  0.1934319E+03  0.7546771E-02  0.1155402E+00
         21   -1    0    0  502  501  0.00000000000E+00  0.00000000000E+00  0.28833688113E+03  0.28833688113E+03  0.00000000000E+00 0. -1.
         21   -1    0    0  501  502 -0.00000000000E+00 -0.00000000000E+00 -0.12976447139E+03  0.12976447139E+03  0.00000000000E+00 0. -1.
         25    1    1    2    0    0 -0.40935734824E+02  0.66264641608E+02  0.21480736454E+03  0.26044949793E+03  0.12500000000E+03 0.  0.
         25    1    1    2    0    0  0.40935734824E+02 -0.66264641608E+02 -0.56234954799E+02  0.15765185459E+03  0.12500000000E+03 0.  0.
</event>
<event>
 4    0  0.2250660E-002  0.2588531E+03  0.7546771E-02  0.1107834E+00
         21   -1    0    0  502  501  0.00000000000E+00  0.00000000000E+00  0.27522513813E+02  0.27522513813E+02  0.00000000000E+00 0. -1.
         21   -1    0    0  501  502 -0.00000000000E+00 -0.00000000000E+00 -0.24345491645E+04  0.24345491645E+04  0.00000000000E+00 0. -1.
         25    1    1    2    0    0 -0.17954008473E+03  0.32001026935E+02 -0.56332033785E+03  0.60515577398E+03  0.12500000000E+03 0.  0.
         25    1    1    2    0    0  0.17954008473E+03 -0.32001026935E+02 -0.18437063128E+04  0.18569159043E+04  0.12500000000E+03 0.  0.
</event>
<event>
 4    0  0.2250660E-002  0.1855103E+03  0.7546771E-02  0.1162574E+00
         21   -1    0    0  502  501  0.00000000000E+00  0.00000000000E+00  0.11090271718E+03  0.11090271718E+03  0.00000000000E+00 0. -1.
         21   -1    0    0  501  502 -0.00000000000E+00 -0.00000000000E+00 -0.31030866161E+03  0.31030866161E+03  0.00000000000E+00 0. -1.
         25    1    1    2    0    0 -0.58549581208E+02  0.12341759202E+03 -0.11260315554E+03  0.21671277332E+03  0.12500000000E+03 0.  0.
         25    1    1    2    0    0  0.58549581208E+02 -0.12341759202E+03 -0.86802788895E+02  0.20449860547E+03  0.12500000000E+03 0.  0.
</event>
<event>
 4    0  0.2250660E-002  0.2048225E+03  0.7546771E-02  0.1145733E+00
         21   -1    0    0  502  501  0.00000000000E+00  0.00000000000E+00  0.42103547747E+03  0.42103547747E+03  0.00000000000E+00 0.  1.
         21   -1    0    0  501  502 -0.00000000000E+00 -0.00000000000E+00 -0.99640654692E+02  0.99640654692E+02  0.00000000000E+00 0.  1.
         25    1    1    2    0    0 -0.14331973969E+03  0.12289042298E+02  0.25611606686E+03  0.31923660199E+03  0.12500000000E+03 0.  0.
         25    1    1    2    0    0  0.14331973969E+03 -0.12289042298E+02  0.65278755924E+02  0.20143953018E+03  0.12500000000E+03 0.  0.
</event>
<event>
 4    0  0.2250660E-002  0.3010311E+03  0.7546771E-02  0.1084726E+00
         21   -1    0    0  502  501  0.00000000000E+00  0.00000000000E+00  0.31810898164E+03  0.31810898164E+03  0.00000000000E+00 0.  1.
         21   -1    0    0  501  502 -0.00000000000E+00 -0.00000000000E+00 -0.28487012509E+03  0.28487012509E+03  0.00000000000E+00 0.  1.
         25    1    1    2    0    0 -0.21850981396E+03  0.69370607244E+02 -0.13339493523E+03  0.29322010281E+03  0.12500000000E+03 0.  0.
         25    1    1    2    0    0  0.21850981396E+03 -0.69370607244E+02  0.16663379179E+03  0.30975900392E+03  0.12500000000E+03 0.  0.
</event>
<event>
 4    0  0.2250660E-002  0.2239262E+03  0.7546771E-02  0.1130989E+00
         21   -1    0    0  502  501  0.00000000000E+00  0.00000000000E+00  0.98391815653E+02  0.98391815653E+02  0.00000000000E+00 0. -1.
         21   -1    0    0  501  502 -0.00000000000E+00 -0.00000000000E+00 -0.50962517734E+03  0.50962517734E+03  0.00000000000E+00 0. -1.
         25    1    1    2    0    0 -0.15232361017E+03  0.96035604181E+02 -0.26772170143E+03  0.34601333631E+03  0.12500000000E+03 0.  0.
         25    1    1    2    0    0  0.15232361017E+03 -0.96035604181E+02 -0.14351166026E+03  0.26200365668E+03  0.12500000000E+03 0.  0.
</event>
<event>
 4    0  0.2250660E-002  0.2279230E+03  0.7546771E-02  0.1128110E+00
         21   -1    0    0  502  501  0.00000000000E+00  0.00000000000E+00  0.12364803201E+03  0.12364803201E+03  0.00000000000E+00 0. -1.
         21   -1    0    0  501  502 -0.00000000000E+00 -0.00000000000E+00 -0.42013525172E+03  0.42013525172E+03  0.00000000000E+00 0. -1.
         25    1    1    2    0    0 -0.71626933193E+02 -0.16844678077E+03 -0.84905124648E+02  0.23735756930E+03  0.12500000000E+03 0.  0.
         25    1    1    2    0    0  0.71626933193E+02  0.16844678077E+03 -0.21158209507E+03  0.30642571443E+03  0.12500000000E+03 0.  0.
</event>
<event>
 4    0  0.2250660E-002  0.2463239E+03  0.7546771E-02  0.1115650E+00
         21   -1    0    0  502  501  0.00000000000E+00  0.00000000000E+00  0.26958823702E+03  0.26958823702E+03  0.00000000000E+00 0.  1.
         21   -1    0    0  501  502 -0.00000000000E+00 -0.00000000000E+00 -0.22506718027E+03  0.22506718027E+03  0.00000000000E+00 0.  1.
         25    1    1    2    0    0 -0.19902250830E+03  0.72229034452E+02  0.37270431362E+02  0.24867866270E+03  0.12500000000E+03 0.  0.
         25    1    1    2    0    0  0.19902250830E+03 -0.72229034452E+02  0.72506253949E+01  0.24597675459E+03  0.12500000000E+03 0.  0.
</event>
<event>
 4    0  0.2250660E-002  0.1480302E+03  0.7546771E-02  0.1202915E+00
         21   -1    0    0  502  501  0.00000000000E+00  0.00000000000E+00  0.92686974120E+02  0.92686974120E+02  0.00000000000E+00 0.  1.
         21   -1    0    0  501  502 -0.00000000000E+00 -0.00000000000E+00 -0.23641875849E+03  0.23641875849E+03  0.00000000000E+00 0.  1.
         25    1    1    2    0    0 -0.48226141103E+02  0.60555223195E+02 -0.90966420722E+02  0.17289472358E+03  0.12500000000E+03 0.  0.
         25    1    1    2    0    0  0.48226141103E+02 -0.60555223195E+02 -0.52765363647E+02  0.15621100903E+03  0.12500000000E+03 0.  0.
</event>
<event>
 4    0  0.2250660E-002  0.1993681E+03  0.7546771E-02  0.1150273E+00
         21   -1    0    0  502  501  0.00000000000E+00  0.00000000000E+00  0.45092272702E+03  0.45092272702E+03  0.00000000000E+00 0. -1.
         21   -1    0    0  501  502 -0.00000000000E+00 -0.00000000000E+00 -0.88147383072E+02  0.88147383072E+02  0.00000000000E+00 0. -1.
         25    1    1    2    0    0  0.78182459704E+02  0.70023929242E+02  0.26610112112E+02  0.16537516663E+03  0.12500000000E+03 0.  0.
         25    1    1    2    0    0 -0.78182459704E+02 -0.70023929242E+02  0.33616523184E+03  0.37369494346E+03  0.12500000000E+03 0.  0.
</event>
<event>
 4    0  0.2250660E-002  0.2185741E+03  0.7546771E-02  0.1134951E+00
         21   -1    0    0  502  501  0.00000000000E+00  0.00000000000E+00  0.12255100641E+03  0.12255100641E+03  0.00000000000E+00 0.  1.
         21   -1    0    0  501  502 -0.00000000000E+00 -0.00000000000E+00 -0.38983473253E+03  0.38983473253E+03  0.00000000000E+00 0.  1.
         25    1    1    2    0    0 -0.15856955583E+03  0.95000702582E+01 -0.23111098283E+03  0.30703719931E+03  0.12500000000E+03 0.  0.
         25    1    1    2    0    0  0.15856955583E+03 -0.95000702582E+01 -0.36172743287E+02  0.20534853963E+03  0.12500000000E+03 0.  0.
</event>
<event>
 4    0  0.2250660E-002  0.2202540E+03  0.7546771E-02  0.1133694E+00
         21   -1    0    0  502  501  0.00000000000E+00  0.00000000000E+00  0.64296087908E+02  0.64296087908E+02  0.00000000000E+00 0. -1.
         21   -1    0    0  501  502 -0.00000000000E+00 -0.00000000000E+00 -0.75450663430E+03  0.75450663430E+03  0.00000000000E+00 0. -1.
         25    1    1    2    0    0 -0.87181546729E+02  0.12858604966E+03 -0.17121514470E+03  0.26282050915E+03  0.12500000000E+03 0.  0.
         25    1    1    2    0    0  0.87181546729E+02 -0.12858604966E+03 -0.51899540169E+03  0.55598221306E+03  0.12500000000E+03 0.  0.
</event>
<event>
 4    0  0.2250660E-002  0.2056555E+03  0.7546771E-02  0.1145053E+00
         21   -1    0    0  502  501  0.00000000000E+00  0.00000000000E+00  0.29695548614E+03  0.29695548614E+03  0.00000000000E+00 0. -1.
         21   -1    0    0  501  502 -0.00000000000E+00 -0.00000000000E+00 -0.14242600742E+03  0.14242600742E+03  0.00000000000E+00 0.  1.
         25    1    1    2    0    0  0.15626734880E+03  0.33440288278E+02  0.41332145885E+02  0.20705333483E+03  0.12500000000E+03 0.  0.
         25    1    1    2    0    0 -0.15626734880E+03 -0.33440288278E+02  0.11319733283E+03  0.23232815874E+03  0.12500000000E+03 0.  0.
</event>
<event>
 4    0  0.2250660E-002  0.2003668E+03  0.7546771E-02  0.1149430E+00
         21   -1    0    0  502  501  0.00000000000E+00  0.00000000000E+00  0.75561606931E+02  0.75561606931E+02  0.00000000000E+00 0.  1.
         21   -1    0    0  501  502 -0.00000000000E+00 -0.00000000000E+00 -0.53131291425E+03  0.53131291425E+03  0.00000000000E+00 0.  1.
         25    1    1    2    0    0  0.11018659579E+03 -0.29976786291E+02 -0.65599388924E+02  0.18157084963E+03  0.12500000000E+03 0.  0.
         25    1    1    2    0    0 -0.11018659579E+03  0.29976786291E+02 -0.39015191840E+03  0.42530367155E+03  0.12500000000E+03 0.  0.
</event>
<event>
 4    0  0.2250660E-002  0.2150281E+03  0.7546771E-02  0.1137645E+00
         21   -1    0    0  502  501  0.00000000000E+00  0.00000000000E+00  0.26345191140E+03  0.26345191140E+03  0.00000000000E+00 0. -1.
         21   -1    0    0  501  502 -0.00000000000E+00 -0.00000000000E+00 -0.17550475814E+03  0.17550475814E+03  0.00000000000E+00 0. -1.
         25    1    1    2    0    0 -0.24644331968E+02  0.16806310075E+03  0.11588647095E+01  0.21090019416E+03  0.12500000000E+03 0.  0.
         25    1    1    2    0    0  0.24644331968E+02 -0.16806310075E+03  0.86788288552E+02  0.22805647538E+03  0.12500000000E+03 0.  0.
</event>
<event>
 4    0  0.2250660E-002  0.3276056E+03  0.7546771E-02  0.1072201E+00
         21   -1    0    0  502  501  0.00000000000E+00  0.00000000000E+00  0.12715847630E+04  0.12715847630E+04  0.00000000000E+00 0. -1.
         21   -1    0    0  501  502 -0.00000000000E+00 -0.00000000000E+00 -0.84402903873E+02  0.84402903873E+02  0.00000000000E+00 0. -1.
         25    1    1    2    0    0 -0.21237560080E+03  0.42723902933E+02  0.15568958807E+03  0.29460647571E+03  0.12500000000E+03 0.  0.
         25    1    1    2    0    0  0.21237560080E+03 -0.42723902933E+02  0.10314922711E+04  0.10613811912E+04  0.12500000000E+03 0.  0.
</event>
<event>
 4    0  0.2250660E-002  0.2246131E+03  0.7546771E-02  0.1130490E+00
         21   -1    0    0  502  501  0.00000000000E+00  0.00000000000E+00  0.18481780524E+03  0.18481780524E+03  0.00000000000E+00 0. -1.
         21   -1    0    0  501  502 -0.00000000000E+00 -0.00000000000E+00 -0.27297723179E+03  0.27297723179E+03  0.00000000000E+00 0. -1.
         25    1    1    2    0    0 -0.13075814412E+03  0.11823478981E+03 -0.10647583702E+03  0.24091339034E+03  0.12500000000E+03 0.  0.
         25    1    1    2    0    0  0.13075814412E+03 -0.11823478981E+03  0.18316410478E+02  0.21688164669E+03  0.12500000000E+03 0.  0.
</event>
<event>
 4    0  0.2250660E-002  0.2606909E+03  0.7546771E-02  0.1106729E+00
         21   -1    0    0  502  501  0.00000000000E+00  0.00000000000E+00  0.52438288866E+03  0.52438288866E+03  0.00000000000E+00 0. -1.
         21   -1    0    0  501  502 -0.00000000000E+00 -0.00000000000E+00 -0.12959947510E+03  0.12959947510E+03  0.00000000000E+00 0. -1.
         25    1    1    2    0    0  0.23834680473E+02 -0.15205818671E+03  0.40968403333E+03  0.45514370402E+03  0.12500000000E+03 0.  0.
         25    1    1    2    0    0 -0.23834680473E+02  0.15205818671E+03 -0.14900619768E+02  0.19883865974E+03  0.12500000000E+03 0.  0.
</event>
<event>
 4    0  0.2250660E-002  0.1700463E+03  0.7546771E-02  0.1177800E+00
         21   -1    0    0  502  501  0.00000000000E+00  0.00000000000E+00  0.28370012922E+03  0.28370012922E+03  0.00000000000E+00 0.  1.
         21   -1    0    0  501  502 -0.00000000000E+00 -0.00000000000E+00 -0.10192357233E+03  0.10192357233E+03  0.00000000000E+00 0.  1.
         25    1    1    2    0    0  0.36461982128E+02  0.10635177220E+03  0.61967587550E+02  0.17917912127E+03  0.12500000000E+03 0.  0.
         25    1    1    2    0    0 -0.36461982128E+02 -0.10635177220E+03  0.11980896934E+03  0.20644458028E+03  0.12500000000E+03 0.  0.
</event>
<event>
 4    0  0.2250660E-002  0.2436002E+03  0.7546771E-02  0.1117417E+00
         21   -1    0    0  502  501  0.00000000000E+00  0.00000000000E+00  0.87289092743E+03  0.87289092743E+03  0.00000000000E+00 0.  1.
         21   -1    0    0  501  502 -0.00000000000E+00 -0.00000000000E+00 -0.67982202574E+02  0.67982202574E+02  0.00000000000E+00 0.  1.
         25    1    1    2    0    0 -0.16011479323E+03  0.13616339861E+02  0.14412372188E+03  0.24943696384E+03  0.12500000000E+03 0.  0.
         25    1    1    2    0    0  0.16011479323E+03 -0.13616339861E+02  0.66078500298E+03  0.69143616617E+03  0.12500000000E+03 0.  0.
</event>
<event>
 4    0  0.2250660E-002  0.2020560E+03  0.7546771E-02  0.1148016E+00
         21   -1    0    0  502  501  0.00000000000E+00  0.00000000000E+00  0.99180983571E+03  0.99180983571E+03  0.00000000000E+00 0.  1.
         21   -1    0    0  501  502 -0.00000000000E+00 -0.00000000000E+00 -0.41163780015E+02  0.41163780015E+02  0.00000000000E+00 0.  1.
         25    1    1    2    0    0 -0.12703070290E+03  0.30634613575E+02  0.70575116503E+03  0.72854992003E+03  0.12500000000E+03 0.  0.
         25    1    1    2    0    0  0.12703070290E+03 -0.30634613575E+02  0.24489489066E+03  0.30442369570E+03  0.12500000000E+03 0.  0.
</event>
<event>
 4    0  0.2250660E-002  0.2421145E+03  0.7546771E-02  0.1118392E+00
         21   -1    0    0  502  501  0.00000000000E+00  0.00000000000E+00  0.13079042855E+03  0.13079042855E+03  0.00000000000E+00 0. -1.
         21   -1    0    0  501  502 -0.00000000000E+00 -0.00000000000E+00 -0.44819363610E+03  0.44819363610E+03  0.00000000000E+00 0. -1.
         25    1    1    2    0    0  0.14603234454E+03  0.14714567857E+03 -0.16365198349E+03  0.29220586592E+03  0.12500000000E+03 0.  0.
         25    1    1    2    0    0 -0.14603234454E+03 -0.14714567857E+03 -0.15375122405E+03  0.28677819874E+03  0.12500000000E+03 0.  0.
</event>
<event>
 4    0  0.2250660E-002  0.1406035E+03  0.7546771E-02  0.1212519E+00
         21   -1    0    0  502  501  0.00000000000E+00  0.00000000000E+00  0.41058198839E+02  0.41058198839E+02  0.00000000000E+00 0.  1.
         21   -1    0    0  501  502 -0.00000000000E+00 -0.00000000000E+00 -0.48149566534E+03  0.48149566534E+03  0.00000000000E+00 0.  1.
         25    1    1    2    0    0 -0.46453834739E+02 -0.21135595228E+02 -0.29313410993E+03  0.32273406785E+03  0.12500000000E+03 0.  0.
         25    1    1    2    0    0  0.46453834739E+02  0.21135595228E+02 -0.14730335658E+03  0.19981979633E+03  0.12500000000E+03 0.  0.
</event>
<event>
 4    0  0.2250660E-002  0.1649655E+03  0.7546771E-02  0.1183202E+00
         21   -1    0    0  502  501  0.00000000000E+00  0.00000000000E+00  0.11721995171E+04  0.11721995171E+04  0.00000000000E+00 0.  1.
         21   -1    0    0  501  502 -0.00000000000E+00 -0.00000000000E+00 -0.23215843873E+02  0.23215843873E+02  0.00000000000E+00 0.  1.
         25    1    1    2    0    0 -0.90515784381E+02 -0.57325330068E+02  0.53661214075E+03  0.56129928763E+03  0.12500000000E+03 0.  0.
         25    1    1    2    0    0  0.90515784381E+02  0.57325330068E+02  0.61237153251E+03  0.63411607338E+03  0.12500000000E+03 0.  0.
</event>
<event>
 4    0  0.2250660E-002  0.1933416E+03  0.7546771E-02  0.1155482E+00
         21   -1    0    0  502  501  0.00000000000E+00  0.00000000000E+00  0.37229105465E+03  0.37229105465E+03  0.00000000000E+00 0.  1.
         21   -1    0    0  501  502 -0.00000000000E+00 -0.00000000000E+00 -0.10040790226E+03  0.10040790226E+03  0.00000000000E+00 0.  1.
         25    1    1    2    0    0  0.10284428300E+03 -0.10195784687E+03  0.17016163093E+03  0.25603189201E+03  0.12500000000E+03 0.  0.
         25    1    1    2    0    0 -0.10284428300E+03  0.10195784687E+03  0.10172152146E+03  0.21666706490E+03  0.12500000000E+03 0.  0.
</event>
<event>
 4    0  0.2250660E-002  0.2087073E+03  0.7546771E-02  0.1142594E+00
         21   -1    0    0  502  501  0.00000000000E+00  0.00000000000E+00  0.31711227663E+03  0.31711227663E+03  0.00000000000E+00 0.  1.
         21   -1    0    0  501  502 -0.00000000000E+00 -0.00000000000E+00 -0.13736062713E+03  0.13736062713E+03  0.00000000000E+00 0.  1.
         25    1    1    2    0    0 -0.14642172084E+03 -0.79399121310E+02  0.10489154059E+03  0.23317541913E+03  0.12500000000E+03 0.  0.
         25    1    1    2    0    0  0.14642172084E+03  0.79399121310E+02  0.74860108905E+02  0.22129748463E+03  0.12500000000E+03 0.  0.
</event>
<event>
 4    0  0.2250660E-002  0.1908812E+03  0.7546771E-02  0.1157669E+00
         21   -1    0    0  502  501  0.00000000000E+00  0.00000000000E+00  0.75522899362E+03  0.75522899362E+03  0.00000000000E+00 0.  1.
         21   -1    0    0  501  502 -0.00000000000E+00 -0.00000000000E+00 -0.48244471975E+02  0.48244471975E+02  0.00000000000E+00 0.  1.
         25    1    1    2    0    0 -0.29988752471E+02  0.14017197806E+03  0.31935320576E+03  0.37169742902E+03  0.12500000000E+03 0.  0.
         25    1    1    2    0    0  0.29988752471E+02 -0.14017197806E+03  0.38763131588E+03  0.43177603658E+03  0.12500000000E+03 0.  0.
</event>
<event>
 4    0  0.2250660E-002  0.2640638E+03  0.7546771E-02  0.1104726E+00
         21   -1    0    0  502  501  0.00000000000E+00  0.00000000000E+00  0.23095356246E+03  0.23095356246E+03  0.00000000000E+00 0. -1.
         21   -1    0    0  501  502 -0.00000000000E+00 -0.00000000000E+00 -0.30192086099E+03  0.30192086099E+03  0.00000000000E+00 0. -1.
         25    1    1    2    0    0  0.22334330082E+03 -0.54830937270E+02 -0.70668793235E+02  0.27112310864E+03  0.12500000000E+03 0.  0.
         25    1    1    2    0    0 -0.22334330082E+03  0.54830937270E+02 -0.29850529771E+00  0.26175131481E+03  0.12500000000E+03 0.  0.
</event>
<event>
 4    0  0.2250660E-002  0.2119844E+03  0.7546771E-02  0.1140004E+00
         21   -1    0    0  502  501  0.00000000000E+00  0.00000000000E+00  0.31354947930E+03  0.31354947930E+03  0.00000000000E+00 0.  1.
         21   -1    0    0  501  502 -0.00000000000E+00 -0.00000000000E+00 -0.14331836094E+03  0.14331836094E+03  0.00000000000E+00 0.  1.
         25    1    1    2    0    0 -0.15526440721E+03 -0.14835595146E+02  0.16120087027E+03  0.25678366693E+03  0.12500000000E+03 0.  0.
         25    1    1    2    0    0  0.15526440721E+03  0.14835595146E+02  0.90302480952E+01  0.20008417331E+03  0.12500000000E+03 0.  0.
</event>
<event>
 4    0  0.2250660E-002  0.2501120E+03  0.7546771E-02  0.1113234E+00
         21   -1    0    0  502  501  0.00000000000E+00  0.00000000000E+00  0.28121791612E+03  0.28121791612E+03  0.00000000000E+00 0. -1.
         21   -1    0    0  501  502 -0.00000000000E+00 -0.00000000000E+00 -0.22244672835E+03  0.22244672835E+03  0.00000000000E+00 0. -1.
         25    1    1    2    0    0 -0.20848636402E+03  0.44597155044E+02 -0.92913143096E+01  0.24731922437E+03  0.12500000000E+03 0.  0.
         25    1    1    2    0    0  0.20848636402E+03 -0.44597155044E+02  0.68062502085E+02  0.25634542011E+03  0.12500000000E+03 0.  0.
</event>
<event>
 4    0  0.2250660E-002  0.3127751E+03  0.7546771E-02  0.1079023E+00
         21   -1    0    0  502  501  0.00000000000E+00  0.00000000000E+00  0.64964579158E+02  0.64964579158E+02  0.00000000000E+00 0. -1.
         21   -1    0    0  501  502 -0.00000000000E+00 -0.00000000000E+00 -0.15058705478E+04  0.15058705478E+04  0.00000000000E+00 0.  1.
         25    1    1    2    0    0 -0.28262112419E+03  0.45117190004E+02 -0.67747048073E+03  0.74599029011E+03  0.12500000000E+03 0.  0.
         25    1    1    2    0    0  0.28262112419E+03 -0.45117190004E+02 -0.76343548787E+03  0.82484483681E+03  0.12500000000E+03 0.  0.
</event>
<event>
 4    0  0.2250660E-002  0.2151382E+03  0.7546771E-02  0.1137561E+00
         21   -1    0    0  502  501  0.00000000000E+00  0.00000000000E+00  0.14707068788E+04  0.14707068788E+04  0.00000000000E+00 0. -1.
         21   -1    0    0  501  502 -0.00000000000E+00 -0.00000000000E+00 -0.31470876323E+02  0.31470876323E+02  0.00000000000E+00 0. -1.
         25    1    1    2    0    0 -0.70955376594E+02  0.11542013842E+03  0.11068566224E+04  0.11221020704E+04  0.12500000000E+03 0.  0.
         25    1    1    2    0    0  0.70955376594E+02 -0.11542013842E+03  0.33237938004E+03  0.38007568470E+03  0.12500000000E+03 0.  0.
</event>
<event>
 4    0  0.2250660E-002  0.2306663E+03  0.7546771E-02  0.1126172E+00
         21   -1    0    0  502  501  0.00000000000E+00  0.00000000000E+00  0.25671982817E+03  0.25671982817E+03  0.00000000000E+00 0. -1.
         21   -1    0    0  501  502 -0.00000000000E+00 -0.00000000000E+00 -0.20725684080E+03  0.20725684080E+03  0.00000000000E+00 0. -1.
         25    1    1    2    0    0  0.18257804952E+03 -0.33219156990E+02 -0.31658422038E+02  0.22597679581E+03  0.12500000000E+03 0.  0.
         25    1    1    2    0    0 -0.18257804952E+03  0.33219156990E+02  0.81121409412E+02  0.23799987316E+03  0.12500000000E+03 0.  0.
</event>
<event>
 4    0  0.2250660E-002  0.3693560E+03  0.7546771E-02  0.1054939E+00
         21   -1    0    0  502  501  0.00000000000E+00  0.00000000000E+00  0.51240908464E+03  0.51240908464E+03  0.00000000000E+00 0.  1.
         21   -1    0    0  501  502 -0.00000000000E+00 -0.00000000000E+00 -0.26624014779E+03  0.26624014779E+03  0.00000000000E+00 0.  1.
         25    1    1    2    0    0  0.40312305981E+02  0.10626192218E+03 -0.22312708971E+03  0.27987028474E+03  0.12500000000E+03 0.  0.
         25    1    1    2    0    0 -0.40312305981E+02 -0.10626192218E+03  0.46929602656E+03  0.49877894769E+03  0.12500000000E+03 0.  0.
</event>
<event>
 4    0  0.2250660E-002  0.3652807E+03  0.7546771E-02  0.1056512E+00
         21   -1    0    0  502  501  0.00000000000E+00  0.00000000000E+00  0.41050873440E+03  0.41050873440E+03  0.00000000000E+00 0. -1.
         21   -1    0    0  501  502 -0.00000000000E+00 -0.00000000000E+00 -0.32503561291E+03  0.32503561291E+03  0.00000000000E+00 0. -1.
         25    1    1    2    0    0  0.21756753593E+03 -0.21908009828E+03 -0.10819671489E+03  0.35023313844E+03  0.12500000000E+03 0.  0.
         25    1    1    2    0    0 -0.21756753593E+03  0.21908009828E+03  0.19366983638E+03  0.38531120886E+03  0.12500000000E+03 0.  0.
</event>
<event>
 4    0  0.2250660E-002  0.1739555E+03  0.7546771E-02  0.1173785E+00
         21   -1    0    0  502  501  0.00000000000E+00  0.00000000000E+00  0.44426359101E+03  0.44426359101E+03  0.00000000000E+00 0. -1.
         21   -1    0    0  501  502 -0.00000000000E+00 -0.00000000000E+00 -0.68113840217E+02  0.68113840217E+02  0.00000000000E+00 0. -1.
         25    1    1    2    0    0  0.73369221783E+02  0.57532960115E+02  0.30160299454E+03  0.33953269433E+03  0.12500000000E+03 0.  0.
         25    1    1    2    0    0 -0.73369221783E+02 -0.57532960115E+02  0.74546756254E+02  0.17284473690E+03  0.12500000000E+03 0.  0.
</event>
<event>
 4    0  0.2250660E-002  0.2260609E+03  0.7546771E-02  0.1129443E+00
         21   -1    0    0  502  501  0.00000000000E+00  0.00000000000E+00  0.44244952916E+02  0.44244952916E+02  0.00000000000E+00 0.  1.
         21   -1    0    0  501  502 -0.00000000000E+00 -0.00000000000E+00 -0.11550139853E+04  0.11550139853E+04  0.00000000000E+00 0.  1.
         25    1    1    2    0    0  0.13815081724E+03  0.35342887605E+02 -0.22896621464E+03  0.29729664555E+03  0.12500000000E+03 0.  0.
         25    1    1    2    0    0 -0.13815081724E+03 -0.35342887605E+02 -0.88180281773E+03  0.90196229265E+03  0.12500000000E+03 0.  0.
</event>
<event>
 4    0  0.2250660E-002  0.3752974E+03  0.7546771E-02  0.1052686E+00
         21   -1    0    0  502  501  0.00000000000E+00  0.00000000000E+00  0.86466211441E+02  0.86466211441E+02  0.00000000000E+00 0. -1.
         21   -1    0    0  501  502 -0.00000000000E+00 -0.00000000000E+00 -0.16289388672E+04  0.16289388672E+04  0.00000000000E+00 0. -1.
         25    1    1    2    0    0 -0.23542362632E+03  0.16769208148E+03 -0.12378052945E+04  0.12772360256E+04  0.12500000000E+03 0.  0.
         25    1    1    2    0    0  0.23542362632E+03 -0.16769208148E+03 -0.30466736128E+03  0.43816905306E+03  0.12500000000E+03 0.  0.
</event>
<event>
 4    0  0.2250660E-002  0.2352860E+03  0.7546771E-02  0.1122974E+00
         21   -1    0    0  502  501  0.00000000000E+00  0.00000000000E+00  0.14401148531E+03  0.14401148531E+03  0.00000000000E+00 0. -1.
         21   -1    0    0  501  502 -0.00000000000E+00 -0.00000000000E+00 -0.38441043827E+03  0.38441043827E+03  0.00000000000E+00 0. -1.
         25    1    1    2    0    0 -0.10850648147E+03 -0.86965903377E+02  0.40179070546E+02  0.19124874531E+03  0.12500000000E+03 0.  0.
         25    1    1    2    0    0  0.10850648147E+03  0.86965903377E+02 -0.28057802351E+03  0.33717317827E+03  0.12500000000E+03 0.  0.
</event>
<event>
 4    0  0.2250660E-002  0.2577857E+03  0.7546771E-02  0.1108481E+00
         21   -1    0    0  502  501  0.00000000000E+00  0.00000000000E+00  0.11642580077E+03  0.11642580077E+03  0.00000000000E+00 0. -1.
         21   -1    0    0  501  502 -0.00000000000E+00 -0.00000000000E+00 -0.57077947700E+03  0.57077947700E+03  0.00000000000E+00 0. -1.
         25    1    1    2    0    0  0.19535078906E+03  0.35743854042E+02 -0.84931297200E+02  0.24955536286E+03  0.12500000000E+03 0.  0.
         25    1    1    2    0    0 -0.19535078906E+03 -0.35743854042E+02 -0.36942237903E+03  0.43764991491E+03  0.12500000000E+03 0.  0.
</event>
<event>
 4    0  0.2250660E-002  0.1750567E+03  0.7546771E-02  0.1172675E+00
         21   -1    0    0  502  501  0.00000000000E+00  0.00000000000E+00  0.20781981687E+03  0.20781981687E+03  0.00000000000E+00 0.  1.
         21   -1    0    0  501  502 -0.00000000000E+00 -0.00000000000E+00 -0.14745873039E+03  0.14745873039E+03  0.00000000000E+00 0.  1.
         25    1    1    2    0    0 -0.95646586327E+02 -0.16072649201E+02 -0.45846365771E+02  0.16472245986E+03  0.12500000000E+03 0.  0.
         25    1    1    2    0    0  0.95646586327E+02  0.16072649201E+02  0.10620745225E+03  0.19055608739E+03  0.12500000000E+03 0.  0.
</event>
<event>
 4    0  0.2250660E-002  0.3172402E+03  0.7546771E-02  0.1076926E+00
         21   -1    0    0  502  501  0.00000000000E+00  0.00000000000E+00  0.33378757031E+02  0.33378757031E+02  0.00000000000E+00 0.  1.
         21   -1    0    0  501  502 -0.00000000000E+00 -0.00000000000E+00 -0.30151320161E+04  0.30151320161E+04  0.00000000000E+00 0.  1.
         25    1    1    2    0    0 -0.12720436908E+03 -0.22324368425E+03 -0.82863023318E+03  0.87651112795E+03  0.12500000000E+03 0.  0.
         25    1    1    2    0    0  0.12720436908E+03  0.22324368425E+03 -0.21531230259E+04  0.21719996452E+04  0.12500000000E+03 0.  0.
</event>
<event>
 4    0  0.2250660E-002  0.1784204E+03  0.7546771E-02  0.1169341E+00
         21   -1    0    0  502  501  0.00000000000E+00  0.00000000000E+00  0.70960196501E+03  0.70960196501E+03  0.00000000000E+00 0. -1.
         21   -1    0    0  501  502 -0.00000000000E+00 -0.00000000000E+00 -0.44861522027E+02  0.44861522027E+02  0.00000000000E+00 0. -1.
         25    1    1    2    0    0 -0.10059701833E+03 -0.19946268479E+02  0.49187222669E+03  0.51776529539E+03  0.12500000000E+03 0.  0.
         25    1    1    2    0    0  0.10059701833E+03  0.19946268479E+02  0.17286821630E+03  0.23669819165E+03  0.12500000000E+03 0.  0.
</event>
<event>
 4    0  0.2250660E-002  0.1944279E+03  0.7546771E-02  0.1154527E+00
         21   -1    0    0  502  501  0.00000000000E+00  0.00000000000E+00  0.46022689721E+03  0.46022689721E+03  0.00000000000E+00 0. -1.
         21   -1    0    0  501  502 -0.00000000000E+00 -0.00000000000E+00 -0.82138198340E+02  0.82138198340E+02  0.00000000000E+00 0. -1.
         25    1    1    2    0    0 -0.10865219340E+03  0.86406365875E+02  0.11385788360E+03  0.21876923196E+03  0.12500000000E+03 0.  0.
         25    1    1    2    0    0  0.10865219340E+03 -0.86406365875E+02  0.26423081527E+03  0.32359586359E+03  0.12500000000E+03 0.  0.
</event>
<event>
 4    0  0.2250660E-002  0.1638750E+03  0.7546771E-02  0.1184390E+00
         21   -1    0    0  502  501  0.00000000000E+00  0.00000000000E+00  0.11456064416E+03  0.11456064416E+03  0.00000000000E+00 0.  1.
         21   -1    0    0  501  502 -0.00000000000E+00 -0.00000000000E+00 -0.23441749807E+03  0.23441749807E+03  0.00000000000E+00 0.  1.
         25    1    1    2    0    0  0.58806269824E+02  0.18576798350E+02  0.31831855904E+02  0.14297392020E+03  0.12500000000E+03 0.  0.
         25    1    1    2    0    0 -0.58806269824E+02 -0.18576798350E+02 -0.15168870981E+03  0.20600422202E+03  0.12500000000E+03 0.  0.
</event>
<event>
 4    0  0.2250660E-002  0.1986193E+03  0.7546771E-02  0.1150909E+00
         21   -1    0    0  502  501  0.00000000000E+00  0.00000000000E+00  0.10124268834E+03  0.10124268834E+03  0.00000000000E+00 0.  1.
         21   -1    0    0  501  502 -0.00000000000E+00 -0.00000000000E+00 -0.38965396855E+03  0.38965396855E+03  0.00000000000E+00 0.  1.
         25    1    1    2    0    0  0.12812525910E+03  0.72448656142E+02 -0.86775751887E+02  0.21170715839E+03  0.12500000000E+03 0.  0.
         25    1    1    2    0    0 -0.12812525910E+03 -0.72448656142E+02 -0.20163552832E+03  0.27918949851E+03  0.12500000000E+03 0.  0.
</event>
<event>
 4    0  0.2250660E-002  0.2237613E+03  0.7546771E-02  0.1131110E+00
         21   -1    0    0  502  501  0.00000000000E+00  0.00000000000E+00  0.10962150029E+03  0.10962150029E+03  0.00000000000E+00 0. -1.
         21   -1    0    0  501  502 -0.00000000000E+00 -0.00000000000E+00 -0.45674542671E+03  0.45674542671E+03  0.00000000000E+00 0. -1.
         25    1    1    2    0    0 -0.17938288597E+03  0.38574177752E+02 -0.20886025765E+03  0.30481764088E+03  0.12500000000E+03 0.  0.
         25    1    1    2    0    0  0.17938288597E+03 -0.38574177752E+02 -0.13826366877E+03  0.26154928612E+03  0.12500000000E+03 0.  0.
</event>
<event>
 4    0  0.2250660E-002  0.3551908E+03  0.7546771E-02  0.1060504E+00
         21   -1    0    0  502  501  0.00000000000E+00  0.00000000000E+00  0.22006359128E+03  0.22006359128E+03  0.00000000000E+00 0. -1.
         21   -1    0    0  501  502 -0.00000000000E+00 -0.00000000000E+00 -0.57329124593E+03  0.57329124593E+03  0.00000000000E+00 0. -1.
         25    1    1    2    0    0 -0.31479469659E+03  0.80738078864E+02 -0.98268900011E+02  0.36179568142E+03  0.12500000000E+03 0.  0.
         25    1    1    2    0    0  0.31479469659E+03 -0.80738078864E+02 -0.25495875464E+03  0.43155915580E+03  0.12500000000E+03 0.  0.
</event>
<event>
 4    0  0.2250660E-002  0.3235079E+03  0.7546771E-02  0.1074046E+00
         21   -1    0    0  502  501  0.00000000000E+00  0.00000000000E+00  0.67829468594E+02  0.67829468594E+02  0.00000000000E+00 0. -1.
         21   -1    0    0  501  502 -0.00000000000E+00 -0.00000000000E+00 -0.15429480283E+04  0.15429480283E+04  0.00000000000E+00 0. -1.
         25    1    1    2    0    0  0.18521588543E+03  0.16421186775E+02 -0.15659342334E+03  0.27335156818E+03  0.12500000000E+03 0.  0.
         25    1    1    2    0    0 -0.18521588543E+03 -0.16421186775E+02 -0.13185251364E+04  0.13374259287E+04  0.12500000000E+03 0.  0.
</event>
<event>
 4    0  0.2250660E-002  0.1617619E+03  0.7546771E-02  0.1186722E+00
         21   -1    0    0  502  501  0.00000000000E+00  0.00000000000E+00  0.12958978534E+03  0.12958978534E+03  0.00000000000E+00 0. -1.
         21   -1    0    0  501  502 -0.00000000000E+00 -0.00000000000E+00 -0.20192116478E+03  0.20192116478E+03  0.00000000000E+00 0. -1.
         25    1    1    2    0    0  0.59095569834E+02  0.10203190129E+02  0.49231629649E+02  0.14712289020E+03  0.12500000000E+03 0.  0.
         25    1    1    2    0    0 -0.59095569834E+02 -0.10203190129E+02 -0.12156300909E+03  0.18438805992E+03  0.12500000000E+03 0.  0.
</event>
<event>
 4    0  0.2250660E-002  0.4155819E+03  0.7546771E-02  0.1038514E+00
         21   -1    0    0  502  501  0.00000000000E+00  0.00000000000E+00  0.10230874268E+03  0.10230874268E+03  0.00000000000E+00 0.  1.
         21   -1    0    0  501  502 -0.00000000000E+00 -0.00000000000E+00 -0.16881093515E+04  0.16881093515E+04  0.00000000000E+00 0.  1.
         25    1    1    2    0    0  0.24572873398E+03  0.15546035279E+03 -0.21275729670E+03  0.38136753833E+03  0.12500000000E+03 0.  0.
         25    1    1    2    0    0 -0.24572873398E+03 -0.15546035279E+03 -0.13730433121E+04  0.14090505559E+04  0.12500000000E+03 0.  0.
</event>
<event>
 4    0  0.2250660E-002  0.2457921E+03  0.7546771E-02  0.1115993E+00
         21   -1    0    0  502  501  0.00000000000E+00  0.00000000000E+00  0.35940180782E+03  0.35940180782E+03  0.00000000000E+00 0.  1.
         21   -1    0    0  501  502 -0.00000000000E+00 -0.00000000000E+00 -0.16809536295E+03  0.16809536295E+03  0.00000000000E+00 0.  1.
         25    1    1    2    0    0  0.28360826853E+02 -0.10865229296E+03 -0.96837244408E+02  0.19393841592E+03  0.12500000000E+03 0.  0.
         25    1    1    2    0    0 -0.28360826853E+02  0.10865229296E+03  0.28814368928E+03  0.33355875485E+03  0.12500000000E+03 0.  0.
</event>
<event>
 4    0  0.2250660E-002  0.2069090E+03  0.7546771E-02  0.1144037E+00
         21   -1    0    0  502  501  0.00000000000E+00  0.00000000000E+00  0.48524794915E+03  0.48524794915E+03  0.00000000000E+00 0.  1.
         21   -1    0    0  501  502 -0.00000000000E+00 -0.00000000000E+00 -0.88225706015E+02  0.88225706015E+02  0.00000000000E+00 0.  1.
         25    1    1    2    0    0 -0.50460113379E+02  0.92438771153E+02  0.22697649418E+02  0.16501918902E+03  0.12500000000E+03 0.  0.
         25    1    1    2    0    0  0.50460113379E+02 -0.92438771153E+02  0.37432459372E+03  0.40845446615E+03  0.12500000000E+03 0.  0.
</event>
<event>
 4    0  0.2250660E-002  0.1875753E+03  0.7546771E-02  0.1160667E+00
         21   -1    0    0  502  501  0.00000000000E+00  0.00000000000E+00  0.31721117844E+03  0.31721117844E+03  0.00000000000E+00 0.  1.
         21   -1    0    0  501  502 -0.00000000000E+00 -0.00000000000E+00 -0.11091819339E+03  0.11091819339E+03  0.00000000000E+00 0.  1.
         25    1    1    2    0    0  0.11922538474E+03  0.64746626487E+02  0.64400889896E+02  0.19539522161E+03  0.12500000000E+03 0.  0.
         25    1    1    2    0    0 -0.11922538474E+03 -0.64746626487E+02  0.14189209516E+03  0.23273415022E+03  0.12500000000E+03 0.  0.
</event>
<event>
 4    0  0.2250660E-002  0.1925065E+03  0.7546771E-02  0.1156220E+00
         21   -1    0    0  502  501  0.00000000000E+00  0.00000000000E+00  0.12817989752E+03  0.12817989752E+03  0.00000000000E+00 0.  1.
         21   -1    0    0  501  502 -0.00000000000E+00 -0.00000000000E+00 -0.28911515012E+03  0.28911515012E+03  0.00000000000E+00 0.  1.
         25    1    1    2    0    0 -0.47244542493E+01 -0.14549097474E+03 -0.97391124779E+02  0.21517429072E+03  0.12500000000E+03 0.  0.
         25    1    1    2    0    0  0.47244542493E+01  0.14549097474E+03 -0.63544127816E+02  0.20212075692E+03  0.12500000000E+03 0.  0.
</event>
<event>
 4    0  0.2250660E-002  0.2840712E+03  0.7546771E-02  0.1093486E+00
         21   -1    0    0  502  501  0.00000000000E+00  0.00000000000E+00  0.49742087516E+02  0.49742087516E+02  0.00000000000E+00 0. -1.
         21   -1    0    0  501  502 -0.00000000000E+00 -0.00000000000E+00 -0.16222970710E+04  0.16222970710E+04  0.00000000000E+00 0. -1.
         25    1    1    2    0    0  0.16905114873E+03 -0.15931869772E+03 -0.10964905337E+04  0.11277753450E+04  0.12500000000E+03 0.  0.
         25    1    1    2    0    0 -0.16905114873E+03  0.15931869772E+03 -0.47606444976E+03  0.54426381348E+03  0.12500000000E+03 0.  0.
</event>
<event>
 4    0  0.2250660E-002  0.3158664E+03  0.7546771E-02  0.1077568E+00
         21   -1    0    0  502  501  0.00000000000E+00  0.00000000000E+00  0.23317488837E+03  0.23317488837E+03  0.00000000000E+00 0. -1.
         21   -1    0    0  501  502 -0.00000000000E+00 -0.00000000000E+00 -0.42788297043E+03  0.42788297043E+03  0.00000000000E+00 0. -1.
         25    1    1    2    0    0  0.34732228960E+02  0.20691263215E+03 -0.30697108446E+03  0.39226956518E+03  0.12500000000E+03 0.  0.
         25    1    1    2    0    0 -0.34732228960E+02 -0.20691263215E+03  0.11226300240E+03  0.26878829361E+03  0.12500000000E+03 0.  0.
</event>
<event>
 4    0  0.2250660E-002  0.2457270E+03  0.7546771E-02  0.1116035E+00
         21   -1    0    0  502  501  0.00000000000E+00  0.00000000000E+00  0.93159063359E+03  0.93159063359E+03  0.00000000000E+00 0.  1.
         21   -1    0    0  501  502 -0.00000000000E+00 -0.00000000000E+00 -0.64815741930E+02  0.64815741930E+02  0.00000000000E+00 0. -1.
         25    1    1    2    0    0 -0.12692601571E+03 -0.13157768786E+03  0.21754235665E+03  0.31043933118E+03  0.12500000000E+03 0.  0.
         25    1    1    2    0    0  0.12692601571E+03  0.13157768786E+03  0.64923253501E+03  0.68596704434E+03  0.12500000000E+03 0.  0.
</event>
<event>
 4    0  0.2250660E-002  0.2061031E+03  0.7546771E-02  0.1144690E+00
         21   -1    0    0  502  501  0.00000000000E+00  0.00000000000E+00  0.51729721710E+03  0.51729721710E+03  0.00000000000E+00 0. -1.
         21   -1    0    0  501  502 -0.00000000000E+00 -0.00000000000E+00 -0.82116203061E+02  0.82116203061E+02  0.00000000000E+00 0. -1.
         25    1    1    2    0    0 -0.40547299717E+02  0.15831148841E+03  0.19996741420E+03  0.28691214269E+03  0.12500000000E+03 0.  0.
         25    1    1    2    0    0  0.40547299717E+02 -0.15831148841E+03  0.23521359983E+03  0.31250127748E+03  0.12500000000E+03 0.  0.
</event>
<event>
 4    0  0.2250660E-002  0.1671342E+03  0.7546771E-02  0.1180870E+00
         21   -1    0    0  502  501  0.00000000000E+00  0.00000000000E+00  0.26821463465E+02  0.26821463465E+02  0.00000000000E+00 0.  1.
         21   -1    0    0  501  502 -0.00000000000E+00 -0.00000000000E+00 -0.10414739307E+04  0.10414739307E+04  0.00000000000E+00 0.  1.
         25    1    1    2    0    0 -0.82687835115E+02  0.56937523010E+02 -0.35641600044E+03  0.39081520565E+03  0.12500000000E+03 0.  0.
         25    1    1    2    0    0  0.82687835115E+02 -0.56937523010E+02 -0.65823646677E+03  0.67748018848E+03  0.12500000000E+03 0.  0.
</event>
<event>
 4    0  0.2250660E-002  0.2011385E+03  0.7546771E-02  0.1148782E+00
         21   -1    0    0  502  501  0.00000000000E+00  0.00000000000E+00  0.89126510272E+02  0.89126510272E+02  0.00000000000E+00 0.  1.
         21   -1    0    0  501  502 -0.00000000000E+00 -0.00000000000E+00 -0.45392422642E+03  0.45392422642E+03  0.00000000000E+00 0.  1.
         25    1    1    2    0    0 -0.12922690929E+03  0.70413690865E+02 -0.25845228009E+03  0.32261472848E+03  0.12500000000E+03 0.  0.
         25    1    1    2    0    0  0.12922690929E+03 -0.70413690865E+02 -0.10634543605E+03  0.22043600821E+03  0.12500000000E+03 0.  0.
</event>
<event>
 4    0  0.2250660E-002  0.2439325E+03  0.7546771E-02  0.1117200E+00
         21   -1    0    0  502  501  0.00000000000E+00  0.00000000000E+00  0.30557902864E+03  0.30557902864E+03  0.00000000000E+00 0.  1.
         21   -1    0    0  501  502 -0.00000000000E+00 -0.00000000000E+00 -0.19472237735E+03  0.19472237735E+03  0.00000000000E+00 0.  1.
         25    1    1    2    0    0 -0.14144177786E+03  0.90685239179E+02 -0.72854401249E+02  0.22172585079E+03  0.12500000000E+03 0.  0.
         25    1    1    2    0    0  0.14144177786E+03 -0.90685239179E+02  0.18371105254E+03  0.27857555520E+03  0.12500000000E+03 0.  0.
</event>
<event>
 4    0  0.2250660E-002  0.2278037E+03  0.7546771E-02  0.1128195E+00
         21   -1    0    0  502  501  0.00000000000E+00  0.00000000000E+00  0.76436826438E+02  0.76436826438E+02  0.00000000000E+00 0.  1.
         21   -1    0    0  501  502 -0.00000000000E+00 -0.00000000000E+00 -0.67892036207E+03  0.67892036207E+03  0.00000000000E+00 0.  1.
         25    1    1    2    0    0 -0.37755612762E+02 -0.18263588484E+03 -0.36519863697E+03  0.42869149417E+03  0.12500000000E+03 0.  0.
         25    1    1    2    0    0  0.37755612762E+02  0.18263588484E+03 -0.23728489866E+03  0.32666569434E+03  0.12500000000E+03 0.  0.
</event>
<event>
 4    0  0.2250660E-002  0.2961046E+03  0.7546771E-02  0.1087204E+00
         21   -1    0    0  502  501  0.00000000000E+00  0.00000000000E+00  0.11114250638E+04  0.11114250638E+04  0.00000000000E+00 0.  1.
         21   -1    0    0  501  502 -0.00000000000E+00 -0.00000000000E+00 -0.78887855277E+02  0.78887855277E+02  0.00000000000E+00 0.  1.
         25    1    1    2    0    0  0.10091882806E+03 -0.21835556598E+03  0.27684631457E+03  0.38746954067E+03  0.12500000000E+03 0.  0.
         25    1    1    2    0    0 -0.10091882806E+03  0.21835556598E+03  0.75569089393E+03  0.80284337839E+03  0.12500000000E+03 0.  0.
</event>
<event>
 4    0  0.2250660E-002  0.2230922E+03  0.7546771E-02  0.1131598E+00
         21   -1    0    0  502  501  0.00000000000E+00  0.00000000000E+00  0.63461220011E+03  0.63461220011E+03  0.00000000000E+00 0. -1.
         21   -1    0    0  501  502 -0.00000000000E+00 -0.00000000000E+00 -0.78426039201E+02  0.78426039201E+02  0.00000000000E+00 0. -1.
         25    1    1    2    0    0  0.10066244779E+02  0.14058988693E+03  0.87135739936E+02  0.20756801961E+03  0.12500000000E+03 0.  0.
         25    1    1    2    0    0 -0.10066244779E+02 -0.14058988693E+03  0.46905042097E+03  0.50547021970E+03  0.12500000000E+03 0.  0.
</event>
<event>
 4    0  0.2250660E-002  0.3339772E+03  0.7546771E-02  0.1069391E+00
         21   -1    0    0  502  501  0.00000000000E+00  0.00000000000E+00  0.60376307340E+02  0.60376307340E+02  0.00000000000E+00 0.  1.
         21   -1    0    0  501  502 -0.00000000000E+00 -0.00000000000E+00 -0.18474260426E+04  0.18474260426E+04  0.00000000000E+00 0.  1.
         25    1    1    2    0    0  0.17668650903E+03 -0.12550526085E+03 -0.15254206995E+04  0.15458017349E+04  0.12500000000E+03 0.  0.
         25    1    1    2    0    0 -0.17668650903E+03  0.12550526085E+03 -0.26162903572E+03  0.36200061506E+03  0.12500000000E+03 0.  0.
</event>
<event>
 4    0  0.2250660E-002  0.2384702E+03  0.7546771E-02  0.1120816E+00
         21   -1    0    0  502  501  0.00000000000E+00  0.00000000000E+00  0.14234532022E+03  0.14234532022E+03  0.00000000000E+00 0. -1.
         21   -1    0    0  501  502 -0.00000000000E+00 -0.00000000000E+00 -0.39950757172E+03  0.39950757172E+03  0.00000000000E+00 0. -1.
         25    1    1    2    0    0 -0.27987984920E+02  0.35689490358E+02  0.96315311480E+02  0.16419106628E+03  0.12500000000E+03 0.  0.
         25    1    1    2    0    0  0.27987984920E+02 -0.35689490358E+02 -0.35347756299E+03  0.37766182566E+03  0.12500000000E+03 0.  0.
</event>
<event>
 4    0  0.2250660E-002  0.2090281E+03  0.7546771E-02  0.1142338E+00
         21   -1    0    0  502  501  0.00000000000E+00  0.00000000000E+00  0.27071060221E+02  0.27071060221E+02  0.00000000000E+00 0.  1.
         21   -1    0    0  501  502 -0.00000000000E+00 -0.00000000000E+00 -0.16140025332E+04  0.16140025332E+04  0.00000000000E+00 0.  1.
         25    1    1    2    0    0 -0.46186477126E+02  0.19471368710E+02 -0.16593505954E+03  0.21370954320E+03  0.12500000000E+03 0.  0.
         25    1    1    2    0    0  0.46186477126E+02 -0.19471368710E+02 -0.14209964134E+04  0.14273640502E+04  0.12500000000E+03 0.  0.
</event>
<event>
 4    0  0.2250660E-002  0.1713092E+03  0.7546771E-02  0.1176489E+00
         21   -1    0    0  502  501  0.00000000000E+00  0.00000000000E+00  0.65353105868E+02  0.65353105868E+02  0.00000000000E+00 0.  1.
         21   -1    0    0  501  502 -0.00000000000E+00 -0.00000000000E+00 -0.44905048930E+03  0.44905048930E+03  0.00000000000E+00 0.  1.
         25    1    1    2    0    0 -0.76592328840E+02  0.35837634261E+01 -0.32480953818E+03  0.35637826012E+03  0.12500000000E+03 0.  0.
         25    1    1    2    0    0  0.76592328840E+02 -0.35837634261E+01 -0.58887845254E+02  0.15802533505E+03  0.12500000000E+03 0.  0.
</event>
<event>
 4    0  0.2250660E-002  0.1924927E+03  0.7546771E-02  0.1156232E+00
         21   -1    0    0  502  501  0.00000000000E+00  0.00000000000E+00  0.23641783866E+02  0.23641783866E+02  0.00000000000E+00 0.  1.
         21   -1    0    0  501  502 -0.00000000000E+00 -0.00000000000E+00 -0.15672860899E+04  0.15672860899E+04  0.00000000000E+00 0.  1.
         25    1    1    2    0    0 -0.10596859671E+03 -0.65195171630E+02 -0.45309671675E+03  0.48621125925E+03  0.12500000000E+03 0.  0.
         25    1    1    2    0    0  0.10596859671E+03  0.65195171630E+02 -0.10905475893E+04  0.11047166145E+04  0.12500000000E+03 0.  0.
</event>
<event>
 4    0  0.2250660E-002  0.2398602E+03  0.7546771E-02  0.1119886E+00
         21   -1    0    0  502  501  0.00000000000E+00  0.00000000000E+00  0.18969706561E+03  0.18969706561E+03  0.00000000000E+00 0. -1.
         21   -1    0    0  501  502 -0.00000000000E+00 -0.00000000000E+00 -0.30328848202E+03  0.30328848202E+03  0.00000000000E+00 0. -1.
         25    1    1    2    0    0 -0.17140661713E+03  0.87748344495E+02 -0.12820037899E+03  0.26294550297E+03  0.12500000000E+03 0.  0.
         25    1    1    2    0    0  0.17140661713E+03 -0.87748344495E+02  0.14608962584E+02  0.23004004465E+03  0.12500000000E+03 0.  0.
</event>
<event>
 4    0  0.2250660E-002  0.1990945E+03  0.7546771E-02  0.1150505E+00
         21   -1    0    0  502  501  0.00000000000E+00  0.00000000000E+00  0.19857297303E+04  0.19857297303E+04  0.00000000000E+00 0. -1.
         21   -1    0    0  501  502 -0.00000000000E+00 -0.00000000000E+00 -0.19961732081E+02  0.19961732081E+02  0.00000000000E+00 0. -1.
         25    1    1    2    0    0 -0.25304842816E+02  0.15059410931E+03  0.85012358222E+03  0.87272792202E+03  0.12500000000E+03 0.  0.
         25    1    1    2    0    0  0.25304842816E+02 -0.15059410931E+03  0.11156444160E+04  0.11329635403E+04  0.12500000000E+03 0.  0.
</event>
<event>
 4    0  0.2250660E-002  0.3829550E+03  0.7546771E-02  0.1049847E+00
         21   -1    0    0  502  501  0.00000000000E+00  0.00000000000E+00  0.25065253309E+03  0.25065253309E+03  0.00000000000E+00 0. -1.
         21   -1    0    0  501  502 -0.00000000000E+00 -0.00000000000E+00 -0.58509101573E+03  0.58509101573E+03  0.00000000000E+00 0. -1.
         25    1    1    2    0    0 -0.13056854015E+03 -0.32732977068E+03 -0.25744199559E+03  0.45397610459E+03  0.12500000000E+03 0.  0.
         25    1    1    2    0    0  0.13056854015E+03  0.32732977068E+03 -0.76996487052E+02  0.38176744422E+03  0.12500000000E+03 0.  0.
</event>
<event>
 4    0  0.2250660E-002  0.1941433E+03  0.7546771E-02  0.1154777E+00
         21   -1    0    0  502  501  0.00000000000E+00  0.00000000000E+00  0.47622505875E+03  0.47622505875E+03  0.00000000000E+00 0. -1.
         21   -1    0    0  501  502 -0.00000000000E+00 -0.00000000000E+00 -0.79146676714E+02  0.79146676714E+02  0.00000000000E+00 0. -1.
         25    1    1    2    0    0  0.13425986332E+03 -0.46077717342E+02  0.26117589203E+03  0.32246970945E+03  0.12500000000E+03 0.  0.
         25    1    1    2    0    0 -0.13425986332E+03  0.46077717342E+02  0.13590249001E+03  0.23290202602E+03  0.12500000000E+03 0.  0.
</event>
<event>
 4    0  0.2250660E-002  0.1910193E+03  0.7546771E-02  0.1157545E+00
         21   -1    0    0  502  501  0.00000000000E+00  0.00000000000E+00  0.21818409252E+03  0.21818409252E+03  0.00000000000E+00 0.  1.
         21   -1    0    0  501  502 -0.00000000000E+00 -0.00000000000E+00 -0.16723659997E+03  0.16723659997E+03  0.00000000000E+00 0.  1.
         25    1    1    2    0    0 -0.50074041951E+02 -0.47123554051E+02  0.15362318483E+03  0.20964999867E+03  0.12500000000E+03 0.  0.
         25    1    1    2    0    0  0.50074041951E+02  0.47123554051E+02 -0.10267569228E+03  0.17577069383E+03  0.12500000000E+03 0.  0.
</event>
<event>
 4    0  0.2250660E-002  0.2058657E+03  0.7546771E-02  0.1144882E+00
         21   -1    0    0  502  501  0.00000000000E+00  0.00000000000E+00  0.13217658781E+03  0.13217658781E+03  0.00000000000E+00 0. -1.
         21   -1    0    0  501  502 -0.00000000000E+00 -0.00000000000E+00 -0.32063696209E+03  0.32063696209E+03  0.00000000000E+00 0. -1.
         25    1    1    2    0    0 -0.25181755473E+02 -0.39653555060E+02  0.78085097928E+02  0.15468939122E+03  0.12500000000E+03 0.  0.
         25    1    1    2    0    0  0.25181755473E+02  0.39653555060E+02 -0.26654547221E+03  0.29812415868E+03  0.12500000000E+03 0.  0.
</event>
<event>
 4    0  0.2250660E-002  0.2889965E+03  0.7546771E-02  0.1090874E+00
         21   -1    0    0  502  501  0.00000000000E+00  0.00000000000E+00  0.99246365820E+03  0.99246365820E+03  0.00000000000E+00 0. -1.
         21   -1    0    0  501  502 -0.00000000000E+00 -0.00000000000E+00 -0.84153158868E+02  0.84153158868E+02  0.00000000000E+00 0. -1.
         25    1    1    2    0    0  0.18577504083E+03 -0.18270554556E+03  0.45318786672E+03  0.53749225549E+03  0.12500000000E+03 0.  0.
         25    1    1    2    0    0 -0.18577504083E+03  0.18270554556E+03  0.45512263261E+03  0.53912456157E+03  0.12500000000E+03 0.  0.
</event>
<event>
 4    0  0.2250660E-002  0.2128422E+03  0.7546771E-02  0.1139335E+00
         21   -1    0    0  502  501  0.00000000000E+00  0.00000000000E+00  0.20757513478E+03  0.20757513478E+03  0.00000000000E+00 0.  1.
         21   -1    0    0  501  502 -0.00000000000E+00 -0.00000000000E+00 -0.21824301534E+03  0.21824301534E+03  0.00000000000E+00 0.  1.
         25    1    1    2    0    0  0.13794360959E+03 -0.38492820420E+02  0.90438934962E+02  0.21050970906E+03  0.12500000000E+03 0.  0.
         25    1    1    2    0    0 -0.13794360959E+03  0.38492820420E+02 -0.10110681552E+03  0.21530844107E+03  0.12500000000E+03 0.  0.
</event>
<event>
 4    0  0.2250660E-002  0.2215881E+03  0.7546771E-02  0.1132705E+00
         21   -1    0    0  502  501  0.00000000000E+00  0.00000000000E+00  0.63397161337E+03  0.63397161337E+03  0.00000000000E+00 0. -1.
         21   -1    0    0  501  502 -0.00000000000E+00 -0.00000000000E+00 -0.77450271846E+02  0.77450271846E+02  0.00000000000E+00 0. -1.
         25    1    1    2    0    0  0.13776002673E+03  0.80381741990E+02  0.13434638961E+03  0.24313165530E+03  0.12500000000E+03 0.  0.
         25    1    1    2    0    0 -0.13776002673E+03 -0.80381741990E+02  0.42217495192E+03  0.46829022992E+03  0.12500000000E+03 0.  0.
</event>
<event>
 4    0  0.2250660E-002  0.3342568E+03  0.7546771E-02  0.1069269E+00
         21   -1    0    0  502  501  0.00000000000E+00  0.00000000000E+00  0.10530642936E+03  0.10530642936E+03  0.00000000000E+00 0. -1.
         21   -1    0    0  501  502 -0.00000000000E+00 -0.00000000000E+00 -0.10609762483E+04  0.10609762483E+04  0.00000000000E+00 0. -1.
         25    1    1    2    0    0 -0.74491224105E+02  0.29702826161E+03 -0.39366153230E+03  0.51416838942E+03  0.12500000000E+03 0.  0.
         25    1    1    2    0    0  0.74491224105E+02 -0.29702826161E+03 -0.56200828663E+03  0.65211428823E+03  0.12500000000E+03 0.  0.
</event>
<event>
 4    0  0.2250660E-002  0.2408545E+03  0.7546771E-02  0.1119225E+00
         21   -1    0    0  502  501  0.00000000000E+00  0.00000000000E+00  0.49979579608E+02  0.49979579608E+02  0.00000000000E+00 0. -1.
         21   -1    0    0  501  502 -0.00000000000E+00 -0.00000000000E+00 -0.11606922302E+04  0.11606922302E+04  0.00000000000E+00 0. -1.
         25    1    1    2    0    0 -0.81858855862E+02  0.83347266194E+01 -0.81047129618E+02  0.17018806412E+03  0.12500000000E+03 0.  0.
         25    1    1    2    0    0  0.81858855862E+02 -0.83347266194E+01 -0.10296655209E+04  0.10404837456E+04  0.12500000000E+03 0.  0.
</event>
<event>
 4    0  0.2250660E-002  0.2691324E+03  0.7546771E-02  0.1101777E+00
         21   -1    0    0  502  501  0.00000000000E+00  0.00000000000E+00  0.61076263353E+02  0.61076263353E+02  0.00000000000E+00 0. -1.
         21   -1    0    0  501  502 -0.00000000000E+00 -0.00000000000E+00 -0.11859310397E+04  0.11859310397E+04  0.00000000000E+00 0. -1.
         25    1    1    2    0    0  0.97180457483E+02  0.18223792934E+03 -0.83803431654E+03  0.87211307748E+03  0.12500000000E+03 0.  0.
         25    1    1    2    0    0 -0.97180457483E+02 -0.18223792934E+03 -0.28682045981E+03  0.37489422558E+03  0.12500000000E+03 0.  0.
</event>
<event>
 4    0  0.2250660E-002  0.2043926E+03  0.7546771E-02  0.1146085E+00
         21   -1    0    0  502  501  0.00000000000E+00  0.00000000000E+00  0.10586693004E+03  0.10586693004E+03  0.00000000000E+00 0. -1.
         21   -1    0    0  501  502 -0.00000000000E+00 -0.00000000000E+00 -0.39461193335E+03  0.39461193335E+03  0.00000000000E+00 0. -1.
         25    1    1    2    0    0  0.18608872841E+02 -0.11067208621E+03 -0.18221405365E+01  0.16799678869E+03  0.12500000000E+03 0.  0.
         25    1    1    2    0    0 -0.18608872841E+02  0.11067208621E+03 -0.28692286278E+03  0.33248207470E+03  0.12500000000E+03 0.  0.
</event>
<event>
 4    0  0.2250660E-002  0.2163371E+03  0.7546771E-02  0.1136644E+00
         21   -1    0    0  502  501  0.00000000000E+00  0.00000000000E+00  0.87339242382E+03  0.87339242382E+03  0.00000000000E+00 0.  1.
         21   -1    0    0  501  502 -0.00000000000E+00 -0.00000000000E+00 -0.53586177107E+02  0.53586177107E+02  0.00000000000E+00 0.  1.
         25    1    1    2    0    0  0.38554285938E+02 -0.17134220349E+03  0.37085558273E+03  0.42895622959E+03  0.12500000000E+03 0.  0.
         25    1    1    2    0    0 -0.38554285938E+02  0.17134220349E+03  0.44895066398E+03  0.49802237134E+03  0.12500000000E+03 0.  0.
</event>
<event>
 4    0  0.2250660E-002  0.3348264E+03  0.7546771E-02  0.1069021E+00
         21   -1    0    0  502  501  0.00000000000E+00  0.00000000000E+00  0.20173229748E+04  0.20173229748E+04  0.00000000000E+00 0.  1.
         21   -1    0    0  501  502 -0.00000000000E+00 -0.00000000000E+00 -0.55573014847E+02  0.55573014847E+02  0.00000000000E+00 0.  1.
         25    1    1    2    0    0  0.15093786976E+03 -0.23623098793E+03  0.13949801491E+04  0.14283493748E+04  0.12500000000E+03 0.  0.
         25    1    1    2    0    0 -0.15093786976E+03  0.23623098793E+03  0.56676981089E+03  0.64454661486E+03  0.12500000000E+03 0.  0.
</event>
<event>
 4    0  0.2250660E-002  0.1821021E+03  0.7546771E-02  0.1165784E+00
         21   -1    0    0  502  501  0.00000000000E+00  0.00000000000E+00  0.36936058414E+03  0.36936058414E+03  0.00000000000E+00 0. -1.
         21   -1    0    0  501  502 -0.00000000000E+00 -0.00000000000E+00 -0.89779976858E+02  0.89779976858E+02  0.00000000000E+00 0. -1.
         25    1    1    2    0    0 -0.41127396238E+02  0.11982051206E+03  0.91164354986E+02  0.19996088980E+03  0.12500000000E+03 0.  0.
         25    1    1    2    0    0  0.41127396238E+02 -0.11982051206E+03  0.18841625230E+03  0.25917967120E+03  0.12500000000E+03 0.  0.
</event>
<event>
 4    0  0.2250660E-002  0.3127967E+03  0.7546771E-02  0.1079013E+00
         21   -1    0    0  502  501  0.00000000000E+00  0.00000000000E+00  0.64910221317E+02  0.64910221317E+02  0.00000000000E+00 0. -1.
         21   -1    0    0  501  502 -0.00000000000E+00 -0.00000000000E+00 -0.15073402631E+04  0.15073402631E+04  0.00000000000E+00 0. -1.
         25    1    1    2    0    0  0.71799006041E+02 -0.33763638905E+01 -0.14188314404E+04  0.14261395981E+04  0.12500000000E+03 0.  0.
         25    1    1    2    0    0 -0.71799006041E+02  0.33763638905E+01 -0.23598601377E+02  0.14611088628E+03  0.12500000000E+03 0.  0.
</event>
<event>
 4    0  0.2250660E-002  0.1584829E+03  0.7546771E-02  0.1190420E+00
         21   -1    0    0  502  501  0.00000000000E+00  0.00000000000E+00  0.30623739540E+03  0.30623739540E+03  0.00000000000E+00 0.  1.
         21   -1    0    0  501  502 -0.00000000000E+00 -0.00000000000E+00 -0.82017525263E+02  0.82017525263E+02  0.00000000000E+00 0.  1.
         25    1    1    2    0    0  0.28743691056E+02  0.73154307524E+02  0.41594193179E+02  0.15340413746E+03  0.12500000000E+03 0.  0.
         25    1    1    2    0    0 -0.28743691056E+02 -0.73154307524E+02  0.18262567696E+03  0.23485078320E+03  0.12500000000E+03 0.  0.
</event>
<event>
 4    0  0.2250660E-002  0.2779034E+03  0.7546771E-02  0.1096840E+00
         21   -1    0    0  502  501  0.00000000000E+00  0.00000000000E+00  0.17844493752E+04  0.17844493752E+04  0.00000000000E+00 0. -1.
         21   -1    0    0  501  502 -0.00000000000E+00 -0.00000000000E+00 -0.43279639164E+02  0.43279639164E+02  0.00000000000E+00 0. -1.
         25    1    1    2    0    0  0.13232917285E+03 -0.15241371087E+03  0.39558818435E+03  0.46136315506E+03  0.12500000000E+03 0.  0.
         25    1    1    2    0    0 -0.13232917285E+03  0.15241371087E+03  0.13455815517E+04  0.13663658593E+04  0.12500000000E+03 0.  0.
</event>
<event>
 4    0  0.2250660E-002  0.2494570E+03  0.7546771E-02  0.1113648E+00
         21   -1    0    0  502  501  0.00000000000E+00  0.00000000000E+00  0.80506468323E+03  0.80506468323E+03  0.00000000000E+00 0. -1.
         21   -1    0    0  501  502 -0.00000000000E+00 -0.00000000000E+00 -0.77296665400E+02  0.77296665400E+02  0.00000000000E+00 0. -1.
         25    1    1    2    0    0  0.25935467921E+02  0.20559017874E+03  0.47093465197E+03  0.52947560521E+03  0.12500000000E+03 0.  0.
         25    1    1    2    0    0 -0.25935467921E+02 -0.20559017874E+03  0.25683336586E+03  0.35288574342E+03  0.12500000000E+03 0.  0.
</event>
<event>
 4    0  0.2250660E-002  0.3974488E+03  0.7546771E-02  0.1044667E+00
         21   -1    0    0  502  501  0.00000000000E+00  0.00000000000E+00  0.15340132039E+03  0.15340132039E+03  0.00000000000E+00 0.  1.
         21   -1    0    0  501  502 -0.00000000000E+00 -0.00000000000E+00 -0.10297536491E+04  0.10297536491E+04  0.00000000000E+00 0.  1.
         25    1    1    2    0    0 -0.21125141860E+03  0.27399199313E+03 -0.66214410024E+03  0.75746853640E+03  0.12500000000E+03 0.  0.
         25    1    1    2    0    0  0.21125141860E+03 -0.27399199313E+03 -0.21420822844E+03  0.42568643306E+03  0.12500000000E+03 0.  0.
</event>
<event>
 4    0  0.2250660E-002  0.3103886E+03  0.7546771E-02  0.1080160E+00
         21   -1    0    0  502  501  0.00000000000E+00  0.00000000000E+00  0.52612939697E+02  0.52612939697E+02  0.00000000000E+00 0.  1.
         21   -1    0    0  501  502 -0.00000000000E+00 -0.00000000000E+00 -0.18311294033E+04  0.18311294033E+04  0.00000000000E+00 0.  1.
         25    1    1    2    0    0 -0.23548983867E+03 -0.15879819868E+03 -0.90933381960E+03  0.96082533662E+03  0.12500000000E+03 0.  0.
         25    1    1    2    0    0  0.23548983867E+03  0.15879819868E+03 -0.86918264397E+03  0.92291700634E+03  0.12500000000E+03 0.  0.
</event>
<event>
 4    0  0.2250660E-002  0.2262049E+03  0.7546771E-02  0.1129340E+00
         21   -1    0    0  502  501  0.00000000000E+00  0.00000000000E+00  0.10328309591E+03  0.10328309591E+03  0.00000000000E+00 0.  1.
         21   -1    0    0  501  502 -0.00000000000E+00 -0.00000000000E+00 -0.49542157268E+03  0.49542157268E+03  0.00000000000E+00 0.  1.
         25    1    1    2    0    0 -0.18465871179E+03 -0.74677663710E+01 -0.14674707963E+03  0.26704739796E+03  0.12500000000E+03 0.  0.
         25    1    1    2    0    0  0.18465871179E+03  0.74677663710E+01 -0.24539139714E+03  0.33165727064E+03  0.12500000000E+03 0.  0.
</event>
<event>
 4    0  0.2250660E-002  0.2513467E+03  0.7546771E-02  0.1112457E+00
         21   -1    0    0  502  501  0.00000000000E+00  0.00000000000E+00  0.59702777623E+02  0.59702777623E+02  0.00000000000E+00 0.  1.
         21   -1    0    0  501  502 -0.00000000000E+00 -0.00000000000E+00 -0.10581608625E+04  0.10581608625E+04  0.00000000000E+00 0.  1.
         25    1    1    2    0    0  0.21223939506E+03  0.13054349767E+02 -0.60666547267E+03  0.65489233664E+03  0.12500000000E+03 0.  0.
         25    1    1    2    0    0 -0.21223939506E+03 -0.13054349767E+02 -0.39179261218E+03  0.46297130346E+03  0.12500000000E+03 0.  0.
</event>
<event>
 4    0  0.2250660E-002  0.1567963E+03  0.7546771E-02  0.1192362E+00
         21   -1    0    0  502  501  0.00000000000E+00  0.00000000000E+00  0.76802819525E+03  0.76802819525E+03  0.00000000000E+00 0. -1.
         21   -1    0    0  501  502 -0.00000000000E+00 -0.00000000000E+00 -0.32010640887E+02  0.32010640887E+02  0.00000000000E+00 0. -1.
         25    1    1    2    0    0 -0.40479447369E+02 -0.50252870447E+02  0.54469030541E+03  0.56256241028E+03  0.12500000000E+03 0.  0.
         25    1    1    2    0    0  0.40479447369E+02  0.50252870447E+02  0.19132724895E+03  0.23747642586E+03  0.12500000000E+03 0.  0.
</event>
<event>
 4    0  0.2250660E-002  0.1520543E+03  0.7546771E-02  0.1197971E+00
         21   -1    0    0  502  501  0.00000000000E+00  0.00000000000E+00  0.12353932988E+04  0.12353932988E+04  0.00000000000E+00 0.  1.
         21   -1    0    0  501  502 -0.00000000000E+00 -0.00000000000E+00 -0.18715097535E+02  0.18715097535E+02  0.00000000000E+00 0.  1.
         25    1    1    2    0    0  0.17376105839E+02 -0.75262499930E+02  0.44707820752E+03  0.47060630743E+03  0.12500000000E+03 0.  0.
         25    1    1    2    0    0 -0.17376105839E+02  0.75262499930E+02  0.76959999371E+03  0.78350208888E+03  0.12500000000E+03 0.  0.
</event>
<event>
 4    0  0.2250660E-002  0.2546579E+03  0.7546771E-02  0.1110396E+00
         21   -1    0    0  502  501  0.00000000000E+00  0.00000000000E+00  0.28968893259E+03  0.28968893259E+03  0.00000000000E+00 0. -1.
         21   -1    0    0  501  502 -0.00000000000E+00 -0.00000000000E+00 -0.22386309315E+03  0.22386309315E+03  0.00000000000E+00 0. -1.
         25    1    1    2    0    0  0.11727756789E+03 -0.58942854072E+01 -0.15689968515E+03  0.23244629860E+03  0.12500000000E+03 0.  0.
         25    1    1    2    0    0 -0.11727756789E+03  0.58942854072E+01  0.22272552459E+03  0.28110572715E+03  0.12500000000E+03 0.  0.
</event>
<event>
 4    0  0.2250660E-002  0.1867513E+03  0.7546771E-02  0.1161424E+00
         21   -1    0    0  502  501  0.00000000000E+00  0.00000000000E+00  0.25599701928E+03  0.25599701928E+03  0.00000000000E+00 0.  1.
         21   -1    0    0  501  502 -0.00000000000E+00 -0.00000000000E+00 -0.13623621489E+03  0.13623621489E+03  0.00000000000E+00 0.  1.
         25    1    1    2    0    0  0.88687544938E+02  0.90450758863E+02  0.43565561411E+00  0.17796631761E+03  0.12500000000E+03 0.  0.
         25    1    1    2    0    0 -0.88687544938E+02 -0.90450758863E+02  0.11932514877E+03  0.21426691657E+03  0.12500000000E+03 0.  0.
</event>
<event>
 4    0  0.2250660E-002  0.2515156E+03  0.7546771E-02  0.1112351E+00
         21   -1    0    0  502  501  0.00000000000E+00  0.00000000000E+00  0.81627259484E+02  0.81627259484E+02  0.00000000000E+00 0.  1.
         21   -1    0    0  501  502 -0.00000000000E+00 -0.00000000000E+00 -0.77498734780E+03  0.77498734780E+03  0.00000000000E+00 0.  1.
         25    1    1    2    0    0 -0.12808738291E+03  0.20415623858E+02 -0.47763513822E+02  0.18635860219E+03  0.12500000000E+03 0.  0.
         25    1    1    2    0    0  0.12808738291E+03 -0.20415623858E+02 -0.64559657450E+03  0.67025600509E+03  0.12500000000E+03 0.  0.
</event>
<event>
 4    0  0.2250660E-002  0.1954774E+03  0.7546771E-02  0.1153612E+00
         21   -1    0    0  502  501  0.00000000000E+00  0.00000000000E+00  0.48262586149E+03  0.48262586149E+03  0.00000000000E+00 0. -1.
         21   -1    0    0  501  502 -0.00000000000E+00 -0.00000000000E+00 -0.79173962214E+02  0.79173962214E+02  0.00000000000E+00 0. -1.
         25    1    1    2    0    0  0.26842849132E+02 -0.89327633953E+02  0.32389467984E+02  0.15929231737E+03  0.12500000000E+03 0.  0.
         25    1    1    2    0    0 -0.26842849132E+02  0.89327633953E+02  0.37106243129E+03  0.40250750633E+03  0.12500000000E+03 0.  0.
</event>
<event>
 4    0  0.2250660E-002  0.2919285E+03  0.7546771E-02  0.1089347E+00
         21   -1    0    0  502  501  0.00000000000E+00  0.00000000000E+00  0.69175952865E+03  0.69175952865E+03  0.00000000000E+00 0. -1.
         21   -1    0    0  501  502 -0.00000000000E+00 -0.00000000000E+00 -0.12319632818E+03  0.12319632818E+03  0.00000000000E+00 0. -1.
         25    1    1    2    0    0 -0.12183498660E+03  0.95824165988E+02  0.58225181977E+03  0.61536023301E+03  0.12500000000E+03 0.  0.
         25    1    1    2    0    0  0.12183498660E+03 -0.95824165988E+02 -0.13688619303E+02  0.19959562381E+03  0.12500000000E+03 0.  0.
</event>
<event>
 4    0  0.2250660E-002  0.2520928E+03  0.7546771E-02  0.1111989E+00
         21   -1    0    0  502  501  0.00000000000E+00  0.00000000000E+00  0.17475028217E+03  0.17475028217E+03  0.00000000000E+00 0. -1.
         21   -1    0    0  501  502 -0.00000000000E+00 -0.00000000000E+00 -0.36366624264E+03  0.36366624264E+03  0.00000000000E+00 0. -1.
         25    1    1    2    0    0 -0.83863035619E+02  0.11592147751E+03  0.82487111261E+02  0.20712296159E+03  0.12500000000E+03 0.  0.
         25    1    1    2    0    0  0.83863035619E+02 -0.11592147751E+03 -0.27140307173E+03  0.33129356323E+03  0.12500000000E+03 0.  0.
</event>
<event>
 4    0  0.2250660E-002  0.2929885E+03  0.7546771E-02  0.1088799E+00
         21   -1    0    0  502  501  0.00000000000E+00  0.00000000000E+00  0.31858415684E+03  0.31858415684E+03  0.00000000000E+00 0.  1.
         21   -1    0    0  501  502 -0.00000000000E+00 -0.00000000000E+00 -0.26944916007E+03  0.26944916007E+03  0.00000000000E+00 0.  1.
         25    1    1    2    0    0  0.16890213537E+02 -0.12887704806E+03  0.25629487165E+03  0.31337937722E+03  0.12500000000E+03 0.  0.
         25    1    1    2    0    0 -0.16890213537E+02  0.12887704806E+03 -0.20715987489E+03  0.27465393970E+03  0.12500000000E+03 0.  0.
</event>
<event>
 4    0  0.2250660E-002  0.2537603E+03  0.7546771E-02  0.1110951E+00
         21   -1    0    0  502  501  0.00000000000E+00  0.00000000000E+00  0.14484852938E+04  0.14484852938E+04  0.00000000000E+00 0. -1.
         21   -1    0    0  501  502 -0.00000000000E+00 -0.00000000000E+00 -0.44456283268E+02  0.44456283268E+02  0.00000000000E+00 0. -1.
         25    1    1    2    0    0  0.16972852146E+03 -0.26947094617E+02  0.11099949121E+04  0.11301538044E+04  0.12500000000E+03 0.  0.
         25    1    1    2    0    0 -0.16972852146E+03  0.26947094617E+02  0.29403409852E+03  0.36278777266E+03  0.12500000000E+03 0.  0.
</event>
<event>
 4    0  0.2250660E-002  0.1764541E+03  0.7546771E-02  0.1171280E+00
         21   -1    0    0  502  501  0.00000000000E+00  0.00000000000E+00  0.94538965842E+03  0.94538965842E+03  0.00000000000E+00 0. -1.
         21   -1    0    0  501  502 -0.00000000000E+00 -0.00000000000E+00 -0.32934607556E+02  0.32934607556E+02  0.00000000000E+00 0. -1.
         25    1    1    2    0    0 -0.32232014520E+02  0.11140966205E+03  0.33040538435E+03  0.37181142205E+03  0.12500000000E+03 0.  0.
         25    1    1    2    0    0  0.32232014520E+02 -0.11140966205E+03  0.58204966651E+03  0.60651284392E+03  0.12500000000E+03 0.  0.
</event>
<event>
 4    0  0.2250660E-002  0.2104828E+03  0.7546771E-02  0.1141184E+00
         21   -1    0    0  502  501  0.00000000000E+00  0.00000000000E+00  0.22572203315E+03  0.22572203315E+03  0.00000000000E+00 0.  1.
         21   -1    0    0  501  502 -0.00000000000E+00 -0.00000000000E+00 -0.19627236636E+03  0.19627236636E+03  0.00000000000E+00 0.  1.
         25    1    1    2    0    0 -0.73266124812E+02 -0.94040964247E+02 -0.10584534783E+03  0.20258298462E+03  0.12500000000E+03 0.  0.
         25    1    1    2    0    0  0.73266124812E+02  0.94040964247E+02  0.13529501462E+03  0.21941141489E+03  0.12500000000E+03 0.  0.
</event>
<event>
 4    0  0.2250660E-002  0.2722600E+03  0.7546771E-02  0.1099993E+00
         21   -1    0    0  502  501  0.00000000000E+00  0.00000000000E+00  0.25391768898E+03  0.25391768898E+03  0.00000000000E+00 0.  1.
         21   -1    0    0  501  502 -0.00000000000E+00 -0.00000000000E+00 -0.29192724065E+03  0.29192724065E+03  0.00000000000E+00 0.  1.
         25    1    1    2    0    0  0.21922221299E+03 -0.80405683722E+02 -0.82221989017E+02  0.27732455376E+03  0.12500000000E+03 0.  0.
         25    1    1    2    0    0 -0.21922221299E+03  0.80405683722E+02  0.44212437346E+02  0.26852037587E+03  0.12500000000E+03 0.  0.
</event>
<event>
 4    0  0.2250660E-002  0.3114260E+03  0.7546771E-02  0.1079664E+00
         21   -1    0    0  502  501  0.00000000000E+00  0.00000000000E+00  0.27380005924E+03  0.27380005924E+03  0.00000000000E+00 0. -1.
         21   -1    0    0  501  502 -0.00000000000E+00 -0.00000000000E+00 -0.35422251972E+03  0.35422251972E+03  0.00000000000E+00 0. -1.
         25    1    1    2    0    0 -0.10269752474E+03 -0.25389840703E+03  0.40136950520E+02  0.30372217153E+03  0.12500000000E+03 0.  0.
         25    1    1    2    0    0  0.10269752474E+03  0.25389840703E+03 -0.12055941100E+03  0.32430040744E+03  0.12500000000E+03 0.  0.
</event>
<event>
 4    0  0.2250660E-002  0.2002553E+03  0.7546771E-02  0.1149524E+00
         21   -1    0    0  502  501  0.00000000000E+00  0.00000000000E+00  0.51144083000E+03  0.51144083000E+03  0.00000000000E+00 0.  1.
         21   -1    0    0  501  502 -0.00000000000E+00 -0.00000000000E+00 -0.78410245882E+02  0.78410245882E+02  0.00000000000E+00 0.  1.
         25    1    1    2    0    0  0.53277773892E+02  0.13628866919E+03  0.29803793139E+03  0.35477419733E+03  0.12500000000E+03 0.  0.
         25    1    1    2    0    0 -0.53277773892E+02 -0.13628866919E+03  0.13499265272E+03  0.23507687855E+03  0.12500000000E+03 0.  0.
</event>
<event>
 4    0  0.2250660E-002  0.3056556E+03  0.7546771E-02  0.1082447E+00
         21   -1    0    0  502  501  0.00000000000E+00  0.00000000000E+00  0.54376236988E+03  0.54376236988E+03  0.00000000000E+00 0.  1.
         21   -1    0    0  501  502 -0.00000000000E+00 -0.00000000000E+00 -0.17181276559E+03  0.17181276559E+03  0.00000000000E+00 0.  1.
         25    1    1    2    0    0  0.79745444021E+02  0.10572208860E+03  0.47333147592E+03  0.50715301631E+03  0.12500000000E+03 0.  0.
         25    1    1    2    0    0 -0.79745444021E+02 -0.10572208860E+03 -0.10138187162E+03  0.20842211916E+03  0.12500000000E+03 0.  0.
</event>
<event>
 4    0  0.2250660E-002  0.1949139E+03  0.7546771E-02  0.1154103E+00
         21   -1    0    0  502  501  0.00000000000E+00  0.00000000000E+00  0.95904846438E+02  0.95904846438E+02  0.00000000000E+00 0.  1.
         21   -1    0    0  501  502 -0.00000000000E+00 -0.00000000000E+00 -0.39613666602E+03  0.39613666602E+03  0.00000000000E+00 0.  1.
         25    1    1    2    0    0 -0.14314148633E+03  0.42122106896E+02 -0.16290527180E+03  0.25382451532E+03  0.12500000000E+03 0.  0.
         25    1    1    2    0    0  0.14314148633E+03 -0.42122106896E+02 -0.13732654778E+03  0.23821699713E+03  0.12500000000E+03 0.  0.
</event>
<event>
 4    0  0.2250660E-002  0.2588072E+03  0.7546771E-02  0.1107862E+00
         21   -1    0    0  502  501  0.00000000000E+00  0.00000000000E+00  0.70220638680E+03  0.70220638680E+03  0.00000000000E+00 0. -1.
         21   -1    0    0  501  502 -0.00000000000E+00 -0.00000000000E+00 -0.95386707481E+02  0.95386707481E+02  0.00000000000E+00 0. -1.
         25    1    1    2    0    0  0.59304609220E+02 -0.56086852266E+02 -0.22349360450E+02  0.15095451495E+03  0.12500000000E+03 0.  0.
         25    1    1    2    0    0 -0.59304609220E+02  0.56086852266E+02  0.62916903977E+03  0.64663857933E+03  0.12500000000E+03 0.  0.
</event>
<event>
 4    0  0.2250660E-002  0.2288773E+03  0.7546771E-02  0.1127432E+00
         21   -1    0    0  502  501  0.00000000000E+00  0.00000000000E+00  0.57284090284E+03  0.57284090284E+03  0.00000000000E+00 0.  1.
         21   -1    0    0  501  502 -0.00000000000E+00 -0.00000000000E+00 -0.91447394411E+02  0.91447394411E+02  0.00000000000E+00 0.  1.
         25    1    1    2    0    0  0.52565885642E+02 -0.69340329727E+02  0.48862740501E+03  0.51181343729E+03  0.12500000000E+03 0.  0.
         25    1    1    2    0    0 -0.52565885642E+02  0.69340329727E+02 -0.72338965858E+01  0.15247485996E+03  0.12500000000E+03 0.  0.
</event>
<event>
 4    0  0.2250660E-002  0.1910123E+03  0.7546771E-02  0.1157551E+00
         21   -1    0    0  502  501  0.00000000000E+00  0.00000000000E+00  0.71876718348E+03  0.71876718348E+03  0.00000000000E+00 0.  1.
         21   -1    0    0  501  502 -0.00000000000E+00 -0.00000000000E+00 -0.50761479014E+02  0.50761479014E+02  0.00000000000E+00 0.  1.
         25    1    1    2    0    0 -0.72621698114E+02 -0.10531113415E+03  0.19893154952E+03  0.26751281727E+03  0.12500000000E+03 0.  0.
         25    1    1    2    0    0  0.72621698114E+02  0.10531113415E+03  0.46907415495E+03  0.50201584522E+03  0.12500000000E+03 0.  0.
</event>
<event>
 4    0  0.2250660E-002  0.1763304E+03  0.7546771E-02  0.1171402E+00
         21   -1    0    0  502  501  0.00000000000E+00  0.00000000000E+00  0.27713481889E+03  0.27713481889E+03  0.00000000000E+00 0. -1.
         21   -1    0    0  501  502 -0.00000000000E+00 -0.00000000000E+00 -0.11219240361E+03  0.11219240361E+03  0.00000000000E+00 0. -1.
         25    1    1    2    0    0 -0.96231368524E+02  0.78175549783E+02  0.93261275377E+02  0.19923493257E+03  0.12500000000E+03 0.  0.
         25    1    1    2    0    0  0.96231368524E+02 -0.78175549783E+02  0.71681139898E+02  0.19009228993E+03  0.12500000000E+03 0.  0.
</event>
<event>
 4    0  0.2250660E-002  0.2116819E+03  0.7546771E-02  0.1140241E+00
         21   -1    0    0  502  501  0.00000000000E+00  0.00000000000E+00  0.11278156357E+03  0.11278156357E+03  0.00000000000E+00 0. -1.
         21   -1    0    0  501  502 -0.00000000000E+00 -0.00000000000E+00 -0.39730967901E+03  0.39730967901E+03  0.00000000000E+00 0. -1.
         25    1    1    2    0    0 -0.42628882004E+01 -0.30779172317E+02 -0.34466035779E+03  0.36794196811E+03  0.12500000000E+03 0.  0.
         25    1    1    2    0    0  0.42628882004E+01  0.30779172317E+02  0.60132242352E+02  0.14214927448E+03  0.12500000000E+03 0.  0.
</event>
<event>
 4    0  0.2250660E-002  0.3321280E+03  0.7546771E-02  0.1070199E+00
         21   -1    0    0  502  501  0.00000000000E+00  0.00000000000E+00  0.35336461960E+03  0.35336461960E+03  0.00000000000E+00 0.  1.
         21   -1    0    0  501  502 -0.00000000000E+00 -0.00000000000E+00 -0.31216761674E+03  0.31216761674E+03  0.00000000000E+00 0.  1.
         25    1    1    2    0    0 -0.41651824386E+02  0.20455319873E+03 -0.20590466984E+03  0.31874538216E+03  0.12500000000E+03 0.  0.
         25    1    1    2    0    0  0.41651824386E+02 -0.20455319873E+03  0.24710167269E+03  0.34678685418E+03  0.12500000000E+03 0.  0.
</event>
<event>
 4    0  0.2250660E-002  0.2643261E+03  0.7546771E-02  0.1104572E+00
         21   -1    0    0  502  501  0.00000000000E+00  0.00000000000E+00  0.99242553657E+02  0.99242553657E+02  0.00000000000E+00 0.  1.
         21   -1    0    0  501  502 -0.00000000000E+00 -0.00000000000E+00 -0.70401528072E+03  0.70401528072E+03  0.00000000000E+00 0.  1.
         25    1    1    2    0    0 -0.33512701321E+02  0.54420695970E+02  0.37910150537E+02  0.14541971260E+03  0.12500000000E+03 0.  0.
         25    1    1    2    0    0  0.33512701321E+02 -0.54420695970E+02 -0.64268287760E+03  0.65783812178E+03  0.12500000000E+03 0.  0.
</event>
<event>
 4    0  0.2250660E-002  0.1756921E+03  0.7546771E-02  0.1172039E+00
         21   -1    0    0  502  501  0.00000000000E+00  0.00000000000E+00  0.65394001660E+02  0.65394001660E+02  0.00000000000E+00 0.  1.
         21   -1    0    0  501  502 -0.00000000000E+00 -0.00000000000E+00 -0.47202676145E+03  0.47202676145E+03  0.00000000000E+00 0.  1.
         25    1    1    2    0    0  0.88817482530E+02 -0.85361370832E+02 -0.21589223746E+03  0.27822574832E+03  0.12500000000E+03 0.  0.
         25    1    1    2    0    0 -0.88817482530E+02  0.85361370832E+02 -0.19074052233E+03  0.25919501479E+03  0.12500000000E+03 0.  0.
</event>
<event>
 4    0  0.2250660E-002  0.3243378E+03  0.7546771E-02  0.1073670E+00
         21   -1    0    0  502  501  0.00000000000E+00  0.00000000000E+00  0.66436120757E+02  0.66436120757E+02  0.00000000000E+00 0.  1.
         21   -1    0    0  501  502 -0.00000000000E+00 -0.00000000000E+00 -0.15834008012E+04  0.15834008012E+04  0.00000000000E+00 0.  1.
         25    1    1    2    0    0  0.17309955907E+02 -0.40293807328E+02 -0.55057994145E+01  0.13258408392E+03  0.12500000000E+03 0.  0.
         25    1    1    2    0    0 -0.17309955907E+02  0.40293807328E+02 -0.15114588810E+04  0.15172528380E+04  0.12500000000E+03 0.  0.
</event>
<event>
 4    0  0.2250660E-002  0.2310433E+03  0.7546771E-02  0.1125908E+00
         21   -1    0    0  502  501  0.00000000000E+00  0.00000000000E+00  0.87993617320E+03  0.87993617320E+03  0.00000000000E+00 0.  1.
         21   -1    0    0  501  502 -0.00000000000E+00 -0.00000000000E+00 -0.60664651355E+02  0.60664651355E+02  0.00000000000E+00 0.  1.
         25    1    1    2    0    0 -0.15860526219E+03  0.88208541538E+02  0.26832037346E+03  0.34721347729E+03  0.12500000000E+03 0.  0.
         25    1    1    2    0    0  0.15860526219E+03 -0.88208541538E+02  0.55095114839E+03  0.59338734727E+03  0.12500000000E+03 0.  0.
</event>
<event>
 4    0  0.2250660E-002  0.2892443E+03  0.7546771E-02  0.1090744E+00
         21   -1    0    0  502  501  0.00000000000E+00  0.00000000000E+00  0.58050065206E+02  0.58050065206E+02  0.00000000000E+00 0. -1.
         21   -1    0    0  501  502 -0.00000000000E+00 -0.00000000000E+00 -0.14412086858E+04  0.14412086858E+04  0.00000000000E+00 0. -1.
         25    1    1    2    0    0 -0.12844966346E+02  0.24345867024E+03 -0.93192403209E+03  0.97136219757E+03  0.12500000000E+03 0.  0.
         25    1    1    2    0    0  0.12844966346E+02 -0.24345867024E+03 -0.45123458853E+03  0.52789655347E+03  0.12500000000E+03 0.  0.
</event>
<event>
 4    0  0.2250660E-002  0.2130565E+03  0.7546771E-02  0.1139168E+00
         21   -1    0    0  502  501  0.00000000000E+00  0.00000000000E+00  0.44124649178E+02  0.44124649178E+02  0.00000000000E+00 0.  1.
         21   -1    0    0  501  502 -0.00000000000E+00 -0.00000000000E+00 -0.10287465249E+04  0.10287465249E+04  0.00000000000E+00 0.  1.
         25    1    1    2    0    0  0.84910921826E+02 -0.65449596466E+02 -0.83267702656E+03  0.84880477431E+03  0.12500000000E+03 0.  0.
         25    1    1    2    0    0 -0.84910921826E+02  0.65449596466E+02 -0.15194484918E+03  0.22406639979E+03  0.12500000000E+03 0.  0.
</event>
<event>
 4    0  0.2250660E-002  0.1722999E+03  0.7546771E-02  0.1175470E+00
         21   -1    0    0  502  501  0.00000000000E+00  0.00000000000E+00  0.93771704419E+02  0.93771704419E+02  0.00000000000E+00 0. -1.
         21   -1    0    0  501  502 -0.00000000000E+00 -0.00000000000E+00 -0.31659083214E+03  0.31659083214E+03  0.00000000000E+00 0. -1.
         25    1    1    2    0    0  0.11590684843E+02 -0.84777763589E+02 -0.13640043055E+02  0.15209426008E+03  0.12500000000E+03 0.  0.
         25    1    1    2    0    0 -0.11590684843E+02  0.84777763589E+02 -0.20917908466E+03  0.25826827648E+03  0.12500000000E+03 0.  0.
</event>
<event>
 4    0  0.2250660E-002  0.1584221E+03  0.7546771E-02  0.1190490E+00
         21   -1    0    0  502  501  0.00000000000E+00  0.00000000000E+00  0.82350719229E+02  0.82350719229E+02  0.00000000000E+00 0. -1.
         21   -1    0    0  501  502 -0.00000000000E+00 -0.00000000000E+00 -0.30476423024E+03  0.30476423024E+03  0.00000000000E+00 0. -1.
         25    1    1    2    0    0 -0.64801155663E+02  0.36835499217E+02 -0.18766843975E+03  0.23748786718E+03  0.12500000000E+03 0.  0.
         25    1    1    2    0    0  0.64801155663E+02 -0.36835499217E+02 -0.34745071258E+02  0.14962708229E+03  0.12500000000E+03 0.  0.
</event>
<event>
 4    0  0.2250660E-002  0.2222882E+03  0.7546771E-02  0.1132189E+00
         21   -1    0    0  502  501  0.00000000000E+00  0.00000000000E+00  0.83165327896E+03  0.83165327896E+03  0.00000000000E+00 0. -1.
         21   -1    0    0  501  502 -0.00000000000E+00 -0.00000000000E+00 -0.59414227920E+02  0.59414227920E+02  0.00000000000E+00 0. -1.
         25    1    1    2    0    0  0.80378987853E+02 -0.16469064510E+03  0.41469388546E+03  0.47029757485E+03  0.12500000000E+03 0.  0.
         25    1    1    2    0    0 -0.80378987853E+02  0.16469064510E+03  0.35754516558E+03  0.42076993203E+03  0.12500000000E+03 0.  0.
</event>
<event>
 4    0  0.2250660E-002  0.1539320E+03  0.7546771E-02  0.1195723E+00
         21   -1    0    0  502  501  0.00000000000E+00  0.00000000000E+00  0.46441397807E+02  0.46441397807E+02  0.00000000000E+00 0. -1.
         21   -1    0    0  501  502 -0.00000000000E+00 -0.00000000000E+00 -0.51021447779E+03  0.51021447779E+03  0.00000000000E+00 0. -1.
         25    1    1    2    0    0 -0.89829448504E+00  0.43822132080E+02 -0.90102926908E+02  0.16020213366E+03  0.12500000000E+03 0.  0.
         25    1    1    2    0    0  0.89829448504E+00 -0.43822132080E+02 -0.37367015307E+03  0.39645374193E+03  0.12500000000E+03 0.  0.
</event>
<event>
 4    0  0.2250660E-002  0.2396380E+03  0.7546771E-02  0.1120034E+00
         21   -1    0    0  502  501  0.00000000000E+00  0.00000000000E+00  0.96092411021E+03  0.96092411021E+03  0.00000000000E+00 0. -1.
         21   -1    0    0  501  502 -0.00000000000E+00 -0.00000000000E+00 -0.59761624741E+02  0.59761624741E+02  0.00000000000E+00 0. -1.
         25    1    1    2    0    0  0.11939841431E+01  0.58432394842E+02  0.86782568626E+03  0.87872759835E+03  0.12500000000E+03 0.  0.
         25    1    1    2    0    0 -0.11939841431E+01 -0.58432394842E+02  0.33336799204E+02  0.14195813660E+03  0.12500000000E+03 0.  0.
</event>
<event>
 4    0  0.2250660E-002  0.2273289E+03  0.7546771E-02  0.1128534E+00
         21   -1    0    0  502  501  0.00000000000E+00  0.00000000000E+00  0.45015467802E+02  0.45015467802E+02  0.00000000000E+00 0.  1.
         21   -1    0    0  501  502 -0.00000000000E+00 -0.00000000000E+00 -0.11480146706E+04  0.11480146706E+04  0.00000000000E+00 0.  1.
         25    1    1    2    0    0  0.44560042885E+02  0.17190865817E+03 -0.37517743534E+03  0.43349889523E+03  0.12500000000E+03 0.  0.
         25    1    1    2    0    0 -0.44560042885E+02 -0.17190865817E+03 -0.72782176745E+03  0.75953124317E+03  0.12500000000E+03 0.  0.
</event>
<event>
 4    0  0.2250660E-002  0.2058016E+03  0.7546771E-02  0.1144934E+00
         21   -1    0    0  502  501  0.00000000000E+00  0.00000000000E+00  0.59148810438E+03  0.59148810438E+03  0.00000000000E+00 0. -1.
         21   -1    0    0  501  502 -0.00000000000E+00 -0.00000000000E+00 -0.71606356842E+02  0.71606356842E+02  0.00000000000E+00 0. -1.
         25    1    1    2    0    0  0.10705785272E+02  0.16150771502E+03  0.22285444217E+03  0.30247059071E+03  0.12500000000E+03 0.  0.
         25    1    1    2    0    0 -0.10705785272E+02 -0.16150771502E+03  0.29702730536E+03  0.36062387051E+03  0.12500000000E+03 0.  0.
</event>
<event>
 4    0  0.2250660E-002  0.3888051E+03  0.7546771E-02  0.1047727E+00
         21   -1    0    0  502  501  0.00000000000E+00  0.00000000000E+00  0.33201326631E+03  0.33201326631E+03  0.00000000000E+00 0.  1.
         21   -1    0    0  501  502 -0.00000000000E+00 -0.00000000000E+00 -0.45531128747E+03  0.45531128747E+03  0.00000000000E+00 0.  1.
         25    1    1    2    0    0 -0.26730162001E+03 -0.15734418742E+03  0.13916439560E+03  0.36221413332E+03  0.12500000000E+03 0.  0.
         25    1    1    2    0    0  0.26730162001E+03  0.15734418742E+03 -0.26246241676E+03  0.42511042046E+03  0.12500000000E+03 0.  0.
</event>
<event>
 4    0  0.2250660E-002  0.2199068E+03  0.7546771E-02  0.1133953E+00
         21   -1    0    0  502  501  0.00000000000E+00  0.00000000000E+00  0.13911775868E+02  0.13911775868E+02  0.00000000000E+00 0. -1.
         21   -1    0    0  501  502 -0.00000000000E+00 -0.00000000000E+00 -0.34761197702E+04  0.34761197702E+04  0.00000000000E+00 0.  1.
         25    1    1    2    0    0 -0.15843749860E+03  0.56309922939E+02 -0.22610903461E+04  0.22707769159E+04  0.12500000000E+03 0.  0.
         25    1    1    2    0    0  0.15843749860E+03 -0.56309922939E+02 -0.12011176482E+04  0.12192546302E+04  0.12500000000E+03 0.  0.
</event>
<event>
 4    0  0.2250660E-002  0.2618721E+03  0.7546771E-02  0.1106024E+00
         21   -1    0    0  502  501  0.00000000000E+00  0.00000000000E+00  0.90215063369E+03  0.90215063369E+03  0.00000000000E+00 0.  1.
         21   -1    0    0  501  502 -0.00000000000E+00 -0.00000000000E+00 -0.76015004218E+02  0.76015004218E+02  0.00000000000E+00 0.  1.
         25    1    1    2    0    0  0.47688789863E+02  0.47847230444E+02  0.22361835992E+01  0.14210411203E+03  0.12500000000E+03 0.  0.
         25    1    1    2    0    0 -0.47688789863E+02 -0.47847230444E+02  0.82389944587E+03  0.83606152588E+03  0.12500000000E+03 0.  0.
</event>
<event>
 4    0  0.2250660E-002  0.2373814E+03  0.7546771E-02  0.1121550E+00
         21   -1    0    0  502  501  0.00000000000E+00  0.00000000000E+00  0.17583416333E+03  0.17583416333E+03  0.00000000000E+00 0.  1.
         21   -1    0    0  501  502 -0.00000000000E+00 -0.00000000000E+00 -0.32047197038E+03  0.32047197038E+03  0.00000000000E+00 0.  1.
         25    1    1    2    0    0 -0.13449519094E+02  0.19824443874E+03 -0.10917750934E+03  0.25889471914E+03  0.12500000000E+03 0.  0.
         25    1    1    2    0    0  0.13449519094E+02 -0.19824443874E+03 -0.35460297708E+02  0.23741141457E+03  0.12500000000E+03 0.  0.
</event>
<event>
 4    0  0.2250660E-002  0.2412261E+03  0.7546771E-02  0.1118979E+00
         21   -1    0    0  502  501  0.00000000000E+00  0.00000000000E+00  0.12978285358E+04  0.12978285358E+04  0.00000000000E+00 0.  1.
         21   -1    0    0  501  502 -0.00000000000E+00 -0.00000000000E+00 -0.44836443066E+02  0.44836443066E+02  0.00000000000E+00 0.  1.
         25    1    1    2    0    0  0.20478292415E+03 -0.25048460748E+02  0.62303812158E+03  0.66810550989E+03  0.12500000000E+03 0.  0.
         25    1    1    2    0    0 -0.20478292415E+03  0.25048460748E+02  0.62995397116E+03  0.67455946898E+03  0.12500000000E+03 0.  0.
</event>
<event>
 4    0  0.2250660E-002  0.2304479E+03  0.7546771E-02  0.1126325E+00
         21   -1    0    0  502  501  0.00000000000E+00  0.00000000000E+00  0.50763068517E+03  0.50763068517E+03  0.00000000000E+00 0.  1.
         21   -1    0    0  501  502 -0.00000000000E+00 -0.00000000000E+00 -0.10461591735E+03  0.10461591735E+03  0.00000000000E+00 0.  1.
         25    1    1    2    0    0 -0.18385623057E+02  0.19269212021E+03  0.20629057616E+03  0.30927186445E+03  0.12500000000E+03 0.  0.
         25    1    1    2    0    0  0.18385623057E+02 -0.19269212021E+03  0.19672419166E+03  0.30297473807E+03  0.12500000000E+03 0.  0.
</event>
<event>
 4    0  0.2250660E-002  0.3141627E+03  0.7546771E-02  0.1078368E+00
         21   -1    0    0  502  501  0.00000000000E+00  0.00000000000E+00  0.18318360586E+03  0.18318360586E+03  0.00000000000E+00 0.  1.
         21   -1    0    0  501  502 -0.00000000000E+00 -0.00000000000E+00 -0.53879375041E+03  0.53879375041E+03  0.00000000000E+00 0.  1.
         25    1    1    2    0    0  0.21163658777E+03 -0.55289750356E+02 -0.39346615486E+03  0.46721260342E+03  0.12500000000E+03 0.  0.
         25    1    1    2    0    0 -0.21163658777E+03  0.55289750356E+02  0.37856010315E+02  0.25476475285E+03  0.12500000000E+03 0.  0.
</event>
<event>
 4    0  0.2250660E-002  0.2030036E+03  0.7546771E-02  0.1147229E+00
         21   -1    0    0  502  501  0.00000000000E+00  0.00000000000E+00  0.93181618495E+02  0.93181618495E+02  0.00000000000E+00 0. -1.
         21   -1    0    0  501  502 -0.00000000000E+00 -0.00000000000E+00 -0.44225951876E+03  0.44225951876E+03  0.00000000000E+00 0. -1.
         25    1    1    2    0    0 -0.11989120166E+02  0.14666560175E+03 -0.91854256247E+02  0.21381473787E+03  0.12500000000E+03 0.  0.
         25    1    1    2    0    0  0.11989120166E+02 -0.14666560175E+03 -0.25722364402E+03  0.32162639939E+03  0.12500000000E+03 0.  0.
</event>
<event>
 4    0  0.2250660E-002  0.1568263E+03  0.7546771E-02  0.1192327E+00
         21   -1    0    0  502  501  0.00000000000E+00  0.00000000000E+00  0.20200733160E+03  0.20200733160E+03  0.00000000000E+00 0.  1.
         21   -1    0    0  501  502 -0.00000000000E+00 -0.00000000000E+00 -0.12175043287E+03  0.12175043287E+03  0.00000000000E+00 0.  1.
         25    1    1    2    0    0 -0.46337673983E+02  0.82489600522E+02  0.35777698040E+02  0.16080036661E+03  0.12500000000E+03 0.  0.
         25    1    1    2    0    0  0.46337673983E+02 -0.82489600522E+02  0.44479200695E+02  0.16295739787E+03  0.12500000000E+03 0.  0.
</event>
<event>
 4    0  0.2250660E-002  0.1920821E+03  0.7546771E-02  0.1156597E+00
         21   -1    0    0  502  501  0.00000000000E+00  0.00000000000E+00  0.11091690389E+03  0.11091690389E+03  0.00000000000E+00 0. -1.
         21   -1    0    0  501  502 -0.00000000000E+00 -0.00000000000E+00 -0.33264132842E+03  0.33264132842E+03  0.00000000000E+00 0. -1.
         25    1    1    2    0    0  0.10490548030E+03 -0.65511024932E+02 -0.20010129384E+03  0.26638765358E+03  0.12500000000E+03 0.  0.
         25    1    1    2    0    0 -0.10490548030E+03  0.65511024932E+02 -0.21623130696E+02  0.17717057873E+03  0.12500000000E+03 0.  0.
</event>
<event>
 4    0  0.2250660E-002  0.2962868E+03  0.7546771E-02  0.1087112E+00
         21   -1    0    0  502  501  0.00000000000E+00  0.00000000000E+00  0.11986243116E+03  0.11986243116E+03  0.00000000000E+00 0. -1.
         21   -1    0    0  501  502 -0.00000000000E+00 -0.00000000000E+00 -0.73238850786E+03  0.73238850786E+03  0.00000000000E+00 0. -1.
         25    1    1    2    0    0  0.10157149197E+03 -0.23322934222E+03 -0.18214066520E+03  0.33691677901E+03  0.12500000000E+03 0.  0.
         25    1    1    2    0    0 -0.10157149197E+03  0.23322934222E+03 -0.43038541150E+03  0.51533416002E+03  0.12500000000E+03 0.  0.
</event>
<event>
 4    0  0.2250660E-002  0.2573420E+03  0.7546771E-02  0.1108751E+00
         21   -1    0    0  502  501  0.00000000000E+00  0.00000000000E+00  0.47144808805E+03  0.47144808805E+03  0.00000000000E+00 0. -1.
         21   -1    0    0  501  502 -0.00000000000E+00 -0.00000000000E+00 -0.14047126024E+03  0.14047126024E+03  0.00000000000E+00 0. -1.
         25    1    1    2    0    0 -0.19224128585E+03 -0.13841975844E+02  0.27595992157E+02  0.23137599501E+03  0.12500000000E+03 0.  0.
         25    1    1    2    0    0  0.19224128585E+03  0.13841975844E+02  0.30338083566E+03  0.38054335328E+03  0.12500000000E+03 0.  0.
</event>
<event>
 4    0  0.2250660E-002  0.2556229E+03  0.7546771E-02  0.1109802E+00
         21   -1    0    0  502  501  0.00000000000E+00  0.00000000000E+00  0.11693553444E+03  0.11693553444E+03  0.00000000000E+00 0. -1.
         21   -1    0    0  501  502 -0.00000000000E+00 -0.00000000000E+00 -0.55879579732E+03  0.55879579732E+03  0.00000000000E+00 0. -1.
         25    1    1    2    0    0  0.12992651790E+03  0.88893889113E+02 -0.42964311467E+03  0.47434294509E+03  0.12500000000E+03 0.  0.
         25    1    1    2    0    0 -0.12992651790E+03 -0.88893889113E+02 -0.12217148215E+02  0.20138838667E+03  0.12500000000E+03 0.  0.
</event>
<event>
 4    0  0.2250660E-002  0.3407649E+03  0.7546771E-02  0.1066471E+00
         21   -1    0    0  502  501  0.00000000000E+00  0.00000000000E+00  0.72299153042E+03  0.72299153042E+03  0.00000000000E+00 0. -1.
         21   -1    0    0  501  502 -0.00000000000E+00 -0.00000000000E+00 -0.16061145249E+03  0.16061145249E+03  0.00000000000E+00 0. -1.
         25    1    1    2    0    0  0.11248422983E+03 -0.29073306735E+03  0.35586324295E+03  0.48932817831E+03  0.12500000000E+03 0.  0.
         25    1    1    2    0    0 -0.11248422983E+03  0.29073306735E+03  0.20651683498E+03  0.39427480460E+03  0.12500000000E+03 0.  0.
</event>
<event>
 4    0  0.2250660E-002  0.1735177E+03  0.7546771E-02  0.1174228E+00
         21   -1    0    0  502  501  0.00000000000E+00  0.00000000000E+00  0.41977203414E+02  0.41977203414E+02  0.00000000000E+00 0. -1.
         21   -1    0    0  501  502 -0.00000000000E+00 -0.00000000000E+00 -0.71725597797E+03  0.71725597797E+03  0.00000000000E+00 0. -1.
         25    1    1    2    0    0  0.34804950652E+02 -0.52733168287E+02 -0.11355349402E+03  0.18030964376E+03  0.12500000000E+03 0.  0.
         25    1    1    2    0    0 -0.34804950652E+02  0.52733168287E+02 -0.56172528054E+03  0.57892353763E+03  0.12500000000E+03 0.  0.
</event>
<event>
 4    0  0.2250660E-002  0.2003442E+03  0.7546771E-02  0.1149449E+00
         21   -1    0    0  502  501  0.00000000000E+00  0.00000000000E+00  0.61823787650E+03  0.61823787650E+03  0.00000000000E+00 0.  1.
         21   -1    0    0  501  502 -0.00000000000E+00 -0.00000000000E+00 -0.64922872847E+02  0.64922872847E+02  0.00000000000E+00 0.  1.
         25    1    1    2    0    0 -0.92992221954E+02  0.11506482960E+03  0.18929871481E+03  0.27082553754E+03  0.12500000000E+03 0.  0.
         25    1    1    2    0    0  0.92992221954E+02 -0.11506482960E+03  0.36401628884E+03  0.41233521181E+03  0.12500000000E+03 0.  0.
</event>
<event>
 4    0  0.2250660E-002  0.2802553E+03  0.7546771E-02  0.1095550E+00
         21   -1    0    0  502  501  0.00000000000E+00  0.00000000000E+00  0.30348504861E+03  0.30348504861E+03  0.00000000000E+00 0.  1.
         21   -1    0    0  501  502 -0.00000000000E+00 -0.00000000000E+00 -0.25880361600E+03  0.25880361600E+03  0.00000000000E+00 0.  1.
         25    1    1    2    0    0 -0.49705851434E+02 -0.22844203305E+03  0.11352236344E+03  0.28838994631E+03  0.12500000000E+03 0.  0.
         25    1    1    2    0    0  0.49705851434E+02  0.22844203305E+03 -0.68840930825E+02  0.27389871830E+03  0.12500000000E+03 0.  0.
</event>
<event>
 4    0  0.2250660E-002  0.1367612E+03  0.7546771E-02  0.1217755E+00
         21   -1    0    0  502  501  0.00000000000E+00  0.00000000000E+00  0.20116596178E+03  0.20116596178E+03  0.00000000000E+00 0. -1.
         21   -1    0    0  501  502 -0.00000000000E+00 -0.00000000000E+00 -0.92976152025E+02  0.92976152025E+02  0.00000000000E+00 0. -1.
         25    1    1    2    0    0 -0.33294205439E+02 -0.31137888651E+02  0.20078626682E+02  0.13455936785E+03  0.12500000000E+03 0.  0.
         25    1    1    2    0    0  0.33294205439E+02  0.31137888651E+02  0.88111183074E+02  0.15958274596E+03  0.12500000000E+03 0.  0.
</event>
<event>
 4    0  0.2250660E-002  0.2484996E+03  0.7546771E-02  0.1114257E+00
         21   -1    0    0  502  501  0.00000000000E+00  0.00000000000E+00  0.43598879216E+03  0.43598879216E+03  0.00000000000E+00 0. -1.
         21   -1    0    0  501  502 -0.00000000000E+00 -0.00000000000E+00 -0.14163673113E+03  0.14163673113E+03  0.00000000000E+00 0. -1.
         25    1    1    2    0    0  0.12141464941E+03 -0.10788360460E+03 -0.16143210367E+02  0.20558694626E+03  0.12500000000E+03 0.  0.
         25    1    1    2    0    0 -0.12141464941E+03  0.10788360460E+03  0.31049527140E+03  0.37203857703E+03  0.12500000000E+03 0.  0.
</event>
<event>
 4    0  0.2250660E-002  0.2830396E+03  0.7546771E-02  0.1094040E+00
         21   -1    0    0  502  501  0.00000000000E+00  0.00000000000E+00  0.13168242043E+03  0.13168242043E+03  0.00000000000E+00 0.  1.
         21   -1    0    0  501  502 -0.00000000000E+00 -0.00000000000E+00 -0.60836819798E+03  0.60836819798E+03  0.00000000000E+00 0.  1.
         25    1    1    2    0    0 -0.63748777495E+02 -0.86192609811E+02 -0.53929324359E+03  0.56387523017E+03  0.12500000000E+03 0.  0.
         25    1    1    2    0    0  0.63748777495E+02  0.86192609811E+02  0.62607466037E+02  0.17617538824E+03  0.12500000000E+03 0.  0.
</event>
<event>
 4    0  0.2250660E-002  0.5803762E+03  0.7546771E-02  0.9946977E-01
         21   -1    0    0  502  501  0.00000000000E+00  0.00000000000E+00  0.13410719143E+04  0.13410719143E+04  0.00000000000E+00 0. -1.
         21   -1    0    0  501  502 -0.00000000000E+00 -0.00000000000E+00 -0.25116966994E+03  0.25116966994E+03  0.00000000000E+00 0.  1.
         25    1    1    2    0    0  0.84951084268E+02 -0.56021133079E+03  0.56220270378E+03  0.80792963927E+03  0.12500000000E+03 0.  0.
         25    1    1    2    0    0 -0.84951084268E+02  0.56021133079E+03  0.52769954054E+03  0.78431194493E+03  0.12500000000E+03 0.  0.
</event>
<event>
 4    0  0.2250660E-002  0.2065029E+03  0.7546771E-02  0.1144366E+00
         21   -1    0    0  502  501  0.00000000000E+00  0.00000000000E+00  0.37401710013E+03  0.37401710013E+03  0.00000000000E+00 0. -1.
         21   -1    0    0  501  502 -0.00000000000E+00 -0.00000000000E+00 -0.11401471651E+03  0.11401471651E+03  0.00000000000E+00 0. -1.
         25    1    1    2    0    0 -0.90737457050E+02  0.13621398623E+03  0.14795763708E+03  0.25358233086E+03  0.12500000000E+03 0.  0.
         25    1    1    2    0    0  0.90737457050E+02 -0.13621398623E+03  0.11204474654E+03  0.23444948578E+03  0.12500000000E+03 0.  0.
</event>
<event>
 4    0  0.2250660E-002  0.2753774E+03  0.7546771E-02  0.1098241E+00
         21   -1    0    0  502  501  0.00000000000E+00  0.00000000000E+00  0.84384107617E+02  0.84384107617E+02  0.00000000000E+00 0. -1.
         21   -1    0    0  501  502 -0.00000000000E+00 -0.00000000000E+00 -0.89866120122E+03  0.89866120122E+03  0.00000000000E+00 0. -1.
         25    1    1    2    0    0 -0.23251615306E+02  0.16786676014E+03 -0.72386666827E+03  0.75387521528E+03  0.12500000000E+03 0.  0.
         25    1    1    2    0    0  0.23251615306E+02 -0.16786676014E+03 -0.90410425329E+02  0.22917009356E+03  0.12500000000E+03 0.  0.
</event>
<event>
 4    0  0.2250660E-002  0.2500009E+03  0.7546771E-02  0.1113304E+00
         21   -1    0    0  502  501  0.00000000000E+00  0.00000000000E+00  0.15230443638E+03  0.15230443638E+03  0.00000000000E+00 0. -1.
         21   -1    0    0  501  502 -0.00000000000E+00 -0.00000000000E+00 -0.41036524569E+03  0.41036524569E+03  0.00000000000E+00 0. -1.
         25    1    1    2    0    0 -0.67717264938E+02 -0.30040860678E+02 -0.35796733259E+03  0.38633365435E+03  0.12500000000E+03 0.  0.
         25    1    1    2    0    0  0.67717264938E+02  0.30040860678E+02  0.99906523272E+02  0.17633602772E+03  0.12500000000E+03 0.  0.
</event>
<event>
 4    0  0.2250660E-002  0.1832257E+03  0.7546771E-02  0.1164717E+00
         21   -1    0    0  502  501  0.00000000000E+00  0.00000000000E+00  0.22763053847E+04  0.22763053847E+04  0.00000000000E+00 0.  1.
         21   -1    0    0  501  502 -0.00000000000E+00 -0.00000000000E+00 -0.14748312035E+02  0.14748312035E+02  0.00000000000E+00 0.  1.
         25    1    1    2    0    0 -0.83042754776E+02 -0.63130329367E+02  0.60527122795E+03  0.62678528779E+03  0.12500000000E+03 0.  0.
         25    1    1    2    0    0  0.83042754776E+02  0.63130329367E+02  0.16562858447E+04  0.16642684089E+04  0.12500000000E+03 0.  0.
</event>
<event>
 4    0  0.2250660E-002  0.1583269E+03  0.7546771E-02  0.1190599E+00
         21   -1    0    0  502  501  0.00000000000E+00  0.00000000000E+00  0.25583823075E+03  0.25583823075E+03  0.00000000000E+00 0. -1.
         21   -1    0    0  501  502 -0.00000000000E+00 -0.00000000000E+00 -0.97981523538E+02  0.97981523538E+02  0.00000000000E+00 0. -1.
         25    1    1    2    0    0 -0.46504753536E+02 -0.48932756270E+02  0.82971607814E+00  0.14206616475E+03  0.12500000000E+03 0.  0.
         25    1    1    2    0    0  0.46504753536E+02  0.48932756270E+02  0.15702699113E+03  0.21175358954E+03  0.12500000000E+03 0.  0.
</event>
<event>
 4    0  0.2250660E-002  0.2423387E+03  0.7546771E-02  0.1118245E+00
         21   -1    0    0  502  501  0.00000000000E+00  0.00000000000E+00  0.24046381329E+03  0.24046381329E+03  0.00000000000E+00 0. -1.
         21   -1    0    0  501  502 -0.00000000000E+00 -0.00000000000E+00 -0.24422819516E+03  0.24422819516E+03  0.00000000000E+00 0. -1.
         25    1    1    2    0    0 -0.36800875497E+00  0.44778661332E+02 -0.20461417735E+03  0.24392053114E+03  0.12500000000E+03 0.  0.
         25    1    1    2    0    0  0.36800875497E+00 -0.44778661332E+02  0.20084979548E+03  0.24077147731E+03  0.12500000000E+03 0.  0.
</event>
<event>
 4    0  0.2250660E-002  0.3257364E+03  0.7546771E-02  0.1073039E+00
         21   -1    0    0  502  501  0.00000000000E+00  0.00000000000E+00  0.68292133245E+03  0.68292133245E+03  0.00000000000E+00 0.  1.
         21   -1    0    0  501  502 -0.00000000000E+00 -0.00000000000E+00 -0.15536808724E+03  0.15536808724E+03  0.00000000000E+00 0.  1.
         25    1    1    2    0    0  0.77846119060E+02  0.21348450055E+03  0.10172043710E+02  0.25954598957E+03  0.12500000000E+03 0.  0.
         25    1    1    2    0    0 -0.77846119060E+02 -0.21348450055E+03  0.51738120151E+03  0.57874343012E+03  0.12500000000E+03 0.  0.
</event>
<event>
 4    0  0.2250660E-002  0.3884153E+03  0.7546771E-02  0.1047867E+00
         21   -1    0    0  502  501  0.00000000000E+00  0.00000000000E+00  0.77407808518E+03  0.77407808518E+03  0.00000000000E+00 0.  1.
         21   -1    0    0  501  502 -0.00000000000E+00 -0.00000000000E+00 -0.19489820278E+03  0.19489820278E+03  0.00000000000E+00 0.  1.
         25    1    1    2    0    0  0.34149155229E+03 -0.13637378810E+02  0.45896722737E+03  0.58572892552E+03  0.12500000000E+03 0.  0.
         25    1    1    2    0    0 -0.34149155229E+03  0.13637378810E+02  0.12021265503E+03  0.38324736244E+03  0.12500000000E+03 0.  0.
</event>
<event>
 4    0  0.2250660E-002  0.2612038E+03  0.7546771E-02  0.1106422E+00
         21   -1    0    0  502  501  0.00000000000E+00  0.00000000000E+00  0.41033619717E+03  0.41033619717E+03  0.00000000000E+00 0.  1.
         21   -1    0    0  501  502 -0.00000000000E+00 -0.00000000000E+00 -0.16627197971E+03  0.16627197971E+03  0.00000000000E+00 0.  1.
         25    1    1    2    0    0  0.95409207691E+02  0.47850993636E+02  0.34609580018E+03  0.38314479953E+03  0.12500000000E+03 0.  0.
         25    1    1    2    0    0 -0.95409207691E+02 -0.47850993636E+02 -0.10203158272E+03  0.19346337735E+03  0.12500000000E+03 0.  0.
</event>
<event>
 4    0  0.2250660E-002  0.2446955E+03  0.7546771E-02  0.1116704E+00
         21   -1    0    0  502  501  0.00000000000E+00  0.00000000000E+00  0.69079676480E+02  0.69079676480E+02  0.00000000000E+00 0. -1.
         21   -1    0    0  501  502 -0.00000000000E+00 -0.00000000000E+00 -0.86676536228E+03  0.86676536228E+03  0.00000000000E+00 0. -1.
         25    1    1    2    0    0 -0.18569207950E+03 -0.99695879818E+01 -0.58688693115E+03  0.62820554839E+03  0.12500000000E+03 0.  0.
         25    1    1    2    0    0  0.18569207950E+03  0.99695879818E+01 -0.21079875465E+03  0.30763949037E+03  0.12500000000E+03 0.  0.
</event>
<event>
 4    0  0.2250660E-002  0.2339165E+03  0.7546771E-02  0.1123913E+00
         21   -1    0    0  502  501  0.00000000000E+00  0.00000000000E+00  0.74961544712E+02  0.74961544712E+02  0.00000000000E+00 0.  1.
         21   -1    0    0  501  502 -0.00000000000E+00 -0.00000000000E+00 -0.72993326953E+03  0.72993326953E+03  0.00000000000E+00 0.  1.
         25    1    1    2    0    0 -0.57759593948E+02 -0.63345150258E+02 -0.20955655411E+02  0.15301280420E+03  0.12500000000E+03 0.  0.
         25    1    1    2    0    0  0.57759593948E+02  0.63345150258E+02 -0.63401606941E+03  0.65188201005E+03  0.12500000000E+03 0.  0.
</event>
<event>
 4    0  0.2250660E-002  0.1871995E+03  0.7546771E-02  0.1161012E+00
         21   -1    0    0  502  501  0.00000000000E+00  0.00000000000E+00  0.12574449998E+02  0.12574449998E+02  0.00000000000E+00 0.  1.
         21   -1    0    0  501  502 -0.00000000000E+00 -0.00000000000E+00 -0.27868935361E+04  0.27868935361E+04  0.00000000000E+00 0.  1.
         25    1    1    2    0    0  0.98666651850E+02 -0.53227519890E+02 -0.76829152811E+03  0.78642555225E+03  0.12500000000E+03 0.  0.
         25    1    1    2    0    0 -0.98666651850E+02  0.53227519890E+02 -0.20060275580E+04  0.20130424338E+04  0.12500000000E+03 0.  0.
</event>
<event>
 4    0  0.2250660E-002  0.1696692E+03  0.7546771E-02  0.1178193E+00
         21   -1    0    0  502  501  0.00000000000E+00  0.00000000000E+00  0.55024793119E+03  0.55024793119E+03  0.00000000000E+00 0. -1.
         21   -1    0    0  501  502 -0.00000000000E+00 -0.00000000000E+00 -0.52317568263E+02  0.52317568263E+02  0.00000000000E+00 0. -1.
         25    1    1    2    0    0  0.87578793175E+02 -0.13547018871E+01  0.11738597748E+03  0.19255219536E+03  0.12500000000E+03 0.  0.
         25    1    1    2    0    0 -0.87578793175E+02  0.13547018871E+01  0.38054438545E+03  0.41001330408E+03  0.12500000000E+03 0.  0.
</event>
<event>
 4    0  0.2250660E-002  0.2009180E+03  0.7546771E-02  0.1148967E+00
         21   -1    0    0  502  501  0.00000000000E+00  0.00000000000E+00  0.14814370730E+02  0.14814370730E+02  0.00000000000E+00 0.  1.
         21   -1    0    0  501  502 -0.00000000000E+00 -0.00000000000E+00 -0.27249235599E+04  0.27249235599E+04  0.00000000000E+00 0. -1.
         25    1    1    2    0    0  0.18695616519E+02  0.15606328704E+03 -0.13131625724E+04  0.13284299821E+04  0.12500000000E+03 0.  0.
         25    1    1    2    0    0 -0.18695616519E+02 -0.15606328704E+03 -0.13969466167E+04  0.14113079485E+04  0.12500000000E+03 0.  0.
</event>
<event>
 4    0  0.2250660E-002  0.3207278E+03  0.7546771E-02  0.1075315E+00
         21   -1    0    0  502  501  0.00000000000E+00  0.00000000000E+00  0.19329264990E+03  0.19329264990E+03  0.00000000000E+00 0. -1.
         21   -1    0    0  501  502 -0.00000000000E+00 -0.00000000000E+00 -0.53217910698E+03  0.53217910698E+03  0.00000000000E+00 0.  1.
         25    1    1    2    0    0 -0.19932941923E+03 -0.17162232365E+03 -0.32141086966E+03  0.43372385971E+03  0.12500000000E+03 0.  0.
         25    1    1    2    0    0  0.19932941923E+03  0.17162232365E+03 -0.17475587424E+02  0.29174789717E+03  0.12500000000E+03 0.  0.
</event>
<event>
 4    0  0.2250660E-002  0.2348879E+03  0.7546771E-02  0.1123246E+00
         21   -1    0    0  502  501  0.00000000000E+00  0.00000000000E+00  0.79898163740E+02  0.79898163740E+02  0.00000000000E+00 0.  1.
         21   -1    0    0  501  502 -0.00000000000E+00 -0.00000000000E+00 -0.69053336889E+03  0.69053336889E+03  0.00000000000E+00 0.  1.
         25    1    1    2    0    0  0.82298146673E+01  0.15347702620E+03 -0.51227223012E+03  0.54924563282E+03  0.12500000000E+03 0.  0.
         25    1    1    2    0    0 -0.82298146673E+01 -0.15347702620E+03 -0.98362975035E+02  0.22118589982E+03  0.12500000000E+03 0.  0.
</event>
<event>
 4    0  0.2250660E-002  0.2234039E+03  0.7546771E-02  0.1131370E+00
         21   -1    0    0  502  501  0.00000000000E+00  0.00000000000E+00  0.13892549182E+03  0.13892549182E+03  0.00000000000E+00 0. -1.
         21   -1    0    0  501  502 -0.00000000000E+00 -0.00000000000E+00 -0.35925228412E+03  0.35925228412E+03  0.00000000000E+00 0. -1.
         25    1    1    2    0    0  0.18066875831E+03 -0.39818742008E+02 -0.10170372472E+03  0.24534746802E+03  0.12500000000E+03 0.  0.
         25    1    1    2    0    0 -0.18066875831E+03  0.39818742008E+02 -0.11862306758E+03  0.25283030793E+03  0.12500000000E+03 0.  0.
</event>
<event>
 4    0  0.2250660E-002  0.4057948E+03  0.7546771E-02  0.1041791E+00
         21   -1    0    0  502  501  0.00000000000E+00  0.00000000000E+00  0.24186737442E+03  0.24186737442E+03  0.00000000000E+00 0.  1.
         21   -1    0    0  501  502 -0.00000000000E+00 -0.00000000000E+00 -0.68082532071E+03  0.68082532071E+03  0.00000000000E+00 0.  1.
         25    1    1    2    0    0  0.52693676593E+01 -0.36560699082E+03 -0.36032650570E+03  0.52835256096E+03  0.12500000000E+03 0.  0.
         25    1    1    2    0    0 -0.52693676593E+01  0.36560699082E+03 -0.78631440593E+02  0.39434013417E+03  0.12500000000E+03 0.  0.
</event>
<event>
 4    0  0.2250660E-002  0.2771152E+03  0.7546771E-02  0.1097275E+00
         21   -1    0    0  502  501  0.00000000000E+00  0.00000000000E+00  0.41714147991E+03  0.41714147991E+03  0.00000000000E+00 0. -1.
         21   -1    0    0  501  502 -0.00000000000E+00 -0.00000000000E+00 -0.18409306821E+03  0.18409306821E+03  0.00000000000E+00 0. -1.
         25    1    1    2    0    0 -0.21875888091E+02  0.15693476785E+03  0.32252603575E+03  0.38046697567E+03  0.12500000000E+03 0.  0.
         25    1    1    2    0    0  0.21875888091E+02 -0.15693476785E+03 -0.89477624054E+02  0.22076757245E+03  0.12500000000E+03 0.  0.
</event>
<event>
 4    0  0.2250660E-002  0.2073891E+03  0.7546771E-02  0.1143650E+00
         21   -1    0    0  502  501  0.00000000000E+00  0.00000000000E+00  0.80013420320E+02  0.80013420320E+02  0.00000000000E+00 0.  1.
         21   -1    0    0  501  502 -0.00000000000E+00 -0.00000000000E+00 -0.53753786692E+03  0.53753786692E+03  0.00000000000E+00 0.  1.
         25    1    1    2    0    0 -0.65643413403E+02 -0.12094505520E+03 -0.91911733782E+02  0.20738739332E+03  0.12500000000E+03 0.  0.
         25    1    1    2    0    0  0.65643413403E+02  0.12094505520E+03 -0.36561271282E+03  0.41016389392E+03  0.12500000000E+03 0.  0.
</event>
<event>
 4    0  0.2250660E-002  0.2221854E+03  0.7546771E-02  0.1132264E+00
         21   -1    0    0  502  501  0.00000000000E+00  0.00000000000E+00  0.38411013034E+03  0.38411013034E+03  0.00000000000E+00 0.  1.
         21   -1    0    0  501  502 -0.00000000000E+00 -0.00000000000E+00 -0.12852137479E+03  0.12852137479E+03  0.00000000000E+00 0.  1.
         25    1    1    2    0    0 -0.16505543049E+03 -0.79219573021E+02  0.11059332617E+03  0.24773962072E+03  0.12500000000E+03 0.  0.
         25    1    1    2    0    0  0.16505543049E+03  0.79219573021E+02  0.14499542938E+03  0.26489188441E+03  0.12500000000E+03 0.  0.
</event>
<event>
 4    0  0.2250660E-002  0.2205911E+03  0.7546771E-02  0.1133443E+00
         21   -1    0    0  502  501  0.00000000000E+00  0.00000000000E+00  0.14693439670E+03  0.14693439670E+03  0.00000000000E+00 0. -1.
         21   -1    0    0  501  502 -0.00000000000E+00 -0.00000000000E+00 -0.33117103106E+03  0.33117103106E+03  0.00000000000E+00 0. -1.
         25    1    1    2    0    0 -0.92952612464E+02  0.14838579966E+03 -0.14495184098E+03  0.25941196948E+03  0.12500000000E+03 0.  0.
         25    1    1    2    0    0  0.92952612464E+02 -0.14838579966E+03 -0.39284793389E+02  0.21869345828E+03  0.12500000000E+03 0.  0.
</event>
<event>
 4    0  0.2250660E-002  0.3061587E+03  0.7546771E-02  0.1082202E+00
         21   -1    0    0  502  501  0.00000000000E+00  0.00000000000E+00  0.10754590510E+04  0.10754590510E+04  0.00000000000E+00 0.  1.
         21   -1    0    0  501  502 -0.00000000000E+00 -0.00000000000E+00 -0.87156394149E+02  0.87156394149E+02  0.00000000000E+00 0.  1.
         25    1    1    2    0    0 -0.53340532309E+01  0.25072942604E+03  0.25995102628E+03  0.38222144533E+03  0.12500000000E+03 0.  0.
         25    1    1    2    0    0  0.53340532309E+01 -0.25072942604E+03  0.72835163058E+03  0.78039399983E+03  0.12500000000E+03 0.  0.
</event>
<event>
 4    0  0.2250660E-002  0.1912497E+03  0.7546771E-02  0.1157339E+00
         21   -1    0    0  502  501  0.00000000000E+00  0.00000000000E+00  0.11490851293E+03  0.11490851293E+03  0.00000000000E+00 0.  1.
         21   -1    0    0  501  502 -0.00000000000E+00 -0.00000000000E+00 -0.31830935457E+03  0.31830935457E+03  0.00000000000E+00 0.  1.
         25    1    1    2    0    0  0.53008309117E+01  0.93560700474E+02 -0.22664470966E+03  0.27527173465E+03  0.12500000000E+03 0.  0.
         25    1    1    2    0    0 -0.53008309117E+01 -0.93560700474E+02  0.23243868010E+02  0.15794613285E+03  0.12500000000E+03 0.  0.
</event>
<event>
 4    0  0.2250660E-002  0.2453608E+03  0.7546771E-02  0.1116272E+00
         21   -1    0    0  502  501  0.00000000000E+00  0.00000000000E+00  0.66981409551E+03  0.66981409551E+03  0.00000000000E+00 0.  1.
         21   -1    0    0  501  502 -0.00000000000E+00 -0.00000000000E+00 -0.89878556807E+02  0.89878556807E+02  0.00000000000E+00 0.  1.
         25    1    1    2    0    0  0.38428496712E+00 -0.17688984108E+03  0.46841602221E+03  0.51607047330E+03  0.12500000000E+03 0.  0.
         25    1    1    2    0    0 -0.38428496712E+00  0.17688984108E+03  0.11151951650E+03  0.24362217902E+03  0.12500000000E+03 0.  0.
</event>
<event>
 4    0  0.2250660E-002  0.2476729E+03  0.7546771E-02  0.1114784E+00
         21   -1    0    0  502  501  0.00000000000E+00  0.00000000000E+00  0.90756451752E+02  0.90756451752E+02  0.00000000000E+00 0. -1.
         21   -1    0    0  501  502 -0.00000000000E+00 -0.00000000000E+00 -0.67589524767E+03  0.67589524767E+03  0.00000000000E+00 0. -1.
         25    1    1    2    0    0 -0.91107981541E+02 -0.88718508135E+02 -0.26537786904E+02  0.18028003805E+03  0.12500000000E+03 0.  0.
         25    1    1    2    0    0  0.91107981541E+02  0.88718508135E+02 -0.55860100901E+03  0.58637166137E+03  0.12500000000E+03 0.  0.
</event>
<event>
 4    0  0.2250660E-002  0.1853491E+03  0.7546771E-02  0.1162724E+00
         21   -1    0    0  502  501  0.00000000000E+00  0.00000000000E+00  0.12454642581E+04  0.12454642581E+04  0.00000000000E+00 0.  1.
         21   -1    0    0  501  502 -0.00000000000E+00 -0.00000000000E+00 -0.27583529628E+02  0.27583529628E+02  0.00000000000E+00 0.  1.
         25    1    1    2    0    0 -0.12820511303E+03  0.47533066423E+02  0.62877465588E+03  0.65549867375E+03  0.12500000000E+03 0.  0.
         25    1    1    2    0    0  0.12820511303E+03 -0.47533066423E+02  0.58910607257E+03  0.61754911396E+03  0.12500000000E+03 0.  0.
</event>
<event>
 4    0  0.2250660E-002  0.2198001E+03  0.7546771E-02  0.1134032E+00
         21   -1    0    0  502  501  0.00000000000E+00  0.00000000000E+00  0.98919064608E+02  0.98919064608E+02  0.00000000000E+00 0. -1.
         21   -1    0    0  501  502 -0.00000000000E+00 -0.00000000000E+00 -0.48840014777E+03  0.48840014777E+03  0.00000000000E+00 0. -1.
         25    1    1    2    0    0 -0.78648671997E+02 -0.16211580585E+03 -0.17492681719E+03  0.28052012313E+03  0.12500000000E+03 0.  0.
         25    1    1    2    0    0  0.78648671997E+02  0.16211580585E+03 -0.21455426597E+03  0.30679908924E+03  0.12500000000E+03 0.  0.
</event>
<event>
 4    0  0.2250660E-002  0.1999110E+03  0.7546771E-02  0.1149814E+00
         21   -1    0    0  502  501  0.00000000000E+00  0.00000000000E+00  0.67830532259E+02  0.67830532259E+02  0.00000000000E+00 0. -1.
         21   -1    0    0  501  502 -0.00000000000E+00 -0.00000000000E+00 -0.58918041713E+03  0.58918041713E+03  0.00000000000E+00 0. -1.
         25    1    1    2    0    0  0.88694614413E+02 -0.34287519343E+02 -0.46391519625E+03  0.48978023431E+03  0.12500000000E+03 0.  0.
         25    1    1    2    0    0 -0.88694614413E+02  0.34287519343E+02 -0.57434688618E+02  0.16723071508E+03  0.12500000000E+03 0.  0.
</event>
<event>
 4    0  0.2250660E-002  0.2025389E+03  0.7546771E-02  0.1147614E+00
         21   -1    0    0  502  501  0.00000000000E+00  0.00000000000E+00  0.54058031453E+03  0.54058031453E+03  0.00000000000E+00 0. -1.
         21   -1    0    0  501  502 -0.00000000000E+00 -0.00000000000E+00 -0.75885111659E+02  0.75885111659E+02  0.00000000000E+00 0.  1.
         25    1    1    2    0    0 -0.13369275547E+03 -0.82715196206E+02  0.19262072213E+03  0.27828636176E+03  0.12500000000E+03 0.  0.
         25    1    1    2    0    0  0.13369275547E+03  0.82715196206E+02  0.27207448074E+03  0.33817906443E+03  0.12500000000E+03 0.  0.
</event>
<event>
 4    0  0.2250660E-002  0.2118721E+03  0.7546771E-02  0.1140092E+00
         21   -1    0    0  502  501  0.00000000000E+00  0.00000000000E+00  0.34733299014E+03  0.34733299014E+03  0.00000000000E+00 0. -1.
         21   -1    0    0  501  502 -0.00000000000E+00 -0.00000000000E+00 -0.12924132154E+03  0.12924132154E+03  0.00000000000E+00 0. -1.
         25    1    1    2    0    0  0.63701834450E+02 -0.12088553999E+03 -0.67112071124E+01  0.18531399783E+03  0.12500000000E+03 0.  0.
         25    1    1    2    0    0 -0.63701834450E+02  0.12088553999E+03  0.22480287572E+03  0.29126031385E+03  0.12500000000E+03 0.  0.
</event>
<event>
 4    0  0.2250660E-002  0.1968209E+03  0.7546771E-02  0.1152449E+00
         21   -1    0    0  502  501  0.00000000000E+00  0.00000000000E+00  0.74779223048E+02  0.74779223048E+02  0.00000000000E+00 0.  1.
         21   -1    0    0  501  502 -0.00000000000E+00 -0.00000000000E+00 -0.51803796110E+03  0.51803796110E+03  0.00000000000E+00 0.  1.
         25    1    1    2    0    0  0.19529748135E+02 -0.13356696829E+03 -0.11629753514E+03  0.21765032222E+03  0.12500000000E+03 0.  0.
         25    1    1    2    0    0 -0.19529748135E+02  0.13356696829E+03 -0.32696120291E+03  0.37516686193E+03  0.12500000000E+03 0.  0.
</event>
<event>
 4    0  0.2250660E-002  0.1487994E+03  0.7546771E-02  0.1201956E+00
         21   -1    0    0  502  501  0.00000000000E+00  0.00000000000E+00  0.15231802697E+03  0.15231802697E+03  0.00000000000E+00 0. -1.
         21   -1    0    0  501  502 -0.00000000000E+00 -0.00000000000E+00 -0.14536196774E+03  0.14536196774E+03  0.00000000000E+00 0. -1.
         25    1    1    2    0    0 -0.75012290610E+02  0.22835144820E+00 -0.26352125024E+02  0.14814293902E+03  0.12500000000E+03 0.  0.
         25    1    1    2    0    0  0.75012290610E+02 -0.22835144820E+00  0.33308184260E+02  0.14953705569E+03  0.12500000000E+03 0.  0.
</event>
<event>
 4    0  0.2250660E-002  0.2212908E+03  0.7546771E-02  0.1132924E+00
         21   -1    0    0  502  501  0.00000000000E+00  0.00000000000E+00  0.27231557539E+04  0.27231557539E+04  0.00000000000E+00 0. -1.
         21   -1    0    0  501  502 -0.00000000000E+00 -0.00000000000E+00 -0.17982668961E+02  0.17982668961E+02  0.00000000000E+00 0. -1.
         25    1    1    2    0    0 -0.15487422968E+03 -0.79138699704E+02  0.10079880154E+04  0.10304920184E+04  0.12500000000E+03 0.  0.
         25    1    1    2    0    0  0.15487422968E+03  0.79138699704E+02  0.16971850696E+04  0.17106464045E+04  0.12500000000E+03 0.  0.
</event>
<event>
 4    0  0.2250660E-002  0.2449116E+03  0.7546771E-02  0.1116563E+00
         21   -1    0    0  502  501  0.00000000000E+00  0.00000000000E+00  0.44497975782E+03  0.44497975782E+03  0.00000000000E+00 0.  1.
         21   -1    0    0  501  502 -0.00000000000E+00 -0.00000000000E+00 -0.13479643895E+03  0.13479643895E+03  0.00000000000E+00 0.  1.
         25    1    1    2    0    0 -0.16330534363E+03  0.13210828734E+03  0.13692930430E+03  0.28017114273E+03  0.12500000000E+03 0.  0.
         25    1    1    2    0    0  0.16330534363E+03 -0.13210828734E+03  0.17325401457E+03  0.29960505404E+03  0.12500000000E+03 0.  0.
</event>
<event>
 4    0  0.2250660E-002  0.2156020E+03  0.7546771E-02  0.1137205E+00
         21   -1    0    0  502  501  0.00000000000E+00  0.00000000000E+00  0.46514226842E+02  0.46514226842E+02  0.00000000000E+00 0.  1.
         21   -1    0    0  501  502 -0.00000000000E+00 -0.00000000000E+00 -0.99935533231E+03  0.99935533231E+03  0.00000000000E+00 0.  1.
         25    1    1    2    0    0 -0.14055382987E+03  0.35674024206E+02 -0.23592974214E+03  0.30383524865E+03  0.12500000000E+03 0.  0.
         25    1    1    2    0    0  0.14055382987E+03 -0.35674024206E+02 -0.71691136333E+03  0.74203431050E+03  0.12500000000E+03 0.  0.
</event>
<event>
 4    0  0.2250660E-002  0.1346596E+03  0.7546771E-02  0.1220701E+00
         21   -1    0    0  502  501  0.00000000000E+00  0.00000000000E+00  0.50570660178E+03  0.50570660178E+03  0.00000000000E+00 0.  1.
         21   -1    0    0  501  502 -0.00000000000E+00 -0.00000000000E+00 -0.35857178580E+02  0.35857178580E+02  0.00000000000E+00 0.  1.
         25    1    1    2    0    0 -0.19593531048E+02  0.39535403126E+02  0.18728564155E+03  0.22945122813E+03  0.12500000000E+03 0.  0.
         25    1    1    2    0    0  0.19593531048E+02 -0.39535403126E+02  0.28256378165E+03  0.31211255223E+03  0.12500000000E+03 0.  0.
</event>
<event>
 4    0  0.2250660E-002  0.2027385E+03  0.7546771E-02  0.1147449E+00
         21   -1    0    0  502  501  0.00000000000E+00  0.00000000000E+00  0.23760240192E+03  0.23760240192E+03  0.00000000000E+00 0.  1.
         21   -1    0    0  501  502 -0.00000000000E+00 -0.00000000000E+00 -0.17299024488E+03  0.17299024488E+03  0.00000000000E+00 0.  1.
         25    1    1    2    0    0 -0.15007730174E+03 -0.54260669664E+02  0.29027808592E+02  0.20478044448E+03  0.12500000000E+03 0.  0.
         25    1    1    2    0    0  0.15007730174E+03  0.54260669664E+02  0.35584348447E+02  0.20581220232E+03  0.12500000000E+03 0.  0.
</event>
<event>
 4    0  0.2250660E-002  0.1817934E+03  0.7546771E-02  0.1166079E+00
         21   -1    0    0  502  501  0.00000000000E+00  0.00000000000E+00  0.11016943536E+03  0.11016943536E+03  0.00000000000E+00 0. -1.
         21   -1    0    0  501  502 -0.00000000000E+00 -0.00000000000E+00 -0.29998187540E+03  0.29998187540E+03  0.00000000000E+00 0. -1.
         25    1    1    2    0    0  0.40338785789E+01  0.85574461217E+02  0.18376795373E+02  0.15264981886E+03  0.12500000000E+03 0.  0.
         25    1    1    2    0    0 -0.40338785789E+01 -0.85574461217E+02 -0.20818923542E+03  0.25750149190E+03  0.12500000000E+03 0.  0.
</event>
<event>
 4    0  0.2250660E-002  0.2004950E+03  0.7546771E-02  0.1149322E+00
         21   -1    0    0  502  501  0.00000000000E+00  0.00000000000E+00  0.86798133363E+02  0.86798133363E+02  0.00000000000E+00 0.  1.
         21   -1    0    0  501  502 -0.00000000000E+00 -0.00000000000E+00 -0.46312348813E+03  0.46312348813E+03  0.00000000000E+00 0.  1.
         25    1    1    2    0    0  0.13767717654E+03 -0.31712281809E+02 -0.95022044680E+02  0.21122230643E+03  0.12500000000E+03 0.  0.
         25    1    1    2    0    0 -0.13767717654E+03  0.31712281809E+02 -0.28130331009E+03  0.33869931506E+03  0.12500000000E+03 0.  0.
</event>
<event>
 4    0  0.2250660E-002  0.2782308E+03  0.7546771E-02  0.1096659E+00
         21   -1    0    0  502  501  0.00000000000E+00  0.00000000000E+00  0.35208485971E+03  0.35208485971E+03  0.00000000000E+00 0.  1.
         21   -1    0    0  501  502 -0.00000000000E+00 -0.00000000000E+00 -0.21986845602E+03  0.21986845602E+03  0.00000000000E+00 0.  1.
         25    1    1    2    0    0 -0.70940951017E+02 -0.18107973157E+03  0.22522387391E+03  0.32275885905E+03  0.12500000000E+03 0.  0.
         25    1    1    2    0    0  0.70940951017E+02  0.18107973157E+03 -0.93007470222E+02  0.24919445667E+03  0.12500000000E+03 0.  0.
</event>
<event>
 4    0  0.2250660E-002  0.2953315E+03  0.7546771E-02  0.1087598E+00
         21   -1    0    0  502  501  0.00000000000E+00  0.00000000000E+00  0.40686049996E+02  0.40686049996E+02  0.00000000000E+00 0.  1.
         21   -1    0    0  501  502 -0.00000000000E+00 -0.00000000000E+00 -0.21437500911E+04  0.21437500911E+04  0.00000000000E+00 0.  1.
         25    1    1    2    0    0 -0.23105748111E+03  0.12182063216E+03 -0.12661563449E+04  0.12988474566E+04  0.12500000000E+03 0.  0.
         25    1    1    2    0    0  0.23105748111E+03 -0.12182063216E+03 -0.83690769620E+03  0.88558868441E+03  0.12500000000E+03 0.  0.
</event>
<event>
 4    0  0.2250660E-002  0.2090313E+03  0.7546771E-02  0.1142335E+00
         21   -1    0    0  502  501  0.00000000000E+00  0.00000000000E+00  0.31256771991E+03  0.31256771991E+03  0.00000000000E+00 0.  1.
         21   -1    0    0  501  502 -0.00000000000E+00 -0.00000000000E+00 -0.13979072910E+03  0.13979072910E+03  0.00000000000E+00 0.  1.
         25    1    1    2    0    0  0.12990184731E+03  0.78321291778E+02  0.16336034922E+03  0.25557839967E+03  0.12500000000E+03 0.  0.
         25    1    1    2    0    0 -0.12990184731E+03 -0.78321291778E+02  0.94166415961E+01  0.19678004934E+03  0.12500000000E+03 0.  0.
</event>
<event>
 4    0  0.2250660E-002  0.2119489E+03  0.7546771E-02  0.1140032E+00
         21   -1    0    0  502  501  0.00000000000E+00  0.00000000000E+00  0.13909418302E+03  0.13909418302E+03  0.00000000000E+00 0.  1.
         21   -1    0    0  501  502 -0.00000000000E+00 -0.00000000000E+00 -0.32296349351E+03  0.32296349351E+03  0.00000000000E+00 0.  1.
         25    1    1    2    0    0 -0.79544196464E+02 -0.14904702280E+02 -0.25633615739E+03  0.29645008842E+03  0.12500000000E+03 0.  0.
         25    1    1    2    0    0  0.79544196464E+02  0.14904702280E+02  0.72466846898E+02  0.16560758811E+03  0.12500000000E+03 0.  0.
</event>
<event>
 4    0  0.2250660E-002  0.1755789E+03  0.7546771E-02  0.1172152E+00
         21   -1    0    0  502  501  0.00000000000E+00  0.00000000000E+00  0.28905958020E+02  0.28905958020E+02  0.00000000000E+00 0.  1.
         21   -1    0    0  501  502 -0.00000000000E+00 -0.00000000000E+00 -0.10664907244E+04  0.10664907244E+04  0.00000000000E+00 0.  1.
         25    1    1    2    0    0 -0.10455394229E+03  0.50605207748E+02 -0.38977935794E+03  0.42549425587E+03  0.12500000000E+03 0.  0.
         25    1    1    2    0    0  0.10455394229E+03 -0.50605207748E+02 -0.64780540846E+03  0.66990242657E+03  0.12500000000E+03 0.  0.
</event>
<event>
 4    0  0.2250660E-002  0.4425382E+03  0.7546771E-02  0.1029971E+00
         21   -1    0    0  502  501  0.00000000000E+00  0.00000000000E+00  0.25693283761E+03  0.25693283761E+03  0.00000000000E+00 0.  1.
         21   -1    0    0  501  502 -0.00000000000E+00 -0.00000000000E+00 -0.76222281561E+03  0.76222281561E+03  0.00000000000E+00 0. -1.
         25    1    1    2    0    0  0.11667843375E+03 -0.36503492331E+03 -0.46293194885E+03  0.61383657549E+03  0.12500000000E+03 0.  0.
         25    1    1    2    0    0 -0.11667843375E+03  0.36503492331E+03 -0.42358029144E+02  0.40531907773E+03  0.12500000000E+03 0.  0.
</event>
<event>
 4    0  0.2250660E-002  0.1621794E+03  0.7546771E-02  0.1186258E+00
         21   -1    0    0  502  501  0.00000000000E+00  0.00000000000E+00  0.20668002673E+03  0.20668002673E+03  0.00000000000E+00 0. -1.
         21   -1    0    0  501  502 -0.00000000000E+00 -0.00000000000E+00 -0.12726030249E+03  0.12726030249E+03  0.00000000000E+00 0. -1.
         25    1    1    2    0    0 -0.51293769420E+01  0.10319783431E+03  0.40769441297E+02  0.16722216019E+03  0.12500000000E+03 0.  0.
         25    1    1    2    0    0  0.51293769420E+01 -0.10319783431E+03  0.38650282947E+02  0.16671816903E+03  0.12500000000E+03 0.  0.
</event>
<event>
 4    0  0.2250660E-002  0.2218078E+03  0.7546771E-02  0.1132542E+00
         21   -1    0    0  502  501  0.00000000000E+00  0.00000000000E+00  0.39022354974E+03  0.39022354974E+03  0.00000000000E+00 0.  1.
         21   -1    0    0  501  502 -0.00000000000E+00 -0.00000000000E+00 -0.12607821555E+03  0.12607821555E+03  0.00000000000E+00 0.  1.
         25    1    1    2    0    0 -0.10012544010E+03 -0.15017499126E+03  0.16880419204E+03  0.27694311150E+03  0.12500000000E+03 0.  0.
         25    1    1    2    0    0  0.10012544010E+03  0.15017499126E+03  0.95341142155E+02  0.23935865379E+03  0.12500000000E+03 0.  0.
</event>
<event>
 4    0  0.2250660E-002  0.2938839E+03  0.7546771E-02  0.1088339E+00
         21   -1    0    0  502  501  0.00000000000E+00  0.00000000000E+00  0.86732713014E+02  0.86732713014E+02  0.00000000000E+00 0.  1.
         21   -1    0    0  501  502 -0.00000000000E+00 -0.00000000000E+00 -0.99579231461E+03  0.99579231461E+03  0.00000000000E+00 0.  1.
         25    1    1    2    0    0  0.26041443405E+03  0.52835906832E+02 -0.47596538287E+03  0.55926322622E+03  0.12500000000E+03 0.  0.
         25    1    1    2    0    0 -0.26041443405E+03 -0.52835906832E+02 -0.43309421872E+03  0.52326180140E+03  0.12500000000E+03 0.  0.
</event>
<event>
 4    0  0.2250660E-002  0.2296746E+03  0.7546771E-02  0.1126869E+00
         21   -1    0    0  502  501  0.00000000000E+00  0.00000000000E+00  0.80057835550E+02  0.80057835550E+02  0.00000000000E+00 0. -1.
         21   -1    0    0  501  502 -0.00000000000E+00 -0.00000000000E+00 -0.65890377733E+03  0.65890377733E+03  0.00000000000E+00 0. -1.
         25    1    1    2    0    0  0.63948458096E+01 -0.17957097364E+03 -0.40132732203E+03  0.45713810608E+03  0.12500000000E+03 0.  0.
         25    1    1    2    0    0 -0.63948458096E+01  0.17957097364E+03 -0.17751861975E+03  0.28182350680E+03  0.12500000000E+03 0.  0.
</event>
<event>
 4    0  0.2250660E-002  0.2550409E+03  0.7546771E-02  0.1110160E+00
         21   -1    0    0  502  501  0.00000000000E+00  0.00000000000E+00  0.62348713604E+03  0.62348713604E+03  0.00000000000E+00 0. -1.
         21   -1    0    0  501  502 -0.00000000000E+00 -0.00000000000E+00 -0.10432589302E+03  0.10432589302E+03  0.00000000000E+00 0. -1.
         25    1    1    2    0    0  0.15234010669E+03 -0.29096181490E+01  0.49055887831E+03  0.52866717987E+03  0.12500000000E+03 0.  0.
         25    1    1    2    0    0 -0.15234010669E+03  0.29096181490E+01  0.28602364704E+02  0.19914584919E+03  0.12500000000E+03 0.  0.
</event>
<event>
 4    0  0.2250660E-002  0.2290918E+03  0.7546771E-02  0.1127281E+00
         21   -1    0    0  502  501  0.00000000000E+00  0.00000000000E+00  0.11137991907E+03  0.11137991907E+03  0.00000000000E+00 0. -1.
         21   -1    0    0  501  502 -0.00000000000E+00 -0.00000000000E+00 -0.47120739924E+03  0.47120739924E+03  0.00000000000E+00 0. -1.
         25    1    1    2    0    0 -0.72752445184E+02  0.17445980247E+03 -0.13719194757E+03  0.26490709964E+03  0.12500000000E+03 0.  0.
         25    1    1    2    0    0  0.72752445184E+02 -0.17445980247E+03 -0.22263553260E+03  0.31768021867E+03  0.12500000000E+03 0.  0.
</event>
<event>
 4    0  0.2250660E-002  0.1767514E+03  0.7546771E-02  0.1170985E+00
         21   -1    0    0  502  501  0.00000000000E+00  0.00000000000E+00  0.32475870521E+03  0.32475870521E+03  0.00000000000E+00 0. -1.
         21   -1    0    0  501  502 -0.00000000000E+00 -0.00000000000E+00 -0.96197714987E+02  0.96197714987E+02  0.00000000000E+00 0. -1.
         25    1    1    2    0    0 -0.49858873410E+02  0.10507928449E+03  0.16870064573E+03  0.24002598017E+03  0.12500000000E+03 0.  0.
         25    1    1    2    0    0  0.49858873410E+02 -0.10507928449E+03  0.59860344492E+02  0.18093044003E+03  0.12500000000E+03 0.  0.
</event>
